
     Program PWSCF v.7.3.1 starts on 12Jul2026 at  3:16:12 

     This program is part of the open-source Quantum ESPRESSO suite
     for quantum simulation of materials; please cite
         "P. Giannozzi et al., J. Phys.:Condens. Matter 21 395502 (2009);
         "P. Giannozzi et al., J. Phys.:Condens. Matter 29 465901 (2017);
         "P. Giannozzi et al., J. Chem. Phys. 152 154105 (2020);
          URL http://www.quantum-espresso.org", 
     in publications or presentations arising from this work. More details at
     http://www.quantum-espresso.org/quote

     Parallel version (MPI & OpenMP), running on      14 processor cores
     Number of MPI processes:                 1
     Threads/MPI process:                    14

     MPI processes distributed on     1 nodes
     851333 MiB available memory on the printing compute node when the environment starts
 
     Reading input from pw.in

     Current dimensions of program PWSCF are:
     Max number of different atomic species (ntypx) = 10
     Max number of k-points (npk) =  40000
     Max angular momentum in pseudopotentials (lmaxx) =  4
     file Co.pbe-spn-kjpaw_psl.0.3.1.UPF: wavefunction(s)  3P 3D renormalized
     file O.pbe-n-kjpaw_psl.1.0.0.UPF: wavefunction(s)  2S 2P renormalized
     file Na.pbe-spn-kjpaw_psl.1.0.0.UPF: wavefunction(s)  2P renormalized
 
     Subspace diagonalization in iterative solution of the eigenvalue problem:
     a serial algorithm will be used

 
     G-vector sticks info
     --------------------
     sticks:   dense  smooth     PW     G-vecs:    dense   smooth      PW
     Sum         979     499    151                47419    16845    2747
 
     Using Slab Decomposition
 


     bravais-lattice index     =            4
     lattice parameter (alat)  =       5.4575  a.u.
     unit-cell volume          =     268.0923 (a.u.)^3
     number of atoms/cell      =            4
     number of atomic types    =            3
     number of electrons       =        38.00
     number of Kohn-Sham states=           27
     kinetic-energy cutoff     =      60.0000  Ry
     charge density cutoff     =     480.0000  Ry
     scf convergence threshold =      1.0E-07
     mixing beta               =       0.3000
     number of iterations used =            8  local-TF  mixing
     Exchange-correlation= SLA  PW   PBX  PBC
                           (   1   4   3   4   0   0   0)

     GPU acceleration is ACTIVE.  1 visible GPUs per MPI rank
     GPU-aware MPI enabled


     GPU used by master process:

        Device Number: 0
        Device name: NVIDIA A100-SXM4-80GB
        Compute capability : 80
        Ratio of single to double precision performance  : 2
        Memory Clock Rate (KHz): 1593000
        Memory Bus Width (bits): 5120
        Peak Memory Bandwidth (GB/s): ******

     celldm(1)=   5.457529  celldm(2)=   0.000000  celldm(3)=   1.904432
     celldm(4)=   0.000000  celldm(5)=   0.000000  celldm(6)=   0.000000

     crystal axes: (cart. coord. in units of alat)
               a(1) = (   1.000000   0.000000   0.000000 )  
               a(2) = (  -0.500000   0.866025   0.000000 )  
               a(3) = (   0.000000   0.000000   1.904432 )  

     reciprocal axes: (cart. coord. in units 2 pi/alat)
               b(1) = (  1.000000  0.577350 -0.000000 )  
               b(2) = (  0.000000  1.154701  0.000000 )  
               b(3) = (  0.000000 -0.000000  0.525091 )  


     PseudoPot. # 1 for Co read from file:
     ../../pseudo/Co.pbe-spn-kjpaw_psl.0.3.1.UPF
     MD5 check sum: 3c0a43779828c046024e4f3be63f8e67
     Pseudo is Projector augmented-wave + core cor, Zval = 17.0
     Generated using &quot;atomic&quot; code by A. Dal Corso  v.6.2.2
     Shape of augmentation charge: PSQ
     Using radial grid of 1193 points,  6 beta functions with: 
                l(1) =   0
                l(2) =   0
                l(3) =   1
                l(4) =   1
                l(5) =   2
                l(6) =   2
     Q(r) pseudized with 0 coefficients 


     PseudoPot. # 2 for O  read from file:
     ../../pseudo/O.pbe-n-kjpaw_psl.1.0.0.UPF
     MD5 check sum: e99d9cef9b487d1ca56f5b95ecd0fd7a
     Pseudo is Projector augmented-wave + core cor, Zval =  6.0
     Generated using &quot;atomic&quot; code by A. Dal Corso  v.6.3
     Shape of augmentation charge: PSQ
     Using radial grid of 1095 points,  4 beta functions with: 
                l(1) =   0
                l(2) =   0
                l(3) =   1
                l(4) =   1
     Q(r) pseudized with 0 coefficients 


     PseudoPot. # 3 for Na read from file:
     ../../pseudo/Na.pbe-spn-kjpaw_psl.1.0.0.UPF
     MD5 check sum: 05b4deb74e3932c23ab016979dc8b5d4
     Pseudo is Projector augmented-wave + core cor, Zval =  9.0
     Generated using &quot;atomic&quot; code by A. Dal Corso  v.6.3
     Shape of augmentation charge: PSQ
     Using radial grid of 1121 points,  4 beta functions with: 
                l(1) =   0
                l(2) =   0
                l(3) =   1
                l(4) =   1
     Q(r) pseudized with 0 coefficients 


     atomic species   valence    mass     pseudopotential
     Co               17.00    58.93300     Co( 1.00)
     O                 6.00    15.99900     O ( 1.00)
     Na                9.00    22.98977     Na( 1.00)

     Starting magnetic structure 
     atomic species   magnetization
     Co              0.300
     O               0.000
     Na              0.000

      6 Sym. Ops. (no inversion) found


                                    s                        frac. trans.

      isym =  1     identity                                     

 cryst.   s( 1) = (     1          0          0      )
                  (     0          1          0      )
                  (     0          0          1      )

 cart.    s( 1) = (  1.0000000  0.0000000  0.0000000 )
                  (  0.0000000  1.0000000  0.0000000 )
                  (  0.0000000  0.0000000  1.0000000 )


      isym =  2     120 deg rotation - cryst. axis [0,0,1]       

 cryst.   s( 2) = (     0          1          0      )
                  (    -1         -1          0      )
                  (     0          0          1      )

 cart.    s( 2) = ( -0.5000000 -0.8660254  0.0000000 )
                  (  0.8660254 -0.5000000  0.0000000 )
                  (  0.0000000  0.0000000  1.0000000 )


      isym =  3     120 deg rotation - cryst. axis [0,0,-1]      

 cryst.   s( 3) = (    -1         -1          0      )
                  (     1          0          0      )
                  (     0          0          1      )

 cart.    s( 3) = ( -0.5000000  0.8660254  0.0000000 )
                  ( -0.8660254 -0.5000000  0.0000000 )
                  (  0.0000000  0.0000000  1.0000000 )


      isym =  4     inv. 180 deg rotation - cart. axis [1,0,0]   

 cryst.   s( 4) = (    -1          0          0      )
                  (     1          1          0      )
                  (     0          0          1      )

 cart.    s( 4) = ( -1.0000000  0.0000000  0.0000000 )
                  (  0.0000000  1.0000000  0.0000000 )
                  (  0.0000000  0.0000000  1.0000000 )


      isym =  5     inv. 180 deg rotation - cryst. axis [0,1,0]  

 cryst.   s( 5) = (     1          1          0      )
                  (     0         -1          0      )
                  (     0          0          1      )

 cart.    s( 5) = (  0.5000000  0.8660254  0.0000000 )
                  (  0.8660254 -0.5000000  0.0000000 )
                  (  0.0000000  0.0000000  1.0000000 )


      isym =  6     inv. 180 deg rotation - cryst. axis [1,1,0]  

 cryst.   s( 6) = (     0         -1          0      )
                  (    -1          0          0      )
                  (     0          0          1      )

 cart.    s( 6) = (  0.5000000 -0.8660254  0.0000000 )
                  ( -0.8660254 -0.5000000  0.0000000 )
                  (  0.0000000  0.0000000  1.0000000 )


     point group C_3v (3m)  
     there are  3 classes
     the character table:

       E     2C3   3s_v 
A_1    1.00  1.00  1.00
A_2    1.00  1.00 -1.00
E      2.00 -1.00  0.00

     the symmetry operations in each class and the name of the first element:

     E        1
          identity                                               
     2C3      2    3
          120 deg rotation - cryst. axis [0,0,1]                 
     3s_v     4    5    6
          inv. 180 deg rotation - cart. axis [1,0,0]             

   Cartesian axes

     site n.     atom                  positions (alat units)
         1        Co     tau(   1) = (   0.0000000   0.0000000   0.0000000  )
         2        O      tau(   2) = (  -0.0000000   0.5773503   0.3324100  )
         3        O      tau(   3) = (   0.5000000   0.2886751   1.5720222  )
         4        Na     tau(   4) = (   0.0000000   0.0000000   1.2984765  )

   Crystallographic axes

     site n.     atom                  positions (cryst. coord.)
         1        Co     tau(   1) = (  0.0000000  0.0000000  0.0000000  )
         2        O      tau(   2) = (  0.3333333  0.6666667  0.1745455  )
         3        O      tau(   3) = (  0.6666667  0.3333333  0.8254545  )
         4        Na     tau(   4) = (  0.0000000  0.0000000  0.6818182  )

     number of k points=    25  Marzari-Vanderbilt smearing, width (Ry)=  0.0200
                       cart. coord. in units 2pi/alat
        k(    1) = (   0.0000000   0.0000000   0.0000000), wk =   0.0052083
        k(    2) = (   0.0000000   0.0000000   0.1750303), wk =   0.0104167
        k(    3) = (   0.0000000   0.1443376   0.0000000), wk =   0.0312500
        k(    4) = (   0.0000000   0.1443376   0.1750303), wk =   0.0312500
        k(    5) = (   0.0000000   0.2886751   0.0000000), wk =   0.0312500
        k(    6) = (   0.0000000   0.2886751   0.1750303), wk =   0.0312500
        k(    7) = (   0.0000000   0.4330127   0.0000000), wk =   0.0312500
        k(    8) = (   0.0000000   0.4330127   0.1750303), wk =   0.0312500
        k(    9) = (   0.0000000  -0.5773503   0.0000000), wk =   0.0156250
        k(   10) = (   0.0000000  -0.5773503   0.1750303), wk =   0.0312500
        k(   11) = (   0.1250000   0.2165064   0.0000000), wk =   0.0312500
        k(   12) = (   0.1250000   0.2165064   0.1750303), wk =   0.0625000
        k(   13) = (   0.1250000   0.3608439   0.0000000), wk =   0.0625000
        k(   14) = (   0.1250000   0.3608439   0.1750303), wk =   0.0625000
        k(   15) = (   0.1250000   0.5051815   0.0000000), wk =   0.0625000
        k(   16) = (   0.1250000   0.5051815   0.1750303), wk =   0.0625000
        k(   17) = (   0.2500000   0.4330127   0.0000000), wk =   0.0312500
        k(   18) = (   0.2500000   0.4330127   0.1750303), wk =   0.0625000
        k(   19) = (   0.2500000   0.5773503   0.0000000), wk =   0.0312500
        k(   20) = (   0.2500000   0.5773503   0.1750303), wk =   0.0625000
        k(   21) = (   0.0000000  -0.1443376   0.1750303), wk =   0.0312500
        k(   22) = (   0.0000000  -0.2886751   0.1750303), wk =   0.0312500
        k(   23) = (   0.0000000  -0.4330127   0.1750303), wk =   0.0312500
        k(   24) = (  -0.1250000  -0.3608439   0.1750303), wk =   0.0625000
        k(   25) = (  -0.1250000  -0.5051815   0.1750303), wk =   0.0625000

                       cryst. coord.
        k(    1) = (   0.0000000   0.0000000   0.0000000), wk =   0.0052083
        k(    2) = (   0.0000000   0.0000000   0.3333333), wk =   0.0104167
        k(    3) = (   0.0000000   0.1250000   0.0000000), wk =   0.0312500
        k(    4) = (   0.0000000   0.1250000   0.3333333), wk =   0.0312500
        k(    5) = (   0.0000000   0.2500000   0.0000000), wk =   0.0312500
        k(    6) = (   0.0000000   0.2500000   0.3333333), wk =   0.0312500
        k(    7) = (   0.0000000   0.3750000   0.0000000), wk =   0.0312500
        k(    8) = (   0.0000000   0.3750000   0.3333333), wk =   0.0312500
        k(    9) = (   0.0000000  -0.5000000   0.0000000), wk =   0.0156250
        k(   10) = (   0.0000000  -0.5000000   0.3333333), wk =   0.0312500
        k(   11) = (   0.1250000   0.1250000   0.0000000), wk =   0.0312500
        k(   12) = (   0.1250000   0.1250000   0.3333333), wk =   0.0625000
        k(   13) = (   0.1250000   0.2500000   0.0000000), wk =   0.0625000
        k(   14) = (   0.1250000   0.2500000   0.3333333), wk =   0.0625000
        k(   15) = (   0.1250000   0.3750000   0.0000000), wk =   0.0625000
        k(   16) = (   0.1250000   0.3750000   0.3333333), wk =   0.0625000
        k(   17) = (   0.2500000   0.2500000   0.0000000), wk =   0.0312500
        k(   18) = (   0.2500000   0.2500000   0.3333333), wk =   0.0625000
        k(   19) = (   0.2500000   0.3750000   0.0000000), wk =   0.0312500
        k(   20) = (   0.2500000   0.3750000   0.3333333), wk =   0.0625000
        k(   21) = (   0.0000000  -0.1250000   0.3333333), wk =   0.0312500
        k(   22) = (   0.0000000  -0.2500000   0.3333333), wk =   0.0312500
        k(   23) = (   0.0000000  -0.3750000   0.3333333), wk =   0.0312500
        k(   24) = (  -0.1250000  -0.2500000   0.3333333), wk =   0.0625000
        k(   25) = (  -0.1250000  -0.3750000   0.3333333), wk =   0.0625000

     Dense  grid:    47419 G-vectors     FFT dimensions: (  40,  40,  75)

     Smooth grid:    16845 G-vectors     FFT dimensions: (  27,  27,  54)

     Dynamical RAM for                 wfc:       0.87 MB

     Dynamical RAM for     wfc (w. buffer):      44.21 MB

     Dynamical RAM for           str. fact:       2.17 MB

     Dynamical RAM for           local pot:       0.00 MB

     Dynamical RAM for          nlocal pot:       1.35 MB

     Dynamical RAM for                qrad:       5.27 MB

     Dynamical RAM for          rho,v,vnew:       9.83 MB

     Dynamical RAM for               rhoin:       3.28 MB

     Dynamical RAM for            rho*nmix:      23.15 MB

     Dynamical RAM for           G-vectors:       2.84 MB

     Dynamical RAM for          h,s,v(r/c):       0.13 MB

     Dynamical RAM for          <psi|beta>:       0.02 MB

     Dynamical RAM for                 psi:       1.73 MB

     Dynamical RAM for                hpsi:       1.73 MB

     Dynamical RAM for                spsi:       1.73 MB

     Dynamical RAM for      wfcinit/wfcrot:       1.75 MB

     Dynamical RAM for           addusdens:     136.75 MB

     Dynamical RAM for          addusforce:     138.21 MB

     Estimated static dynamical RAM per process >      77.34 MB

     Estimated max dynamical RAM per process >     238.71 MB

     Check: negative core charge=   -0.000009
     Generating pointlists ...
     new r_m :   0.2500 (alat units)  1.3641 (a.u.) for type    1
     new r_m :   0.2635 (alat units)  1.4383 (a.u.) for type    2
     new r_m :   0.2500 (alat units)  1.3641 (a.u.) for type    3

     Initial potential from superposition of free atoms

     starting charge      37.9934, renormalised to      38.0000
     Starting wfcs are   23 randomized atomic wfcs +    4 random wfcs
     Checking if some PAW data can be deallocated... 

     total cpu time spent up to now is        3.0 secs

     Self-consistent Calculation
[tb_dev] Currently allocated     6.54E-01 Mbytes, locked:    0 /   6
[tb_pin] Currently allocated     0.00E+00 Mbytes, locked:    0 /   0

     iteration #  1     ecut=    60.00 Ry     beta= 0.30
     Davidson diagonalization with overlap

---- Real-time Memory Report at c_bands before calling an iterative solver
           648 MiB given to the printing process from OS
             0 MiB allocation reported by mallinfo(arena+hblkhd)
        849927 MiB available memory on the node where the printing process lives
     GPU memory used/free/total (MiB): 924 / 80226 / 81151
------------------
     ethr =  1.00E-02,  avg # of iterations = 11.0

     total cpu time spent up to now is        5.2 secs

     total energy              =    -568.78020048 Ry
     estimated scf accuracy    <       1.43539046 Ry

     total magnetization       =     4.00 Bohr mag/cell
     absolute magnetization    =     4.00 Bohr mag/cell
[tb_dev] Currently allocated     3.05E-05 Mbytes, locked:    0 /   2
[tb_pin] Currently allocated     0.00E+00 Mbytes, locked:    0 /   0

     iteration #  2     ecut=    60.00 Ry     beta= 0.30
     Davidson diagonalization with overlap

---- Real-time Memory Report at c_bands before calling an iterative solver
           691 MiB given to the printing process from OS
             0 MiB allocation reported by mallinfo(arena+hblkhd)
        849429 MiB available memory on the node where the printing process lives
     GPU memory used/free/total (MiB): 936 / 80214 / 81151
------------------
     ethr =  3.78E-03,  avg # of iterations =  1.8

     total cpu time spent up to now is        6.4 secs

     total energy              =    -568.80322602 Ry
     estimated scf accuracy    <       0.44884030 Ry

     total magnetization       =     3.62 Bohr mag/cell
     absolute magnetization    =     3.62 Bohr mag/cell
[tb_dev] Currently allocated     3.05E-05 Mbytes, locked:    0 /   2
[tb_pin] Currently allocated     0.00E+00 Mbytes, locked:    0 /   0

     iteration #  3     ecut=    60.00 Ry     beta= 0.30
     Davidson diagonalization with overlap

---- Real-time Memory Report at c_bands before calling an iterative solver
           692 MiB given to the printing process from OS
             0 MiB allocation reported by mallinfo(arena+hblkhd)
        849420 MiB available memory on the node where the printing process lives
     GPU memory used/free/total (MiB): 936 / 80214 / 81151
------------------
     ethr =  1.18E-03,  avg # of iterations =  2.5

     total cpu time spent up to now is        7.6 secs

     total energy              =    -568.90549418 Ry
     estimated scf accuracy    <       0.60315549 Ry

     total magnetization       =     1.72 Bohr mag/cell
     absolute magnetization    =     1.93 Bohr mag/cell
[tb_dev] Currently allocated     3.05E-05 Mbytes, locked:    0 /   2
[tb_pin] Currently allocated     0.00E+00 Mbytes, locked:    0 /   0

     iteration #  4     ecut=    60.00 Ry     beta= 0.30
     Davidson diagonalization with overlap

---- Real-time Memory Report at c_bands before calling an iterative solver
           692 MiB given to the printing process from OS
             0 MiB allocation reported by mallinfo(arena+hblkhd)
        849359 MiB available memory on the node where the printing process lives
     GPU memory used/free/total (MiB): 936 / 80214 / 81151
------------------
     ethr =  1.18E-03,  avg # of iterations =  1.3

     total cpu time spent up to now is        8.6 secs

     total energy              =    -568.97001764 Ry
     estimated scf accuracy    <       1.13160068 Ry

     total magnetization       =     1.36 Bohr mag/cell
     absolute magnetization    =     1.66 Bohr mag/cell
[tb_dev] Currently allocated     3.05E-05 Mbytes, locked:    0 /   2
[tb_pin] Currently allocated     0.00E+00 Mbytes, locked:    0 /   0

     iteration #  5     ecut=    60.00 Ry     beta= 0.30
     Davidson diagonalization with overlap

---- Real-time Memory Report at c_bands before calling an iterative solver
           694 MiB given to the printing process from OS
             0 MiB allocation reported by mallinfo(arena+hblkhd)
        849359 MiB available memory on the node where the printing process lives
     GPU memory used/free/total (MiB): 936 / 80214 / 81151
------------------
     ethr =  1.18E-03,  avg # of iterations =  1.4

     total cpu time spent up to now is        9.7 secs

     total energy              =    -568.99171871 Ry
     estimated scf accuracy    <       1.09754423 Ry

     total magnetization       =     0.44 Bohr mag/cell
     absolute magnetization    =     1.05 Bohr mag/cell
[tb_dev] Currently allocated     3.05E-05 Mbytes, locked:    0 /   2
[tb_pin] Currently allocated     0.00E+00 Mbytes, locked:    0 /   0

     iteration #  6     ecut=    60.00 Ry     beta= 0.30
     Davidson diagonalization with overlap

---- Real-time Memory Report at c_bands before calling an iterative solver
           697 MiB given to the printing process from OS
             0 MiB allocation reported by mallinfo(arena+hblkhd)
        849354 MiB available memory on the node where the printing process lives
     GPU memory used/free/total (MiB): 936 / 80214 / 81151
------------------
     ethr =  1.18E-03,  avg # of iterations =  1.0

     total cpu time spent up to now is       10.8 secs

     total energy              =    -568.94239555 Ry
     estimated scf accuracy    <       0.91536313 Ry

     total magnetization       =     0.40 Bohr mag/cell
     absolute magnetization    =     1.02 Bohr mag/cell
[tb_dev] Currently allocated     3.05E-05 Mbytes, locked:    0 /   2
[tb_pin] Currently allocated     0.00E+00 Mbytes, locked:    0 /   0

     iteration #  7     ecut=    60.00 Ry     beta= 0.30
     Davidson diagonalization with overlap

---- Real-time Memory Report at c_bands before calling an iterative solver
           699 MiB given to the printing process from OS
             0 MiB allocation reported by mallinfo(arena+hblkhd)
        849282 MiB available memory on the node where the printing process lives
     GPU memory used/free/total (MiB): 936 / 80214 / 81151
------------------
     ethr =  1.18E-03,  avg # of iterations =  1.3

     total cpu time spent up to now is       11.8 secs

     total energy              =    -568.98338558 Ry
     estimated scf accuracy    <       0.18649491 Ry

     total magnetization       =     0.07 Bohr mag/cell
     absolute magnetization    =     0.61 Bohr mag/cell
[tb_dev] Currently allocated     3.05E-05 Mbytes, locked:    0 /   2
[tb_pin] Currently allocated     0.00E+00 Mbytes, locked:    0 /   0

     iteration #  8     ecut=    60.00 Ry     beta= 0.30
     Davidson diagonalization with overlap

---- Real-time Memory Report at c_bands before calling an iterative solver
           700 MiB given to the printing process from OS
             0 MiB allocation reported by mallinfo(arena+hblkhd)
        849252 MiB available memory on the node where the printing process lives
     GPU memory used/free/total (MiB): 936 / 80214 / 81151
------------------
     ethr =  4.91E-04,  avg # of iterations =  1.8

     total cpu time spent up to now is       13.0 secs

     total energy              =    -568.98125810 Ry
     estimated scf accuracy    <       0.15266035 Ry

     total magnetization       =     0.03 Bohr mag/cell
     absolute magnetization    =     0.54 Bohr mag/cell
[tb_dev] Currently allocated     3.05E-05 Mbytes, locked:    0 /   2
[tb_pin] Currently allocated     0.00E+00 Mbytes, locked:    0 /   0

     iteration #  9     ecut=    60.00 Ry     beta= 0.30
     Davidson diagonalization with overlap

---- Real-time Memory Report at c_bands before calling an iterative solver
           701 MiB given to the printing process from OS
             0 MiB allocation reported by mallinfo(arena+hblkhd)
        849225 MiB available memory on the node where the printing process lives
     GPU memory used/free/total (MiB): 936 / 80214 / 81151
------------------
     ethr =  4.02E-04,  avg # of iterations =  1.6
     Minimization algorithm failed to find Fermi energy: reverting to bisection
     Possible cause: smearing is larger than the electronic band-gap.

     total cpu time spent up to now is       14.1 secs

     total energy              =    -568.99140270 Ry
     estimated scf accuracy    <       0.01567025 Ry

     total magnetization       =     0.03 Bohr mag/cell
     absolute magnetization    =     0.28 Bohr mag/cell
[tb_dev] Currently allocated     3.05E-05 Mbytes, locked:    0 /   2
[tb_pin] Currently allocated     0.00E+00 Mbytes, locked:    0 /   0

     iteration # 10     ecut=    60.00 Ry     beta= 0.30
     Davidson diagonalization with overlap

---- Real-time Memory Report at c_bands before calling an iterative solver
           702 MiB given to the printing process from OS
             0 MiB allocation reported by mallinfo(arena+hblkhd)
        849210 MiB available memory on the node where the printing process lives
     GPU memory used/free/total (MiB): 936 / 80214 / 81151
------------------
     c_bands:  1 eigenvalues not converged
     c_bands:  1 eigenvalues not converged
     ethr =  4.12E-05,  avg # of iterations =  6.0

     total cpu time spent up to now is       15.7 secs

     total energy              =    -568.99262063 Ry
     estimated scf accuracy    <       0.00232053 Ry

     total magnetization       =     0.00 Bohr mag/cell
     absolute magnetization    =     0.14 Bohr mag/cell
[tb_dev] Currently allocated     3.05E-05 Mbytes, locked:    0 /   2
[tb_pin] Currently allocated     0.00E+00 Mbytes, locked:    0 /   0

     iteration # 11     ecut=    60.00 Ry     beta= 0.30
     Davidson diagonalization with overlap

---- Real-time Memory Report at c_bands before calling an iterative solver
           702 MiB given to the printing process from OS
             0 MiB allocation reported by mallinfo(arena+hblkhd)
        849199 MiB available memory on the node where the printing process lives
     GPU memory used/free/total (MiB): 936 / 80214 / 81151
------------------
     c_bands:  1 eigenvalues not converged
     ethr =  6.11E-06,  avg # of iterations =  6.8

     total cpu time spent up to now is       17.4 secs

     total energy              =    -568.99449045 Ry
     estimated scf accuracy    <       0.00114522 Ry

     total magnetization       =     0.00 Bohr mag/cell
     absolute magnetization    =     0.09 Bohr mag/cell
[tb_dev] Currently allocated     3.05E-05 Mbytes, locked:    0 /   2
[tb_pin] Currently allocated     0.00E+00 Mbytes, locked:    0 /   0

     iteration # 12     ecut=    60.00 Ry     beta= 0.30
     Davidson diagonalization with overlap

---- Real-time Memory Report at c_bands before calling an iterative solver
           702 MiB given to the printing process from OS
             0 MiB allocation reported by mallinfo(arena+hblkhd)
        849215 MiB available memory on the node where the printing process lives
     GPU memory used/free/total (MiB): 936 / 80214 / 81151
------------------
     ethr =  3.01E-06,  avg # of iterations =  2.3

     total cpu time spent up to now is       18.6 secs

     total energy              =    -568.99448847 Ry
     estimated scf accuracy    <       0.00184806 Ry

     total magnetization       =     0.00 Bohr mag/cell
     absolute magnetization    =     0.07 Bohr mag/cell
[tb_dev] Currently allocated     3.05E-05 Mbytes, locked:    0 /   2
[tb_pin] Currently allocated     0.00E+00 Mbytes, locked:    0 /   0

     iteration # 13     ecut=    60.00 Ry     beta= 0.30
     Davidson diagonalization with overlap

---- Real-time Memory Report at c_bands before calling an iterative solver
           702 MiB given to the printing process from OS
             0 MiB allocation reported by mallinfo(arena+hblkhd)
        849231 MiB available memory on the node where the printing process lives
     GPU memory used/free/total (MiB): 936 / 80214 / 81151
------------------
     ethr =  3.01E-06,  avg # of iterations =  1.9

     total cpu time spent up to now is       19.7 secs

     total energy              =    -568.99489958 Ry
     estimated scf accuracy    <       0.00009850 Ry

     total magnetization       =     0.00 Bohr mag/cell
     absolute magnetization    =     0.02 Bohr mag/cell
[tb_dev] Currently allocated     3.05E-05 Mbytes, locked:    0 /   2
[tb_pin] Currently allocated     0.00E+00 Mbytes, locked:    0 /   0

     iteration # 14     ecut=    60.00 Ry     beta= 0.30
     Davidson diagonalization with overlap

---- Real-time Memory Report at c_bands before calling an iterative solver
           702 MiB given to the printing process from OS
             0 MiB allocation reported by mallinfo(arena+hblkhd)
        849235 MiB available memory on the node where the printing process lives
     GPU memory used/free/total (MiB): 936 / 80214 / 81151
------------------
     ethr =  2.59E-07,  avg # of iterations =  6.1

     total cpu time spent up to now is       21.3 secs

     total energy              =    -568.99505220 Ry
     estimated scf accuracy    <       0.00002415 Ry

     total magnetization       =     0.00 Bohr mag/cell
     absolute magnetization    =     0.02 Bohr mag/cell
[tb_dev] Currently allocated     3.05E-05 Mbytes, locked:    0 /   2
[tb_pin] Currently allocated     0.00E+00 Mbytes, locked:    0 /   0

     iteration # 15     ecut=    60.00 Ry     beta= 0.30
     Davidson diagonalization with overlap

---- Real-time Memory Report at c_bands before calling an iterative solver
           702 MiB given to the printing process from OS
             0 MiB allocation reported by mallinfo(arena+hblkhd)
        849262 MiB available memory on the node where the printing process lives
     GPU memory used/free/total (MiB): 936 / 80214 / 81151
------------------
     ethr =  6.36E-08,  avg # of iterations =  5.6

     total cpu time spent up to now is       22.9 secs

     total energy              =    -568.99512154 Ry
     estimated scf accuracy    <       0.00000441 Ry

     total magnetization       =     0.00 Bohr mag/cell
     absolute magnetization    =     0.01 Bohr mag/cell
[tb_dev] Currently allocated     3.05E-05 Mbytes, locked:    0 /   2
[tb_pin] Currently allocated     0.00E+00 Mbytes, locked:    0 /   0

     iteration # 16     ecut=    60.00 Ry     beta= 0.30
     Davidson diagonalization with overlap

---- Real-time Memory Report at c_bands before calling an iterative solver
           702 MiB given to the printing process from OS
             0 MiB allocation reported by mallinfo(arena+hblkhd)
        849284 MiB available memory on the node where the printing process lives
     GPU memory used/free/total (MiB): 936 / 80214 / 81151
------------------
     ethr =  1.16E-08,  avg # of iterations =  4.9

     total cpu time spent up to now is       24.4 secs

     total energy              =    -568.99512361 Ry
     estimated scf accuracy    <       0.00000178 Ry

     total magnetization       =     0.00 Bohr mag/cell
     absolute magnetization    =     0.01 Bohr mag/cell
[tb_dev] Currently allocated     3.05E-05 Mbytes, locked:    0 /   2
[tb_pin] Currently allocated     0.00E+00 Mbytes, locked:    0 /   0

     iteration # 17     ecut=    60.00 Ry     beta= 0.30
     Davidson diagonalization with overlap

---- Real-time Memory Report at c_bands before calling an iterative solver
           702 MiB given to the printing process from OS
             0 MiB allocation reported by mallinfo(arena+hblkhd)
        849300 MiB available memory on the node where the printing process lives
     GPU memory used/free/total (MiB): 936 / 80214 / 81151
------------------
     ethr =  4.69E-09,  avg # of iterations =  2.5

     total cpu time spent up to now is       25.6 secs

     total energy              =    -568.99511869 Ry
     estimated scf accuracy    <       0.00000100 Ry

     total magnetization       =     0.00 Bohr mag/cell
     absolute magnetization    =     0.00 Bohr mag/cell
[tb_dev] Currently allocated     3.05E-05 Mbytes, locked:    0 /   2
[tb_pin] Currently allocated     0.00E+00 Mbytes, locked:    0 /   0

     iteration # 18     ecut=    60.00 Ry     beta= 0.30
     Davidson diagonalization with overlap

---- Real-time Memory Report at c_bands before calling an iterative solver
           702 MiB given to the printing process from OS
             0 MiB allocation reported by mallinfo(arena+hblkhd)
        849324 MiB available memory on the node where the printing process lives
     GPU memory used/free/total (MiB): 936 / 80214 / 81151
------------------
     ethr =  2.63E-09,  avg # of iterations =  3.2

     total cpu time spent up to now is       27.0 secs

     total energy              =    -568.99513045 Ry
     estimated scf accuracy    <       0.00000014 Ry

     total magnetization       =    -0.00 Bohr mag/cell
     absolute magnetization    =     0.00 Bohr mag/cell
[tb_dev] Currently allocated     3.05E-05 Mbytes, locked:    0 /   2
[tb_pin] Currently allocated     0.00E+00 Mbytes, locked:    0 /   0

     iteration # 19     ecut=    60.00 Ry     beta= 0.30
     Davidson diagonalization with overlap

---- Real-time Memory Report at c_bands before calling an iterative solver
           702 MiB given to the printing process from OS
             0 MiB allocation reported by mallinfo(arena+hblkhd)
        849776 MiB available memory on the node where the printing process lives
     GPU memory used/free/total (MiB): 936 / 80214 / 81151
------------------
     ethr =  3.74E-10,  avg # of iterations =  6.0
 
     Magnetic moment per site  (integrated on atomic sphere of radius R)
     atom   1 (R=0.250)  charge= 13.6961  magn=  0.0003
     atom   2 (R=0.264)  charge=  5.0331  magn= -0.0004
     atom   3 (R=0.264)  charge=  5.2744  magn=  0.0000
     atom   4 (R=0.250)  charge=  7.5886  magn= -0.0000

     total cpu time spent up to now is       28.6 secs

     End of self-consistent calculation

 ------ SPIN UP ------------


          k = 0.0000 0.0000 0.0000 (  2113 PWs)   bands (ev):

   -85.2077 -48.5344 -48.5344 -48.4870 -42.2520 -14.8590 -14.0185 -14.0185
   -10.0783  -8.0817   3.3899   4.1451   4.1451   7.2820   7.5313   7.5313
     8.5547   8.5547   9.8768  12.0195  12.0195  12.8986  18.7974  19.7864
    25.3231  26.7413  26.7413

     occupation numbers 
     1.0000   1.0000   1.0000   1.0000   1.0000   1.0000   1.0000   1.0000
     1.0000   1.0000   1.0000   1.0000   1.0000   1.0000   1.0000   1.0000
     1.0000   1.0000   1.0034   0.0000   0.0000   0.0000   0.0000   0.0000
     0.0000   0.0000   0.0000

          k = 0.0000 0.0000 0.1750 (  2114 PWs)   bands (ev):

   -85.2077 -48.5345 -48.5345 -48.4870 -42.2519 -14.8629 -14.0187 -14.0187
   -10.0420  -8.1301   3.6797   4.1491   4.1491   6.6977   7.5199   7.5199
     8.5558   8.5558   9.9142  12.0297  12.0297  13.7441  17.7088  19.9254
    25.2523  26.5511  26.5511

     occupation numbers 
     1.0000   1.0000   1.0000   1.0000   1.0000   1.0000   1.0000   1.0000
     1.0000   1.0000   1.0000   1.0000   1.0000   1.0000   1.0000   1.0000
     1.0000   1.0000   1.0057   0.0000   0.0000   0.0000   0.0000   0.0000
     0.0000   0.0000   0.0000

          k = 0.0000 0.1443 0.0000 (  2123 PWs)   bands (ev):

   -85.2070 -48.5433 -48.5366 -48.4856 -42.2449 -14.8431 -14.1346 -14.0350
    -9.8825  -8.0582   3.5856   3.9716   4.2414   6.5930   7.1173   7.5904
     8.8171   8.9353   9.8513  11.6466  11.9276  13.4147  19.3697  20.1602
    24.9519  26.1155  27.1250

     occupation numbers 
     1.0000   1.0000   1.0000   1.0000   1.0000   1.0000   1.0000   1.0000
     1.0000   1.0000   1.0000   1.0000   1.0000   1.0000   1.0000   1.0000
     1.0000   1.0000   1.0023   0.0000   0.0000   0.0000   0.0000   0.0000
     0.0000   0.0000   0.0000

          k = 0.0000 0.1443 0.1750 (  2102 PWs)   bands (ev):

   -85.2069 -48.5432 -48.5365 -48.4853 -42.2447 -14.8465 -14.1345 -14.0348
    -9.8519  -8.0976   3.7773   3.9756   4.2448   6.5994   7.1118   7.1942
     8.8069   8.9352   9.9123  11.5277  11.9292  14.1867  18.2395  20.5580
    24.2290  26.3269  26.9229

     occupation numbers 
     1.0000   1.0000   1.0000   1.0000   1.0000   1.0000   1.0000   1.0000
     1.0000   1.0000   1.0000   1.0000   1.0000   1.0000   1.0000   1.0000
     1.0000   1.0000   1.0056   0.0000   0.0000   0.0000   0.0000   0.0000
     0.0000   0.0000   0.0000

          k = 0.0000 0.2887 0.0000 (  2112 PWs)   bands (ev):

   -85.2050 -48.5645 -48.5417 -48.4816 -42.2276 -14.8167 -14.3761 -14.0740
    -9.4084  -8.0152   3.6606   3.9944   4.4626   5.4656   6.6059   7.6589
     9.0148   9.2837   9.7389  11.2117  11.8166  14.5424  20.1170  20.9929
    23.8219  24.6816  26.0286

     occupation numbers 
     1.0000   1.0000   1.0000   1.0000   1.0000   1.0000   1.0000   1.0000
     1.0000   1.0000   1.0000   1.0000   1.0000   1.0000   1.0000   1.0000
     1.0000   1.0000   1.0003   0.0002   0.0000   0.0000   0.0000   0.0000
     0.0000   0.0000   0.0000

          k = 0.0000 0.2887 0.1750 (  2100 PWs)   bands (ev):

   -85.2050 -48.5645 -48.5416 -48.4816 -42.2274 -14.8187 -14.3764 -14.0738
    -9.3904  -8.0358   3.5486   4.1082   4.4647   5.6106   6.6056   7.5537
     8.9876   9.2850   9.8028  10.9486  11.8071  15.0533  19.3300  21.4176
    22.8661  24.4992  27.3697

     occupation numbers 
     1.0000   1.0000   1.0000   1.0000   1.0000   1.0000   1.0000   1.0000
     1.0000   1.0000   1.0000   1.0000   1.0000   1.0000   1.0000   1.0000
     1.0000   1.0000   1.0010   0.0182   0.0000   0.0000   0.0000   0.0000
     0.0000   0.0000   0.0000

          k = 0.0000 0.4330 0.0000 (  2098 PWs)   bands (ev):

   -85.2031 -48.5858 -48.5467 -48.4777 -42.2102 -14.8393 -14.5405 -14.1125
    -8.9168  -7.9902   3.1478   4.1425   4.6368   5.4533   6.3870   7.1391
     9.0572   9.2373   9.5465  11.3467  11.8741  15.8904  19.4983  21.5421
    22.1733  24.2791  25.8921

     occupation numbers 
     1.0000   1.0000   1.0000   1.0000   1.0000   1.0000   1.0000   1.0000
     1.0000   1.0000   1.0000   1.0000   1.0000   1.0000   1.0000   1.0000
     1.0000   1.0000   1.0000   0.0000   0.0000   0.0000   0.0000   0.0000
     0.0000   0.0000   0.0000

          k = 0.0000 0.4330 0.1750 (  2109 PWs)   bands (ev):

   -85.2031 -48.5858 -48.5467 -48.4778 -42.2102 -14.8402 -14.5419 -14.1125
    -8.9102  -7.9961   3.1180   4.0660   4.6373   5.5852   6.3902   7.2499
     9.0351   9.2386   9.5528  11.1948  11.8596  16.1002  19.3498  20.6837
    22.5069  24.2527  26.4269

     occupation numbers 
     1.0000   1.0000   1.0000   1.0000   1.0000   1.0000   1.0000   1.0000
     1.0000   1.0000   1.0000   1.0000   1.0000   1.0000   1.0000   1.0000
     1.0000   1.0000   1.0000   0.0003   0.0000   0.0000   0.0000   0.0000
     0.0000   0.0000   0.0000

          k = 0.0000-0.5774 0.0000 (  2102 PWs)   bands (ev):

   -85.2023 -48.5946 -48.5487 -48.4760 -42.2030 -14.8790 -14.5725 -14.1283
    -8.7040  -7.9847   2.8087   4.2607   4.6815   5.6982   6.3755   6.7783
     9.0542   9.1308   9.4120  11.5178  11.9382  17.0234  18.3245  21.1409
    22.1978  24.1801  26.1209

     occupation numbers 
     1.0000   1.0000   1.0000   1.0000   1.0000   1.0000   1.0000   1.0000
     1.0000   1.0000   1.0000   1.0000   1.0000   1.0000   1.0000   1.0000
     1.0000   1.0000   1.0000   0.0000   0.0000   0.0000   0.0000   0.0000
     0.0000   0.0000   0.0000

          k = 0.0000-0.5774 0.1750 (  2116 PWs)   bands (ev):

   -85.2024 -48.5946 -48.5490 -48.4762 -42.2030 -14.8791 -14.5740 -14.1288
    -8.7045  -7.9827   2.7988   4.1704   4.6817   5.7477   6.3788   6.9365
     9.0361   9.1310   9.4029  11.5260  11.9252  16.9918  18.1160  20.6404
    22.7881  24.3140  25.4740

     occupation numbers 
     1.0000   1.0000   1.0000   1.0000   1.0000   1.0000   1.0000   1.0000
     1.0000   1.0000   1.0000   1.0000   1.0000   1.0000   1.0000   1.0000
     1.0000   1.0000   1.0000   0.0000   0.0000   0.0000   0.0000   0.0000
     0.0000   0.0000   0.0000

          k = 0.1250 0.2165 0.0000 (  2101 PWs)   bands (ev):

   -85.2056 -48.5573 -48.5411 -48.4827 -42.2326 -14.8207 -14.3026 -14.0724
    -9.5486  -8.0251   3.7651   3.9020   4.3844   5.7971   6.5345   7.7360
     9.0272   9.2562   9.7789  11.4080  11.6289  14.2382  20.0536  20.7823
    24.3436  25.2582  25.8751

     occupation numbers 
     1.0000   1.0000   1.0000   1.0000   1.0000   1.0000   1.0000   1.0000
     1.0000   1.0000   1.0000   1.0000   1.0000   1.0000   1.0000   1.0000
     1.0000   1.0000   1.0007   0.0000   0.0000   0.0000   0.0000   0.0000
     0.0000   0.0000   0.0000

          k = 0.1250 0.2165 0.1750 (  2101 PWs)   bands (ev):

   -85.2056 -48.5573 -48.5411 -48.4826 -42.2325 -14.8233 -14.3029 -14.0726
    -9.5281  -8.0495   3.6516   4.0669   4.3954   5.9154   6.5344   7.5258
     9.0278   9.2132   9.8278  11.2083  11.6972  14.6932  19.1486  21.4358
    23.2610  25.2196  26.7418

     occupation numbers 
     1.0000   1.0000   1.0000   1.0000   1.0000   1.0000   1.0000   1.0000
     1.0000   1.0000   1.0000   1.0000   1.0000   1.0000   1.0000   1.0000
     1.0000   1.0000   1.0016   0.0002   0.0000   0.0000   0.0000   0.0000
     0.0000   0.0000   0.0000

          k = 0.1250 0.3608 0.0000 (  2106 PWs)   bands (ev):

   -85.2037 -48.5764 -48.5484 -48.4789 -42.2153 -14.8122 -14.4865 -14.1334
    -9.0689  -7.9886   3.4762   4.0749   4.6191   5.3047   6.1601   7.4389
     9.1046   9.4051   9.6323  11.2821  11.6035  15.4503  20.1249  21.6402
    22.9473  24.2266  25.2378

     occupation numbers 
     1.0000   1.0000   1.0000   1.0000   1.0000   1.0000   1.0000   1.0000
     1.0000   1.0000   1.0000   1.0000   1.0000   1.0000   1.0000   1.0000
     1.0000   1.0000   1.0000   0.0000   0.0000   0.0000   0.0000   0.0000
     0.0000   0.0000   0.0000

          k = 0.1250 0.3608 0.1750 (  2102 PWs)   bands (ev):

   -85.2037 -48.5764 -48.5483 -48.4789 -42.2152 -14.8133 -14.4874 -14.1333
    -9.0601  -7.9974   3.4136   4.0339   4.6259   5.4822   6.1777   7.4527
     9.0979   9.3797   9.6327  11.1260  11.6257  15.6455  19.9326  21.2922
    22.7445  24.0332  25.4876

     occupation numbers 
     1.0000   1.0000   1.0000   1.0000   1.0000   1.0000   1.0000   1.0000
     1.0000   1.0000   1.0000   1.0000   1.0000   1.0000   1.0000   1.0000
     1.0000   1.0000   1.0000   0.0010   0.0000   0.0000   0.0000   0.0000
     0.0000   0.0000   0.0000

          k = 0.1250 0.5052 0.0000 (  2104 PWs)   bands (ev):

   -85.2023 -48.5898 -48.5537 -48.4760 -42.2030 -14.8457 -14.5631 -14.1773
    -8.7227  -7.9627   3.0299   4.0899   4.7817   5.6637   5.9966   6.9025
     9.1222   9.2305   9.5196  11.4289  11.7155  16.8460  18.9791  21.4564
    22.4599  23.7674  25.7792

     occupation numbers 
     1.0000   1.0000   1.0000   1.0000   1.0000   1.0000   1.0000   1.0000
     1.0000   1.0000   1.0000   1.0000   1.0000   1.0000   1.0000   1.0000
     1.0000   1.0000   1.0000   0.0000   0.0000   0.0000   0.0000   0.0000
     0.0000   0.0000   0.0000

          k = 0.1250 0.5052 0.1750 (  2107 PWs)   bands (ev):

   -85.2023 -48.5898 -48.5536 -48.4762 -42.2030 -14.8460 -14.5645 -14.1771
    -8.7211  -7.9633   3.0185   4.0299   4.7693   5.7215   6.0119   7.0102
     9.1133   9.2324   9.4982  11.4108  11.7331  16.8816  18.7656  20.9245
    22.7149  24.0015  24.9362

     occupation numbers 
     1.0000   1.0000   1.0000   1.0000   1.0000   1.0000   1.0000   1.0000
     1.0000   1.0000   1.0000   1.0000   1.0000   1.0000   1.0000   1.0000
     1.0000   1.0000   1.0000   0.0000   0.0000   0.0000   0.0000   0.0000
     0.0000   0.0000   0.0000

          k = 0.2500 0.4330 0.0000 (  2095 PWs)   bands (ev):

   -85.2023 -48.5831 -48.5602 -48.4760 -42.2030 -14.8100 -14.5471 -14.2346
    -8.7403  -7.9418   3.2979   4.0808   4.6498   5.3853   5.9596   6.9909
     9.2109   9.2567   9.6660  11.2700  11.5467  16.7371  19.7827  21.5562
    22.5456  23.6862  25.2880

     occupation numbers 
     1.0000   1.0000   1.0000   1.0000   1.0000   1.0000   1.0000   1.0000
     1.0000   1.0000   1.0000   1.0000   1.0000   1.0000   1.0000   1.0000
     1.0000   1.0000   1.0001   0.0001   0.0000   0.0000   0.0000   0.0000
     0.0000   0.0000   0.0000

          k = 0.2500 0.4330 0.1750 (  2101 PWs)   bands (ev):

   -85.2023 -48.5830 -48.5602 -48.4762 -42.2030 -14.8101 -14.5486 -14.2346
    -8.7396  -7.9417   3.2753   4.0249   4.6453   5.4926   5.9826   7.0026
     9.2166   9.2613   9.6097  11.3508  11.5463  16.6292  19.8211  21.3886
    22.1857  23.5901  24.5630

     occupation numbers 
     1.0000   1.0000   1.0000   1.0000   1.0000   1.0000   1.0000   1.0000
     1.0000   1.0000   1.0000   1.0000   1.0000   1.0000   1.0000   1.0000
     1.0000   1.0000   1.0000   0.0000   0.0000   0.0000   0.0000   0.0000
     0.0000   0.0000   0.0000

          k = 0.2500 0.5774 0.0000 (  2102 PWs)   bands (ev):

   -85.2018 -48.5837 -48.5674 -48.4749 -42.1980 -14.8048 -14.5665 -14.2856
    -8.6163  -7.9062   3.2152   4.0579   4.6135   5.4840   6.0953   6.6116
     9.1105   9.3683   9.6195  11.3151  11.5045  17.8333  19.1040  20.7303
    23.1759  23.3436  25.0321

     occupation numbers 
     1.0000   1.0000   1.0000   1.0000   1.0000   1.0000   1.0000   1.0000
     1.0000   1.0000   1.0000   1.0000   1.0000   1.0000   1.0000   1.0000
     1.0000   1.0000   1.0000   0.0000   0.0000   0.0000   0.0000   0.0000
     0.0000   0.0000   0.0000

          k = 0.2500 0.5774 0.1750 (  2105 PWs)   bands (ev):

   -85.2018 -48.5836 -48.5675 -48.4751 -42.1979 -14.8047 -14.5677 -14.2858
    -8.6165  -7.9057   3.2039   4.0345   4.6123   5.5486   6.0713   6.6235
     9.1263   9.3609   9.5883  11.3977  11.5626  17.7629  18.9507  20.6693
    22.5368  23.3758  24.4262

     occupation numbers 
     1.0000   1.0000   1.0000   1.0000   1.0000   1.0000   1.0000   1.0000
     1.0000   1.0000   1.0000   1.0000   1.0000   1.0000   1.0000   1.0000
     1.0000   1.0000   1.0000   0.0000   0.0000   0.0000   0.0000   0.0000
     0.0000   0.0000   0.0000

          k = 0.0000-0.1443 0.1750 (  2102 PWs)   bands (ev):

   -85.2069 -48.5433 -48.5365 -48.4853 -42.2447 -14.8464 -14.1345 -14.0348
    -9.8523  -8.0971   3.7789   3.9755   4.2454   6.5650   7.1096   7.2376
     8.7922   8.9325   9.9015  11.5922  11.9388  14.0877  18.2933  20.5624
    24.3130  26.2390  26.9076

     occupation numbers 
     1.0000   1.0000   1.0000   1.0000   1.0000   1.0000   1.0000   1.0000
     1.0000   1.0000   1.0000   1.0000   1.0000   1.0000   1.0000   1.0000
     1.0000   1.0000   1.0048   0.0000   0.0000   0.0000   0.0000   0.0000
     0.0000   0.0000   0.0000

          k = 0.0000-0.2887 0.1750 (  2100 PWs)   bands (ev):

   -85.2050 -48.5645 -48.5416 -48.4816 -42.2274 -14.8186 -14.3764 -14.0738
    -9.3931  -8.0323   3.5529   4.0896   4.4659   5.6483   6.6022   7.5028
     8.9636   9.2813   9.7548  11.1794  11.8199  14.7384  19.5258  21.5934
    22.9721  25.0118  26.1076

     occupation numbers 
     1.0000   1.0000   1.0000   1.0000   1.0000   1.0000   1.0000   1.0000
     1.0000   1.0000   1.0000   1.0000   1.0000   1.0000   1.0000   1.0000
     1.0000   1.0000   1.0004   0.0004   0.0000   0.0000   0.0000   0.0000
     0.0000   0.0000   0.0000

          k = 0.0000-0.4330 0.1750 (  2109 PWs)   bands (ev):

   -85.2031 -48.5858 -48.5467 -48.4778 -42.2102 -14.8399 -14.5421 -14.1125
    -8.9157  -7.9897   3.1031   4.0678   4.6384   5.6638   6.3874   7.1335
     9.0268   9.2371   9.5302  11.3927  11.8673  15.7060  19.6590  20.8565
    23.0868  24.2717  24.8455

     occupation numbers 
     1.0000   1.0000   1.0000   1.0000   1.0000   1.0000   1.0000   1.0000
     1.0000   1.0000   1.0000   1.0000   1.0000   1.0000   1.0000   1.0000
     1.0000   1.0000   1.0000   0.0000   0.0000   0.0000   0.0000   0.0000
     0.0000   0.0000   0.0000

          k =-0.1250-0.3608 0.1750 (  2102 PWs)   bands (ev):

   -85.2037 -48.5764 -48.5483 -48.4789 -42.2152 -14.8132 -14.4874 -14.1333
    -9.0627  -7.9942   3.4064   4.0341   4.6152   5.5379   6.1667   7.3931
     9.1023   9.3783   9.5989  11.3066  11.5803  15.4436  20.0757  21.4261
    23.2654  23.8522  24.8221

     occupation numbers 
     1.0000   1.0000   1.0000   1.0000   1.0000   1.0000   1.0000   1.0000
     1.0000   1.0000   1.0000   1.0000   1.0000   1.0000   1.0000   1.0000
     1.0000   1.0000   1.0000   0.0000   0.0000   0.0000   0.0000   0.0000
     0.0000   0.0000   0.0000

          k =-0.1250-0.5052 0.1750 (  2107 PWs)   bands (ev):

   -85.2024 -48.5898 -48.5536 -48.4762 -42.2030 -14.8458 -14.5646 -14.1771
    -8.7239  -7.9600   3.0104   4.0329   4.7706   5.7747   5.9973   6.9527
     9.1246   9.2282   9.4821  11.5016  11.7145  16.6404  18.9994  21.0232
    23.1779  23.4381  24.8323

     occupation numbers 
     1.0000   1.0000   1.0000   1.0000   1.0000   1.0000   1.0000   1.0000
     1.0000   1.0000   1.0000   1.0000   1.0000   1.0000   1.0000   1.0000
     1.0000   1.0000   1.0000   0.0000   0.0000   0.0000   0.0000   0.0000
     0.0000   0.0000   0.0000

 ------ SPIN DOWN ----------


          k = 0.0000 0.0000 0.0000 (  2113 PWs)   bands (ev):

   -85.2069 -48.5332 -48.5332 -48.4870 -42.2520 -14.8590 -14.0185 -14.0185
   -10.0787  -8.0828   3.3897   4.1454   4.1454   7.2814   7.5306   7.5306
     8.5544   8.5544   9.8773  12.0201  12.0201  12.8985  18.7973  19.7861
    25.3231  26.7412  26.7412

     occupation numbers 
     1.0000   1.0000   1.0000   1.0000   1.0000   1.0000   1.0000   1.0000
     1.0000   1.0000   1.0000   1.0000   1.0000   1.0000   1.0000   1.0000
     1.0000   1.0000   1.0034   0.0000   0.0000   0.0000   0.0000   0.0000
     0.0000   0.0000   0.0000

          k = 0.0000 0.0000 0.1750 (  2114 PWs)   bands (ev):

   -85.2069 -48.5333 -48.5333 -48.4869 -42.2519 -14.8629 -14.0188 -14.0188
   -10.0423  -8.1311   3.6796   4.1494   4.1494   6.6971   7.5191   7.5191
     8.5555   8.5555   9.9148  12.0302  12.0302  13.7439  17.7086  19.9254
    25.2522  26.5511  26.5511

     occupation numbers 
     1.0000   1.0000   1.0000   1.0000   1.0000   1.0000   1.0000   1.0000
     1.0000   1.0000   1.0000   1.0000   1.0000   1.0000   1.0000   1.0000
     1.0000   1.0000   1.0058   0.0000   0.0000   0.0000   0.0000   0.0000
     0.0000   0.0000   0.0000

          k = 0.0000 0.1443 0.0000 (  2123 PWs)   bands (ev):

   -85.2061 -48.5421 -48.5355 -48.4855 -42.2449 -14.8431 -14.1346 -14.0350
    -9.8828  -8.0593   3.5854   3.9718   4.2417   6.5924   7.1166   7.5897
     8.8168   8.9350   9.8519  11.6473  11.9282  13.4146  19.3696  20.1600
    24.9519  26.1155  27.1249

     occupation numbers 
     1.0000   1.0000   1.0000   1.0000   1.0000   1.0000   1.0000   1.0000
     1.0000   1.0000   1.0000   1.0000   1.0000   1.0000   1.0000   1.0000
     1.0000   1.0000   1.0023   0.0000   0.0000   0.0000   0.0000   0.0000
     0.0000   0.0000   0.0000

          k = 0.0000 0.1443 0.1750 (  2102 PWs)   bands (ev):

   -85.2061 -48.5421 -48.5354 -48.4853 -42.2447 -14.8465 -14.1345 -14.0348
    -9.8522  -8.0987   3.7773   3.9757   4.2451   6.5989   7.1111   7.1935
     8.8066   8.9349   9.9128  11.5284  11.9298  14.1866  18.2393  20.5579
    24.2290  26.3269  26.9229

     occupation numbers 
     1.0000   1.0000   1.0000   1.0000   1.0000   1.0000   1.0000   1.0000
     1.0000   1.0000   1.0000   1.0000   1.0000   1.0000   1.0000   1.0000
     1.0000   1.0000   1.0056   0.0000   0.0000   0.0000   0.0000   0.0000
     0.0000   0.0000   0.0000

          k = 0.0000 0.2887 0.0000 (  2112 PWs)   bands (ev):

   -85.2042 -48.5634 -48.5405 -48.4816 -42.2276 -14.8167 -14.3761 -14.0740
    -9.4087  -8.0163   3.6607   3.9942   4.4628   5.4651   6.6052   7.6581
     9.0145   9.2835   9.7395  11.2127  11.8170  14.5423  20.1169  20.9926
    23.8219  24.6816  26.0286

     occupation numbers 
     1.0000   1.0000   1.0000   1.0000   1.0000   1.0000   1.0000   1.0000
     1.0000   1.0000   1.0000   1.0000   1.0000   1.0000   1.0000   1.0000
     1.0000   1.0000   1.0003   0.0002   0.0000   0.0000   0.0000   0.0000
     0.0000   0.0000   0.0000

          k = 0.0000 0.2887 0.1750 (  2100 PWs)   bands (ev):

   -85.2042 -48.5633 -48.5404 -48.4815 -42.2274 -14.8187 -14.3764 -14.0738
    -9.3907  -8.0369   3.5487   4.1080   4.4650   5.6101   6.6049   7.5530
     8.9874   9.2849   9.8033  10.9495  11.8076  15.0532  19.3298  21.4175
    22.8660  24.4991  27.3696

     occupation numbers 
     1.0000   1.0000   1.0000   1.0000   1.0000   1.0000   1.0000   1.0000
     1.0000   1.0000   1.0000   1.0000   1.0000   1.0000   1.0000   1.0000
     1.0000   1.0000   1.0011   0.0179   0.0000   0.0000   0.0000   0.0000
     0.0000   0.0000   0.0000

          k = 0.0000 0.4330 0.0000 (  2098 PWs)   bands (ev):

   -85.2023 -48.5846 -48.5455 -48.4776 -42.2102 -14.8394 -14.5405 -14.1125
    -8.9170  -7.9915   3.1476   4.1423   4.6369   5.4530   6.3862   7.1385
     9.0573   9.2376   9.5469  11.3476  11.8744  15.8904  19.4983  21.5421
    22.1731  24.2790  25.8919

     occupation numbers 
     1.0000   1.0000   1.0000   1.0000   1.0000   1.0000   1.0000   1.0000
     1.0000   1.0000   1.0000   1.0000   1.0000   1.0000   1.0000   1.0000
     1.0000   1.0000   1.0000   0.0000   0.0000   0.0000   0.0000   0.0000
     0.0000   0.0000   0.0000

          k = 0.0000 0.4330 0.1750 (  2109 PWs)   bands (ev):

   -85.2023 -48.5847 -48.5456 -48.4777 -42.2102 -14.8402 -14.5419 -14.1125
    -8.9103  -7.9974   3.1178   4.0657   4.6375   5.5848   6.3894   7.2492
     9.0351   9.2389   9.5533  11.1957  11.8599  16.1002  19.3498  20.6837
    22.5067  24.2524  26.4270

     occupation numbers 
     1.0000   1.0000   1.0000   1.0000   1.0000   1.0000   1.0000   1.0000
     1.0000   1.0000   1.0000   1.0000   1.0000   1.0000   1.0000   1.0000
     1.0000   1.0000   1.0000   0.0003   0.0000   0.0000   0.0000   0.0000
     0.0000   0.0000   0.0000

          k = 0.0000-0.5774 0.0000 (  2102 PWs)   bands (ev):

   -85.2015 -48.5935 -48.5476 -48.4759 -42.2030 -14.8790 -14.5725 -14.1283
    -8.7040  -7.9861   2.8085   4.2604   4.6816   5.6980   6.3747   6.7777
     9.0545   9.1313   9.4122  11.5187  11.9384  17.0234  18.3245  21.1409
    22.1976  24.1801  26.1207

     occupation numbers 
     1.0000   1.0000   1.0000   1.0000   1.0000   1.0000   1.0000   1.0000
     1.0000   1.0000   1.0000   1.0000   1.0000   1.0000   1.0000   1.0000
     1.0000   1.0000   1.0000   0.0000   0.0000   0.0000   0.0000   0.0000
     0.0000   0.0000   0.0000

          k = 0.0000-0.5774 0.1750 (  2116 PWs)   bands (ev):

   -85.2015 -48.5934 -48.5478 -48.4761 -42.2030 -14.8791 -14.5740 -14.1288
    -8.7045  -7.9841   2.7986   4.1701   4.6819   5.7475   6.3779   6.9359
     9.0363   9.1315   9.4031  11.5268  11.9253  16.9919  18.1159  20.6404
    22.7880  24.3137  25.4740

     occupation numbers 
     1.0000   1.0000   1.0000   1.0000   1.0000   1.0000   1.0000   1.0000
     1.0000   1.0000   1.0000   1.0000   1.0000   1.0000   1.0000   1.0000
     1.0000   1.0000   1.0000   0.0000   0.0000   0.0000   0.0000   0.0000
     0.0000   0.0000   0.0000

          k = 0.1250 0.2165 0.0000 (  2101 PWs)   bands (ev):

   -85.2047 -48.5561 -48.5399 -48.4827 -42.2326 -14.8208 -14.3026 -14.0725
    -9.5489  -8.0262   3.7652   3.9018   4.3846   5.7965   6.5339   7.7353
     9.0270   9.2558   9.7795  11.4089  11.6295  14.2380  20.0535  20.7820
    24.3435  25.2582  25.8751

     occupation numbers 
     1.0000   1.0000   1.0000   1.0000   1.0000   1.0000   1.0000   1.0000
     1.0000   1.0000   1.0000   1.0000   1.0000   1.0000   1.0000   1.0000
     1.0000   1.0000   1.0007   0.0000   0.0000   0.0000   0.0000   0.0000
     0.0000   0.0000   0.0000

          k = 0.1250 0.2165 0.1750 (  2101 PWs)   bands (ev):

   -85.2047 -48.5561 -48.5399 -48.4826 -42.2325 -14.8233 -14.3029 -14.0726
    -9.5284  -8.0506   3.6517   4.0668   4.3957   5.9148   6.5337   7.5251
     9.0276   9.2129   9.8284  11.2091  11.6978  14.6931  19.1483  21.4357
    23.2610  25.2197  26.7420

     occupation numbers 
     1.0000   1.0000   1.0000   1.0000   1.0000   1.0000   1.0000   1.0000
     1.0000   1.0000   1.0000   1.0000   1.0000   1.0000   1.0000   1.0000
     1.0000   1.0000   1.0016   0.0002   0.0000   0.0000   0.0000   0.0000
     0.0000   0.0000   0.0000

          k = 0.1250 0.3608 0.0000 (  2106 PWs)   bands (ev):

   -85.2029 -48.5752 -48.5472 -48.4788 -42.2153 -14.8123 -14.4865 -14.1334
    -9.0692  -7.9898   3.4762   4.0746   4.6192   5.3043   6.1595   7.4382
     9.1047   9.4053   9.6326  11.2829  11.6040  15.4502  20.1249  21.6398
    22.9473  24.2265  25.2375

     occupation numbers 
     1.0000   1.0000   1.0000   1.0000   1.0000   1.0000   1.0000   1.0000
     1.0000   1.0000   1.0000   1.0000   1.0000   1.0000   1.0000   1.0000
     1.0000   1.0000   1.0000   0.0000   0.0000   0.0000   0.0000   0.0000
     0.0000   0.0000   0.0000

          k = 0.1250 0.3608 0.1750 (  2102 PWs)   bands (ev):

   -85.2028 -48.5752 -48.5472 -48.4788 -42.2152 -14.8133 -14.4874 -14.1333
    -9.0603  -7.9986   3.4136   4.0337   4.6260   5.4818   6.1770   7.4520
     9.0979   9.3799   9.6331  11.1269  11.6261  15.6454  19.9325  21.2920
    22.7444  24.0330  25.4876

     occupation numbers 
     1.0000   1.0000   1.0000   1.0000   1.0000   1.0000   1.0000   1.0000
     1.0000   1.0000   1.0000   1.0000   1.0000   1.0000   1.0000   1.0000
     1.0000   1.0000   1.0000   0.0010   0.0000   0.0000   0.0000   0.0000
     0.0000   0.0000   0.0000

          k = 0.1250 0.5052 0.0000 (  2104 PWs)   bands (ev):

   -85.2015 -48.5886 -48.5525 -48.4760 -42.2030 -14.8457 -14.5631 -14.1773
    -8.7227  -7.9641   3.0297   4.0896   4.7818   5.6634   5.9959   6.9018
     9.1227   9.2310   9.5195  11.4297  11.7158  16.8460  18.9790  21.4563
    22.4597  23.7673  25.7794

     occupation numbers 
     1.0000   1.0000   1.0000   1.0000   1.0000   1.0000   1.0000   1.0000
     1.0000   1.0000   1.0000   1.0000   1.0000   1.0000   1.0000   1.0000
     1.0000   1.0000   1.0000   0.0000   0.0000   0.0000   0.0000   0.0000
     0.0000   0.0000   0.0000

          k = 0.1250 0.5052 0.1750 (  2107 PWs)   bands (ev):

   -85.2015 -48.5886 -48.5524 -48.4762 -42.2030 -14.8460 -14.5645 -14.1772
    -8.7211  -7.9648   3.0183   4.0296   4.7694   5.7212   6.0111   7.0096
     9.1137   9.2330   9.4982  11.4116  11.7334  16.8815  18.7657  20.9245
    22.7146  24.0013  24.9361

     occupation numbers 
     1.0000   1.0000   1.0000   1.0000   1.0000   1.0000   1.0000   1.0000
     1.0000   1.0000   1.0000   1.0000   1.0000   1.0000   1.0000   1.0000
     1.0000   1.0000   1.0000   0.0000   0.0000   0.0000   0.0000   0.0000
     0.0000   0.0000   0.0000

          k = 0.2500 0.4330 0.0000 (  2095 PWs)   bands (ev):

   -85.2015 -48.5819 -48.5590 -48.4760 -42.2030 -14.8100 -14.5472 -14.2346
    -8.7403  -7.9432   3.2978   4.0804   4.6498   5.3852   5.9590   6.9903
     9.2113   9.2574   9.6658  11.2705  11.5474  16.7371  19.7827  21.5562
    22.5453  23.6861  25.2886

     occupation numbers 
     1.0000   1.0000   1.0000   1.0000   1.0000   1.0000   1.0000   1.0000
     1.0000   1.0000   1.0000   1.0000   1.0000   1.0000   1.0000   1.0000
     1.0000   1.0000   1.0001   0.0001   0.0000   0.0000   0.0000   0.0000
     0.0000   0.0000   0.0000

          k = 0.2500 0.4330 0.1750 (  2101 PWs)   bands (ev):

   -85.2015 -48.5819 -48.5590 -48.4762 -42.2030 -14.8102 -14.5486 -14.2346
    -8.7397  -7.9431   3.2752   4.0244   4.6453   5.4925   5.9819   7.0020
     9.2170   9.2619   9.6096  11.3513  11.5469  16.6292  19.8211  21.3885
    22.1855  23.5899  24.5628

     occupation numbers 
     1.0000   1.0000   1.0000   1.0000   1.0000   1.0000   1.0000   1.0000
     1.0000   1.0000   1.0000   1.0000   1.0000   1.0000   1.0000   1.0000
     1.0000   1.0000   1.0000   0.0000   0.0000   0.0000   0.0000   0.0000
     0.0000   0.0000   0.0000

          k = 0.2500 0.5774 0.0000 (  2102 PWs)   bands (ev):

   -85.2009 -48.5825 -48.5662 -48.4749 -42.1980 -14.8048 -14.5665 -14.2857
    -8.6163  -7.9076   3.2151   4.0574   4.6132   5.4839   6.0949   6.6110
     9.1113   9.3686   9.6194  11.3157  11.5049  17.8333  19.1040  20.7303
    23.1757  23.3434  25.0320

     occupation numbers 
     1.0000   1.0000   1.0000   1.0000   1.0000   1.0000   1.0000   1.0000
     1.0000   1.0000   1.0000   1.0000   1.0000   1.0000   1.0000   1.0000
     1.0000   1.0000   1.0000   0.0000   0.0000   0.0000   0.0000   0.0000
     0.0000   0.0000   0.0000

          k = 0.2500 0.5774 0.1750 (  2105 PWs)   bands (ev):

   -85.2010 -48.5824 -48.5663 -48.4750 -42.1979 -14.8048 -14.5677 -14.2858
    -8.6165  -7.9071   3.2038   4.0340   4.6121   5.5485   6.0708   6.6230
     9.1271   9.3612   9.5881  11.3983  11.5631  17.7629  18.9507  20.6693
    22.5367  23.3756  24.4259

     occupation numbers 
     1.0000   1.0000   1.0000   1.0000   1.0000   1.0000   1.0000   1.0000
     1.0000   1.0000   1.0000   1.0000   1.0000   1.0000   1.0000   1.0000
     1.0000   1.0000   1.0000   0.0000   0.0000   0.0000   0.0000   0.0000
     0.0000   0.0000   0.0000

          k = 0.0000-0.1443 0.1750 (  2102 PWs)   bands (ev):

   -85.2061 -48.5421 -48.5354 -48.4853 -42.2447 -14.8465 -14.1345 -14.0348
    -9.8526  -8.0981   3.7789   3.9756   4.2457   6.5645   7.1090   7.2369
     8.7918   8.9322   9.9021  11.5929  11.9393  14.0875  18.2930  20.5624
    24.3130  26.2389  26.9076

     occupation numbers 
     1.0000   1.0000   1.0000   1.0000   1.0000   1.0000   1.0000   1.0000
     1.0000   1.0000   1.0000   1.0000   1.0000   1.0000   1.0000   1.0000
     1.0000   1.0000   1.0049   0.0000   0.0000   0.0000   0.0000   0.0000
     0.0000   0.0000   0.0000

          k = 0.0000-0.2887 0.1750 (  2100 PWs)   bands (ev):

   -85.2042 -48.5633 -48.5404 -48.4815 -42.2274 -14.8186 -14.3764 -14.0738
    -9.3934  -8.0335   3.5530   4.0894   4.4661   5.6478   6.6014   7.5021
     8.9633   9.2812   9.7555  11.1803  11.8204  14.7383  19.5255  21.5933
    22.9720  25.0117  26.1076

     occupation numbers 
     1.0000   1.0000   1.0000   1.0000   1.0000   1.0000   1.0000   1.0000
     1.0000   1.0000   1.0000   1.0000   1.0000   1.0000   1.0000   1.0000
     1.0000   1.0000   1.0005   0.0004   0.0000   0.0000   0.0000   0.0000
     0.0000   0.0000   0.0000

          k = 0.0000-0.4330 0.1750 (  2109 PWs)   bands (ev):

   -85.2023 -48.5847 -48.5456 -48.4777 -42.2102 -14.8399 -14.5421 -14.1125
    -8.9158  -7.9910   3.1029   4.0676   4.6386   5.6635   6.3866   7.1329
     9.0267   9.2374   9.5307  11.3935  11.8676  15.7060  19.6589  20.8564
    23.0868  24.2716  24.8453

     occupation numbers 
     1.0000   1.0000   1.0000   1.0000   1.0000   1.0000   1.0000   1.0000
     1.0000   1.0000   1.0000   1.0000   1.0000   1.0000   1.0000   1.0000
     1.0000   1.0000   1.0000   0.0000   0.0000   0.0000   0.0000   0.0000
     0.0000   0.0000   0.0000

          k =-0.1250-0.3608 0.1750 (  2102 PWs)   bands (ev):

   -85.2028 -48.5752 -48.5472 -48.4788 -42.2152 -14.8132 -14.4874 -14.1333
    -9.0629  -7.9954   3.4064   4.0338   4.6153   5.5375   6.1660   7.3923
     9.1023   9.3784   9.5994  11.3074  11.5807  15.4436  20.0756  21.4260
    23.2653  23.8522  24.8220

     occupation numbers 
     1.0000   1.0000   1.0000   1.0000   1.0000   1.0000   1.0000   1.0000
     1.0000   1.0000   1.0000   1.0000   1.0000   1.0000   1.0000   1.0000
     1.0000   1.0000   1.0000   0.0000   0.0000   0.0000   0.0000   0.0000
     0.0000   0.0000   0.0000

          k =-0.1250-0.5052 0.1750 (  2107 PWs)   bands (ev):

   -85.2015 -48.5886 -48.5524 -48.4762 -42.2030 -14.8458 -14.5647 -14.1771
    -8.7240  -7.9614   3.0103   4.0326   4.7708   5.7745   5.9966   6.9521
     9.1251   9.2287   9.4822  11.5023  11.7148  16.6404  18.9994  21.0231
    23.1778  23.4380  24.8321

     occupation numbers 
     1.0000   1.0000   1.0000   1.0000   1.0000   1.0000   1.0000   1.0000
     1.0000   1.0000   1.0000   1.0000   1.0000   1.0000   1.0000   1.0000
     1.0000   1.0000   1.0000   0.0000   0.0000   0.0000   0.0000   0.0000
     0.0000   0.0000   0.0000

     the Fermi energy is    10.6404 ev

     WARNING: integrated charge=    38.00267823, expected=    38.00000000

!    total energy              =    -568.99512942 Ry
     total all-electron energy =     -3412.485685 Ry
     estimated scf accuracy    <       0.00000007 Ry
     smearing contrib. (-TS)   =       0.00004151 Ry
     internal energy E=F+TS    =    -568.99517093 Ry

     The total energy is F=E-TS. E is the sum of the following terms:
     one-electron contribution =    -391.05793060 Ry
     hartree contribution      =     217.04170003 Ry
     xc contribution           =     -60.82698195 Ry
     ewald contribution        =    -212.21812297 Ry
     one-center paw contrib.   =    -121.93383544 Ry
      -> PAW hartree energy AE =     351.80742798 Ry
      -> PAW hartree energy PS =    -351.78962945 Ry
      -> PAW xc energy AE      =    -179.88442300 Ry
      -> PAW xc energy PS      =      57.93278903 Ry
      -> total E_H with PAW    =     217.05949856 Ry
      -> total E_XC with PAW   =    -182.77861592 Ry

     total magnetization       =     0.00 Bohr mag/cell
     absolute magnetization    =     0.00 Bohr mag/cell

     convergence has been achieved in  19 iterations

     Forces acting on atoms (cartesian axes, Ry/au):

     atom    1 type  1   force =     0.00000000    0.00000000    0.48673928
     atom    2 type  2   force =     0.00000000    0.00000000   -0.00358472
     atom    3 type  2   force =    -0.00000000   -0.00000000    0.12247207
     atom    4 type  3   force =     0.00000000    0.00000000   -0.60562663
     The non-local contrib.  to forces
     atom    1 type  1   force =     0.00000000    0.00000000   -0.69325687
     atom    2 type  2   force =     0.00000000    0.00000000   -1.04357496
     atom    3 type  2   force =     0.00000000    0.00000000    0.65091020
     atom    4 type  3   force =     0.00000000    0.00000000   -0.42082116
     The ionic contribution  to forces
     atom    1 type  1   force =    -0.00000000   -0.00000000   32.87697460
     atom    2 type  2   force =     0.00000000   -0.00000000   27.34185671
     atom    3 type  2   force =    -0.00000000    0.00000000  -15.88986552
     atom    4 type  3   force =     0.00000000   -0.00000000  -44.32896579
     The local contribution  to forces
     atom    1 type  1   force =    -0.00000000   -0.00000000  -31.69712184
     atom    2 type  2   force =     0.00000001   -0.00000001  -26.31056155
     atom    3 type  2   force =    -0.00000001    0.00000000   15.36802911
     atom    4 type  3   force =     0.00000000   -0.00000000   44.14340042
     The core correction contribution to forces
     atom    1 type  1   force =    -0.00000000   -0.00000000    0.00002607
     atom    2 type  2   force =    -0.00000000    0.00000000    0.00917666
     atom    3 type  2   force =     0.00000000   -0.00000000   -0.00700121
     atom    4 type  3   force =     0.00000000   -0.00000000    0.00051034
     The Hubbard contrib.    to forces
     atom    1 type  1   force =     0.00000000    0.00000000    0.00000000
     atom    2 type  2   force =     0.00000000    0.00000000    0.00000000
     atom    3 type  2   force =     0.00000000    0.00000000    0.00000000
     atom    4 type  3   force =     0.00000000    0.00000000    0.00000000
     The SCF correction term to forces
     atom    1 type  1   force =    -0.00000000    0.00000000    0.00013727
     atom    2 type  2   force =     0.00000000   -0.00000000   -0.00046163
     atom    3 type  2   force =    -0.00000000    0.00000000    0.00041943
     atom    4 type  3   force =     0.00000000   -0.00000000    0.00026951

     Total force =     0.786582     Total SCF correction =     0.000693

     Writing all to output data dir ./out/pw.save/ :
     XML data file, charge density, pseudopotentials, collected wavefunctions
 
     init_run     :     10.34s CPU      2.58s WALL (       1 calls)
     electrons    :     99.11s CPU     25.55s WALL (       1 calls)
     forces       :      0.59s CPU      0.57s WALL (       1 calls)

     Called by init_run:
     wfcinit      :      0.25s CPU      0.31s WALL (       1 calls)
     wfcinit:atom :      0.04s CPU      0.04s WALL (      50 calls)
     wfcinit:wfcr :      0.16s CPU      0.19s WALL (      50 calls)
     potinit      :      9.57s CPU      1.66s WALL (       1 calls)
     hinit0       :      0.44s CPU      0.50s WALL (       1 calls)

     Called by electrons:
     c_bands      :     12.00s CPU     12.11s WALL (      19 calls)
     sum_band     :      1.99s CPU      2.00s WALL (      19 calls)
     v_of_rho     :      0.31s CPU      0.22s WALL (      20 calls)
     v_h          :      0.23s CPU      0.03s WALL (      20 calls)
     v_xc         :      0.08s CPU      0.20s WALL (      21 calls)
     newd         :      0.47s CPU      0.35s WALL (      20 calls)
                                        0.35s GPU  (      20 calls)
     PAW_pot      :     87.85s CPU     11.01s WALL (      20 calls)
     mix_rho      :      0.48s CPU      0.49s WALL (      19 calls)

     Called by c_bands:
     init_us_2    :      0.78s CPU      0.79s WALL (    2000 calls)
     cegterg      :     10.66s CPU     10.76s WALL (     950 calls)

     Called by sum_band:
     sum_band:wei :      0.03s CPU      0.03s WALL (      19 calls)
                                        0.03s GPU  (      19 calls)
     sum_band:loo :      1.24s CPU      1.24s WALL (      19 calls)
                                        1.24s GPU  (      19 calls)
     sum_band:buf :      0.12s CPU      0.14s WALL (     950 calls)
                                        0.12s GPU  (     950 calls)
     sum_band:ini :      0.37s CPU      0.38s WALL (     950 calls)
                                        0.37s GPU  (     950 calls)
     sum_band:cal :      0.04s CPU      0.05s WALL (     950 calls)
                                        0.04s GPU  (     950 calls)
     sum_band:bec :      0.21s CPU      0.22s WALL (     950 calls)
                                        0.21s GPU  (     950 calls)
     addusdens    :      0.63s CPU      0.63s WALL (      19 calls)
                                        0.63s GPU  (      19 calls)
     addusd:skk   :      0.00s CPU      0.00s WALL (      57 calls)
                                        0.00s GPU  (      57 calls)

     Called by *egterg:
     cdiaghg      :      3.89s CPU      4.02s WALL (    4407 calls)
                                        3.97s GPU  (    4407 calls)
     cegterg:over :      0.67s CPU      0.69s WALL (    3457 calls)
     cegterg:upda :      0.68s CPU      0.69s WALL (    3457 calls)
     cegterg:last :      0.11s CPU      0.11s WALL (    1839 calls)
     h_psi        :      3.63s CPU      3.72s WALL (    4457 calls)
                                        3.67s GPU  (    4457 calls)
     s_psi        :      0.69s CPU      0.72s WALL (    4457 calls)
     g_psi        :      0.02s CPU      0.08s WALL (    3457 calls)
                                        0.04s GPU  (    3457 calls)

     Called by h_psi:
     h_psi:calbec :      0.13s CPU      0.24s WALL (    4457 calls)
                                        0.18s GPU  (    4457 calls)
     vloc_psi     :      2.42s CPU      2.44s WALL (    4457 calls)
                                        2.39s GPU  (    4457 calls)
     add_vuspsi   :      0.62s CPU      0.72s WALL (    4457 calls)
                                        0.67s GPU  (    4457 calls)

     General routines
     calbec       :      0.15s CPU      0.17s WALL (    5607 calls)
     fft          :      3.18s CPU      0.61s WALL (     513 calls)
                                        0.02s GPU  (     473 calls)
     ffts         :      2.24s CPU      0.38s WALL (     686 calls)
                                        0.02s GPU  (     646 calls)
     fftw         :      0.26s CPU      0.79s WALL (   14722 calls)
                                        0.62s GPU  (   14722 calls)
     interpolate  :      5.49s CPU      0.97s WALL (      40 calls)
 
     Parallel routines

     PAW routines
     PAW_pot      :     87.85s CPU     11.01s WALL (      20 calls)
     PAW_symme    :      0.02s CPU      0.00s WALL (      39 calls)
 
     PWSCF        :   1m50.90s CPU     29.21s WALL

 
   This run was terminated on:   3:16:41  12Jul2026            

=------------------------------------------------------------------------------=
   JOB DONE.
=------------------------------------------------------------------------------=
Warning: ieee_divide_by_zero is signaling
Warning: ieee_inexact is signaling
FORTRAN STOP
