
     Program PWSCF v.7.3.1 starts on 12Jul2026 at  2:19: 3 

     This program is part of the open-source Quantum ESPRESSO suite
     for quantum simulation of materials; please cite
         "P. Giannozzi et al., J. Phys.:Condens. Matter 21 395502 (2009);
         "P. Giannozzi et al., J. Phys.:Condens. Matter 29 465901 (2017);
         "P. Giannozzi et al., J. Chem. Phys. 152 154105 (2020);
          URL http://www.quantum-espresso.org", 
     in publications or presentations arising from this work. More details at
     http://www.quantum-espresso.org/quote

     Parallel version (MPI & OpenMP), running on      14 processor cores
     Number of MPI processes:                 1
     Threads/MPI process:                    14

     MPI processes distributed on     1 nodes
     850150 MiB available memory on the printing compute node when the environment starts
 
     Reading input from pw.in

     Current dimensions of program PWSCF are:
     Max number of different atomic species (ntypx) = 10
     Max number of k-points (npk) =  40000
     Max angular momentum in pseudopotentials (lmaxx) =  4
     file Co.pbe-spn-kjpaw_psl.0.3.1.UPF: wavefunction(s)  3P 3D renormalized
     file O.pbe-n-kjpaw_psl.1.0.0.UPF: wavefunction(s)  2S 2P renormalized
 
     Subspace diagonalization in iterative solution of the eigenvalue problem:
     a serial algorithm will be used

 
     G-vector sticks info
     --------------------
     sticks:   dense  smooth     PW     G-vecs:    dense   smooth      PW
     Sum         931     475    151                56785    20183    3305
 
     Using Slab Decomposition
 


     bravais-lattice index     =            4
     lattice parameter (alat)  =       5.3290  a.u.
     unit-cell volume          =     320.6820 (a.u.)^3
     number of atoms/cell      =            4
     number of atomic types    =            3
     number of electrons       =        32.00
     number of Kohn-Sham states=           24
     kinetic-energy cutoff     =      60.0000  Ry
     charge density cutoff     =     480.0000  Ry
     scf convergence threshold =      1.0E-08
     mixing beta               =       0.3000
     number of iterations used =            8  plain     mixing
     Exchange-correlation= SLA  PW   PBX  PBC
                           (   1   4   3   4   0   0   0)

     GPU acceleration is ACTIVE.  1 visible GPUs per MPI rank
     GPU-aware MPI enabled


     GPU used by master process:

        Device Number: 0
        Device name: NVIDIA A100-SXM4-80GB
        Compute capability : 80
        Ratio of single to double precision performance  : 2
        Memory Clock Rate (KHz): 1593000
        Memory Bus Width (bits): 5120
        Peak Memory Bandwidth (GB/s): ******

     celldm(1)=   5.329028  celldm(2)=   0.000000  celldm(3)=   2.446809
     celldm(4)=   0.000000  celldm(5)=   0.000000  celldm(6)=   0.000000

     crystal axes: (cart. coord. in units of alat)
               a(1) = (   1.000000   0.000000   0.000000 )  
               a(2) = (  -0.500000   0.866025   0.000000 )  
               a(3) = (   0.000000   0.000000   2.446809 )  

     reciprocal axes: (cart. coord. in units 2 pi/alat)
               b(1) = (  1.000000  0.577350 -0.000000 )  
               b(2) = (  0.000000  1.154701  0.000000 )  
               b(3) = (  0.000000 -0.000000  0.408696 )  


     PseudoPot. # 1 for Co read from file:
     ../../pseudo/Co.pbe-spn-kjpaw_psl.0.3.1.UPF
     MD5 check sum: 3c0a43779828c046024e4f3be63f8e67
     Pseudo is Projector augmented-wave + core cor, Zval = 17.0
     Generated using &quot;atomic&quot; code by A. Dal Corso  v.6.2.2
     Shape of augmentation charge: PSQ
     Using radial grid of 1193 points,  6 beta functions with: 
                l(1) =   0
                l(2) =   0
                l(3) =   1
                l(4) =   1
                l(5) =   2
                l(6) =   2
     Q(r) pseudized with 0 coefficients 


     PseudoPot. # 2 for O  read from file:
     ../../pseudo/O.pbe-n-kjpaw_psl.1.0.0.UPF
     MD5 check sum: e99d9cef9b487d1ca56f5b95ecd0fd7a
     Pseudo is Projector augmented-wave + core cor, Zval =  6.0
     Generated using &quot;atomic&quot; code by A. Dal Corso  v.6.3
     Shape of augmentation charge: PSQ
     Using radial grid of 1095 points,  4 beta functions with: 
                l(1) =   0
                l(2) =   0
                l(3) =   1
                l(4) =   1
     Q(r) pseudized with 0 coefficients 


     PseudoPot. # 3 for Li read from file:
     ../../pseudo/Li.pbe-s-kjpaw_psl.1.0.0.UPF
     MD5 check sum: 3974953fb0fea6c4f83fb01d64ffc134
     Pseudo is Projector augmented-wave, Zval =  3.0
     Generated using &quot;atomic&quot; code by A. Dal Corso  v.6.3
     Shape of augmentation charge: PSQ
     Using radial grid of 1017 points,  4 beta functions with: 
                l(1) =   0
                l(2) =   0
                l(3) =   1
                l(4) =   1
     Q(r) pseudized with 0 coefficients 


     atomic species   valence    mass     pseudopotential
     Co               17.00    58.93300     Co( 1.00)
     O                 6.00    15.99900     O ( 1.00)
     Li                3.00     6.94100     Li( 1.00)

     Starting magnetic structure 
     atomic species   magnetization
     Co              0.300
     O               0.000
     Li              0.000

      6 Sym. Ops. (no inversion) found


                                    s                        frac. trans.

      isym =  1     identity                                     

 cryst.   s( 1) = (     1          0          0      )
                  (     0          1          0      )
                  (     0          0          1      )

 cart.    s( 1) = (  1.0000000  0.0000000  0.0000000 )
                  (  0.0000000  1.0000000  0.0000000 )
                  (  0.0000000  0.0000000  1.0000000 )


      isym =  2     120 deg rotation - cryst. axis [0,0,1]       

 cryst.   s( 2) = (     0          1          0      )
                  (    -1         -1          0      )
                  (     0          0          1      )

 cart.    s( 2) = ( -0.5000000 -0.8660254  0.0000000 )
                  (  0.8660254 -0.5000000  0.0000000 )
                  (  0.0000000  0.0000000  1.0000000 )


      isym =  3     120 deg rotation - cryst. axis [0,0,-1]      

 cryst.   s( 3) = (    -1         -1          0      )
                  (     1          0          0      )
                  (     0          0          1      )

 cart.    s( 3) = ( -0.5000000  0.8660254  0.0000000 )
                  ( -0.8660254 -0.5000000  0.0000000 )
                  (  0.0000000  0.0000000  1.0000000 )


      isym =  4     inv. 180 deg rotation - cart. axis [1,0,0]   

 cryst.   s( 4) = (    -1          0          0      )
                  (     1          1          0      )
                  (     0          0          1      )

 cart.    s( 4) = ( -1.0000000  0.0000000  0.0000000 )
                  (  0.0000000  1.0000000  0.0000000 )
                  (  0.0000000  0.0000000  1.0000000 )


      isym =  5     inv. 180 deg rotation - cryst. axis [0,1,0]  

 cryst.   s( 5) = (     1          1          0      )
                  (     0         -1          0      )
                  (     0          0          1      )

 cart.    s( 5) = (  0.5000000  0.8660254  0.0000000 )
                  (  0.8660254 -0.5000000  0.0000000 )
                  (  0.0000000  0.0000000  1.0000000 )


      isym =  6     inv. 180 deg rotation - cryst. axis [1,1,0]  

 cryst.   s( 6) = (     0         -1          0      )
                  (    -1          0          0      )
                  (     0          0          1      )

 cart.    s( 6) = (  0.5000000 -0.8660254  0.0000000 )
                  ( -0.8660254 -0.5000000  0.0000000 )
                  (  0.0000000  0.0000000  1.0000000 )


     point group C_3v (3m)  
     there are  3 classes
     the character table:

       E     2C3   3s_v 
A_1    1.00  1.00  1.00
A_2    1.00  1.00 -1.00
E      2.00 -1.00  0.00

     the symmetry operations in each class and the name of the first element:

     E        1
          identity                                               
     2C3      2    3
          120 deg rotation - cryst. axis [0,0,1]                 
     3s_v     4    5    6
          inv. 180 deg rotation - cart. axis [1,0,0]             

   Cartesian axes

     site n.     atom                  positions (alat units)
         1        Co     tau(   1) = (   0.0000000   0.0000000   0.0000000  )
         2        O      tau(   2) = (  -0.0000000   0.5773503   0.3404255  )
         3        O      tau(   3) = (   0.5000000   0.2886751   2.1063830  )
         4        Li     tau(   4) = (  -0.0000000   0.5773503   1.4893617  )

   Crystallographic axes

     site n.     atom                  positions (cryst. coord.)
         1        Co     tau(   1) = (  0.0000000  0.0000000  0.0000000  )
         2        O      tau(   2) = (  0.3333333  0.6666667  0.1391304  )
         3        O      tau(   3) = (  0.6666667  0.3333333  0.8608696  )
         4        Li     tau(   4) = (  0.3333333  0.6666667  0.6086957  )

     number of k points=    25  Marzari-Vanderbilt smearing, width (Ry)=  0.0200
                       cart. coord. in units 2pi/alat
        k(    1) = (   0.0000000   0.0000000   0.0000000), wk =   0.0052083
        k(    2) = (   0.0000000   0.0000000   0.1362319), wk =   0.0104167
        k(    3) = (   0.0000000   0.1443376   0.0000000), wk =   0.0312500
        k(    4) = (   0.0000000   0.1443376   0.1362319), wk =   0.0312500
        k(    5) = (   0.0000000   0.2886751   0.0000000), wk =   0.0312500
        k(    6) = (   0.0000000   0.2886751   0.1362319), wk =   0.0312500
        k(    7) = (   0.0000000   0.4330127   0.0000000), wk =   0.0312500
        k(    8) = (   0.0000000   0.4330127   0.1362319), wk =   0.0312500
        k(    9) = (   0.0000000  -0.5773503   0.0000000), wk =   0.0156250
        k(   10) = (   0.0000000  -0.5773503   0.1362319), wk =   0.0312500
        k(   11) = (   0.1250000   0.2165064   0.0000000), wk =   0.0312500
        k(   12) = (   0.1250000   0.2165064   0.1362319), wk =   0.0625000
        k(   13) = (   0.1250000   0.3608439   0.0000000), wk =   0.0625000
        k(   14) = (   0.1250000   0.3608439   0.1362319), wk =   0.0625000
        k(   15) = (   0.1250000   0.5051815   0.0000000), wk =   0.0625000
        k(   16) = (   0.1250000   0.5051815   0.1362319), wk =   0.0625000
        k(   17) = (   0.2500000   0.4330127   0.0000000), wk =   0.0312500
        k(   18) = (   0.2500000   0.4330127   0.1362319), wk =   0.0625000
        k(   19) = (   0.2500000   0.5773503   0.0000000), wk =   0.0312500
        k(   20) = (   0.2500000   0.5773503   0.1362319), wk =   0.0625000
        k(   21) = (   0.0000000  -0.1443376   0.1362319), wk =   0.0312500
        k(   22) = (   0.0000000  -0.2886751   0.1362319), wk =   0.0312500
        k(   23) = (   0.0000000  -0.4330127   0.1362319), wk =   0.0312500
        k(   24) = (  -0.1250000  -0.3608439   0.1362319), wk =   0.0625000
        k(   25) = (  -0.1250000  -0.5051815   0.1362319), wk =   0.0625000

                       cryst. coord.
        k(    1) = (   0.0000000   0.0000000   0.0000000), wk =   0.0052083
        k(    2) = (   0.0000000   0.0000000   0.3333333), wk =   0.0104167
        k(    3) = (   0.0000000   0.1250000   0.0000000), wk =   0.0312500
        k(    4) = (   0.0000000   0.1250000   0.3333333), wk =   0.0312500
        k(    5) = (   0.0000000   0.2500000   0.0000000), wk =   0.0312500
        k(    6) = (   0.0000000   0.2500000   0.3333333), wk =   0.0312500
        k(    7) = (   0.0000000   0.3750000   0.0000000), wk =   0.0312500
        k(    8) = (   0.0000000   0.3750000   0.3333333), wk =   0.0312500
        k(    9) = (   0.0000000  -0.5000000   0.0000000), wk =   0.0156250
        k(   10) = (   0.0000000  -0.5000000   0.3333333), wk =   0.0312500
        k(   11) = (   0.1250000   0.1250000   0.0000000), wk =   0.0312500
        k(   12) = (   0.1250000   0.1250000   0.3333333), wk =   0.0625000
        k(   13) = (   0.1250000   0.2500000   0.0000000), wk =   0.0625000
        k(   14) = (   0.1250000   0.2500000   0.3333333), wk =   0.0625000
        k(   15) = (   0.1250000   0.3750000   0.0000000), wk =   0.0625000
        k(   16) = (   0.1250000   0.3750000   0.3333333), wk =   0.0625000
        k(   17) = (   0.2500000   0.2500000   0.0000000), wk =   0.0312500
        k(   18) = (   0.2500000   0.2500000   0.3333333), wk =   0.0625000
        k(   19) = (   0.2500000   0.3750000   0.0000000), wk =   0.0312500
        k(   20) = (   0.2500000   0.3750000   0.3333333), wk =   0.0625000
        k(   21) = (   0.0000000  -0.1250000   0.3333333), wk =   0.0312500
        k(   22) = (   0.0000000  -0.2500000   0.3333333), wk =   0.0312500
        k(   23) = (   0.0000000  -0.3750000   0.3333333), wk =   0.0312500
        k(   24) = (  -0.1250000  -0.2500000   0.3333333), wk =   0.0625000
        k(   25) = (  -0.1250000  -0.3750000   0.3333333), wk =   0.0625000

     Dense  grid:    56785 G-vectors     FFT dimensions: (  40,  40,  96)

     Smooth grid:    20183 G-vectors     FFT dimensions: (  27,  27,  72)

     Dynamical RAM for                 wfc:       0.92 MB

     Dynamical RAM for     wfc (w. buffer):      47.01 MB

     Dynamical RAM for           str. fact:       2.60 MB

     Dynamical RAM for           local pot:       0.00 MB

     Dynamical RAM for          nlocal pot:       1.61 MB

     Dynamical RAM for                qrad:       5.27 MB

     Dynamical RAM for          rho,v,vnew:      12.23 MB

     Dynamical RAM for               rhoin:       4.08 MB

     Dynamical RAM for            rho*nmix:      27.73 MB

     Dynamical RAM for           G-vectors:       3.40 MB

     Dynamical RAM for          h,s,v(r/c):       0.11 MB

     Dynamical RAM for          <psi|beta>:       0.02 MB

     Dynamical RAM for                 psi:       1.84 MB

     Dynamical RAM for                hpsi:       1.84 MB

     Dynamical RAM for                spsi:       1.84 MB

     Dynamical RAM for      wfcinit/wfcrot:       1.86 MB

     Dynamical RAM for           addusdens:     163.76 MB

     Dynamical RAM for          addusforce:     165.51 MB

     Estimated static dynamical RAM per process >      86.70 MB

     Estimated max dynamical RAM per process >     279.94 MB

     Check: negative core charge=   -0.000008
     Generating pointlists ...
     new r_m :   0.2765 (alat units)  1.4733 (a.u.) for type    1
     new r_m :   0.2765 (alat units)  1.4733 (a.u.) for type    2
     new r_m :   0.3486 (alat units)  1.8575 (a.u.) for type    3

     Initial potential from superposition of free atoms

     starting charge      31.9951, renormalised to      32.0000
     Starting wfcs are   23 randomized atomic wfcs +    1 random wfcs
     Checking if some PAW data can be deallocated... 

     total cpu time spent up to now is        3.6 secs

     Self-consistent Calculation
[tb_dev] Currently allocated     6.36E-01 Mbytes, locked:    0 /   6
[tb_pin] Currently allocated     0.00E+00 Mbytes, locked:    0 /   0

     iteration #  1     ecut=    60.00 Ry     beta= 0.30
     Davidson diagonalization with overlap

---- Real-time Memory Report at c_bands before calling an iterative solver
           663 MiB given to the printing process from OS
             0 MiB allocation reported by mallinfo(arena+hblkhd)
        849828 MiB available memory on the node where the printing process lives
     GPU memory used/free/total (MiB): 990 / 80160 / 81151
------------------
     ethr =  1.00E-02,  avg # of iterations =  7.6

     total cpu time spent up to now is        5.4 secs

     total energy              =    -474.49920300 Ry
     estimated scf accuracy    <       1.47403133 Ry

     total magnetization       =     4.01 Bohr mag/cell
     absolute magnetization    =     4.01 Bohr mag/cell
[tb_dev] Currently allocated     3.05E-05 Mbytes, locked:    0 /   2
[tb_pin] Currently allocated     0.00E+00 Mbytes, locked:    0 /   0

     iteration #  2     ecut=    60.00 Ry     beta= 0.30
     Davidson diagonalization with overlap

---- Real-time Memory Report at c_bands before calling an iterative solver
           705 MiB given to the printing process from OS
             0 MiB allocation reported by mallinfo(arena+hblkhd)
        849738 MiB available memory on the node where the printing process lives
     GPU memory used/free/total (MiB): 1004 / 80146 / 81151
------------------
     ethr =  4.61E-03,  avg # of iterations =  2.0

     total cpu time spent up to now is        6.5 secs

     total energy              =    -474.62318014 Ry
     estimated scf accuracy    <       2.36137700 Ry

     total magnetization       =     0.90 Bohr mag/cell
     absolute magnetization    =     1.39 Bohr mag/cell
[tb_dev] Currently allocated     3.05E-05 Mbytes, locked:    0 /   2
[tb_pin] Currently allocated     0.00E+00 Mbytes, locked:    0 /   0

     iteration #  3     ecut=    60.00 Ry     beta= 0.30
     Davidson diagonalization with overlap

---- Real-time Memory Report at c_bands before calling an iterative solver
           708 MiB given to the printing process from OS
             0 MiB allocation reported by mallinfo(arena+hblkhd)
        849762 MiB available memory on the node where the printing process lives
     GPU memory used/free/total (MiB): 1004 / 80146 / 81151
------------------
     ethr =  4.61E-03,  avg # of iterations =  1.1

     total cpu time spent up to now is        7.5 secs

     total energy              =    -474.84109514 Ry
     estimated scf accuracy    <       0.79383242 Ry

     total magnetization       =     3.33 Bohr mag/cell
     absolute magnetization    =     3.35 Bohr mag/cell
[tb_dev] Currently allocated     3.05E-05 Mbytes, locked:    0 /   2
[tb_pin] Currently allocated     0.00E+00 Mbytes, locked:    0 /   0

     iteration #  4     ecut=    60.00 Ry     beta= 0.30
     Davidson diagonalization with overlap

---- Real-time Memory Report at c_bands before calling an iterative solver
           709 MiB given to the printing process from OS
             0 MiB allocation reported by mallinfo(arena+hblkhd)
        849748 MiB available memory on the node where the printing process lives
     GPU memory used/free/total (MiB): 1004 / 80146 / 81151
------------------
     ethr =  2.48E-03,  avg # of iterations =  1.1

     total cpu time spent up to now is        8.5 secs

     total energy              =    -474.95322331 Ry
     estimated scf accuracy    <       0.30514162 Ry

     total magnetization       =     2.20 Bohr mag/cell
     absolute magnetization    =     2.23 Bohr mag/cell
[tb_dev] Currently allocated     3.05E-05 Mbytes, locked:    0 /   2
[tb_pin] Currently allocated     0.00E+00 Mbytes, locked:    0 /   0

     iteration #  5     ecut=    60.00 Ry     beta= 0.30
     Davidson diagonalization with overlap

---- Real-time Memory Report at c_bands before calling an iterative solver
           710 MiB given to the printing process from OS
             0 MiB allocation reported by mallinfo(arena+hblkhd)
        849758 MiB available memory on the node where the printing process lives
     GPU memory used/free/total (MiB): 1004 / 80146 / 81151
------------------
     ethr =  9.54E-04,  avg # of iterations =  1.4

     total cpu time spent up to now is        9.5 secs

     total energy              =    -474.98900822 Ry
     estimated scf accuracy    <       0.20321574 Ry

     total magnetization       =     2.02 Bohr mag/cell
     absolute magnetization    =     2.10 Bohr mag/cell
[tb_dev] Currently allocated     3.05E-05 Mbytes, locked:    0 /   2
[tb_pin] Currently allocated     0.00E+00 Mbytes, locked:    0 /   0

     iteration #  6     ecut=    60.00 Ry     beta= 0.30
     Davidson diagonalization with overlap

---- Real-time Memory Report at c_bands before calling an iterative solver
           712 MiB given to the printing process from OS
             0 MiB allocation reported by mallinfo(arena+hblkhd)
        849759 MiB available memory on the node where the printing process lives
     GPU memory used/free/total (MiB): 1004 / 80146 / 81151
------------------
     ethr =  6.35E-04,  avg # of iterations =  1.3

     total cpu time spent up to now is       10.6 secs

     total energy              =    -475.02540543 Ry
     estimated scf accuracy    <       0.14502211 Ry

     total magnetization       =     1.33 Bohr mag/cell
     absolute magnetization    =     1.55 Bohr mag/cell
[tb_dev] Currently allocated     3.05E-05 Mbytes, locked:    0 /   2
[tb_pin] Currently allocated     0.00E+00 Mbytes, locked:    0 /   0

     iteration #  7     ecut=    60.00 Ry     beta= 0.30
     Davidson diagonalization with overlap

---- Real-time Memory Report at c_bands before calling an iterative solver
           713 MiB given to the printing process from OS
             0 MiB allocation reported by mallinfo(arena+hblkhd)
        849756 MiB available memory on the node where the printing process lives
     GPU memory used/free/total (MiB): 1004 / 80146 / 81151
------------------
     ethr =  4.53E-04,  avg # of iterations =  1.3

     total cpu time spent up to now is       11.6 secs

     total energy              =    -475.06686825 Ry
     estimated scf accuracy    <       0.05831397 Ry

     total magnetization       =     0.47 Bohr mag/cell
     absolute magnetization    =     0.84 Bohr mag/cell
[tb_dev] Currently allocated     3.05E-05 Mbytes, locked:    0 /   2
[tb_pin] Currently allocated     0.00E+00 Mbytes, locked:    0 /   0

     iteration #  8     ecut=    60.00 Ry     beta= 0.30
     Davidson diagonalization with overlap

---- Real-time Memory Report at c_bands before calling an iterative solver
           715 MiB given to the printing process from OS
             0 MiB allocation reported by mallinfo(arena+hblkhd)
        850241 MiB available memory on the node where the printing process lives
     GPU memory used/free/total (MiB): 1004 / 80146 / 81151
------------------
     ethr =  1.82E-04,  avg # of iterations =  2.6

     total cpu time spent up to now is       12.8 secs

     total energy              =    -475.06726411 Ry
     estimated scf accuracy    <       0.06129479 Ry

     total magnetization       =     0.07 Bohr mag/cell
     absolute magnetization    =     0.38 Bohr mag/cell
[tb_dev] Currently allocated     3.05E-05 Mbytes, locked:    0 /   2
[tb_pin] Currently allocated     0.00E+00 Mbytes, locked:    0 /   0

     iteration #  9     ecut=    60.00 Ry     beta= 0.30
     Davidson diagonalization with overlap

---- Real-time Memory Report at c_bands before calling an iterative solver
           716 MiB given to the printing process from OS
             0 MiB allocation reported by mallinfo(arena+hblkhd)
        850423 MiB available memory on the node where the printing process lives
     GPU memory used/free/total (MiB): 1004 / 80146 / 81151
------------------
     ethr =  1.82E-04,  avg # of iterations =  1.7

     total cpu time spent up to now is       13.8 secs

     total energy              =    -475.08062718 Ry
     estimated scf accuracy    <       0.02502059 Ry

     total magnetization       =     0.25 Bohr mag/cell
     absolute magnetization    =     0.59 Bohr mag/cell
[tb_dev] Currently allocated     3.05E-05 Mbytes, locked:    0 /   2
[tb_pin] Currently allocated     0.00E+00 Mbytes, locked:    0 /   0

     iteration # 10     ecut=    60.00 Ry     beta= 0.30
     Davidson diagonalization with overlap

---- Real-time Memory Report at c_bands before calling an iterative solver
           717 MiB given to the printing process from OS
             0 MiB allocation reported by mallinfo(arena+hblkhd)
        850117 MiB available memory on the node where the printing process lives
     GPU memory used/free/total (MiB): 1004 / 80146 / 81151
------------------
     ethr =  7.82E-05,  avg # of iterations =  2.5

     total cpu time spent up to now is       15.0 secs

     total energy              =    -475.08257729 Ry
     estimated scf accuracy    <       0.00411184 Ry

     total magnetization       =     0.16 Bohr mag/cell
     absolute magnetization    =     0.39 Bohr mag/cell
[tb_dev] Currently allocated     3.05E-05 Mbytes, locked:    0 /   2
[tb_pin] Currently allocated     0.00E+00 Mbytes, locked:    0 /   0

     iteration # 11     ecut=    60.00 Ry     beta= 0.30
     Davidson diagonalization with overlap

---- Real-time Memory Report at c_bands before calling an iterative solver
           717 MiB given to the printing process from OS
             0 MiB allocation reported by mallinfo(arena+hblkhd)
        849970 MiB available memory on the node where the printing process lives
     GPU memory used/free/total (MiB): 1004 / 80146 / 81151
------------------
     ethr =  1.28E-05,  avg # of iterations =  8.2
     Minimization algorithm failed to find Fermi energy: reverting to bisection
     Possible cause: smearing is larger than the electronic band-gap.

     total cpu time spent up to now is       16.7 secs

     total energy              =    -475.08308099 Ry
     estimated scf accuracy    <       0.00555830 Ry

     total magnetization       =     0.11 Bohr mag/cell
     absolute magnetization    =     0.35 Bohr mag/cell
[tb_dev] Currently allocated     3.05E-05 Mbytes, locked:    0 /   2
[tb_pin] Currently allocated     0.00E+00 Mbytes, locked:    0 /   0

     iteration # 12     ecut=    60.00 Ry     beta= 0.30
     Davidson diagonalization with overlap

---- Real-time Memory Report at c_bands before calling an iterative solver
           717 MiB given to the printing process from OS
             0 MiB allocation reported by mallinfo(arena+hblkhd)
        849822 MiB available memory on the node where the printing process lives
     GPU memory used/free/total (MiB): 1004 / 80146 / 81151
------------------
     ethr =  1.28E-05,  avg # of iterations =  2.7

     total cpu time spent up to now is       17.9 secs

     total energy              =    -475.08456560 Ry
     estimated scf accuracy    <       0.00457501 Ry

     total magnetization       =     0.02 Bohr mag/cell
     absolute magnetization    =     0.18 Bohr mag/cell
[tb_dev] Currently allocated     3.05E-05 Mbytes, locked:    0 /   2
[tb_pin] Currently allocated     0.00E+00 Mbytes, locked:    0 /   0

     iteration # 13     ecut=    60.00 Ry     beta= 0.30
     Davidson diagonalization with overlap

---- Real-time Memory Report at c_bands before calling an iterative solver
           717 MiB given to the printing process from OS
             0 MiB allocation reported by mallinfo(arena+hblkhd)
        850022 MiB available memory on the node where the printing process lives
     GPU memory used/free/total (MiB): 1004 / 80146 / 81151
------------------
     ethr =  1.28E-05,  avg # of iterations =  1.2

     total cpu time spent up to now is       18.9 secs

     total energy              =    -475.08482370 Ry
     estimated scf accuracy    <       0.00099999 Ry

     total magnetization       =     0.11 Bohr mag/cell
     absolute magnetization    =     0.26 Bohr mag/cell
[tb_dev] Currently allocated     3.05E-05 Mbytes, locked:    0 /   2
[tb_pin] Currently allocated     0.00E+00 Mbytes, locked:    0 /   0

     iteration # 14     ecut=    60.00 Ry     beta= 0.30
     Davidson diagonalization with overlap

---- Real-time Memory Report at c_bands before calling an iterative solver
           717 MiB given to the printing process from OS
             0 MiB allocation reported by mallinfo(arena+hblkhd)
        849958 MiB available memory on the node where the printing process lives
     GPU memory used/free/total (MiB): 1004 / 80146 / 81151
------------------
     ethr =  3.12E-06,  avg # of iterations =  3.3

     total cpu time spent up to now is       20.2 secs

     total energy              =    -475.08495214 Ry
     estimated scf accuracy    <       0.00017812 Ry

     total magnetization       =     0.15 Bohr mag/cell
     absolute magnetization    =     0.31 Bohr mag/cell
[tb_dev] Currently allocated     3.05E-05 Mbytes, locked:    0 /   2
[tb_pin] Currently allocated     0.00E+00 Mbytes, locked:    0 /   0

     iteration # 15     ecut=    60.00 Ry     beta= 0.30
     Davidson diagonalization with overlap

---- Real-time Memory Report at c_bands before calling an iterative solver
           717 MiB given to the printing process from OS
             0 MiB allocation reported by mallinfo(arena+hblkhd)
        849756 MiB available memory on the node where the printing process lives
     GPU memory used/free/total (MiB): 1004 / 80146 / 81151
------------------
     ethr =  5.57E-07,  avg # of iterations =  4.6

     total cpu time spent up to now is       21.6 secs

     total energy              =    -475.08505864 Ry
     estimated scf accuracy    <       0.00004278 Ry

     total magnetization       =     0.16 Bohr mag/cell
     absolute magnetization    =     0.33 Bohr mag/cell
[tb_dev] Currently allocated     3.05E-05 Mbytes, locked:    0 /   2
[tb_pin] Currently allocated     0.00E+00 Mbytes, locked:    0 /   0

     iteration # 16     ecut=    60.00 Ry     beta= 0.30
     Davidson diagonalization with overlap

---- Real-time Memory Report at c_bands before calling an iterative solver
           718 MiB given to the printing process from OS
             0 MiB allocation reported by mallinfo(arena+hblkhd)
        849766 MiB available memory on the node where the printing process lives
     GPU memory used/free/total (MiB): 1004 / 80146 / 81151
------------------
     ethr =  1.34E-07,  avg # of iterations =  4.3

     total cpu time spent up to now is       22.9 secs

     total energy              =    -475.08510025 Ry
     estimated scf accuracy    <       0.00001666 Ry

     total magnetization       =     0.16 Bohr mag/cell
     absolute magnetization    =     0.32 Bohr mag/cell
[tb_dev] Currently allocated     3.05E-05 Mbytes, locked:    0 /   2
[tb_pin] Currently allocated     0.00E+00 Mbytes, locked:    0 /   0

     iteration # 17     ecut=    60.00 Ry     beta= 0.30
     Davidson diagonalization with overlap

---- Real-time Memory Report at c_bands before calling an iterative solver
           718 MiB given to the printing process from OS
             0 MiB allocation reported by mallinfo(arena+hblkhd)
        849526 MiB available memory on the node where the printing process lives
     GPU memory used/free/total (MiB): 1004 / 80146 / 81151
------------------
     ethr =  5.21E-08,  avg # of iterations =  3.0

     total cpu time spent up to now is       24.1 secs

     total energy              =    -475.08511621 Ry
     estimated scf accuracy    <       0.00000779 Ry

     total magnetization       =     0.16 Bohr mag/cell
     absolute magnetization    =     0.33 Bohr mag/cell
[tb_dev] Currently allocated     3.05E-05 Mbytes, locked:    0 /   2
[tb_pin] Currently allocated     0.00E+00 Mbytes, locked:    0 /   0

     iteration # 18     ecut=    60.00 Ry     beta= 0.30
     Davidson diagonalization with overlap

---- Real-time Memory Report at c_bands before calling an iterative solver
           718 MiB given to the printing process from OS
             0 MiB allocation reported by mallinfo(arena+hblkhd)
        849480 MiB available memory on the node where the printing process lives
     GPU memory used/free/total (MiB): 1004 / 80146 / 81151
------------------
     ethr =  2.44E-08,  avg # of iterations =  2.7

     total cpu time spent up to now is       25.3 secs

     total energy              =    -475.08512252 Ry
     estimated scf accuracy    <       0.00000535 Ry

     total magnetization       =     0.16 Bohr mag/cell
     absolute magnetization    =     0.34 Bohr mag/cell
[tb_dev] Currently allocated     3.05E-05 Mbytes, locked:    0 /   2
[tb_pin] Currently allocated     0.00E+00 Mbytes, locked:    0 /   0

     iteration # 19     ecut=    60.00 Ry     beta= 0.30
     Davidson diagonalization with overlap

---- Real-time Memory Report at c_bands before calling an iterative solver
           718 MiB given to the printing process from OS
             0 MiB allocation reported by mallinfo(arena+hblkhd)
        849478 MiB available memory on the node where the printing process lives
     GPU memory used/free/total (MiB): 1004 / 80146 / 81151
------------------
     ethr =  1.67E-08,  avg # of iterations =  2.1

     total cpu time spent up to now is       26.4 secs

     total energy              =    -475.08512800 Ry
     estimated scf accuracy    <       0.00000169 Ry

     total magnetization       =     0.16 Bohr mag/cell
     absolute magnetization    =     0.34 Bohr mag/cell
[tb_dev] Currently allocated     3.05E-05 Mbytes, locked:    0 /   2
[tb_pin] Currently allocated     0.00E+00 Mbytes, locked:    0 /   0

     iteration # 20     ecut=    60.00 Ry     beta= 0.30
     Davidson diagonalization with overlap

---- Real-time Memory Report at c_bands before calling an iterative solver
           718 MiB given to the printing process from OS
             0 MiB allocation reported by mallinfo(arena+hblkhd)
        849476 MiB available memory on the node where the printing process lives
     GPU memory used/free/total (MiB): 1004 / 80146 / 81151
------------------
     ethr =  5.29E-09,  avg # of iterations =  4.6

     total cpu time spent up to now is       27.8 secs

     total energy              =    -475.08513130 Ry
     estimated scf accuracy    <       0.00000158 Ry

     total magnetization       =     0.16 Bohr mag/cell
     absolute magnetization    =     0.35 Bohr mag/cell
[tb_dev] Currently allocated     3.05E-05 Mbytes, locked:    0 /   2
[tb_pin] Currently allocated     0.00E+00 Mbytes, locked:    0 /   0

     iteration # 21     ecut=    60.00 Ry     beta= 0.30
     Davidson diagonalization with overlap

---- Real-time Memory Report at c_bands before calling an iterative solver
           718 MiB given to the printing process from OS
             0 MiB allocation reported by mallinfo(arena+hblkhd)
        849488 MiB available memory on the node where the printing process lives
     GPU memory used/free/total (MiB): 1004 / 80146 / 81151
------------------
     ethr =  4.92E-09,  avg # of iterations =  1.6

     total cpu time spent up to now is       28.9 secs

     total energy              =    -475.08513342 Ry
     estimated scf accuracy    <       0.00000142 Ry

     total magnetization       =     0.16 Bohr mag/cell
     absolute magnetization    =     0.35 Bohr mag/cell
[tb_dev] Currently allocated     3.05E-05 Mbytes, locked:    0 /   2
[tb_pin] Currently allocated     0.00E+00 Mbytes, locked:    0 /   0

     iteration # 22     ecut=    60.00 Ry     beta= 0.30
     Davidson diagonalization with overlap

---- Real-time Memory Report at c_bands before calling an iterative solver
           718 MiB given to the printing process from OS
             0 MiB allocation reported by mallinfo(arena+hblkhd)
        849478 MiB available memory on the node where the printing process lives
     GPU memory used/free/total (MiB): 1004 / 80146 / 81151
------------------
     ethr =  4.43E-09,  avg # of iterations =  2.5

     total cpu time spent up to now is       30.0 secs

     total energy              =    -475.08513788 Ry
     estimated scf accuracy    <       0.00000051 Ry

     total magnetization       =     0.16 Bohr mag/cell
     absolute magnetization    =     0.36 Bohr mag/cell
[tb_dev] Currently allocated     3.05E-05 Mbytes, locked:    0 /   2
[tb_pin] Currently allocated     0.00E+00 Mbytes, locked:    0 /   0

     iteration # 23     ecut=    60.00 Ry     beta= 0.30
     Davidson diagonalization with overlap

---- Real-time Memory Report at c_bands before calling an iterative solver
           718 MiB given to the printing process from OS
             0 MiB allocation reported by mallinfo(arena+hblkhd)
        849452 MiB available memory on the node where the printing process lives
     GPU memory used/free/total (MiB): 1004 / 80146 / 81151
------------------
     ethr =  1.60E-09,  avg # of iterations =  4.4

     total cpu time spent up to now is       31.4 secs

     total energy              =    -475.08513806 Ry
     estimated scf accuracy    <       0.00000021 Ry

     total magnetization       =     0.16 Bohr mag/cell
     absolute magnetization    =     0.37 Bohr mag/cell
[tb_dev] Currently allocated     3.05E-05 Mbytes, locked:    0 /   2
[tb_pin] Currently allocated     0.00E+00 Mbytes, locked:    0 /   0

     iteration # 24     ecut=    60.00 Ry     beta= 0.30
     Davidson diagonalization with overlap

---- Real-time Memory Report at c_bands before calling an iterative solver
           718 MiB given to the printing process from OS
             0 MiB allocation reported by mallinfo(arena+hblkhd)
        849441 MiB available memory on the node where the printing process lives
     GPU memory used/free/total (MiB): 1004 / 80146 / 81151
------------------
     ethr =  6.64E-10,  avg # of iterations =  4.7

     total cpu time spent up to now is       32.8 secs

     total energy              =    -475.08514308 Ry
     estimated scf accuracy    <       0.00000024 Ry

     total magnetization       =     0.16 Bohr mag/cell
     absolute magnetization    =     0.38 Bohr mag/cell
[tb_dev] Currently allocated     3.05E-05 Mbytes, locked:    0 /   2
[tb_pin] Currently allocated     0.00E+00 Mbytes, locked:    0 /   0

     iteration # 25     ecut=    60.00 Ry     beta= 0.30
     Davidson diagonalization with overlap

---- Real-time Memory Report at c_bands before calling an iterative solver
           718 MiB given to the printing process from OS
             0 MiB allocation reported by mallinfo(arena+hblkhd)
        849414 MiB available memory on the node where the printing process lives
     GPU memory used/free/total (MiB): 1004 / 80146 / 81151
------------------
     ethr =  6.64E-10,  avg # of iterations =  1.9

     total cpu time spent up to now is       33.9 secs

     total energy              =    -475.08514353 Ry
     estimated scf accuracy    <       0.00000006 Ry

     total magnetization       =     0.16 Bohr mag/cell
     absolute magnetization    =     0.38 Bohr mag/cell
[tb_dev] Currently allocated     3.05E-05 Mbytes, locked:    0 /   2
[tb_pin] Currently allocated     0.00E+00 Mbytes, locked:    0 /   0

     iteration # 26     ecut=    60.00 Ry     beta= 0.30
     Davidson diagonalization with overlap

---- Real-time Memory Report at c_bands before calling an iterative solver
           718 MiB given to the printing process from OS
             0 MiB allocation reported by mallinfo(arena+hblkhd)
        849424 MiB available memory on the node where the printing process lives
     GPU memory used/free/total (MiB): 1004 / 80146 / 81151
------------------
     ethr =  1.95E-10,  avg # of iterations =  4.6

     total cpu time spent up to now is       35.3 secs

     total energy              =    -475.08514347 Ry
     estimated scf accuracy    <       0.00000003 Ry

     total magnetization       =     0.16 Bohr mag/cell
     absolute magnetization    =     0.38 Bohr mag/cell
[tb_dev] Currently allocated     3.05E-05 Mbytes, locked:    0 /   2
[tb_pin] Currently allocated     0.00E+00 Mbytes, locked:    0 /   0

     iteration # 27     ecut=    60.00 Ry     beta= 0.30
     Davidson diagonalization with overlap

---- Real-time Memory Report at c_bands before calling an iterative solver
           718 MiB given to the printing process from OS
             0 MiB allocation reported by mallinfo(arena+hblkhd)
        849416 MiB available memory on the node where the printing process lives
     GPU memory used/free/total (MiB): 1004 / 80146 / 81151
------------------
     ethr =  1.05E-10,  avg # of iterations =  4.6

     total cpu time spent up to now is       36.7 secs

     total energy              =    -475.08514425 Ry
     estimated scf accuracy    <       0.00000001 Ry

     total magnetization       =     0.16 Bohr mag/cell
     absolute magnetization    =     0.39 Bohr mag/cell
[tb_dev] Currently allocated     3.05E-05 Mbytes, locked:    0 /   2
[tb_pin] Currently allocated     0.00E+00 Mbytes, locked:    0 /   0

     iteration # 28     ecut=    60.00 Ry     beta= 0.30
     Davidson diagonalization with overlap

---- Real-time Memory Report at c_bands before calling an iterative solver
           718 MiB given to the printing process from OS
             0 MiB allocation reported by mallinfo(arena+hblkhd)
        849352 MiB available memory on the node where the printing process lives
     GPU memory used/free/total (MiB): 1004 / 80146 / 81151
------------------
     ethr =  4.03E-11,  avg # of iterations =  4.6
 
     Magnetic moment per site  (integrated on atomic sphere of radius R)
     atom   1 (R=0.276)  charge= 14.0651  magn=  0.2198
     atom   2 (R=0.276)  charge=  5.1609  magn=  0.0203
     atom   3 (R=0.276)  charge=  5.2245  magn=  0.0121
     atom   4 (R=0.349)  charge=  2.1719  magn= -0.0258

     total cpu time spent up to now is       38.0 secs

     End of self-consistent calculation

 ------ SPIN UP ------------


          k = 0.0000 0.0000 0.0000 (  2553 PWs)   bands (ev):

   -88.7057 -51.9885 -51.9236 -51.9236 -40.9702 -13.5678 -11.4619  -0.0053
     1.1563   1.1563   3.6691   4.7146   4.7146   5.3178   5.3178   5.8274
     7.0055   9.1335   9.1335  12.1525  14.7121  17.2258  21.1969  21.8400

     occupation numbers 
     1.0000   1.0000   1.0000   1.0000   1.0000   1.0000   1.0000   1.0000
     1.0000   1.0000   1.0000   1.0000   1.0000   1.0000   1.0000   1.0003
     0.0308   0.0000   0.0000   0.0000   0.0000   0.0000   0.0000   0.0000

          k = 0.0000 0.0000 0.1362 (  2534 PWs)   bands (ev):

   -88.7057 -51.9884 -51.9236 -51.9236 -40.9701 -13.5676 -11.4626   0.0515
     1.1564   1.1564   3.3496   4.7143   4.7143   5.3177   5.3177   6.3171
     6.9881   9.1342   9.1342  11.4317  15.4481  17.3046  21.0427  21.8261

     occupation numbers 
     1.0000   1.0000   1.0000   1.0000   1.0000   1.0000   1.0000   1.0000
     1.0000   1.0000   1.0000   1.0000   1.0000   1.0000   1.0000   1.0799
     0.0384   0.0000   0.0000   0.0000   0.0000   0.0000   0.0000   0.0000

          k = 0.0000 0.1443 0.0000 (  2529 PWs)   bands (ev):

   -88.7046 -51.9867 -51.9347 -51.9262 -40.9660 -13.3843 -11.4448   0.1624
     0.9040   1.2596   3.5810   4.1032   4.1257   5.6139   5.8217   5.9921
     7.1865   8.6271   9.0260  12.5180  15.2466  17.8605  20.3985  21.0138

     occupation numbers 
     1.0000   1.0000   1.0000   1.0000   1.0000   1.0000   1.0000   1.0000
     1.0000   1.0000   1.0000   1.0000   1.0000   1.0000   1.0003   1.0045
     0.0019   0.0000   0.0000   0.0000   0.0000   0.0000   0.0000   0.0000

          k = 0.0000 0.1443 0.1362 (  2537 PWs)   bands (ev):

   -88.7046 -51.9867 -51.9348 -51.9263 -40.9660 -13.3841 -11.4455   0.2048
     0.9044   1.2596   3.5665   3.8418   4.1257   5.5957   5.8217   6.4147
     7.1063   8.7338   9.0259  11.8767  15.9999  17.7342  20.3688  21.0033

     occupation numbers 
     1.0000   1.0000   1.0000   1.0000   1.0000   1.0000   1.0000   1.0000
     1.0000   1.0000   1.0000   1.0000   1.0000   1.0000   1.0003   1.0676
     0.0073   0.0000   0.0000   0.0000   0.0000   0.0000   0.0000   0.0000

          k = 0.0000 0.2887 0.0000 (  2521 PWs)   bands (ev):

   -88.7020 -51.9826 -51.9619 -51.9326 -40.9559 -12.9100 -11.4068   0.2491
     0.8710   1.4911   2.1093   3.5058   4.4016   5.7129   6.1548   6.2716
     7.4486   8.1869   8.8907  13.0810  16.3681  17.4127  19.5536  19.6553

     occupation numbers 
     1.0000   1.0000   1.0000   1.0000   1.0000   1.0000   1.0000   1.0000
     1.0000   1.0000   1.0000   1.0000   1.0000   1.0000   1.0300   1.0680
     0.0000   0.0000   0.0000   0.0000   0.0000   0.0000   0.0000   0.0000

          k = 0.0000 0.2887 0.1362 (  2522 PWs)   bands (ev):

   -88.7020 -51.9825 -51.9620 -51.9326 -40.9560 -12.9098 -11.4073   0.2350
     0.9108   1.4909   2.1220   3.5062   4.2886   5.6635   6.1552   6.4592
     7.1075   8.6315   8.8894  12.6673  16.6422  17.8309  18.8047  19.6629

     occupation numbers 
     1.0000   1.0000   1.0000   1.0000   1.0000   1.0000   1.0000   1.0000
     1.0000   1.0000   1.0000   1.0000   1.0000   1.0000   1.0301   1.0325
     0.0072   0.0000   0.0000   0.0000   0.0000   0.0000   0.0000   0.0000

          k = 0.0000 0.4330 0.0000 (  2498 PWs)   bands (ev):

   -88.6993 -51.9893 -51.9780 -51.9389 -40.9458 -12.3810 -11.3722  -0.2128
     0.7832   1.6450   2.0419   3.2640   3.8581   5.6265   6.0457   6.2625
     7.8731   8.8546   8.9263  13.2601  15.1520  17.4931  18.6821  18.6892

     occupation numbers 
     1.0000   1.0000   1.0000   1.0000   1.0000   1.0000   1.0000   1.0000
     1.0000   1.0000   1.0000   1.0000   1.0000   1.0000   1.0091   1.0650
     0.0000   0.0000   0.0000   0.0000   0.0000   0.0000   0.0000   0.0000

          k = 0.0000 0.4330 0.1362 (  2508 PWs)   bands (ev):

   -88.6994 -51.9894 -51.9781 -51.9389 -40.9459 -12.3808 -11.3724  -0.2140
     0.7699   1.6446   2.0775   3.2651   3.8589   5.6120   6.0459   6.2731
     7.6228   8.9236   9.1668  13.0615  15.1490  17.8457  18.7106  18.9814

     occupation numbers 
     1.0000   1.0000   1.0000   1.0000   1.0000   1.0000   1.0000   1.0000
     1.0000   1.0000   1.0000   1.0000   1.0000   1.0000   1.0092   1.0685
     0.0000   0.0000   0.0000   0.0000   0.0000   0.0000   0.0000   0.0000

          k = 0.0000-0.5774 0.0000 (  2514 PWs)   bands (ev):

   -88.6983 -52.0006 -51.9765 -51.9417 -40.9417 -12.1421 -11.3574  -0.6276
     0.8839   1.6643   2.2810   3.2708   3.4936   5.4688   5.9080   6.2244
     8.1852   8.9779   9.4433  12.6463  15.6542  16.0927  18.3515  18.7861

     occupation numbers 
     1.0000   1.0000   1.0000   1.0000   1.0000   1.0000   1.0000   1.0000
     1.0000   1.0000   1.0000   1.0000   1.0000   1.0000   1.0012   1.0520
     0.0000   0.0000   0.0000   0.0000   0.0000   0.0000   0.0000   0.0000

          k = 0.0000-0.5774 0.1362 (  2506 PWs)   bands (ev):

   -88.6983 -52.0005 -51.9765 -51.9416 -40.9417 -12.1421 -11.3574  -0.6261
     0.8667   1.6638   2.2998   3.2718   3.5105   5.4636   5.9080   6.2207
     8.2157   8.9754   9.3313  12.6188  15.6585  16.5792  18.3766  18.7516

     occupation numbers 
     1.0000   1.0000   1.0000   1.0000   1.0000   1.0000   1.0000   1.0000
     1.0000   1.0000   1.0000   1.0000   1.0000   1.0000   1.0012   1.0507
     0.0000   0.0000   0.0000   0.0000   0.0000   0.0000   0.0000   0.0000

          k = 0.1250 0.2165 0.0000 (  2525 PWs)   bands (ev):

   -88.7027 -51.9838 -51.9527 -51.9320 -40.9589 -13.0548 -11.4167   0.3003
     0.8368   1.3800   2.6047   3.3830   4.4425   5.7727   6.1148   6.2352
     7.4149   8.2229   8.7907  12.9710  16.1694  18.2064  18.6575  20.0883

     occupation numbers 
     1.0000   1.0000   1.0000   1.0000   1.0000   1.0000   1.0000   1.0000
     1.0000   1.0000   1.0000   1.0000   1.0000   1.0001   1.0203   1.0557
     0.0000   0.0000   0.0000   0.0000   0.0000   0.0000   0.0000   0.0000

          k = 0.1250 0.2165 0.1362 (  2531 PWs)   bands (ev):

   -88.7028 -51.9837 -51.9527 -51.9321 -40.9589 -13.0546 -11.4173   0.2986
     0.8689   1.3798   2.6174   3.3824   4.2663   5.7731   6.0729   6.4436
     7.2715   8.4914   8.7643  12.5872  16.7203  18.0752  18.6014  19.7183

     occupation numbers 
     1.0000   1.0000   1.0000   1.0000   1.0000   1.0000   1.0000   1.0000
     1.0000   1.0000   1.0000   1.0000   1.0000   1.0001   1.0127   1.0473
     0.0004   0.0000   0.0000   0.0000   0.0000   0.0000   0.0000   0.0000

          k = 0.1250 0.3608 0.0000 (  2516 PWs)   bands (ev):

   -88.7001 -51.9798 -51.9769 -51.9412 -40.9488 -12.5504 -11.3753   0.1730
     0.8050   1.5763   1.9191   2.9129   4.2027   5.7933   6.1511   6.3525
     7.7655   8.4080   8.7777  13.4708  15.5667  17.3507  18.3842  19.5070

     occupation numbers 
     1.0000   1.0000   1.0000   1.0000   1.0000   1.0000   1.0000   1.0000
     1.0000   1.0000   1.0000   1.0000   1.0000   1.0001   1.0290   1.0833
     0.0000   0.0000   0.0000   0.0000   0.0000   0.0000   0.0000   0.0000

          k = 0.1250 0.3608 0.1362 (  2518 PWs)   bands (ev):

   -88.7001 -51.9799 -51.9769 -51.9412 -40.9488 -12.5502 -11.3756   0.1634
     0.8050   1.5871   1.9487   2.9123   4.1758   5.7889   6.1505   6.3466
     7.4928   8.5896   8.9616  13.3043  15.5124  17.5901  18.4392  19.6485

     occupation numbers 
     1.0000   1.0000   1.0000   1.0000   1.0000   1.0000   1.0000   1.0000
     1.0000   1.0000   1.0000   1.0000   1.0000   1.0001   1.0288   1.0832
     0.0000   0.0000   0.0000   0.0000   0.0000   0.0000   0.0000   0.0000

          k = 0.1250 0.5052 0.0000 (  2507 PWs)   bands (ev):

   -88.6983 -51.9944 -51.9764 -51.9479 -40.9417 -12.1663 -11.3355  -0.3379
     0.7748   1.5819   2.3660   2.7476   3.6028   5.6021   5.9931   6.3360
     8.1845   8.6672   9.4463  12.8358  15.1262  16.9981  17.5790  19.2462

     occupation numbers 
     1.0000   1.0000   1.0000   1.0000   1.0000   1.0000   1.0000   1.0000
     1.0000   1.0000   1.0000   1.0000   1.0000   1.0000   1.0045   1.0826
     0.0000   0.0000   0.0000   0.0000   0.0000   0.0000   0.0000   0.0000

          k = 0.1250 0.5052 0.1362 (  2512 PWs)   bands (ev):

   -88.6983 -51.9944 -51.9765 -51.9479 -40.9417 -12.1663 -11.3356  -0.3362
     0.7608   1.5845   2.3822   2.7497   3.6128   5.5973   5.9938   6.3274
     8.1276   8.6735   9.4828  12.7770  15.1197  17.3578  17.5435  19.5953

     occupation numbers 
     1.0000   1.0000   1.0000   1.0000   1.0000   1.0000   1.0000   1.0000
     1.0000   1.0000   1.0000   1.0000   1.0000   1.0000   1.0046   1.0815
     0.0000   0.0000   0.0000   0.0000   0.0000   0.0000   0.0000   0.0000

          k = 0.2500 0.4330 0.0000 (  2509 PWs)   bands (ev):

   -88.6983 -51.9858 -51.9766 -51.9564 -40.9417 -12.1893 -11.3149   0.1070
     0.6427   1.4139   2.0785   2.6431   3.6797   5.7002   6.0511   6.4727
     8.1540   8.4093   9.4088  13.1480  14.5925  17.0903  18.2653  19.7776

     occupation numbers 
     1.0000   1.0000   1.0000   1.0000   1.0000   1.0000   1.0000   1.0000
     1.0000   1.0000   1.0000   1.0000   1.0000   1.0000   1.0098   1.0171
     0.0000   0.0000   0.0000   0.0000   0.0000   0.0000   0.0000   0.0000

          k = 0.2500 0.4330 0.1362 (  2519 PWs)   bands (ev):

   -88.6983 -51.9858 -51.9766 -51.9565 -40.9417 -12.1892 -11.3150   0.1075
     0.6313   1.4177   2.1000   2.6434   3.6745   5.7024   6.0527   6.4475
     8.1778   8.3453   9.4505  13.1608  14.5857  17.1467  18.3222  19.8602

     occupation numbers 
     1.0000   1.0000   1.0000   1.0000   1.0000   1.0000   1.0000   1.0000
     1.0000   1.0000   1.0000   1.0000   1.0000   1.0000   1.0100   1.0439
     0.0000   0.0000   0.0000   0.0000   0.0000   0.0000   0.0000   0.0000

          k = 0.2500 0.5774 0.0000 (  2514 PWs)   bands (ev):

   -88.6975 -51.9864 -51.9753 -51.9657 -40.9388 -12.0493 -11.2693   0.0139
     0.6940   1.1732   2.2207   2.7958   3.2681   5.4753   6.2032   6.4361
     8.3451   8.3818  10.1683  11.9190  15.1937  17.2173  17.3327  19.4723

     occupation numbers 
     1.0000   1.0000   1.0000   1.0000   1.0000   1.0000   1.0000   1.0000
     1.0000   1.0000   1.0000   1.0000   1.0000   1.0000   1.0448   1.0535
     0.0000   0.0000   0.0000   0.0000   0.0000   0.0000   0.0000   0.0000

          k = 0.2500 0.5774 0.1362 (  2508 PWs)   bands (ev):

   -88.6975 -51.9864 -51.9754 -51.9657 -40.9388 -12.0493 -11.2693   0.0158
     0.6886   1.1747   2.2306   2.7903   3.2654   5.4763   6.2009   6.4318
     8.3614   8.4118  10.1171  11.8747  15.1957  17.2152  17.5732  19.4534

     occupation numbers 
     1.0000   1.0000   1.0000   1.0000   1.0000   1.0000   1.0000   1.0000
     1.0000   1.0000   1.0000   1.0000   1.0000   1.0000   1.0440   1.0568
     0.0000   0.0000   0.0000   0.0000   0.0000   0.0000   0.0000   0.0000

          k = 0.0000-0.1443 0.1362 (  2537 PWs)   bands (ev):

   -88.7046 -51.9867 -51.9348 -51.9263 -40.9660 -13.3841 -11.4455   0.2064
     0.9016   1.2597   3.5479   3.8682   4.1253   5.5964   5.8215   6.3843
     7.1627   8.6671   9.0269  11.9379  15.9723  17.6983  20.3719  21.0090

     occupation numbers 
     1.0000   1.0000   1.0000   1.0000   1.0000   1.0000   1.0000   1.0000
     1.0000   1.0000   1.0000   1.0000   1.0000   1.0000   1.0003   1.0794
     0.0029   0.0000   0.0000   0.0000   0.0000   0.0000   0.0000   0.0000

          k = 0.0000-0.2887 0.1362 (  2522 PWs)   bands (ev):

   -88.7020 -51.9825 -51.9620 -51.9325 -40.9560 -12.9098 -11.4073   0.2394
     0.8987   1.4912   2.1327   3.5054   4.2798   5.6835   6.1550   6.3520
     7.4323   8.2900   8.8910  12.9079  16.7857  17.2730  18.9639  19.6586

     occupation numbers 
     1.0000   1.0000   1.0000   1.0000   1.0000   1.0000   1.0000   1.0000
     1.0000   1.0000   1.0000   1.0000   1.0000   1.0000   1.0300   1.0833
     0.0000   0.0000   0.0000   0.0000   0.0000   0.0000   0.0000   0.0000

          k = 0.0000-0.4330 0.1362 (  2508 PWs)   bands (ev):

   -88.6994 -51.9894 -51.9781 -51.9389 -40.9459 -12.3808 -11.3724  -0.2165
     0.7728   1.6449   2.0847   3.2643   3.8370   5.6248   6.0459   6.2356
     7.9353   8.7506   8.9249  13.3413  15.3038  17.5872  18.3845  18.7062

     occupation numbers 
     1.0000   1.0000   1.0000   1.0000   1.0000   1.0000   1.0000   1.0000
     1.0000   1.0000   1.0000   1.0000   1.0000   1.0000   1.0092   1.0559
     0.0000   0.0000   0.0000   0.0000   0.0000   0.0000   0.0000   0.0000

          k =-0.1250-0.3608 0.1362 (  2518 PWs)   bands (ev):

   -88.7001 -51.9798 -51.9769 -51.9412 -40.9488 -12.5502 -11.3756   0.1625
     0.8045   1.5818   1.9615   2.9088   4.1637   5.8048   6.1639   6.2887
     7.7199   8.4038   8.8872  13.4777  15.5473  17.4381  18.5353  19.2951

     occupation numbers 
     1.0000   1.0000   1.0000   1.0000   1.0000   1.0000   1.0000   1.0000
     1.0000   1.0000   1.0000   1.0000   1.0000   1.0002   1.0326   1.0731
     0.0000   0.0000   0.0000   0.0000   0.0000   0.0000   0.0000   0.0000

          k =-0.1250-0.5052 0.1362 (  2512 PWs)   bands (ev):

   -88.6983 -51.9944 -51.9765 -51.9479 -40.9417 -12.1663 -11.3356  -0.3377
     0.7627   1.5859   2.3865   2.7482   3.6013   5.6026   5.9931   6.3199
     8.2777   8.6199   9.3280  12.8582  15.2930  17.2071  17.5469  19.1015

     occupation numbers 
     1.0000   1.0000   1.0000   1.0000   1.0000   1.0000   1.0000   1.0000
     1.0000   1.0000   1.0000   1.0000   1.0000   1.0000   1.0045   1.0804
     0.0000   0.0000   0.0000   0.0000   0.0000   0.0000   0.0000   0.0000

 ------ SPIN DOWN ----------


          k = 0.0000 0.0000 0.0000 (  2553 PWs)   bands (ev):

   -88.4388 -51.6964 -51.6964 -51.6625 -41.0083 -13.5421 -11.4291   0.0558
     1.2239   1.2239   3.7272   4.7371   4.7371   5.5294   5.5436   5.5436
     7.1087   9.2394   9.2394  12.0783  14.7142  17.2157  21.2413  21.7725

     occupation numbers 
     1.0000   1.0000   1.0000   1.0000   1.0000   1.0000   1.0000   1.0000
     1.0000   1.0000   1.0000   1.0000   1.0000   1.0000   1.0000   1.0000
     0.0071   0.0000   0.0000   0.0000   0.0000   0.0000   0.0000   0.0000

          k = 0.0000 0.0000 0.1362 (  2534 PWs)   bands (ev):

   -88.4387 -51.6964 -51.6964 -51.6623 -41.0082 -13.5418 -11.4299   0.1251
     1.2241   1.2241   3.3102   4.7369   4.7369   5.5436   5.5436   6.2013
     6.9829   9.2401   9.2401  11.3752  15.4670  17.2755  21.0641  21.7590

     occupation numbers 
     1.0000   1.0000   1.0000   1.0000   1.0000   1.0000   1.0000   1.0000
     1.0000   1.0000   1.0000   1.0000   1.0000   1.0000   1.0000   1.0442
     0.0409   0.0000   0.0000   0.0000   0.0000   0.0000   0.0000   0.0000

          k = 0.0000 0.1443 0.0000 (  2529 PWs)   bands (ev):

   -88.4377 -51.7077 -51.6991 -51.6606 -41.0040 -13.3586 -11.4117   0.2191
     0.9715   1.3249   3.6354   4.1582   4.1934   5.7533   5.8377   6.0088
     7.2079   8.7314   9.1303  12.4386  15.2515  17.8516  20.2640  20.8847

     occupation numbers 
     1.0000   1.0000   1.0000   1.0000   1.0000   1.0000   1.0000   1.0000
     1.0000   1.0000   1.0000   1.0000   1.0000   1.0001   1.0004   1.0056
     0.0013   0.0000   0.0000   0.0000   0.0000   0.0000   0.0000   0.0000

          k = 0.0000 0.1443 0.1362 (  2537 PWs)   bands (ev):

   -88.4377 -51.7077 -51.6991 -51.6606 -41.0040 -13.3583 -11.4125   0.2698
     0.9731   1.3249   3.6126   3.8177   4.1933   5.7835   6.0088   6.3987
     7.0266   8.8240   9.1301  11.8116  16.0165  17.7127  20.2182  20.8746

     occupation numbers 
     1.0000   1.0000   1.0000   1.0000   1.0000   1.0000   1.0000   1.0000
     1.0000   1.0000   1.0000   1.0000   1.0000   1.0001   1.0056   1.0750
     0.0233   0.0000   0.0000   0.0000   0.0000   0.0000   0.0000   0.0000

          k = 0.0000 0.2887 0.0000 (  2521 PWs)   bands (ev):

   -88.4350 -51.7352 -51.7055 -51.6563 -40.9938 -12.8847 -11.3727   0.2968
     0.9316   1.5515   2.1661   3.5703   4.4589   5.9306   6.3378   6.3584
     7.2490   8.2377   8.9922  12.9747  16.3142  17.2162  19.4762  19.5371

     occupation numbers 
     1.0000   1.0000   1.0000   1.0000   1.0000   1.0000   1.0000   1.0000
     1.0000   1.0000   1.0000   1.0000   1.0000   1.0018   1.0827   1.0832
     0.0006   0.0000   0.0000   0.0000   0.0000   0.0000   0.0000   0.0000

          k = 0.0000 0.2887 0.1362 (  2522 PWs)   bands (ev):

   -88.4350 -51.7353 -51.7055 -51.6563 -40.9938 -12.8845 -11.3733   0.2801
     0.9784   1.5514   2.1848   3.5708   4.3046   5.8507   6.3587   6.7054
     6.8704   8.6013   8.9907  12.5675  16.5187  17.6927  18.7878  19.4840

     occupation numbers 
     1.0000   1.0000   1.0000   1.0000   1.0000   1.0000   1.0000   1.0000
     1.0000   1.0000   1.0000   1.0000   1.0000   1.0004   1.0832   0.4816
     0.1396   0.0000   0.0000   0.0000   0.0000   0.0000   0.0000   0.0000

          k = 0.0000 0.4330 0.0000 (  2498 PWs)   bands (ev):

   -88.4323 -51.7628 -51.7119 -51.6519 -40.9835 -12.3566 -11.3365  -0.1665
     0.8158   1.7057   2.1103   3.3053   3.9204   5.8877   6.2759   6.5303
     7.6694   8.7177   9.0302  12.9766  14.9600  17.4506  18.4903  18.6555

     occupation numbers 
     1.0000   1.0000   1.0000   1.0000   1.0000   1.0000   1.0000   1.0000
     1.0000   1.0000   1.0000   1.0000   1.0000   1.0009   1.0693   0.9265
     0.0000   0.0000   0.0000   0.0000   0.0000   0.0000   0.0000   0.0000

          k = 0.0000 0.4330 0.1362 (  2508 PWs)   bands (ev):

   -88.4323 -51.7628 -51.7119 -51.6520 -40.9836 -12.3565 -11.3367  -0.1680
     0.8004   1.7052   2.1539   3.3064   3.9193   5.8657   6.2761   6.5449
     7.4204   9.0274   9.0314  12.7882  14.9550  17.7796  18.5117  18.9736

     occupation numbers 
     1.0000   1.0000   1.0000   1.0000   1.0000   1.0000   1.0000   1.0000
     1.0000   1.0000   1.0000   1.0000   1.0000   1.0006   1.0694   0.8973
     0.0000   0.0000   0.0000   0.0000   0.0000   0.0000   0.0000   0.0000

          k = 0.0000-0.5774 0.0000 (  2514 PWs)   bands (ev):

   -88.4313 -51.7742 -51.7147 -51.6503 -40.9794 -12.1187 -11.3206  -0.5837
     0.9091   1.7275   2.3480   3.2944   3.5549   5.7647   6.1535   6.4859
     8.0933   9.0844   9.2206  12.2059  15.5446  16.0195  18.1473  18.7809

     occupation numbers 
     1.0000   1.0000   1.0000   1.0000   1.0000   1.0000   1.0000   1.0000
     1.0000   1.0000   1.0000   1.0000   1.0000   1.0001   1.0296   0.9999
     0.0000   0.0000   0.0000   0.0000   0.0000   0.0000   0.0000   0.0000

          k = 0.0000-0.5774 0.1362 (  2506 PWs)   bands (ev):

   -88.4312 -51.7742 -51.7146 -51.6503 -40.9793 -12.1186 -11.3206  -0.5820
     0.8894   1.7269   2.3710   3.2955   3.5737   5.7590   6.1535   6.4818
     8.1203   9.0817   9.1053  12.1888  15.5973  16.4332  18.1724  18.7558

     occupation numbers 
     1.0000   1.0000   1.0000   1.0000   1.0000   1.0000   1.0000   1.0000
     1.0000   1.0000   1.0000   1.0000   1.0000   1.0001   1.0296   1.0055
     0.0000   0.0000   0.0000   0.0000   0.0000   0.0000   0.0000   0.0000

          k = 0.1250 0.2165 0.0000 (  2525 PWs)   bands (ev):

   -88.4358 -51.7259 -51.7049 -51.6576 -40.9968 -13.0294 -11.3830   0.3481
     0.9049   1.4414   2.6550   3.4550   4.4969   6.0039   6.1723   6.3308
     7.2568   8.3289   8.8835  12.8783  16.1769  17.9571  18.5571  20.0603

     occupation numbers 
     1.0000   1.0000   1.0000   1.0000   1.0000   1.0000   1.0000   1.0000
     1.0000   1.0000   1.0000   1.0000   1.0000   1.0053   1.0350   1.0820
     0.0005   0.0000   0.0000   0.0000   0.0000   0.0000   0.0000   0.0000

          k = 0.1250 0.2165 0.1362 (  2531 PWs)   bands (ev):

   -88.4358 -51.7259 -51.7050 -51.6576 -40.9968 -13.0292 -11.3836   0.3455
     0.9439   1.4414   2.6732   3.4543   4.2606   6.0022   6.1837   6.6367
     7.0716   8.5378   8.8571  12.5023  16.7244  17.9024  18.4446  19.6397

     occupation numbers 
     1.0000   1.0000   1.0000   1.0000   1.0000   1.0000   1.0000   1.0000
     1.0000   1.0000   1.0000   1.0000   1.0000   1.0051   1.0385   0.6705
     0.0124   0.0000   0.0000   0.0000   0.0000   0.0000   0.0000   0.0000

          k = 0.1250 0.3608 0.0000 (  2516 PWs)   bands (ev):

   -88.4331 -51.7506 -51.7142 -51.6533 -40.9866 -12.5257 -11.3402   0.2200
     0.8468   1.6341   1.9821   2.9729   4.2602   6.0451   6.4103   6.5635
     7.4751   8.4399   8.7993  13.3158  15.2544  17.3082  18.2669  19.4828

     occupation numbers 
     1.0000   1.0000   1.0000   1.0000   1.0000   1.0000   1.0000   1.0000
     1.0000   1.0000   1.0000   1.0000   1.0000   1.0091   1.0699   0.8568
     0.0000   0.0000   0.0000   0.0000   0.0000   0.0000   0.0000   0.0000

          k = 0.1250 0.3608 0.1362 (  2518 PWs)   bands (ev):

   -88.4331 -51.7506 -51.7142 -51.6533 -40.9866 -12.5255 -11.3405   0.2084
     0.8466   1.6458   2.0207   2.9723   4.2241   6.0317   6.3686   6.5970
     7.2631   8.6894   8.8697  13.1523  15.2031  17.5243  18.3372  19.6699

     occupation numbers 
     1.0000   1.0000   1.0000   1.0000   1.0000   1.0000   1.0000   1.0000
     1.0000   1.0000   1.0000   1.0000   1.0000   1.0076   1.0823   0.7760
     0.0005   0.0000   0.0000   0.0000   0.0000   0.0000   0.0000   0.0000

          k = 0.1250 0.5052 0.0000 (  2507 PWs)   bands (ev):

   -88.4312 -51.7680 -51.7209 -51.6502 -40.9794 -12.1426 -11.2989  -0.2942
     0.8098   1.6319   2.4315   2.7898   3.6631   5.9249   6.2346   6.5627
     8.1072   8.7653   9.2026  12.4238  14.9833  16.8839  17.4408  19.2421

     occupation numbers 
     1.0000   1.0000   1.0000   1.0000   1.0000   1.0000   1.0000   1.0000
     1.0000   1.0000   1.0000   1.0000   1.0000   1.0016   1.0555   0.8585
     0.0000   0.0000   0.0000   0.0000   0.0000   0.0000   0.0000   0.0000

          k = 0.1250 0.5052 0.1362 (  2512 PWs)   bands (ev):

   -88.4313 -51.7680 -51.7209 -51.6503 -40.9794 -12.1426 -11.2990  -0.2924
     0.7936   1.6350   2.4513   2.7918   3.6744   5.9180   6.2362   6.5505
     8.0387   8.7732   9.2501  12.3727  14.9780  17.2024  17.4342  19.6072

     occupation numbers 
     1.0000   1.0000   1.0000   1.0000   1.0000   1.0000   1.0000   1.0000
     1.0000   1.0000   1.0000   1.0000   1.0000   1.0014   1.0561   0.8855
     0.0000   0.0000   0.0000   0.0000   0.0000   0.0000   0.0000   0.0000

          k = 0.2500 0.4330 0.0000 (  2509 PWs)   bands (ev):

   -88.4312 -51.7593 -51.7296 -51.6502 -40.9794 -12.1654 -11.2785   0.1500
     0.6862   1.4502   2.1344   2.7077   3.7397   6.0459   6.2895   6.6752
     8.0990   8.5215   9.1128  12.7642  14.4005  16.9582  18.1824  19.7972

     occupation numbers 
     1.0000   1.0000   1.0000   1.0000   1.0000   1.0000   1.0000   1.0000
     1.0000   1.0000   1.0000   1.0000   1.0000   1.0092   1.0733   0.5642
     0.0000   0.0000   0.0000   0.0000   0.0000   0.0000   0.0000   0.0000

          k = 0.2500 0.4330 0.1362 (  2519 PWs)   bands (ev):

   -88.4313 -51.7594 -51.7297 -51.6502 -40.9794 -12.1653 -11.2786   0.1504
     0.6731   1.4545   2.1592   2.7092   3.7335   6.0482   6.2913   6.6377
     8.1027   8.4585   9.1872  12.7708  14.3921  17.0364  18.2216  19.7774

     occupation numbers 
     1.0000   1.0000   1.0000   1.0000   1.0000   1.0000   1.0000   1.0000
     1.0000   1.0000   1.0000   1.0000   1.0000   1.0094   1.0738   0.6677
     0.0000   0.0000   0.0000   0.0000   0.0000   0.0000   0.0000   0.0000

          k = 0.2500 0.5774 0.0000 (  2514 PWs)   bands (ev):

   -88.4305 -51.7600 -51.7390 -51.6490 -40.9764 -12.0257 -11.2323   0.0566
     0.7365   1.2080   2.2658   2.8519   3.3343   5.8452   6.4237   6.6526
     8.4146   8.5011   9.7595  11.5054  14.9467  17.1078  17.2385  19.3644

     occupation numbers 
     1.0000   1.0000   1.0000   1.0000   1.0000   1.0000   1.0000   1.0000
     1.0000   1.0000   1.0000   1.0000   1.0000   1.0004   1.0623   0.6269
     0.0000   0.0000   0.0000   0.0000   0.0000   0.0000   0.0000   0.0000

          k = 0.2500 0.5774 0.1362 (  2508 PWs)   bands (ev):

   -88.4305 -51.7599 -51.7390 -51.6490 -40.9764 -12.0257 -11.2323   0.0586
     0.7304   1.2096   2.2770   2.8451   3.3321   5.8472   6.4206   6.6474
     8.4762   8.5039   9.6955  11.4573  14.9458  17.1690  17.4110  19.3514

     occupation numbers 
     1.0000   1.0000   1.0000   1.0000   1.0000   1.0000   1.0000   1.0000
     1.0000   1.0000   1.0000   1.0000   1.0000   1.0004   1.0642   0.6413
     0.0000   0.0000   0.0000   0.0000   0.0000   0.0000   0.0000   0.0000

          k = 0.0000-0.1443 0.1362 (  2537 PWs)   bands (ev):

   -88.4377 -51.7077 -51.6991 -51.6606 -41.0040 -13.3583 -11.4125   0.2716
     0.9698   1.3250   3.5803   3.8612   4.1929   5.7754   6.0087   6.3780
     7.0704   8.7655   9.1312  11.8731  15.9878  17.6740  20.2341  20.8803

     occupation numbers 
     1.0000   1.0000   1.0000   1.0000   1.0000   1.0000   1.0000   1.0000
     1.0000   1.0000   1.0000   1.0000   1.0000   1.0001   1.0056   1.0808
     0.0126   0.0000   0.0000   0.0000   0.0000   0.0000   0.0000   0.0000

          k = 0.0000-0.2887 0.1362 (  2522 PWs)   bands (ev):

   -88.4350 -51.7353 -51.7054 -51.6563 -40.9938 -12.8845 -11.3732   0.2848
     0.9646   1.5517   2.1978   3.5700   4.2955   5.8666   6.3585   6.5191
     7.2328   8.3061   8.9925  12.8051  16.6694  17.1562  18.9290  19.4794

     occupation numbers 
     1.0000   1.0000   1.0000   1.0000   1.0000   1.0000   1.0000   1.0000
     1.0000   1.0000   1.0000   1.0000   1.0000   1.0006   1.0832   0.9474
     0.0008   0.0000   0.0000   0.0000   0.0000   0.0000   0.0000   0.0000

          k = 0.0000-0.4330 0.1362 (  2508 PWs)   bands (ev):

   -88.4323 -51.7628 -51.7119 -51.6520 -40.9836 -12.3565 -11.3367  -0.1710
     0.8035   1.7056   2.1632   3.3056   3.8935   5.8779   6.2761   6.4903
     7.7398   8.6289   9.0288  13.0410  15.1303  17.5470  18.3357  18.5072

     occupation numbers 
     1.0000   1.0000   1.0000   1.0000   1.0000   1.0000   1.0000   1.0000
     1.0000   1.0000   1.0000   1.0000   1.0000   1.0007   1.0694   0.9938
     0.0000   0.0000   0.0000   0.0000   0.0000   0.0000   0.0000   0.0000

          k =-0.1250-0.3608 0.1362 (  2518 PWs)   bands (ev):

   -88.4331 -51.7506 -51.7142 -51.6533 -40.9866 -12.5255 -11.3405   0.2073
     0.8460   1.6399   2.0357   2.9683   4.2097   6.0544   6.3798   6.5088
     7.4857   8.4547   8.8771  13.3180  15.2372  17.3963  18.4264  19.2493

     occupation numbers 
     1.0000   1.0000   1.0000   1.0000   1.0000   1.0000   1.0000   1.0000
     1.0000   1.0000   1.0000   1.0000   1.0000   1.0102   1.0805   0.9650
     0.0000   0.0000   0.0000   0.0000   0.0000   0.0000   0.0000   0.0000

          k =-0.1250-0.5052 0.1362 (  2512 PWs)   bands (ev):

   -88.4313 -51.7680 -51.7209 -51.6503 -40.9794 -12.1426 -11.2990  -0.2941
     0.7958   1.6366   2.4566   2.7903   3.6611   5.9247   6.2337   6.5413
     8.2134   8.6865   9.1072  12.4460  15.1528  17.1027  17.3881  19.0843

     occupation numbers 
     1.0000   1.0000   1.0000   1.0000   1.0000   1.0000   1.0000   1.0000
     1.0000   1.0000   1.0000   1.0000   1.0000   1.0016   1.0552   0.9048
     0.0000   0.0000   0.0000   0.0000   0.0000   0.0000   0.0000   0.0000

     the Fermi energy is     6.7365 ev

!    total energy              =    -475.08514443 Ry
     total all-electron energy =     -3102.957282 Ry
     estimated scf accuracy    <          4.9E-09 Ry
     smearing contrib. (-TS)   =       0.00597512 Ry
     internal energy E=F+TS    =    -475.09111955 Ry

     The total energy is F=E-TS. E is the sum of the following terms:
     one-electron contribution =    -491.21512075 Ry
     hartree contribution      =     257.59128784 Ry
     xc contribution           =     -49.11288058 Ry
     ewald contribution        =     -85.66453871 Ry
     one-center paw contrib.   =    -106.68986735 Ry
      -> PAW hartree energy AE =     280.53462684 Ry
      -> PAW hartree energy PS =    -279.17216042 Ry
      -> PAW xc energy AE      =    -154.33357993 Ry
      -> PAW xc energy PS      =      46.28124616 Ry
      -> total E_H with PAW    =     258.95375426 Ry
      -> total E_XC with PAW   =    -157.16521435 Ry

     total magnetization       =     0.16 Bohr mag/cell
     absolute magnetization    =     0.39 Bohr mag/cell

     convergence has been achieved in  28 iterations

     Forces acting on atoms (cartesian axes, Ry/au):

     atom    1 type  1   force =    -0.00000000   -0.00000000    0.05721170
     atom    2 type  2   force =     0.00000000    0.00000000   -0.00327859
     atom    3 type  2   force =     0.00000000    0.00000000   -0.09350543
     atom    4 type  3   force =    -0.00000000   -0.00000000    0.03957232
     The non-local contrib.  to forces
     atom    1 type  1   force =    -0.00000000   -0.00000000    0.05685097
     atom    2 type  2   force =     0.00000000    0.00000000   -1.12293282
     atom    3 type  2   force =     0.00000000    0.00000000    0.37153952
     atom    4 type  3   force =     0.00000000    0.00000000   -0.02139106
     The ionic contribution  to forces
     atom    1 type  1   force =    -0.00000000    0.00000000    5.59217785
     atom    2 type  2   force =     0.00000000   -0.00000000   34.56459283
     atom    3 type  2   force =    -0.00000000    0.00000000  -30.86849658
     atom    4 type  3   force =     0.00000000   -0.00000000   -9.28827410
     The local contribution  to forces
     atom    1 type  1   force =    -0.00000000   -0.00000000   -5.59083210
     atom    2 type  2   force =     0.00000001   -0.00000001  -33.45451560
     atom    3 type  2   force =    -0.00000001    0.00000001   30.40573144
     atom    4 type  3   force =     0.00000002   -0.00000001    9.34922714
     The core correction contribution to forces
     atom    1 type  1   force =    -0.00000000    0.00000000   -0.00090912
     atom    2 type  2   force =    -0.00000000    0.00000000    0.00955767
     atom    3 type  2   force =     0.00000000   -0.00000000   -0.00227308
     atom    4 type  3   force =     0.00000000    0.00000000    0.00000000
     The Hubbard contrib.    to forces
     atom    1 type  1   force =     0.00000000    0.00000000    0.00000000
     atom    2 type  2   force =     0.00000000    0.00000000    0.00000000
     atom    3 type  2   force =     0.00000000    0.00000000    0.00000000
     atom    4 type  3   force =     0.00000000    0.00000000    0.00000000
     The SCF correction term to forces
     atom    1 type  1   force =     0.00000000    0.00000000   -0.00008624
     atom    2 type  2   force =     0.00000000   -0.00000000    0.00000899
     atom    3 type  2   force =    -0.00000000    0.00000000   -0.00001705
     atom    4 type  3   force =     0.00000000   -0.00000000    0.00000000

     Total force =     0.116590     Total SCF correction =     0.000088

     Writing all to output data dir ./out/pw.save/ :
     XML data file, charge density, pseudopotentials, collected wavefunctions
 
     init_run     :     13.56s CPU      3.14s WALL (       1 calls)
     electrons    :    137.44s CPU     34.47s WALL (       1 calls)
     forces       :      0.58s CPU      0.49s WALL (       1 calls)

     Called by init_run:
     wfcinit      :      0.25s CPU      0.31s WALL (       1 calls)
     wfcinit:atom :      0.04s CPU      0.04s WALL (      50 calls)
     wfcinit:wfcr :      0.15s CPU      0.20s WALL (      50 calls)
     potinit      :     12.82s CPU      2.32s WALL (       1 calls)
     hinit0       :      0.41s CPU      0.40s WALL (       1 calls)

     Called by electrons:
     c_bands      :     15.90s CPU     15.61s WALL (      28 calls)
     sum_band     :      3.01s CPU      2.91s WALL (      28 calls)
     v_of_rho     :      0.43s CPU      0.20s WALL (      29 calls)
     v_h          :      0.29s CPU      0.04s WALL (      29 calls)
     v_xc         :      0.14s CPU      0.16s WALL (      30 calls)
     newd         :      0.66s CPU      0.49s WALL (      29 calls)
                                        0.48s GPU  (      29 calls)
     PAW_pot      :    120.82s CPU     15.34s WALL (      29 calls)
     mix_rho      :      0.44s CPU      0.42s WALL (      28 calls)

     Called by c_bands:
     init_us_2    :      1.19s CPU      1.10s WALL (    2900 calls)
     cegterg      :     13.78s CPU     13.56s WALL (    1400 calls)

     Called by sum_band:
     sum_band:wei :      0.04s CPU      0.04s WALL (      28 calls)
                                        0.04s GPU  (      28 calls)
     sum_band:loo :      1.91s CPU      1.80s WALL (      28 calls)
                                        1.80s GPU  (      28 calls)
     sum_band:buf :      0.19s CPU      0.22s WALL (    1400 calls)
                                        0.20s GPU  (    1400 calls)
     sum_band:ini :      0.56s CPU      0.55s WALL (    1400 calls)
                                        0.53s GPU  (    1400 calls)
     sum_band:cal :      0.05s CPU      0.08s WALL (    1400 calls)
                                        0.07s GPU  (    1400 calls)
     sum_band:bec :      0.30s CPU      0.32s WALL (    1400 calls)
                                        0.30s GPU  (    1400 calls)
     addusdens    :      0.90s CPU      0.90s WALL (      28 calls)
                                        0.90s GPU  (      28 calls)
     addusd:skk   :      0.00s CPU      0.01s WALL (      84 calls)
                                        0.00s GPU  (      84 calls)

     Called by *egterg:
     cdiaghg      :      4.43s CPU      4.59s WALL (    5810 calls)
                                        4.52s GPU  (    5810 calls)
     cegterg:over :      0.92s CPU      0.95s WALL (    4410 calls)
     cegterg:upda :      0.80s CPU      0.81s WALL (    4410 calls)
     cegterg:last :      0.17s CPU      0.15s WALL (    2653 calls)
     h_psi        :      5.16s CPU      4.96s WALL (    5860 calls)
                                        4.89s GPU  (    5860 calls)
     s_psi        :      0.88s CPU      0.92s WALL (    5860 calls)
     g_psi        :      0.02s CPU      0.10s WALL (    4410 calls)
                                        0.05s GPU  (    4410 calls)

     Called by h_psi:
     h_psi:calbec :      0.16s CPU      0.30s WALL (    5860 calls)
                                        0.23s GPU  (    5860 calls)
     vloc_psi     :      3.61s CPU      3.33s WALL (    5860 calls)
                                        3.26s GPU  (    5860 calls)
     add_vuspsi   :      0.79s CPU      0.93s WALL (    5860 calls)
                                        0.85s GPU  (    5860 calls)

     General routines
     calbec       :      0.18s CPU      0.21s WALL (    7460 calls)
     fft          :      3.86s CPU      0.92s WALL (     738 calls)
                                        0.02s GPU  (     680 calls)
     ffts         :      4.79s CPU      0.81s WALL (     114 calls)
                                        0.00s GPU  (      56 calls)
     fftw         :      0.34s CPU      1.17s WALL (   20246 calls)
                                        0.94s GPU  (   20246 calls)
     interpolate  :      8.83s CPU      1.72s WALL (      58 calls)
 
     Parallel routines

     PAW routines
     PAW_pot      :    120.82s CPU     15.34s WALL (      29 calls)
     PAW_symme    :      0.03s CPU      0.01s WALL (      57 calls)
 
     PWSCF        :   2m32.37s CPU     38.60s WALL

 
   This run was terminated on:   2:19:42  12Jul2026            

=------------------------------------------------------------------------------=
   JOB DONE.
=------------------------------------------------------------------------------=
Warning: ieee_divide_by_zero is signaling
Warning: ieee_inexact is signaling
FORTRAN STOP
