
     Program PWSCF v.7.3.1 starts on 12Jul2026 at  3:23: 7 

     This program is part of the open-source Quantum ESPRESSO suite
     for quantum simulation of materials; please cite
         "P. Giannozzi et al., J. Phys.:Condens. Matter 21 395502 (2009);
         "P. Giannozzi et al., J. Phys.:Condens. Matter 29 465901 (2017);
         "P. Giannozzi et al., J. Chem. Phys. 152 154105 (2020);
          URL http://www.quantum-espresso.org", 
     in publications or presentations arising from this work. More details at
     http://www.quantum-espresso.org/quote

     Parallel version (MPI & OpenMP), running on      14 processor cores
     Number of MPI processes:                 1
     Threads/MPI process:                    14

     MPI processes distributed on     1 nodes
     845144 MiB available memory on the printing compute node when the environment starts
 
     Reading input from pw.in

     Current dimensions of program PWSCF are:
     Max number of different atomic species (ntypx) = 10
     Max number of k-points (npk) =  40000
     Max angular momentum in pseudopotentials (lmaxx) =  4
     file Co.pbe-spn-kjpaw_psl.0.3.1.UPF: wavefunction(s)  3P 3D renormalized
     file O.pbe-n-kjpaw_psl.1.0.0.UPF: wavefunction(s)  2S 2P renormalized
     file Na.pbe-spn-kjpaw_psl.1.0.0.UPF: wavefunction(s)  2P renormalized
 
     Subspace diagonalization in iterative solution of the eigenvalue problem:
     a serial algorithm will be used

 
     G-vector sticks info
     --------------------
     sticks:   dense  smooth     PW     G-vecs:    dense   smooth      PW
     Sum        2941    1483    421               178951    63407    9467
 
     Using Slab Decomposition
 


     bravais-lattice index     =            4
     lattice parameter (alat)  =       9.4527  a.u.
     unit-cell volume          =    1009.0018 (a.u.)^3
     number of atoms/cell      =           10
     number of atomic types    =            3
     number of electrons       =        96.00
     number of Kohn-Sham states=           64
     kinetic-energy cutoff     =      60.0000  Ry
     charge density cutoff     =     480.0000  Ry
     scf convergence threshold =      1.0E-07
     mixing beta               =       0.3000
     number of iterations used =            8  local-TF  mixing
     Exchange-correlation= SLA  PW   PBX  PBC
                           (   1   4   3   4   0   0   0)

     GPU acceleration is ACTIVE.  1 visible GPUs per MPI rank
     GPU-aware MPI enabled


     GPU used by master process:

        Device Number: 0
        Device name: NVIDIA A100-SXM4-80GB
        Compute capability : 80
        Ratio of single to double precision performance  : 2
        Memory Clock Rate (KHz): 1593000
        Memory Bus Width (bits): 5120
        Peak Memory Bandwidth (GB/s): ******

     celldm(1)=   9.452718  celldm(2)=   0.000000  celldm(3)=   1.379403
     celldm(4)=   0.000000  celldm(5)=   0.000000  celldm(6)=   0.000000

     crystal axes: (cart. coord. in units of alat)
               a(1) = (   1.000000   0.000000   0.000000 )  
               a(2) = (  -0.500000   0.866025   0.000000 )  
               a(3) = (   0.000000   0.000000   1.379403 )  

     reciprocal axes: (cart. coord. in units 2 pi/alat)
               b(1) = (  1.000000  0.577350 -0.000000 )  
               b(2) = (  0.000000  1.154701  0.000000 )  
               b(3) = (  0.000000 -0.000000  0.724951 )  


     PseudoPot. # 1 for Co read from file:
     ../../pseudo/Co.pbe-spn-kjpaw_psl.0.3.1.UPF
     MD5 check sum: 3c0a43779828c046024e4f3be63f8e67
     Pseudo is Projector augmented-wave + core cor, Zval = 17.0
     Generated using &quot;atomic&quot; code by A. Dal Corso  v.6.2.2
     Shape of augmentation charge: PSQ
     Using radial grid of 1193 points,  6 beta functions with: 
                l(1) =   0
                l(2) =   0
                l(3) =   1
                l(4) =   1
                l(5) =   2
                l(6) =   2
     Q(r) pseudized with 0 coefficients 


     PseudoPot. # 2 for O  read from file:
     ../../pseudo/O.pbe-n-kjpaw_psl.1.0.0.UPF
     MD5 check sum: e99d9cef9b487d1ca56f5b95ecd0fd7a
     Pseudo is Projector augmented-wave + core cor, Zval =  6.0
     Generated using &quot;atomic&quot; code by A. Dal Corso  v.6.3
     Shape of augmentation charge: PSQ
     Using radial grid of 1095 points,  4 beta functions with: 
                l(1) =   0
                l(2) =   0
                l(3) =   1
                l(4) =   1
     Q(r) pseudized with 0 coefficients 


     PseudoPot. # 3 for Na read from file:
     ../../pseudo/Na.pbe-spn-kjpaw_psl.1.0.0.UPF
     MD5 check sum: 05b4deb74e3932c23ab016979dc8b5d4
     Pseudo is Projector augmented-wave + core cor, Zval =  9.0
     Generated using &quot;atomic&quot; code by A. Dal Corso  v.6.3
     Shape of augmentation charge: PSQ
     Using radial grid of 1121 points,  4 beta functions with: 
                l(1) =   0
                l(2) =   0
                l(3) =   1
                l(4) =   1
     Q(r) pseudized with 0 coefficients 


     atomic species   valence    mass     pseudopotential
     Co               17.00    58.93300     Co( 1.00)
     O                 6.00    15.99900     O ( 1.00)
     Na                9.00    22.98977     Na( 1.00)

     Starting magnetic structure 
     atomic species   magnetization
     Co              0.300
     O               0.000
     Na              0.000

      6 Sym. Ops. (no inversion) found


                                    s                        frac. trans.

      isym =  1     identity                                     

 cryst.   s( 1) = (     1          0          0      )
                  (     0          1          0      )
                  (     0          0          1      )

 cart.    s( 1) = (  1.0000000  0.0000000  0.0000000 )
                  (  0.0000000  1.0000000  0.0000000 )
                  (  0.0000000  0.0000000  1.0000000 )


      isym =  2     120 deg rotation - cryst. axis [0,0,1]       

 cryst.   s( 2) = (     0          1          0      )
                  (    -1         -1          0      )
                  (     0          0          1      )

 cart.    s( 2) = ( -0.5000000 -0.8660254  0.0000000 )
                  (  0.8660254 -0.5000000  0.0000000 )
                  (  0.0000000  0.0000000  1.0000000 )


      isym =  3     120 deg rotation - cryst. axis [0,0,-1]      

 cryst.   s( 3) = (    -1         -1          0      )
                  (     1          0          0      )
                  (     0          0          1      )

 cart.    s( 3) = ( -0.5000000  0.8660254  0.0000000 )
                  ( -0.8660254 -0.5000000  0.0000000 )
                  (  0.0000000  0.0000000  1.0000000 )


      isym =  4     inv. 180 deg rotation - cart. axis [0,1,0]   

 cryst.   s( 4) = (     1          0          0      )
                  (    -1         -1          0      )
                  (     0          0          1      )

 cart.    s( 4) = (  1.0000000  0.0000000  0.0000000 )
                  (  0.0000000 -1.0000000  0.0000000 )
                  (  0.0000000  0.0000000  1.0000000 )


      isym =  5     inv. 180 deg rotation - cryst. axis [1,-1,0] 

 cryst.   s( 5) = (     0          1          0      )
                  (     1          0          0      )
                  (     0          0          1      )

 cart.    s( 5) = ( -0.5000000  0.8660254  0.0000000 )
                  (  0.8660254  0.5000000  0.0000000 )
                  (  0.0000000  0.0000000  1.0000000 )


      isym =  6     inv. 180 deg rotation - cryst. axis [2,1,0]  

 cryst.   s( 6) = (    -1         -1          0      )
                  (     0          1          0      )
                  (     0          0          1      )

 cart.    s( 6) = ( -0.5000000 -0.8660254  0.0000000 )
                  ( -0.8660254  0.5000000  0.0000000 )
                  (  0.0000000  0.0000000  1.0000000 )


     point group C_3v (3m)  
     there are  3 classes
     the character table:

       E     2C3   3s_v 
A_1    1.00  1.00  1.00
A_2    1.00  1.00 -1.00
E      2.00 -1.00  0.00

     the symmetry operations in each class and the name of the first element:

     E        1
          identity                                               
     2C3      2    3
          120 deg rotation - cryst. axis [0,0,1]                 
     3s_v     4    6    5
          inv. 180 deg rotation - cart. axis [0,1,0]             

   Cartesian axes

     site n.     atom                  positions (alat units)
         1        Co     tau(   1) = (   0.0000000   0.0000000   0.0000000  )
         2        Co     tau(   2) = (  -0.0000000   0.5773503   0.0000000  )
         3        Co     tau(   3) = (   0.5000000   0.2886751   0.0000000  )
         4        O      tau(   4) = (   0.1666667   0.2886751   0.1919170  )
         5        O      tau(   5) = (   0.6666667   0.0000000   0.1919170  )
         6        O      tau(   6) = (  -0.3333333   0.5773503   0.1919170  )
         7        O      tau(   7) = (   0.3333333   0.0000000   1.1874864  )
         8        O      tau(   8) = (   0.3333333   0.5773503   1.1874864  )
         9        O      tau(   9) = (  -0.1666667   0.2886751   1.1874864  )
        10        Na     tau(  10) = (   0.0000000   0.0000000   0.7396801  )

   Crystallographic axes

     site n.     atom                  positions (cryst. coord.)
         1        Co     tau(   1) = (  0.0000000  0.0000000  0.0000000  )
         2        Co     tau(   2) = (  0.3333333  0.6666667  0.0000000  )
         3        Co     tau(   3) = (  0.6666667  0.3333333  0.0000000  )
         4        O      tau(   4) = (  0.3333333  0.3333333  0.1391304  )
         5        O      tau(   5) = (  0.6666667  0.0000000  0.1391304  )
         6        O      tau(   6) = (  0.0000000  0.6666667  0.1391304  )
         7        O      tau(   7) = (  0.3333333  0.0000000  0.8608696  )
         8        O      tau(   8) = (  0.6666667  0.6666667  0.8608696  )
         9        O      tau(   9) = ( -0.0000000  0.3333333  0.8608696  )
        10        Na     tau(  10) = (  0.0000000  0.0000000  0.5362319  )

     number of k points=    17  Marzari-Vanderbilt smearing, width (Ry)=  0.0200
                       cart. coord. in units 2pi/alat
        k(    1) = (   0.0000000   0.0000000   0.0000000), wk =   0.0092593
        k(    2) = (   0.0000000   0.0000000   0.2416504), wk =   0.0185185
        k(    3) = (   0.0000000   0.1924501   0.0000000), wk =   0.0555556
        k(    4) = (   0.0000000   0.1924501   0.2416504), wk =   0.1111111
        k(    5) = (   0.0000000   0.3849002   0.0000000), wk =   0.0555556
        k(    6) = (   0.0000000   0.3849002   0.2416504), wk =   0.1111111
        k(    7) = (   0.0000000  -0.5773503   0.0000000), wk =   0.0277778
        k(    8) = (   0.0000000  -0.5773503   0.2416504), wk =   0.0555556
        k(    9) = (   0.1666667   0.2886751   0.0000000), wk =   0.0555556
        k(   10) = (   0.1666667   0.2886751   0.2416504), wk =   0.0555556
        k(   11) = (   0.1666667   0.4811252   0.0000000), wk =   0.1111111
        k(   12) = (   0.1666667   0.4811252   0.2416504), wk =   0.1111111
        k(   13) = (   0.3333333   0.5773503   0.0000000), wk =   0.0185185
        k(   14) = (   0.3333333   0.5773503   0.2416504), wk =   0.0185185
        k(   15) = (  -0.1666667  -0.2886751   0.2416504), wk =   0.0555556
        k(   16) = (  -0.1666667  -0.4811252   0.2416504), wk =   0.1111111
        k(   17) = (  -0.3333333  -0.5773503   0.2416504), wk =   0.0185185

                       cryst. coord.
        k(    1) = (   0.0000000   0.0000000   0.0000000), wk =   0.0092593
        k(    2) = (   0.0000000   0.0000000   0.3333333), wk =   0.0185185
        k(    3) = (   0.0000000   0.1666667   0.0000000), wk =   0.0555556
        k(    4) = (   0.0000000   0.1666667   0.3333333), wk =   0.1111111
        k(    5) = (   0.0000000   0.3333333   0.0000000), wk =   0.0555556
        k(    6) = (   0.0000000   0.3333333   0.3333333), wk =   0.1111111
        k(    7) = (   0.0000000  -0.5000000   0.0000000), wk =   0.0277778
        k(    8) = (   0.0000000  -0.5000000   0.3333333), wk =   0.0555556
        k(    9) = (   0.1666667   0.1666667   0.0000000), wk =   0.0555556
        k(   10) = (   0.1666667   0.1666667   0.3333333), wk =   0.0555556
        k(   11) = (   0.1666667   0.3333333   0.0000000), wk =   0.1111111
        k(   12) = (   0.1666667   0.3333333   0.3333333), wk =   0.1111111
        k(   13) = (   0.3333333   0.3333333   0.0000000), wk =   0.0185185
        k(   14) = (   0.3333333   0.3333333   0.3333333), wk =   0.0185185
        k(   15) = (  -0.1666667  -0.1666667   0.3333333), wk =   0.0555556
        k(   16) = (  -0.1666667  -0.3333333   0.3333333), wk =   0.1111111
        k(   17) = (  -0.3333333  -0.3333333   0.3333333), wk =   0.0185185

     Dense  grid:   178951 G-vectors     FFT dimensions: (  72,  72,  96)

     Smooth grid:    63407 G-vectors     FFT dimensions: (  48,  48,  72)

     Dynamical RAM for                 wfc:       7.73 MB

     Dynamical RAM for     wfc (w. buffer):     270.67 MB

     Dynamical RAM for           str. fact:       8.19 MB

     Dynamical RAM for           local pot:       0.00 MB

     Dynamical RAM for          nlocal pot:      13.29 MB

     Dynamical RAM for                qrad:       5.27 MB

     Dynamical RAM for          rho,v,vnew:      39.16 MB

     Dynamical RAM for               rhoin:      13.05 MB

     Dynamical RAM for            rho*nmix:      87.38 MB

     Dynamical RAM for           G-vectors:      10.72 MB

     Dynamical RAM for          h,s,v(r/c):       0.75 MB

     Dynamical RAM for          <psi|beta>:       0.11 MB

     Dynamical RAM for                 psi:      15.47 MB

     Dynamical RAM for                hpsi:      15.47 MB

     Dynamical RAM for                spsi:      15.47 MB

     Dynamical RAM for      wfcinit/wfcrot:      15.56 MB

     Dynamical RAM for           addusdens:     527.00 MB

     Dynamical RAM for          addusforce:     554.35 MB

     Estimated static dynamical RAM per process >     394.07 MB

     Estimated max dynamical RAM per process >       1.01 GB

     Check: negative core charge=   -0.000008
     Generating pointlists ...
     new r_m :   0.1587 (alat units)  1.4998 (a.u.) for type    1
     new r_m :   0.1587 (alat units)  1.4998 (a.u.) for type    2
     new r_m :   0.2303 (alat units)  2.1767 (a.u.) for type    3

     Initial potential from superposition of free atoms

     starting charge      95.9928, renormalised to      96.0000
     Starting wfcs are   59 randomized atomic wfcs +    5 random wfcs
     Checking if some PAW data can be deallocated... 

     total cpu time spent up to now is        5.3 secs

     Self-consistent Calculation
[tb_dev] Currently allocated     9.94E-01 Mbytes, locked:    0 /   6
[tb_pin] Currently allocated     0.00E+00 Mbytes, locked:    0 /   0

     iteration #  1     ecut=    60.00 Ry     beta= 0.30
     Davidson diagonalization with overlap

---- Real-time Memory Report at c_bands before calling an iterative solver
           970 MiB given to the printing process from OS
             0 MiB allocation reported by mallinfo(arena+hblkhd)
        844479 MiB available memory on the node where the printing process lives
     GPU memory used/free/total (MiB): 1616 / 79534 / 81151
------------------
     ethr =  1.00E-02,  avg # of iterations =  9.7

     total cpu time spent up to now is        9.1 secs

     total energy              =   -1488.31297573 Ry
     estimated scf accuracy    <       6.12458192 Ry

     total magnetization       =    14.00 Bohr mag/cell
     absolute magnetization    =    14.00 Bohr mag/cell
[tb_dev] Currently allocated     7.63E-05 Mbytes, locked:    0 /   2
[tb_pin] Currently allocated     0.00E+00 Mbytes, locked:    0 /   0

     iteration #  2     ecut=    60.00 Ry     beta= 0.30
     Davidson diagonalization with overlap

---- Real-time Memory Report at c_bands before calling an iterative solver
          1025 MiB given to the printing process from OS
             0 MiB allocation reported by mallinfo(arena+hblkhd)
        845156 MiB available memory on the node where the printing process lives
     GPU memory used/free/total (MiB): 1666 / 79484 / 81151
------------------
     ethr =  6.38E-03,  avg # of iterations =  2.0

     total cpu time spent up to now is       11.7 secs

     total energy              =   -1488.65926817 Ry
     estimated scf accuracy    <       0.95859340 Ry

     total magnetization       =    10.89 Bohr mag/cell
     absolute magnetization    =    10.89 Bohr mag/cell
[tb_dev] Currently allocated     7.63E-05 Mbytes, locked:    0 /   2
[tb_pin] Currently allocated     0.00E+00 Mbytes, locked:    0 /   0

     iteration #  3     ecut=    60.00 Ry     beta= 0.30
     Davidson diagonalization with overlap

---- Real-time Memory Report at c_bands before calling an iterative solver
          1030 MiB given to the printing process from OS
             0 MiB allocation reported by mallinfo(arena+hblkhd)
        844794 MiB available memory on the node where the printing process lives
     GPU memory used/free/total (MiB): 1666 / 79484 / 81151
------------------
     ethr =  9.99E-04,  avg # of iterations =  3.8

     total cpu time spent up to now is       14.6 secs

     total energy              =   -1488.97688299 Ry
     estimated scf accuracy    <       2.21982179 Ry

     total magnetization       =     4.44 Bohr mag/cell
     absolute magnetization    =     5.07 Bohr mag/cell
[tb_dev] Currently allocated     7.63E-05 Mbytes, locked:    0 /   2
[tb_pin] Currently allocated     0.00E+00 Mbytes, locked:    0 /   0

     iteration #  4     ecut=    60.00 Ry     beta= 0.30
     Davidson diagonalization with overlap

---- Real-time Memory Report at c_bands before calling an iterative solver
          1034 MiB given to the printing process from OS
             0 MiB allocation reported by mallinfo(arena+hblkhd)
        844225 MiB available memory on the node where the printing process lives
     GPU memory used/free/total (MiB): 1666 / 79484 / 81151
------------------
     ethr =  9.99E-04,  avg # of iterations =  1.7

     total cpu time spent up to now is       17.1 secs

     total energy              =   -1488.95730084 Ry
     estimated scf accuracy    <       1.32687367 Ry

     total magnetization       =     5.12 Bohr mag/cell
     absolute magnetization    =     5.56 Bohr mag/cell
[tb_dev] Currently allocated     7.63E-05 Mbytes, locked:    0 /   2
[tb_pin] Currently allocated     0.00E+00 Mbytes, locked:    0 /   0

     iteration #  5     ecut=    60.00 Ry     beta= 0.30
     Davidson diagonalization with overlap

---- Real-time Memory Report at c_bands before calling an iterative solver
          1040 MiB given to the printing process from OS
             0 MiB allocation reported by mallinfo(arena+hblkhd)
        843907 MiB available memory on the node where the printing process lives
     GPU memory used/free/total (MiB): 1666 / 79484 / 81151
------------------
     ethr =  9.99E-04,  avg # of iterations =  1.4

     total cpu time spent up to now is       19.5 secs

     total energy              =   -1489.04529846 Ry
     estimated scf accuracy    <       0.62717046 Ry

     total magnetization       =     7.13 Bohr mag/cell
     absolute magnetization    =     7.28 Bohr mag/cell
[tb_dev] Currently allocated     7.63E-05 Mbytes, locked:    0 /   2
[tb_pin] Currently allocated     0.00E+00 Mbytes, locked:    0 /   0

     iteration #  6     ecut=    60.00 Ry     beta= 0.30
     Davidson diagonalization with overlap

---- Real-time Memory Report at c_bands before calling an iterative solver
          1046 MiB given to the printing process from OS
             0 MiB allocation reported by mallinfo(arena+hblkhd)
        843866 MiB available memory on the node where the printing process lives
     GPU memory used/free/total (MiB): 1666 / 79484 / 81151
------------------
     ethr =  6.53E-04,  avg # of iterations =  1.5

     total cpu time spent up to now is       22.0 secs

     total energy              =   -1489.31950408 Ry
     estimated scf accuracy    <       0.70274861 Ry

     total magnetization       =     2.18 Bohr mag/cell
     absolute magnetization    =     3.72 Bohr mag/cell
[tb_dev] Currently allocated     7.63E-05 Mbytes, locked:    0 /   2
[tb_pin] Currently allocated     0.00E+00 Mbytes, locked:    0 /   0

     iteration #  7     ecut=    60.00 Ry     beta= 0.30
     Davidson diagonalization with overlap

---- Real-time Memory Report at c_bands before calling an iterative solver
          1053 MiB given to the printing process from OS
             0 MiB allocation reported by mallinfo(arena+hblkhd)
        843912 MiB available memory on the node where the printing process lives
     GPU memory used/free/total (MiB): 1666 / 79484 / 81151
------------------
     ethr =  6.53E-04,  avg # of iterations =  1.7

     total cpu time spent up to now is       24.5 secs

     total energy              =   -1489.29389743 Ry
     estimated scf accuracy    <       0.58639344 Ry

     total magnetization       =     2.30 Bohr mag/cell
     absolute magnetization    =     2.54 Bohr mag/cell
[tb_dev] Currently allocated     7.63E-05 Mbytes, locked:    0 /   2
[tb_pin] Currently allocated     0.00E+00 Mbytes, locked:    0 /   0

     iteration #  8     ecut=    60.00 Ry     beta= 0.30
     Davidson diagonalization with overlap

---- Real-time Memory Report at c_bands before calling an iterative solver
          1060 MiB given to the printing process from OS
             0 MiB allocation reported by mallinfo(arena+hblkhd)
        843881 MiB available memory on the node where the printing process lives
     GPU memory used/free/total (MiB): 1666 / 79484 / 81151
------------------
     ethr =  6.11E-04,  avg # of iterations =  1.9

     total cpu time spent up to now is       27.1 secs

     total energy              =   -1489.29415131 Ry
     estimated scf accuracy    <       0.21989198 Ry

     total magnetization       =     2.02 Bohr mag/cell
     absolute magnetization    =     2.68 Bohr mag/cell
[tb_dev] Currently allocated     7.63E-05 Mbytes, locked:    0 /   2
[tb_pin] Currently allocated     0.00E+00 Mbytes, locked:    0 /   0

     iteration #  9     ecut=    60.00 Ry     beta= 0.30
     Davidson diagonalization with overlap

---- Real-time Memory Report at c_bands before calling an iterative solver
          1065 MiB given to the printing process from OS
             0 MiB allocation reported by mallinfo(arena+hblkhd)
        843847 MiB available memory on the node where the printing process lives
     GPU memory used/free/total (MiB): 1666 / 79484 / 81151
------------------
     c_bands:  1 eigenvalues not converged
     ethr =  2.29E-04,  avg # of iterations =  8.0

     total cpu time spent up to now is       30.5 secs

     total energy              =   -1489.30461631 Ry
     estimated scf accuracy    <       0.02932674 Ry

     total magnetization       =     2.35 Bohr mag/cell
     absolute magnetization    =     2.42 Bohr mag/cell
[tb_dev] Currently allocated     7.63E-05 Mbytes, locked:    0 /   2
[tb_pin] Currently allocated     0.00E+00 Mbytes, locked:    0 /   0

     iteration # 10     ecut=    60.00 Ry     beta= 0.30
     Davidson diagonalization with overlap

---- Real-time Memory Report at c_bands before calling an iterative solver
          1070 MiB given to the printing process from OS
             0 MiB allocation reported by mallinfo(arena+hblkhd)
        843800 MiB available memory on the node where the printing process lives
     GPU memory used/free/total (MiB): 1666 / 79484 / 81151
------------------
     c_bands:  2 eigenvalues not converged
     c_bands:  2 eigenvalues not converged
     c_bands:  2 eigenvalues not converged
     c_bands:  1 eigenvalues not converged
     ethr =  3.05E-05,  avg # of iterations = 11.6

     total cpu time spent up to now is       34.7 secs

     total energy              =   -1489.31780396 Ry
     estimated scf accuracy    <       0.01175334 Ry

     total magnetization       =     2.41 Bohr mag/cell
     absolute magnetization    =     2.43 Bohr mag/cell
[tb_dev] Currently allocated     7.63E-05 Mbytes, locked:    0 /   2
[tb_pin] Currently allocated     0.00E+00 Mbytes, locked:    0 /   0

     iteration # 11     ecut=    60.00 Ry     beta= 0.30
     Davidson diagonalization with overlap

---- Real-time Memory Report at c_bands before calling an iterative solver
          1071 MiB given to the printing process from OS
             0 MiB allocation reported by mallinfo(arena+hblkhd)
        843793 MiB available memory on the node where the printing process lives
     GPU memory used/free/total (MiB): 1666 / 79484 / 81151
------------------
     ethr =  1.22E-05,  avg # of iterations =  2.4

     total cpu time spent up to now is       37.4 secs

     total energy              =   -1489.31741526 Ry
     estimated scf accuracy    <       0.01226514 Ry

     total magnetization       =     2.42 Bohr mag/cell
     absolute magnetization    =     2.44 Bohr mag/cell
[tb_dev] Currently allocated     7.63E-05 Mbytes, locked:    0 /   2
[tb_pin] Currently allocated     0.00E+00 Mbytes, locked:    0 /   0

     iteration # 12     ecut=    60.00 Ry     beta= 0.30
     Davidson diagonalization with overlap

---- Real-time Memory Report at c_bands before calling an iterative solver
          1072 MiB given to the printing process from OS
             0 MiB allocation reported by mallinfo(arena+hblkhd)
        843806 MiB available memory on the node where the printing process lives
     GPU memory used/free/total (MiB): 1666 / 79484 / 81151
------------------
     ethr =  1.22E-05,  avg # of iterations =  2.4

     total cpu time spent up to now is       40.1 secs

     total energy              =   -1489.31872253 Ry
     estimated scf accuracy    <       0.00103729 Ry

     total magnetization       =     2.31 Bohr mag/cell
     absolute magnetization    =     2.34 Bohr mag/cell
[tb_dev] Currently allocated     7.63E-05 Mbytes, locked:    0 /   2
[tb_pin] Currently allocated     0.00E+00 Mbytes, locked:    0 /   0

     iteration # 13     ecut=    60.00 Ry     beta= 0.30
     Davidson diagonalization with overlap

---- Real-time Memory Report at c_bands before calling an iterative solver
          1072 MiB given to the printing process from OS
             0 MiB allocation reported by mallinfo(arena+hblkhd)
        843826 MiB available memory on the node where the printing process lives
     GPU memory used/free/total (MiB): 1666 / 79484 / 81151
------------------
     c_bands:  1 eigenvalues not converged
     c_bands:  1 eigenvalues not converged
     c_bands:  1 eigenvalues not converged
     ethr =  1.08E-06,  avg # of iterations = 10.3

     total cpu time spent up to now is       44.0 secs

     total energy              =   -1489.31918324 Ry
     estimated scf accuracy    <       0.00037881 Ry

     total magnetization       =     2.30 Bohr mag/cell
     absolute magnetization    =     2.34 Bohr mag/cell
[tb_dev] Currently allocated     7.63E-05 Mbytes, locked:    0 /   2
[tb_pin] Currently allocated     0.00E+00 Mbytes, locked:    0 /   0

     iteration # 14     ecut=    60.00 Ry     beta= 0.30
     Davidson diagonalization with overlap

---- Real-time Memory Report at c_bands before calling an iterative solver
          1075 MiB given to the printing process from OS
             0 MiB allocation reported by mallinfo(arena+hblkhd)
        843827 MiB available memory on the node where the printing process lives
     GPU memory used/free/total (MiB): 1666 / 79484 / 81151
------------------
     ethr =  3.95E-07,  avg # of iterations =  2.7

     total cpu time spent up to now is       46.7 secs

     total energy              =   -1489.31925985 Ry
     estimated scf accuracy    <       0.00016091 Ry

     total magnetization       =     2.26 Bohr mag/cell
     absolute magnetization    =     2.31 Bohr mag/cell
[tb_dev] Currently allocated     7.63E-05 Mbytes, locked:    0 /   2
[tb_pin] Currently allocated     0.00E+00 Mbytes, locked:    0 /   0

     iteration # 15     ecut=    60.00 Ry     beta= 0.30
     Davidson diagonalization with overlap

---- Real-time Memory Report at c_bands before calling an iterative solver
          1075 MiB given to the printing process from OS
             0 MiB allocation reported by mallinfo(arena+hblkhd)
        843804 MiB available memory on the node where the printing process lives
     GPU memory used/free/total (MiB): 1666 / 79484 / 81151
------------------
     ethr =  1.68E-07,  avg # of iterations =  4.8

     total cpu time spent up to now is       49.7 secs

     total energy              =   -1489.31927478 Ry
     estimated scf accuracy    <       0.00003831 Ry

     total magnetization       =     2.31 Bohr mag/cell
     absolute magnetization    =     2.35 Bohr mag/cell
[tb_dev] Currently allocated     7.63E-05 Mbytes, locked:    0 /   2
[tb_pin] Currently allocated     0.00E+00 Mbytes, locked:    0 /   0

     iteration # 16     ecut=    60.00 Ry     beta= 0.30
     Davidson diagonalization with overlap

---- Real-time Memory Report at c_bands before calling an iterative solver
          1075 MiB given to the printing process from OS
             0 MiB allocation reported by mallinfo(arena+hblkhd)
        843805 MiB available memory on the node where the printing process lives
     GPU memory used/free/total (MiB): 1666 / 79484 / 81151
------------------
     ethr =  3.99E-08,  avg # of iterations =  5.4

     total cpu time spent up to now is       52.9 secs

     total energy              =   -1489.31928707 Ry
     estimated scf accuracy    <       0.00001244 Ry

     total magnetization       =     2.29 Bohr mag/cell
     absolute magnetization    =     2.33 Bohr mag/cell
[tb_dev] Currently allocated     7.63E-05 Mbytes, locked:    0 /   2
[tb_pin] Currently allocated     0.00E+00 Mbytes, locked:    0 /   0

     iteration # 17     ecut=    60.00 Ry     beta= 0.30
     Davidson diagonalization with overlap

---- Real-time Memory Report at c_bands before calling an iterative solver
          1075 MiB given to the printing process from OS
             0 MiB allocation reported by mallinfo(arena+hblkhd)
        843803 MiB available memory on the node where the printing process lives
     GPU memory used/free/total (MiB): 1666 / 79484 / 81151
------------------
     ethr =  1.30E-08,  avg # of iterations =  4.0

     total cpu time spent up to now is       55.8 secs

     total energy              =   -1489.31929032 Ry
     estimated scf accuracy    <       0.00000846 Ry

     total magnetization       =     2.29 Bohr mag/cell
     absolute magnetization    =     2.33 Bohr mag/cell
[tb_dev] Currently allocated     7.63E-05 Mbytes, locked:    0 /   2
[tb_pin] Currently allocated     0.00E+00 Mbytes, locked:    0 /   0

     iteration # 18     ecut=    60.00 Ry     beta= 0.30
     Davidson diagonalization with overlap

---- Real-time Memory Report at c_bands before calling an iterative solver
          1075 MiB given to the printing process from OS
             0 MiB allocation reported by mallinfo(arena+hblkhd)
        843811 MiB available memory on the node where the printing process lives
     GPU memory used/free/total (MiB): 1666 / 79484 / 81151
------------------
     ethr =  8.81E-09,  avg # of iterations =  2.4

     total cpu time spent up to now is       58.5 secs

     total energy              =   -1489.31929197 Ry
     estimated scf accuracy    <       0.00000093 Ry

     total magnetization       =     2.29 Bohr mag/cell
     absolute magnetization    =     2.34 Bohr mag/cell
[tb_dev] Currently allocated     7.63E-05 Mbytes, locked:    0 /   2
[tb_pin] Currently allocated     0.00E+00 Mbytes, locked:    0 /   0

     iteration # 19     ecut=    60.00 Ry     beta= 0.30
     Davidson diagonalization with overlap

---- Real-time Memory Report at c_bands before calling an iterative solver
          1075 MiB given to the printing process from OS
             0 MiB allocation reported by mallinfo(arena+hblkhd)
        843814 MiB available memory on the node where the printing process lives
     GPU memory used/free/total (MiB): 1666 / 79484 / 81151
------------------
     ethr =  9.70E-10,  avg # of iterations = 10.1

     total cpu time spent up to now is       62.5 secs

     total energy              =   -1489.31929271 Ry
     estimated scf accuracy    <       0.00000033 Ry

     total magnetization       =     2.29 Bohr mag/cell
     absolute magnetization    =     2.34 Bohr mag/cell
[tb_dev] Currently allocated     7.63E-05 Mbytes, locked:    0 /   2
[tb_pin] Currently allocated     0.00E+00 Mbytes, locked:    0 /   0

     iteration # 20     ecut=    60.00 Ry     beta= 0.30
     Davidson diagonalization with overlap

---- Real-time Memory Report at c_bands before calling an iterative solver
          1075 MiB given to the printing process from OS
             0 MiB allocation reported by mallinfo(arena+hblkhd)
        844161 MiB available memory on the node where the printing process lives
     GPU memory used/free/total (MiB): 1666 / 79484 / 81151
------------------
     ethr =  3.41E-10,  avg # of iterations =  3.0

     total cpu time spent up to now is       65.3 secs

     total energy              =   -1489.31929278 Ry
     estimated scf accuracy    <       0.00000016 Ry

     total magnetization       =     2.29 Bohr mag/cell
     absolute magnetization    =     2.34 Bohr mag/cell
[tb_dev] Currently allocated     7.63E-05 Mbytes, locked:    0 /   2
[tb_pin] Currently allocated     0.00E+00 Mbytes, locked:    0 /   0

     iteration # 21     ecut=    60.00 Ry     beta= 0.30
     Davidson diagonalization with overlap

---- Real-time Memory Report at c_bands before calling an iterative solver
          1075 MiB given to the printing process from OS
             0 MiB allocation reported by mallinfo(arena+hblkhd)
        844016 MiB available memory on the node where the printing process lives
     GPU memory used/free/total (MiB): 1666 / 79484 / 81151
------------------
     ethr =  1.66E-10,  avg # of iterations =  5.2
 
     Magnetic moment per site  (integrated on atomic sphere of radius R)
     atom   1 (R=0.159)  charge= 14.1040  magn=  0.5869
     atom   2 (R=0.159)  charge= 14.0953  magn=  0.5944
     atom   3 (R=0.159)  charge= 14.0953  magn=  0.5944
     atom   4 (R=0.159)  charge=  5.2207  magn=  0.0590
     atom   5 (R=0.159)  charge=  5.2207  magn=  0.0590
     atom   6 (R=0.159)  charge=  5.2207  magn=  0.0590
     atom   7 (R=0.159)  charge=  5.2315  magn=  0.0550
     atom   8 (R=0.159)  charge=  5.2315  magn=  0.0550
     atom   9 (R=0.159)  charge=  5.2315  magn=  0.0550
     atom  10 (R=0.230)  charge=  8.0057  magn=  0.0017

     total cpu time spent up to now is       68.4 secs

     End of self-consistent calculation

 ------ SPIN UP ------------


          k = 0.0000 0.0000 0.0000 (  7923 PWs)   bands (ev):

   -91.3160 -91.3121 -91.2857 -54.5554 -54.5554 -54.5457 -54.5452 -54.5452
   -54.5393 -54.5082 -54.5082 -54.5047 -47.5377 -19.4565 -19.4565 -19.4057
   -14.7987 -13.1506 -13.1506 -13.0922 -13.0922 -12.8970  -1.1172  -0.9056
    -0.9056  -0.8389  -0.8389  -0.6032  -0.6032  -0.5078  -0.4327   1.0878
     1.0878   1.1615   1.1615   1.4544   1.5449   2.4953   2.8723   2.8763
     2.9076   2.9076   3.0855   3.0855   3.9508   3.9508   3.9696   3.9696
     4.0844   6.0340   6.0340   6.0774   6.0774   6.8064   6.8064   7.5921
    12.5107  13.2315  14.2816  14.2816  15.0612  15.0612  15.0973  15.5098

     occupation numbers 
     1.0000   1.0000   1.0000   1.0000   1.0000   1.0000   1.0000   1.0000
     1.0000   1.0000   1.0000   1.0000   1.0000   1.0000   1.0000   1.0000
     1.0000   1.0000   1.0000   1.0000   1.0000   1.0000   1.0000   1.0000
     1.0000   1.0000   1.0000   1.0000   1.0000   1.0000   1.0000   1.0000
     1.0000   1.0000   1.0000   1.0000   1.0000   1.0000   1.0000   1.0000
     1.0000   1.0000   1.0000   1.0000   1.0197   1.0197   1.0239   1.0239
     1.0594   0.0000   0.0000   0.0000   0.0000   0.0000   0.0000   0.0000
     0.0000   0.0000   0.0000   0.0000   0.0000   0.0000   0.0000   0.0000

          k = 0.0000 0.0000 0.2417 (  7928 PWs)   bands (ev):

   -91.3160 -91.3121 -91.2857 -54.5552 -54.5552 -54.5458 -54.5451 -54.5451
   -54.5393 -54.5084 -54.5084 -54.5048 -47.5377 -19.4565 -19.4565 -19.4061
   -14.7969 -13.1506 -13.1506 -13.0922 -13.0922 -12.8999  -1.0757  -0.9068
    -0.9068  -0.8406  -0.8406  -0.6032  -0.6032  -0.5029  -0.4306   1.0894
     1.0894   1.1639   1.1639   1.4424   1.5411   2.3418   2.8726   2.8771
     2.9075   2.9075   3.0851   3.0851   3.9491   3.9491   3.9676   3.9676
     4.1363   6.0429   6.0429   6.0869   6.0869   6.8064   6.8064   7.9688
    11.2771  14.1967  14.2065  14.2065  15.0013  15.0077  15.0077  15.4123

     occupation numbers 
     1.0000   1.0000   1.0000   1.0000   1.0000   1.0000   1.0000   1.0000
     1.0000   1.0000   1.0000   1.0000   1.0000   1.0000   1.0000   1.0000
     1.0000   1.0000   1.0000   1.0000   1.0000   1.0000   1.0000   1.0000
     1.0000   1.0000   1.0000   1.0000   1.0000   1.0000   1.0000   1.0000
     1.0000   1.0000   1.0000   1.0000   1.0000   1.0000   1.0000   1.0000
     1.0000   1.0000   1.0000   1.0000   1.0194   1.0194   1.0234   1.0234
     1.0755   0.0000   0.0000   0.0000   0.0000   0.0000   0.0000   0.0000
     0.0000   0.0000   0.0000   0.0000   0.0000   0.0000   0.0000   0.0000

          k = 0.0000 0.1925 0.0000 (  7914 PWs)   bands (ev):

   -91.3157 -91.3123 -91.2857 -54.5600 -54.5578 -54.5453 -54.5399 -54.5391
   -54.5385 -54.5124 -54.5092 -54.5048 -47.5377 -19.4567 -19.4565 -19.4057
   -14.6956 -13.2758 -13.1950 -13.1011 -13.0473 -12.8996  -1.3092  -1.0581
    -0.9766  -0.8874  -0.7551  -0.7108  -0.5360  -0.0946   0.0961   0.7961
     0.8641   0.9825   1.0827   1.8037   1.8809   2.2376   2.3398   2.7423
     2.9548   3.0218   3.3058   3.5100   3.7041   3.7176   4.0522   4.1206
     4.1333   6.0317   6.0881   6.1005   6.1572   6.5303   6.7287   7.8649
    12.6775  12.8277  13.5860  13.6875  14.1845  15.6465  16.1349  16.3478

     occupation numbers 
     1.0000   1.0000   1.0000   1.0000   1.0000   1.0000   1.0000   1.0000
     1.0000   1.0000   1.0000   1.0000   1.0000   1.0000   1.0000   1.0000
     1.0000   1.0000   1.0000   1.0000   1.0000   1.0000   1.0000   1.0000
     1.0000   1.0000   1.0000   1.0000   1.0000   1.0000   1.0000   1.0000
     1.0000   1.0000   1.0000   1.0000   1.0000   1.0000   1.0000   1.0000
     1.0000   1.0000   1.0000   1.0000   1.0006   1.0007   1.0483   1.0711
     1.0747   0.0000   0.0000   0.0000   0.0000   0.0000   0.0000   0.0000
     0.0000   0.0000   0.0000   0.0000   0.0000   0.0000   0.0000   0.0000

          k = 0.0000 0.1925 0.2417 (  7936 PWs)   bands (ev):

   -91.3158 -91.3123 -91.2857 -54.5601 -54.5578 -54.5453 -54.5399 -54.5391
   -54.5386 -54.5124 -54.5093 -54.5049 -47.5377 -19.4567 -19.4565 -19.4060
   -14.6939 -13.2757 -13.1950 -13.1011 -13.0474 -12.9021  -1.3090  -1.0535
    -0.9437  -0.8909  -0.7573  -0.7153  -0.5360  -0.0923   0.0979   0.7931
     0.8610   0.9890   1.0846   1.8049   1.8795   2.2386   2.3220   2.6279
     2.9547   3.0220   3.3057   3.5066   3.7050   3.7184   4.0481   4.1152
     4.1881   6.0443   6.0948   6.1029   6.1651   6.5065   6.7333   8.2058
    11.6218  12.6716  13.6133  14.0454  14.6050  15.7382  16.0500  16.3372

     occupation numbers 
     1.0000   1.0000   1.0000   1.0000   1.0000   1.0000   1.0000   1.0000
     1.0000   1.0000   1.0000   1.0000   1.0000   1.0000   1.0000   1.0000
     1.0000   1.0000   1.0000   1.0000   1.0000   1.0000   1.0000   1.0000
     1.0000   1.0000   1.0000   1.0000   1.0000   1.0000   1.0000   1.0000
     1.0000   1.0000   1.0000   1.0000   1.0000   1.0000   1.0000   1.0000
     1.0000   1.0000   1.0000   1.0000   1.0006   1.0007   1.0469   1.0695
     1.0833   0.0000   0.0000   0.0000   0.0000   0.0000   0.0000   0.0000
     0.0000   0.0000   0.0000   0.0000   0.0000   0.0000   0.0000   0.0000

          k = 0.0000 0.3849 0.0000 (  7930 PWs)   bands (ev):

   -91.3151 -91.3129 -91.2858 -54.5654 -54.5553 -54.5443 -54.5406 -54.5341
   -54.5316 -54.5194 -54.5118 -54.5050 -47.5377 -19.4570 -19.4567 -19.4058
   -14.4088 -13.5892 -13.2394 -13.1472 -12.9855 -12.9109  -1.7226  -0.9485
    -0.8892  -0.8689  -0.6552  -0.4972  -0.3753   0.1136   0.3617   0.6327
     0.7133   0.8227   1.2321   1.2537   1.7203   2.0835   2.4568   3.0488
     3.0529   3.3760   3.4401   3.4507   3.4848   3.8698   3.9065   4.1215
     4.1750   6.0241   6.0593   6.0673   6.1057   6.4797   6.4950   8.5828
    11.0775  13.1032  13.2333  13.6106  14.5158  14.9302  16.0364  16.4818

     occupation numbers 
     1.0000   1.0000   1.0000   1.0000   1.0000   1.0000   1.0000   1.0000
     1.0000   1.0000   1.0000   1.0000   1.0000   1.0000   1.0000   1.0000
     1.0000   1.0000   1.0000   1.0000   1.0000   1.0000   1.0000   1.0000
     1.0000   1.0000   1.0000   1.0000   1.0000   1.0000   1.0000   1.0000
     1.0000   1.0000   1.0000   1.0000   1.0000   1.0000   1.0000   1.0000
     1.0000   1.0000   1.0000   1.0000   1.0000   1.0076   1.0120   1.0714
     1.0826   0.0000   0.0000   0.0000   0.0000   0.0000   0.0000   0.0000
     0.0000   0.0000   0.0000   0.0000   0.0000   0.0000   0.0000   0.0000

          k = 0.0000 0.3849 0.2417 (  7917 PWs)   bands (ev):

   -91.3151 -91.3129 -91.2858 -54.5654 -54.5554 -54.5442 -54.5406 -54.5340
   -54.5315 -54.5193 -54.5118 -54.5050 -47.5377 -19.4569 -19.4566 -19.4058
   -14.4075 -13.5888 -13.2395 -13.1471 -12.9859 -12.9127  -1.7231  -0.9593
    -0.8978  -0.8699  -0.6255  -0.5007  -0.3751   0.1145   0.3581   0.6505
     0.7177   0.8203   1.2335   1.2593   1.7198   2.0947   2.4558   2.9771
     3.0485   3.3762   3.4426   3.4518   3.4870   3.8568   3.9027   4.1614
     4.1647   5.9795   6.0406   6.0756   6.1175   6.4830   6.5154   8.8071
    11.0417  12.4921  13.0574  13.4222  14.8975  15.4794  16.1394  16.7684

     occupation numbers 
     1.0000   1.0000   1.0000   1.0000   1.0000   1.0000   1.0000   1.0000
     1.0000   1.0000   1.0000   1.0000   1.0000   1.0000   1.0000   1.0000
     1.0000   1.0000   1.0000   1.0000   1.0000   1.0000   1.0000   1.0000
     1.0000   1.0000   1.0000   1.0000   1.0000   1.0000   1.0000   1.0000
     1.0000   1.0000   1.0000   1.0000   1.0000   1.0000   1.0000   1.0000
     1.0000   1.0000   1.0000   1.0000   1.0000   1.0064   1.0114   1.0808
     1.0813   0.0000   0.0000   0.0000   0.0000   0.0000   0.0000   0.0000
     0.0000   0.0000   0.0000   0.0000   0.0000   0.0000   0.0000   0.0000

          k = 0.0000-0.5774 0.0000 (  7928 PWs)   bands (ev):

   -91.3145 -91.3133 -91.2859 -54.5675 -54.5487 -54.5434 -54.5413 -54.5408
   -54.5277 -54.5193 -54.5138 -54.5051 -47.5377 -19.4570 -19.4569 -19.4057
   -14.0109 -13.9994 -13.2564 -13.1713 -12.9400 -12.9366  -1.8738  -1.0034
    -0.9472  -0.4809  -0.4764  -0.2226  -0.1472  -0.1302   0.0360   0.5117
     0.6170   0.7562   1.1555   1.1625   1.6133   2.1788   2.9515   2.9826
     3.0529   3.3258   3.3981   3.4026   3.7609   3.8844   3.8918   4.0844
     4.0903   5.8763   5.9306   6.0805   6.2253   6.2370   6.6821   9.4387
     9.8984  12.8856  13.3427  13.7272  14.3395  15.6115  15.7319  15.8017

     occupation numbers 
     1.0000   1.0000   1.0000   1.0000   1.0000   1.0000   1.0000   1.0000
     1.0000   1.0000   1.0000   1.0000   1.0000   1.0000   1.0000   1.0000
     1.0000   1.0000   1.0000   1.0000   1.0000   1.0000   1.0000   1.0000
     1.0000   1.0000   1.0000   1.0000   1.0000   1.0000   1.0000   1.0000
     1.0000   1.0000   1.0000   1.0000   1.0000   1.0000   1.0000   1.0000
     1.0000   1.0000   1.0000   1.0000   1.0015   1.0091   1.0100   1.0594
     1.0614   0.0000   0.0000   0.0000   0.0000   0.0000   0.0000   0.0000
     0.0000   0.0000   0.0000   0.0000   0.0000   0.0000   0.0000   0.0000

          k = 0.0000-0.5774 0.2417 (  7914 PWs)   bands (ev):

   -91.3145 -91.3133 -91.2859 -54.5674 -54.5488 -54.5433 -54.5413 -54.5409
   -54.5276 -54.5193 -54.5137 -54.5051 -47.5377 -19.4571 -19.4566 -19.4057
   -14.0093 -13.9993 -13.2565 -13.1711 -12.9418 -12.9368  -1.8743  -1.0192
    -0.9563  -0.4779  -0.4746  -0.2301  -0.1401  -0.1171   0.0360   0.5328
     0.6302   0.7601   1.1544   1.1623   1.6135   2.1945   2.9376   2.9631
     3.0513   3.3258   3.3991   3.4040   3.7584   3.9021   3.9054   4.0611
     4.0741   5.8197   5.8920   6.0829   6.2500   6.2677   6.6818   9.5278
     9.9789  12.8502  13.1534  13.4648  13.8985  15.7339  16.3013  16.6053

     occupation numbers 
     1.0000   1.0000   1.0000   1.0000   1.0000   1.0000   1.0000   1.0000
     1.0000   1.0000   1.0000   1.0000   1.0000   1.0000   1.0000   1.0000
     1.0000   1.0000   1.0000   1.0000   1.0000   1.0000   1.0000   1.0000
     1.0000   1.0000   1.0000   1.0000   1.0000   1.0000   1.0000   1.0000
     1.0000   1.0000   1.0000   1.0000   1.0000   1.0000   1.0000   1.0000
     1.0000   1.0000   1.0000   1.0000   1.0015   1.0114   1.0118   1.0513
     1.0558   0.0000   0.0000   0.0000   0.0000   0.0000   0.0000   0.0000
     0.0000   0.0000   0.0000   0.0000   0.0000   0.0000   0.0000   0.0000

          k = 0.1667 0.2887 0.0000 (  7899 PWs)   bands (ev):

   -91.3153 -91.3127 -91.2858 -54.5616 -54.5596 -54.5445 -54.5402 -54.5342
   -54.5330 -54.5182 -54.5108 -54.5049 -47.5377 -19.4568 -19.4566 -19.4056
   -14.5007 -13.3900 -13.3860 -13.0405 -13.0404 -12.9068  -1.3848  -1.3847
    -0.8802  -0.7469  -0.6987  -0.6578  -0.4092   0.2318   0.2663   0.7316
     0.7721   0.9219   0.9649   1.4004   2.0492   2.1476   2.1521   2.9228
     3.1758   3.1873   3.4149   3.5240   3.5248   3.7425   4.0663   4.0698
     4.1476   6.0074   6.0487   6.0871   6.2734   6.2878   6.6565   8.3486
    11.8730  12.1840  13.1037  14.2199  15.0791  15.1609  15.7932  16.0543

     occupation numbers 
     1.0000   1.0000   1.0000   1.0000   1.0000   1.0000   1.0000   1.0000
     1.0000   1.0000   1.0000   1.0000   1.0000   1.0000   1.0000   1.0000
     1.0000   1.0000   1.0000   1.0000   1.0000   1.0000   1.0000   1.0000
     1.0000   1.0000   1.0000   1.0000   1.0000   1.0000   1.0000   1.0000
     1.0000   1.0000   1.0000   1.0000   1.0000   1.0000   1.0000   1.0000
     1.0000   1.0000   1.0000   1.0000   1.0000   1.0011   1.0531   1.0543
     1.0782   0.0000   0.0000   0.0000   0.0000   0.0000   0.0000   0.0000
     0.0000   0.0000   0.0000   0.0000   0.0000   0.0000   0.0000   0.0000

          k = 0.1667 0.2887 0.2417 (  7926 PWs)   bands (ev):

   -91.3153 -91.3127 -91.2858 -54.5616 -54.5596 -54.5445 -54.5404 -54.5342
   -54.5331 -54.5182 -54.5108 -54.5050 -47.5377 -19.4568 -19.4567 -19.4059
   -14.4993 -13.3898 -13.3857 -13.0408 -13.0407 -12.9088  -1.3859  -1.3848
    -0.8928  -0.7136  -0.7025  -0.6614  -0.4092   0.2286   0.2646   0.7431
     0.7791   0.9204   0.9655   1.4059   2.0492   2.1530   2.1580   2.8418
     3.1757   3.1871   3.3929   3.5253   3.5260   3.7425   4.0612   4.0655
     4.1997   5.9915   6.0408   6.0414   6.2819   6.2958   6.6565   8.6567
    11.8329  12.1589  12.1953  15.0169  15.0540  15.3090  15.5575  15.8096

     occupation numbers 
     1.0000   1.0000   1.0000   1.0000   1.0000   1.0000   1.0000   1.0000
     1.0000   1.0000   1.0000   1.0000   1.0000   1.0000   1.0000   1.0000
     1.0000   1.0000   1.0000   1.0000   1.0000   1.0000   1.0000   1.0000
     1.0000   1.0000   1.0000   1.0000   1.0000   1.0000   1.0000   1.0000
     1.0000   1.0000   1.0000   1.0000   1.0000   1.0000   1.0000   1.0000
     1.0000   1.0000   1.0000   1.0000   1.0000   1.0011   1.0514   1.0528
     1.0830   0.0000   0.0000   0.0000   0.0000   0.0000   0.0000   0.0000
     0.0000   0.0000   0.0000   0.0000   0.0000   0.0000   0.0000   0.0000

          k = 0.1667 0.4811 0.0000 (  7898 PWs)   bands (ev):

   -91.3146 -91.3133 -91.2859 -54.5636 -54.5540 -54.5434 -54.5412 -54.5404
   -54.5280 -54.5182 -54.5131 -54.5051 -47.5377 -19.4570 -19.4567 -19.4056
   -14.1559 -13.7477 -13.4608 -13.0515 -12.9717 -12.9280  -1.6527  -1.1700
    -1.0169  -0.5752  -0.4316  -0.4104  -0.2239   0.0442   0.0918   0.4710
     0.5851   0.7191   1.1912   1.4474   1.6030   2.2661   2.6434   2.9831
     3.2179   3.4146   3.4339   3.4612   3.6255   3.8471   3.8733   4.0427
     4.0485   5.7535   5.8641   5.9975   6.3877   6.5243   6.6004   9.1924
    10.4851  11.6401  13.5728  14.5463  14.8667  15.2383  15.4123  16.3154

     occupation numbers 
     1.0000   1.0000   1.0000   1.0000   1.0000   1.0000   1.0000   1.0000
     1.0000   1.0000   1.0000   1.0000   1.0000   1.0000   1.0000   1.0000
     1.0000   1.0000   1.0000   1.0000   1.0000   1.0000   1.0000   1.0000
     1.0000   1.0000   1.0000   1.0000   1.0000   1.0000   1.0000   1.0000
     1.0000   1.0000   1.0000   1.0000   1.0000   1.0000   1.0000   1.0000
     1.0000   1.0000   1.0000   1.0000   1.0001   1.0056   1.0079   1.0451
     1.0470   0.0000   0.0000   0.0000   0.0000   0.0000   0.0000   0.0000
     0.0000   0.0000   0.0000   0.0000   0.0000   0.0000   0.0000   0.0000

          k = 0.1667 0.4811 0.2417 (  7912 PWs)   bands (ev):

   -91.3146 -91.3133 -91.2859 -54.5636 -54.5540 -54.5434 -54.5413 -54.5404
   -54.5280 -54.5182 -54.5131 -54.5051 -47.5377 -19.4570 -19.4567 -19.4058
   -14.1548 -13.7471 -13.4605 -13.0519 -12.9725 -12.9293  -1.6538  -1.1770
    -1.0304  -0.5793  -0.4203  -0.4111  -0.2211   0.0457   0.0904   0.4915
     0.5963   0.7276   1.1914   1.4476   1.6031   2.2792   2.6455   2.9629
     3.2167   3.4143   3.4338   3.4460   3.6291   3.8462   3.8663   4.0426
     4.0738   5.6817   5.8251   5.9788   6.3982   6.5311   6.6017   9.3963
    10.5592  11.6812  13.0504  14.2361  14.7175  15.0785  16.0943  16.7492

     occupation numbers 
     1.0000   1.0000   1.0000   1.0000   1.0000   1.0000   1.0000   1.0000
     1.0000   1.0000   1.0000   1.0000   1.0000   1.0000   1.0000   1.0000
     1.0000   1.0000   1.0000   1.0000   1.0000   1.0000   1.0000   1.0000
     1.0000   1.0000   1.0000   1.0000   1.0000   1.0000   1.0000   1.0000
     1.0000   1.0000   1.0000   1.0000   1.0000   1.0000   1.0000   1.0000
     1.0000   1.0000   1.0000   1.0000   1.0001   1.0055   1.0072   1.0450
     1.0557   0.0000   0.0000   0.0000   0.0000   0.0000   0.0000   0.0000
     0.0000   0.0000   0.0000   0.0000   0.0000   0.0000   0.0000   0.0000

          k = 0.3333 0.5774 0.0000 (  7920 PWs)   bands (ev):

   -91.3139 -91.3139 -91.2859 -54.5582 -54.5515 -54.5515 -54.5422 -54.5422
   -54.5268 -54.5149 -54.5149 -54.5052 -47.5377 -19.4570 -19.4570 -19.4057
   -13.8170 -13.8030 -13.8030 -12.9725 -12.9692 -12.9692  -1.2927  -1.2720
    -1.2720  -0.4496  -0.4064  -0.4064  -0.0616  -0.0616  -0.0473   0.3392
     0.4727   0.4727   1.5445   1.5445   1.5612   2.6321   2.6321   2.6839
     3.4122   3.4122   3.4168   3.6722   3.6722   3.6758   3.8926   3.9021
     3.9021   5.7345   5.8022   5.8022   6.6074   6.6078   6.6078   9.8494
    10.4473  10.4473  13.7513  14.6081  14.6081  15.9363  16.0565  16.0565

     occupation numbers 
     1.0000   1.0000   1.0000   1.0000   1.0000   1.0000   1.0000   1.0000
     1.0000   1.0000   1.0000   1.0000   1.0000   1.0000   1.0000   1.0000
     1.0000   1.0000   1.0000   1.0000   1.0000   1.0000   1.0000   1.0000
     1.0000   1.0000   1.0000   1.0000   1.0000   1.0000   1.0000   1.0000
     1.0000   1.0000   1.0000   1.0000   1.0000   1.0000   1.0000   1.0000
     1.0000   1.0000   1.0000   1.0003   1.0003   1.0003   1.0101   1.0114
     1.0114   0.0000   0.0000   0.0000   0.0000   0.0000   0.0000   0.0000
     0.0000   0.0000   0.0000   0.0000   0.0000   0.0000   0.0000   0.0000

          k = 0.3333 0.5774 0.2417 (  7899 PWs)   bands (ev):

   -91.3139 -91.3139 -91.2859 -54.5582 -54.5516 -54.5516 -54.5422 -54.5422
   -54.5267 -54.5148 -54.5148 -54.5051 -47.5377 -19.4569 -19.4569 -19.4057
   -13.8153 -13.8028 -13.8028 -12.9743 -12.9695 -12.9695  -1.3018  -1.2773
    -1.2773  -0.4564  -0.4090  -0.4090  -0.0615  -0.0615  -0.0475   0.3695
     0.4888   0.4888   1.5445   1.5445   1.5614   2.6361   2.6361   2.6876
     3.4071   3.4071   3.4099   3.6723   3.6723   3.6759   3.9045   3.9108
     3.9108   5.6646   5.7570   5.7570   6.6070   6.6077   6.6077   9.9987
    10.5709  10.5709  13.4743  14.1986  14.1986  16.3300  16.3300  16.5403

     occupation numbers 
     1.0000   1.0000   1.0000   1.0000   1.0000   1.0000   1.0000   1.0000
     1.0000   1.0000   1.0000   1.0000   1.0000   1.0000   1.0000   1.0000
     1.0000   1.0000   1.0000   1.0000   1.0000   1.0000   1.0000   1.0000
     1.0000   1.0000   1.0000   1.0000   1.0000   1.0000   1.0000   1.0000
     1.0000   1.0000   1.0000   1.0000   1.0000   1.0000   1.0000   1.0000
     1.0000   1.0000   1.0000   1.0003   1.0003   1.0003   1.0117   1.0126
     1.0126   0.0000   0.0000   0.0000   0.0000   0.0000   0.0000   0.0000
     0.0000   0.0000   0.0000   0.0000   0.0000   0.0000   0.0000   0.0000

          k =-0.1667-0.2887 0.2417 (  7926 PWs)   bands (ev):

   -91.3153 -91.3127 -91.2858 -54.5616 -54.5596 -54.5445 -54.5404 -54.5342
   -54.5331 -54.5182 -54.5108 -54.5050 -47.5377 -19.4568 -19.4567 -19.4059
   -14.4993 -13.3899 -13.3860 -13.0407 -13.0405 -12.9088  -1.3869  -1.3865
    -0.8837  -0.7214  -0.7018  -0.6608  -0.4092   0.2317   0.2656   0.7375
     0.7762   0.9253   0.9693   1.4035   2.0491   2.1485   2.1535   2.8425
     3.1767   3.1882   3.3954   3.5256   3.5263   3.7424   4.0580   4.0622
     4.1882   6.0216   6.0587   6.0803   6.2759   6.2875   6.6567   8.5699
    11.7319  12.0837  12.2822  15.0661  15.0724  15.4192  15.7985  16.0608

     occupation numbers 
     1.0000   1.0000   1.0000   1.0000   1.0000   1.0000   1.0000   1.0000
     1.0000   1.0000   1.0000   1.0000   1.0000   1.0000   1.0000   1.0000
     1.0000   1.0000   1.0000   1.0000   1.0000   1.0000   1.0000   1.0000
     1.0000   1.0000   1.0000   1.0000   1.0000   1.0000   1.0000   1.0000
     1.0000   1.0000   1.0000   1.0000   1.0000   1.0000   1.0000   1.0000
     1.0000   1.0000   1.0000   1.0000   1.0000   1.0011   1.0503   1.0517
     1.0833   0.0000   0.0000   0.0000   0.0000   0.0000   0.0000   0.0000
     0.0000   0.0000   0.0000   0.0000   0.0000   0.0000   0.0000   0.0000

          k =-0.1667-0.4811 0.2417 (  7912 PWs)   bands (ev):

   -91.3146 -91.3133 -91.2859 -54.5636 -54.5540 -54.5434 -54.5413 -54.5404
   -54.5280 -54.5182 -54.5131 -54.5051 -47.5377 -19.4570 -19.4567 -19.4058
   -14.1549 -13.7472 -13.4607 -13.0516 -12.9723 -12.9292  -1.6549  -1.1776
    -1.0262  -0.5794  -0.4237  -0.4129  -0.2218   0.0434   0.0906   0.4982
     0.5997   0.7313   1.1903   1.4475   1.6029   2.2697   2.6373   2.9542
     3.2197   3.4168   3.4340   3.4516   3.6302   3.8407   3.8720   4.0300
     4.0495   5.7506   5.8700   6.0056   6.3887   6.5269   6.6006   9.2652
    10.4418  11.5126  13.2585  14.4972  14.8636  15.5037  15.9357  16.4671

     occupation numbers 
     1.0000   1.0000   1.0000   1.0000   1.0000   1.0000   1.0000   1.0000
     1.0000   1.0000   1.0000   1.0000   1.0000   1.0000   1.0000   1.0000
     1.0000   1.0000   1.0000   1.0000   1.0000   1.0000   1.0000   1.0000
     1.0000   1.0000   1.0000   1.0000   1.0000   1.0000   1.0000   1.0000
     1.0000   1.0000   1.0000   1.0000   1.0000   1.0000   1.0000   1.0000
     1.0000   1.0000   1.0000   1.0000   1.0001   1.0051   1.0078   1.0409
     1.0473   0.0000   0.0000   0.0000   0.0000   0.0000   0.0000   0.0000
     0.0000   0.0000   0.0000   0.0000   0.0000   0.0000   0.0000   0.0000

          k =-0.3333-0.5774 0.2417 (  7899 PWs)   bands (ev):

   -91.3139 -91.3139 -91.2859 -54.5582 -54.5516 -54.5516 -54.5422 -54.5422
   -54.5267 -54.5148 -54.5148 -54.5051 -47.5377 -19.4569 -19.4569 -19.4057
   -13.8154 -13.8029 -13.8029 -12.9741 -12.9693 -12.9693  -1.3033  -1.2763
    -1.2763  -0.4586  -0.4119  -0.4119  -0.0615  -0.0615  -0.0473   0.3771
     0.4934   0.4934   1.5445   1.5445   1.5612   2.6253   2.6253   2.6745
     3.4124   3.4124   3.4168   3.6723   3.6723   3.6759   3.8806   3.8949
     3.8949   5.7441   5.8087   5.8087   6.6073   6.6079   6.6079   9.7791
    10.4095  10.4095  13.9215  14.5247  14.5247  15.9573  16.2588  16.2589

     occupation numbers 
     1.0000   1.0000   1.0000   1.0000   1.0000   1.0000   1.0000   1.0000
     1.0000   1.0000   1.0000   1.0000   1.0000   1.0000   1.0000   1.0000
     1.0000   1.0000   1.0000   1.0000   1.0000   1.0000   1.0000   1.0000
     1.0000   1.0000   1.0000   1.0000   1.0000   1.0000   1.0000   1.0000
     1.0000   1.0000   1.0000   1.0000   1.0000   1.0000   1.0000   1.0000
     1.0000   1.0000   1.0000   1.0003   1.0003   1.0003   1.0087   1.0104
     1.0104   0.0000   0.0000   0.0000   0.0000   0.0000   0.0000   0.0000
     0.0000   0.0000   0.0000   0.0000   0.0000   0.0000   0.0000   0.0000

 ------ SPIN DOWN ----------


          k = 0.0000 0.0000 0.0000 (  7923 PWs)   bands (ev):

   -90.5883 -90.5841 -90.5677 -53.9049 -53.9049 -53.8968 -53.8968 -53.8589
   -53.8589 -53.7209 -53.7136 -53.6989 -47.5368 -19.4552 -19.4552 -19.4047
   -14.7045 -13.0507 -13.0507 -12.9858 -12.9858 -12.7957  -0.8159  -0.7603
    -0.7603  -0.6922  -0.6922  -0.4135  -0.3778  -0.3778  -0.3450   1.3415
     1.3415   1.4328   1.4328   1.5228   1.6149   2.6539   3.1527   3.1527
     3.4961   3.4961   3.8745   3.9034   4.5381   4.5381   4.5567   4.5567
     4.9408   6.3475   6.3475   6.3881   6.3881   7.1160   7.1160   7.6109
    12.5842  13.3428  14.2908  14.2908  15.0602  15.0602  15.1171  15.4967

     occupation numbers 
     1.0000   1.0000   1.0000   1.0000   1.0000   1.0000   1.0000   1.0000
     1.0000   1.0000   1.0000   1.0000   1.0000   1.0000   1.0000   1.0000
     1.0000   1.0000   1.0000   1.0000   1.0000   1.0000   1.0000   1.0000
     1.0000   1.0000   1.0000   1.0000   1.0000   1.0000   1.0000   1.0000
     1.0000   1.0000   1.0000   1.0000   1.0000   1.0000   1.0000   1.0000
     1.0000   1.0000   1.0080   1.0115   0.4981   0.4981   0.4483   0.4483
     0.0078   0.0000   0.0000   0.0000   0.0000   0.0000   0.0000   0.0000
     0.0000   0.0000   0.0000   0.0000   0.0000   0.0000   0.0000   0.0000

          k = 0.0000 0.0000 0.2417 (  7928 PWs)   bands (ev):

   -90.5883 -90.5841 -90.5677 -53.9048 -53.9048 -53.8967 -53.8967 -53.8591
   -53.8591 -53.7211 -53.7137 -53.6990 -47.5368 -19.4552 -19.4552 -19.4050
   -14.7027 -13.0507 -13.0507 -12.9857 -12.9857 -12.7985  -0.7683  -0.7615
    -0.7615  -0.6941  -0.6941  -0.4083  -0.3778  -0.3778  -0.3429   1.3433
     1.3433   1.4353   1.4353   1.5108   1.6110   2.4905   3.1524   3.1524
     3.4961   3.4961   3.8759   3.9040   4.5364   4.5364   4.5549   4.5549
     4.9985   6.3569   6.3569   6.3980   6.3980   7.1161   7.1161   7.9893
    11.3529  14.2133  14.2133  14.2818  15.0042  15.0042  15.0177  15.3932

     occupation numbers 
     1.0000   1.0000   1.0000   1.0000   1.0000   1.0000   1.0000   1.0000
     1.0000   1.0000   1.0000   1.0000   1.0000   1.0000   1.0000   1.0000
     1.0000   1.0000   1.0000   1.0000   1.0000   1.0000   1.0000   1.0000
     1.0000   1.0000   1.0000   1.0000   1.0000   1.0000   1.0000   1.0000
     1.0000   1.0000   1.0000   1.0000   1.0000   1.0000   1.0000   1.0000
     1.0000   1.0000   1.0082   1.0116   0.5028   0.5028   0.4533   0.4533
     0.0031   0.0000   0.0000   0.0000   0.0000   0.0000   0.0000   0.0000
     0.0000   0.0000   0.0000   0.0000   0.0000   0.0000   0.0000   0.0000

          k = 0.0000 0.1925 0.0000 (  7914 PWs)   bands (ev):

   -90.5880 -90.5843 -90.5678 -53.9105 -53.9082 -53.8900 -53.8888 -53.8637
   -53.8601 -53.7205 -53.7140 -53.6991 -47.5368 -19.4554 -19.4552 -19.4047
   -14.6011 -13.1751 -13.0950 -12.9951 -12.9422 -12.7978  -1.1711  -0.9236
    -0.7289  -0.6790  -0.6171  -0.4940  -0.3152   0.0133   0.2136   0.9714
     1.0474   1.2590   1.3538   1.9600   2.0407   2.4515   2.6026   2.9092
     3.7931   3.8975   3.9389   3.9979   4.3209   4.3335   4.6086   4.6708
     4.9609   6.3437   6.4175   6.4201   6.4581   6.8432   7.0318   7.8843
    12.7130  12.8683  13.6909  13.6996  14.1811  15.6541  16.1643  16.3859

     occupation numbers 
     1.0000   1.0000   1.0000   1.0000   1.0000   1.0000   1.0000   1.0000
     1.0000   1.0000   1.0000   1.0000   1.0000   1.0000   1.0000   1.0000
     1.0000   1.0000   1.0000   1.0000   1.0000   1.0000   1.0000   1.0000
     1.0000   1.0000   1.0000   1.0000   1.0000   1.0000   1.0000   1.0000
     1.0000   1.0000   1.0000   1.0000   1.0000   1.0000   1.0000   1.0000
     1.0025   1.0107   1.0173   1.0312   1.0051   0.9873   0.3208   0.1974
     0.0057   0.0000   0.0000   0.0000   0.0000   0.0000   0.0000   0.0000
     0.0000   0.0000   0.0000   0.0000   0.0000   0.0000   0.0000   0.0000

          k = 0.0000 0.1925 0.2417 (  7936 PWs)   bands (ev):

   -90.5880 -90.5843 -90.5678 -53.9106 -53.9082 -53.8899 -53.8889 -53.8637
   -53.8602 -53.7205 -53.7141 -53.6992 -47.5368 -19.4554 -19.4552 -19.4050
   -14.5994 -13.1751 -13.0951 -12.9950 -12.9422 -12.8004  -1.1710  -0.9225
    -0.7327  -0.6376  -0.6190  -0.4985  -0.3152   0.0154   0.2151   0.9675
     1.0435   1.2665   1.3558   1.9629   2.0395   2.4537   2.5657   2.8075
     3.7934   3.8925   3.9393   3.9981   4.3218   4.3342   4.6046   4.6654
     5.0189   6.3578   6.4202   6.4263   6.4658   6.8105   7.0382   8.2351
    11.6940  12.6739  13.6190  14.0368  14.6976  15.7459  16.0721  16.4007

     occupation numbers 
     1.0000   1.0000   1.0000   1.0000   1.0000   1.0000   1.0000   1.0000
     1.0000   1.0000   1.0000   1.0000   1.0000   1.0000   1.0000   1.0000
     1.0000   1.0000   1.0000   1.0000   1.0000   1.0000   1.0000   1.0000
     1.0000   1.0000   1.0000   1.0000   1.0000   1.0000   1.0000   1.0000
     1.0000   1.0000   1.0000   1.0000   1.0000   1.0000   1.0000   1.0000
     1.0026   1.0101   1.0174   1.0313   1.0039   0.9863   0.3300   0.2068
     0.0022   0.0000   0.0000   0.0000   0.0000   0.0000   0.0000   0.0000
     0.0000   0.0000   0.0000   0.0000   0.0000   0.0000   0.0000   0.0000

          k = 0.0000 0.3849 0.0000 (  7930 PWs)   bands (ev):

   -90.5873 -90.5849 -90.5679 -53.9163 -53.9056 -53.8829 -53.8811 -53.8722
   -53.8633 -53.7191 -53.7150 -53.6996 -47.5368 -19.4557 -19.4554 -19.4047
   -14.3134 -13.4902 -13.1405 -13.0409 -12.8806 -12.8080  -1.5810  -0.7782
    -0.7282  -0.6903  -0.3735  -0.3579  -0.1679   0.2591   0.5262   0.9156
     0.9652   1.0076   1.3842   1.4385   1.9593   2.2449   2.6356   3.2049
     3.9519   3.9697   4.1082   4.1215   4.3014   4.3315   4.4741   4.6836
     4.9338   6.3476   6.3754   6.3885   6.4620   6.7620   6.7864   8.6002
    11.0820  13.1123  13.2861  13.6105  14.6268  14.9684  16.0842  16.5775

     occupation numbers 
     1.0000   1.0000   1.0000   1.0000   1.0000   1.0000   1.0000   1.0000
     1.0000   1.0000   1.0000   1.0000   1.0000   1.0000   1.0000   1.0000
     1.0000   1.0000   1.0000   1.0000   1.0000   1.0000   1.0000   1.0000
     1.0000   1.0000   1.0000   1.0000   1.0000   1.0000   1.0000   1.0000
     1.0000   1.0000   1.0000   1.0000   1.0000   1.0000   1.0000   1.0000
     1.0199   1.0239   1.0673   1.0714   1.0288   0.9902   0.6742   0.1766
     0.0087   0.0000   0.0000   0.0000   0.0000   0.0000   0.0000   0.0000
     0.0000   0.0000   0.0000   0.0000   0.0000   0.0000   0.0000   0.0000

          k = 0.0000 0.3849 0.2417 (  7917 PWs)   bands (ev):

   -90.5872 -90.5849 -90.5679 -53.9164 -53.9057 -53.8828 -53.8810 -53.8721
   -53.8633 -53.7190 -53.7151 -53.6996 -47.5368 -19.4556 -19.4553 -19.4048
   -14.3120 -13.4898 -13.1406 -13.0408 -12.8810 -12.8098  -1.5814  -0.7869
    -0.7317  -0.7003  -0.3771  -0.3251  -0.1671   0.2599   0.5228   0.9308
     0.9696   1.0103   1.3861   1.4472   1.9585   2.2571   2.6337   3.1256
     3.9516   3.9688   4.1090   4.1226   4.2882   4.3332   4.4713   4.6719
     4.9745   6.2914   6.3575   6.4029   6.4646   6.7655   6.8117   8.8370
    11.0476  12.5559  13.0651  13.4138  14.9451  15.5719  16.1885  16.8560

     occupation numbers 
     1.0000   1.0000   1.0000   1.0000   1.0000   1.0000   1.0000   1.0000
     1.0000   1.0000   1.0000   1.0000   1.0000   1.0000   1.0000   1.0000
     1.0000   1.0000   1.0000   1.0000   1.0000   1.0000   1.0000   1.0000
     1.0000   1.0000   1.0000   1.0000   1.0000   1.0000   1.0000   1.0000
     1.0000   1.0000   1.0000   1.0000   1.0000   1.0000   1.0000   1.0000
     1.0199   1.0237   1.0675   1.0717   1.0421   0.9878   0.6819   0.1956
     0.0046   0.0000   0.0000   0.0000   0.0000   0.0000   0.0000   0.0000
     0.0000   0.0000   0.0000   0.0000   0.0000   0.0000   0.0000   0.0000

          k = 0.0000-0.5774 0.0000 (  7928 PWs)   bands (ev):

   -90.5867 -90.5854 -90.5680 -53.9186 -53.8980 -53.8912 -53.8763 -53.8715
   -53.8661 -53.7180 -53.7159 -53.6998 -47.5368 -19.4557 -19.4556 -19.4047
   -13.9139 -13.9023 -13.1580 -13.0649 -12.8359 -12.8324  -1.7303  -0.8186
    -0.7587  -0.3045  -0.2976  -0.1364   0.0887   0.1159   0.2336   0.7200
     0.8467   1.0765   1.3576   1.3661   1.6799   2.3265   3.1131   3.1495
     3.8886   4.0132   4.0288   4.0350   4.3950   4.5553   4.5663   4.7100
     4.7343   6.2010   6.2537   6.4590   6.5186   6.5334   6.9573   9.4566
     9.8998  12.8925  13.3398  13.7703  14.3927  15.6960  15.8116  15.9195

     occupation numbers 
     1.0000   1.0000   1.0000   1.0000   1.0000   1.0000   1.0000   1.0000
     1.0000   1.0000   1.0000   1.0000   1.0000   1.0000   1.0000   1.0000
     1.0000   1.0000   1.0000   1.0000   1.0000   1.0000   1.0000   1.0000
     1.0000   1.0000   1.0000   1.0000   1.0000   1.0000   1.0000   1.0000
     1.0000   1.0000   1.0000   1.0000   1.0000   1.0000   1.0000   1.0000
     1.0096   1.0356   1.0405   1.0425   0.8730   0.4522   0.4235   0.1386
     0.1092   0.0000   0.0000   0.0000   0.0000   0.0000   0.0000   0.0000
     0.0000   0.0000   0.0000   0.0000   0.0000   0.0000   0.0000   0.0000

          k = 0.0000-0.5774 0.2417 (  7914 PWs)   bands (ev):

   -90.5867 -90.5854 -90.5680 -53.9185 -53.8981 -53.8913 -53.8762 -53.8715
   -53.8660 -53.7179 -53.7159 -53.6998 -47.5368 -19.4558 -19.4553 -19.4047
   -13.9123 -13.9021 -13.1581 -13.0647 -12.8378 -12.8327  -1.7308  -0.8356
    -0.7685  -0.3027  -0.2967  -0.1443   0.0954   0.1282   0.2336   0.7495
     0.8658   1.0802   1.3566   1.3660   1.6802   2.3429   3.0959   3.1253
     3.8866   4.0132   4.0290   4.0355   4.3937   4.5328   4.5508   4.7260
     4.7463   6.1334   6.2073   6.4649   6.5477   6.5651   6.9569   9.5569
     9.9875  12.8585  13.1528  13.5099  13.9575  15.7829  16.3964  16.7110

     occupation numbers 
     1.0000   1.0000   1.0000   1.0000   1.0000   1.0000   1.0000   1.0000
     1.0000   1.0000   1.0000   1.0000   1.0000   1.0000   1.0000   1.0000
     1.0000   1.0000   1.0000   1.0000   1.0000   1.0000   1.0000   1.0000
     1.0000   1.0000   1.0000   1.0000   1.0000   1.0000   1.0000   1.0000
     1.0000   1.0000   1.0000   1.0000   1.0000   1.0000   1.0000   1.0000
     1.0094   1.0356   1.0406   1.0427   0.8759   0.5125   0.4641   0.1186
     0.0965   0.0000   0.0000   0.0000   0.0000   0.0000   0.0000   0.0000
     0.0000   0.0000   0.0000   0.0000   0.0000   0.0000   0.0000   0.0000

          k = 0.1667 0.2887 0.0000 (  7899 PWs)   bands (ev):

   -90.5875 -90.5847 -90.5679 -53.9121 -53.9105 -53.8833 -53.8827 -53.8708
   -53.8620 -53.7195 -53.7146 -53.6994 -47.5367 -19.4555 -19.4553 -19.4046
   -14.4056 -13.2900 -13.2859 -12.9356 -12.9355 -12.8042  -1.2412  -1.2391
    -0.6718  -0.5589  -0.5185  -0.4512  -0.1965   0.3826   0.4186   0.9365
     0.9650   1.1512   1.2098   1.5915   2.2880   2.3281   2.3345   3.0950
     3.9304   4.0912   4.1072   4.1605   4.1605   4.1842   4.6053   4.6097
     4.9563   6.3531   6.3949   6.4126   6.5656   6.5807   6.9507   8.3647
    11.8811  12.1817  13.1687  14.3303  15.0773  15.1817  15.8214  16.1023

     occupation numbers 
     1.0000   1.0000   1.0000   1.0000   1.0000   1.0000   1.0000   1.0000
     1.0000   1.0000   1.0000   1.0000   1.0000   1.0000   1.0000   1.0000
     1.0000   1.0000   1.0000   1.0000   1.0000   1.0000   1.0000   1.0000
     1.0000   1.0000   1.0000   1.0000   1.0000   1.0000   1.0000   1.0000
     1.0000   1.0000   1.0000   1.0000   1.0000   1.0000   1.0000   1.0000
     1.0158   1.0617   1.0670   1.0807   1.0807   1.0832   0.3284   0.3183
     0.0061   0.0000   0.0000   0.0000   0.0000   0.0000   0.0000   0.0000
     0.0000   0.0000   0.0000   0.0000   0.0000   0.0000   0.0000   0.0000

          k = 0.1667 0.2887 0.2417 (  7926 PWs)   bands (ev):

   -90.5875 -90.5847 -90.5679 -53.9121 -53.9105 -53.8833 -53.8827 -53.8707
   -53.8620 -53.7195 -53.7148 -53.6995 -47.5368 -19.4555 -19.4554 -19.4049
   -14.4041 -13.2898 -13.2857 -12.9359 -12.9358 -12.8063  -1.2409  -1.2403
    -0.6861  -0.5637  -0.5223  -0.4122  -0.1965   0.3795   0.4168   0.9430
     0.9689   1.1549   1.2140   1.6001   2.2896   2.3351   2.3389   3.0000
     3.9182   4.0903   4.1062   4.1613   4.1614   4.1844   4.6008   4.6060
     5.0083   6.3232   6.3653   6.3865   6.5743   6.5884   6.9507   8.6912
    11.8420  12.1559  12.2582  15.0175  15.1202  15.3407  15.6100  15.8562

     occupation numbers 
     1.0000   1.0000   1.0000   1.0000   1.0000   1.0000   1.0000   1.0000
     1.0000   1.0000   1.0000   1.0000   1.0000   1.0000   1.0000   1.0000
     1.0000   1.0000   1.0000   1.0000   1.0000   1.0000   1.0000   1.0000
     1.0000   1.0000   1.0000   1.0000   1.0000   1.0000   1.0000   1.0000
     1.0000   1.0000   1.0000   1.0000   1.0000   1.0000   1.0000   1.0000
     1.0137   1.0614   1.0667   1.0808   1.0808   1.0832   0.3388   0.3268
     0.0026   0.0000   0.0000   0.0000   0.0000   0.0000   0.0000   0.0000
     0.0000   0.0000   0.0000   0.0000   0.0000   0.0000   0.0000   0.0000

          k = 0.1667 0.4811 0.0000 (  7898 PWs)   bands (ev):

   -90.5867 -90.5854 -90.5680 -53.9144 -53.9043 -53.8904 -53.8768 -53.8705
   -53.8649 -53.7180 -53.7158 -53.6998 -47.5367 -19.4557 -19.4554 -19.4046
   -14.0595 -13.6495 -13.3612 -12.9469 -12.8672 -12.8243  -1.5032  -0.9986
    -0.8243  -0.4344  -0.2933  -0.1923  -0.0119   0.2298   0.2765   0.7214
     0.8390   1.0292   1.3608   1.5586   1.8201   2.4373   2.8207   3.1709
     3.9886   4.0219   4.0565   4.1083   4.3714   4.3896   4.4761   4.6280
     4.8378   6.1022   6.2177   6.3750   6.6693   6.8055   6.8764   9.2054
    10.4889  11.6403  13.6246  14.5916  14.8713  15.3445  15.4668  16.4353

     occupation numbers 
     1.0000   1.0000   1.0000   1.0000   1.0000   1.0000   1.0000   1.0000
     1.0000   1.0000   1.0000   1.0000   1.0000   1.0000   1.0000   1.0000
     1.0000   1.0000   1.0000   1.0000   1.0000   1.0000   1.0000   1.0000
     1.0000   1.0000   1.0000   1.0000   1.0000   1.0000   1.0000   1.0000
     1.0000   1.0000   1.0000   1.0000   1.0000   1.0000   1.0000   1.0000
     1.0287   1.0383   1.0497   1.0673   0.9221   0.8849   0.6688   0.2785
     0.0334   0.0000   0.0000   0.0000   0.0000   0.0000   0.0000   0.0000
     0.0000   0.0000   0.0000   0.0000   0.0000   0.0000   0.0000   0.0000

          k = 0.1667 0.4811 0.2417 (  7912 PWs)   bands (ev):

   -90.5867 -90.5854 -90.5680 -53.9144 -53.9044 -53.8903 -53.8768 -53.8705
   -53.8649 -53.7180 -53.7158 -53.6998 -47.5368 -19.4557 -19.4554 -19.4047
   -14.0584 -13.6489 -13.3608 -12.9473 -12.8679 -12.8256  -1.5041  -1.0056
    -0.8386  -0.4392  -0.3003  -0.1783  -0.0068   0.2302   0.2752   0.7469
     0.8561   1.0383   1.3612   1.5589   1.8203   2.4516   2.8216   3.1405
     3.9855   4.0137   4.0551   4.1081   4.3647   4.3855   4.4763   4.6310
     4.8659   6.0176   6.1725   6.3533   6.6812   6.8136   6.8778   9.4263
    10.5702  11.6838  13.1042  14.2842  14.7333  15.1134  16.1996  16.8108

     occupation numbers 
     1.0000   1.0000   1.0000   1.0000   1.0000   1.0000   1.0000   1.0000
     1.0000   1.0000   1.0000   1.0000   1.0000   1.0000   1.0000   1.0000
     1.0000   1.0000   1.0000   1.0000   1.0000   1.0000   1.0000   1.0000
     1.0000   1.0000   1.0000   1.0000   1.0000   1.0000   1.0000   1.0000
     1.0000   1.0000   1.0000   1.0000   1.0000   1.0000   1.0000   1.0000
     1.0278   1.0358   1.0493   1.0673   0.9347   0.8934   0.6683   0.2723
     0.0231   0.0000   0.0000   0.0000   0.0000   0.0000   0.0000   0.0000
     0.0000   0.0000   0.0000   0.0000   0.0000   0.0000   0.0000   0.0000

          k = 0.3333 0.5774 0.0000 (  7920 PWs)   bands (ev):

   -90.5860 -90.5860 -90.5680 -53.9079 -53.9024 -53.9024 -53.8753 -53.8668
   -53.8668 -53.7169 -53.7169 -53.6999 -47.5368 -19.4557 -19.4557 -19.4046
   -13.7192 -13.7050 -13.7050 -12.8682 -12.8648 -12.8648  -1.1218  -1.0970
    -1.0970  -0.3179  -0.2707  -0.2707   0.1305   0.1305   0.1469   0.6372
     0.7819   0.7819   1.7159   1.7159   1.7335   2.8161   2.8161   2.8752
     4.0183   4.0385   4.0385   4.2522   4.2522   4.2530   4.6299   4.6564
     4.6564   6.1108   6.1766   6.1766   6.8809   6.8809   6.8818   9.8672
    10.4448  10.4448  13.7944  14.6559  14.6559  16.0538  16.1651  16.1653

     occupation numbers 
     1.0000   1.0000   1.0000   1.0000   1.0000   1.0000   1.0000   1.0000
     1.0000   1.0000   1.0000   1.0000   1.0000   1.0000   1.0000   1.0000
     1.0000   1.0000   1.0000   1.0000   1.0000   1.0000   1.0000   1.0000
     1.0000   1.0000   1.0000   1.0000   1.0000   1.0000   1.0000   1.0000
     1.0000   1.0000   1.0000   1.0000   1.0000   1.0000   1.0000   1.0000
     1.0372   1.0437   1.0437   1.0682   1.0682   1.0678   0.2746   0.2228
     0.2228   0.0000   0.0000   0.0000   0.0000   0.0000   0.0000   0.0000
     0.0000   0.0000   0.0000   0.0000   0.0000   0.0000   0.0000   0.0000

          k = 0.3333 0.5774 0.2417 (  7899 PWs)   bands (ev):

   -90.5860 -90.5860 -90.5680 -53.9079 -53.9024 -53.9024 -53.8752 -53.8667
   -53.8667 -53.7168 -53.7168 -53.6999 -47.5367 -19.4556 -19.4556 -19.4047
   -13.7175 -13.7048 -13.7048 -12.8700 -12.8651 -12.8651  -1.1308  -1.1024
    -1.1024  -0.3258  -0.2739  -0.2739   0.1305   0.1305   0.1468   0.6722
     0.8015   0.8015   1.7159   1.7159   1.7338   2.8185   2.8185   2.8765
     4.0112   4.0327   4.0327   4.2523   4.2523   4.2531   4.6405   4.6647
     4.6647   6.0317   6.1250   6.1250   6.8808   6.8808   6.8814  10.0313
    10.5782  10.5782  13.5175  14.2486  14.2486  16.3732  16.3733  16.6585

     occupation numbers 
     1.0000   1.0000   1.0000   1.0000   1.0000   1.0000   1.0000   1.0000
     1.0000   1.0000   1.0000   1.0000   1.0000   1.0000   1.0000   1.0000
     1.0000   1.0000   1.0000   1.0000   1.0000   1.0000   1.0000   1.0000
     1.0000   1.0000   1.0000   1.0000   1.0000   1.0000   1.0000   1.0000
     1.0000   1.0000   1.0000   1.0000   1.0000   1.0000   1.0000   1.0000
     1.0351   1.0418   1.0418   1.0682   1.0682   1.0678   0.2531   0.2079
     0.2079   0.0000   0.0000   0.0000   0.0000   0.0000   0.0000   0.0000
     0.0000   0.0000   0.0000   0.0000   0.0000   0.0000   0.0000   0.0000

          k =-0.1667-0.2887 0.2417 (  7926 PWs)   bands (ev):

   -90.5875 -90.5847 -90.5679 -53.9121 -53.9105 -53.8833 -53.8827 -53.8707
   -53.8620 -53.7194 -53.7148 -53.6995 -47.5368 -19.4555 -19.4554 -19.4049
   -14.4042 -13.2899 -13.2859 -12.9358 -12.9355 -12.8063  -1.2431  -1.2409
    -0.6804  -0.5625  -0.5217  -0.4171  -0.1965   0.3824   0.4179   0.9365
     0.9655   1.1622   1.2194   1.5962   2.2879   2.3293   2.3349   3.0048
     3.9137   4.0915   4.1072   4.1615   4.1617   4.1845   4.5973   4.6025
     4.9981   6.3672   6.4035   6.4057   6.5674   6.5792   6.9509   8.5951
    11.7387  12.0804  12.3503  15.0699  15.1232  15.4623  15.8545  16.1241

     occupation numbers 
     1.0000   1.0000   1.0000   1.0000   1.0000   1.0000   1.0000   1.0000
     1.0000   1.0000   1.0000   1.0000   1.0000   1.0000   1.0000   1.0000
     1.0000   1.0000   1.0000   1.0000   1.0000   1.0000   1.0000   1.0000
     1.0000   1.0000   1.0000   1.0000   1.0000   1.0000   1.0000   1.0000
     1.0000   1.0000   1.0000   1.0000   1.0000   1.0000   1.0000   1.0000
     1.0130   1.0618   1.0670   1.0808   1.0809   1.0832   0.3469   0.3347
     0.0031   0.0000   0.0000   0.0000   0.0000   0.0000   0.0000   0.0000
     0.0000   0.0000   0.0000   0.0000   0.0000   0.0000   0.0000   0.0000

          k =-0.1667-0.4811 0.2417 (  7912 PWs)   bands (ev):

   -90.5867 -90.5854 -90.5680 -53.9144 -53.9044 -53.8903 -53.8768 -53.8705
   -53.8649 -53.7180 -53.7158 -53.6998 -47.5368 -19.4557 -19.4554 -19.4047
   -14.0585 -13.6490 -13.3610 -12.9470 -12.8678 -12.8256  -1.5054  -1.0067
    -0.8352  -0.4390  -0.2996  -0.1827  -0.0081   0.2287   0.2754   0.7529
     0.8606   1.0438   1.3601   1.5588   1.8201   2.4404   2.8119   3.1327
     3.9874   4.0134   4.0567   4.1078   4.3653   4.3889   4.4718   4.6172
     4.8474   6.0975   6.2230   6.3828   6.6705   6.8087   6.8765   9.2868
    10.4484  11.5127  13.3193  14.5501  14.8655  15.5713  16.0165  16.5343

     occupation numbers 
     1.0000   1.0000   1.0000   1.0000   1.0000   1.0000   1.0000   1.0000
     1.0000   1.0000   1.0000   1.0000   1.0000   1.0000   1.0000   1.0000
     1.0000   1.0000   1.0000   1.0000   1.0000   1.0000   1.0000   1.0000
     1.0000   1.0000   1.0000   1.0000   1.0000   1.0000   1.0000   1.0000
     1.0000   1.0000   1.0000   1.0000   1.0000   1.0000   1.0000   1.0000
     1.0283   1.0357   1.0498   1.0672   0.9337   0.8863   0.6806   0.3016
     0.0295   0.0000   0.0000   0.0000   0.0000   0.0000   0.0000   0.0000
     0.0000   0.0000   0.0000   0.0000   0.0000   0.0000   0.0000   0.0000

          k =-0.3333-0.5774 0.2417 (  7899 PWs)   bands (ev):

   -90.5860 -90.5860 -90.5680 -53.9079 -53.9024 -53.9024 -53.8752 -53.8667
   -53.8667 -53.7168 -53.7168 -53.6999 -47.5367 -19.4556 -19.4556 -19.4047
   -13.7176 -13.7049 -13.7049 -12.8698 -12.8649 -12.8649  -1.1333  -1.1017
    -1.1017  -0.3267  -0.2763  -0.2763   0.1306   0.1306   0.1470   0.6809
     0.8069   0.8069   1.7159   1.7159   1.7335   2.8058   2.8058   2.8608
     4.0116   4.0334   4.0334   4.2523   4.2523   4.2531   4.6228   4.6530
     4.6530   6.1199   6.1832   6.1832   6.8810   6.8810   6.8817   9.8019
    10.4097  10.4097  13.9734  14.5859  14.5859  16.0210  16.3070  16.3071

     occupation numbers 
     1.0000   1.0000   1.0000   1.0000   1.0000   1.0000   1.0000   1.0000
     1.0000   1.0000   1.0000   1.0000   1.0000   1.0000   1.0000   1.0000
     1.0000   1.0000   1.0000   1.0000   1.0000   1.0000   1.0000   1.0000
     1.0000   1.0000   1.0000   1.0000   1.0000   1.0000   1.0000   1.0000
     1.0000   1.0000   1.0000   1.0000   1.0000   1.0000   1.0000   1.0000
     1.0352   1.0420   1.0420   1.0682   1.0682   1.0678   0.2896   0.2291
     0.2291   0.0000   0.0000   0.0000   0.0000   0.0000   0.0000   0.0000
     0.0000   0.0000   0.0000   0.0000   0.0000   0.0000   0.0000   0.0000

     the Fermi energy is     4.5753 ev

!    total energy              =   -1489.31929286 Ry
     total all-electron energy =     -9588.554100 Ry
     estimated scf accuracy    <       0.00000001 Ry
     smearing contrib. (-TS)   =       0.00967564 Ry
     internal energy E=F+TS    =   -1489.32896849 Ry

     The total energy is F=E-TS. E is the sum of the following terms:
     one-electron contribution =   -1474.03659879 Ry
     hartree contribution      =     771.94763971 Ry
     xc contribution           =    -150.56996702 Ry
     ewald contribution        =    -301.15872427 Ry
     one-center paw contrib.   =    -335.51131813 Ry
      -> PAW hartree energy AE =     884.48635132 Ry
      -> PAW hartree energy PS =    -882.20426373 Ry
      -> PAW xc energy AE      =    -480.31945389 Ry
      -> PAW xc energy PS      =     142.52604817 Ry
      -> total E_H with PAW    =     774.22972730 Ry
      -> total E_XC with PAW   =    -488.36337274 Ry

     total magnetization       =     2.29 Bohr mag/cell
     absolute magnetization    =     2.34 Bohr mag/cell

     convergence has been achieved in  21 iterations

     Forces acting on atoms (cartesian axes, Ry/au):

     atom    1 type  1   force =     0.00000000    0.00000000    0.01194941
     atom    2 type  1   force =     0.00000000    0.00000000    0.00534434
     atom    3 type  1   force =    -0.00000000   -0.00000000    0.00534434
     atom    4 type  2   force =    -0.00113577   -0.00196721   -0.01871808
     atom    5 type  2   force =     0.00227154   -0.00000000   -0.01871808
     atom    6 type  2   force =    -0.00113577    0.00196721   -0.01871808
     atom    7 type  2   force =    -0.00519588   -0.00000000    0.00940981
     atom    8 type  2   force =     0.00259794    0.00449976    0.00940981
     atom    9 type  2   force =     0.00259794   -0.00449976    0.00940981
     atom   10 type  3   force =     0.00000000    0.00000000    0.00528672
     The non-local contrib.  to forces
     atom    1 type  1   force =     0.00000000    0.00000000   -0.02301767
     atom    2 type  1   force =     0.00000000    0.00000000    0.00487952
     atom    3 type  1   force =     0.00000000    0.00000000    0.00487952
     atom    4 type  2   force =    -0.01486258   -0.02574275   -1.11949340
     atom    5 type  2   force =     0.02972516    0.00000000   -1.11949340
     atom    6 type  2   force =    -0.01486258    0.02574275   -1.11949340
     atom    7 type  2   force =    -0.06300534    0.00000000    1.04339658
     atom    8 type  2   force =     0.03150267    0.05456423    1.04339658
     atom    9 type  2   force =     0.03150267   -0.05456423    1.04339658
     atom   10 type  3   force =     0.00000000   -0.00000000   -0.13495903
     The ionic contribution  to forces
     atom    1 type  1   force =    -0.00000000   -0.00000000    2.58841975
     atom    2 type  1   force =     0.00000002   -0.00000001    1.45824759
     atom    3 type  1   force =    -0.00000002    0.00000001    1.45824759
     atom    4 type  2   force =     0.27392471    0.47445151   31.19222110
     atom    5 type  2   force =    -0.54784941   -0.00000000   31.19222111
     atom    6 type  2   force =     0.27392470   -0.47445151   31.19222111
     atom    7 type  2   force =     1.01054649    0.00000000  -29.98717302
     atom    8 type  2   force =    -0.50527325   -0.87515894  -29.98717301
     atom    9 type  2   force =    -0.50527324    0.87515893  -29.98717302
     atom   10 type  3   force =    -0.00000000    0.00000000   -9.12005920
     The local contribution  to forces
     atom    1 type  1   force =     0.00000000    0.00000000   -2.55352131
     atom    2 type  1   force =     0.00000021   -0.00000012   -1.45775454
     atom    3 type  1   force =    -0.00000021    0.00000012   -1.45775454
     atom    4 type  2   force =    -0.26031590   -0.45088037  -30.10129803
     atom    5 type  2   force =     0.52063181    0.00000000  -30.10129803
     atom    6 type  2   force =    -0.26031590    0.45088037  -30.10129803
     atom    7 type  2   force =    -0.95327396    0.00000000   28.96233013
     atom    8 type  2   force =     0.47663698    0.82555947   28.96233013
     atom    9 type  2   force =     0.47663698   -0.82555947   28.96233013
     atom   10 type  3   force =     0.00000000    0.00000000    9.26016489
     The core correction contribution to forces
     atom    1 type  1   force =     0.00000000    0.00000000    0.00004524
     atom    2 type  1   force =     0.00000000   -0.00000000   -0.00003983
     atom    3 type  1   force =    -0.00000000    0.00000000   -0.00003983
     atom    4 type  2   force =     0.00013202    0.00022867    0.00984215
     atom    5 type  2   force =    -0.00026404    0.00000000    0.00984215
     atom    6 type  2   force =     0.00013202   -0.00022867    0.00984215
     atom    7 type  2   force =     0.00056269   -0.00000000   -0.00912476
     atom    8 type  2   force =    -0.00028134   -0.00048730   -0.00912476
     atom    9 type  2   force =    -0.00028134    0.00048730   -0.00912476
     atom   10 type  3   force =    -0.00000000   -0.00000000    0.00006662
     The Hubbard contrib.    to forces
     atom    1 type  1   force =     0.00000000    0.00000000    0.00000000
     atom    2 type  1   force =     0.00000000    0.00000000    0.00000000
     atom    3 type  1   force =     0.00000000    0.00000000    0.00000000
     atom    4 type  2   force =     0.00000000    0.00000000    0.00000000
     atom    5 type  2   force =     0.00000000    0.00000000    0.00000000
     atom    6 type  2   force =     0.00000000    0.00000000    0.00000000
     atom    7 type  2   force =     0.00000000    0.00000000    0.00000000
     atom    8 type  2   force =     0.00000000    0.00000000    0.00000000
     atom    9 type  2   force =     0.00000000    0.00000000    0.00000000
     atom   10 type  3   force =     0.00000000    0.00000000    0.00000000
     The SCF correction term to forces
     atom    1 type  1   force =    -0.00000000   -0.00000000    0.00002499
     atom    2 type  1   force =    -0.00000000    0.00000000    0.00001319
     atom    3 type  1   force =     0.00000000   -0.00000000    0.00001319
     atom    4 type  2   force =    -0.00001401   -0.00002427    0.00001169
     atom    5 type  2   force =     0.00002802    0.00000000    0.00001169
     atom    6 type  2   force =    -0.00001401    0.00002427    0.00001169
     atom    7 type  2   force =    -0.00002575    0.00000000   -0.00001753
     atom    8 type  2   force =     0.00001288    0.00002230   -0.00001753
     atom    9 type  2   force =     0.00001288   -0.00002230   -0.00001753
     atom   10 type  3   force =     0.00000000   -0.00000000    0.00007502

     Total force =     0.040510     Total SCF correction =     0.000111

     Writing all to output data dir ./out/pw.save/ :
     XML data file, charge density, pseudopotentials, collected wavefunctions
 
     init_run     :     21.17s CPU      4.88s WALL (       1 calls)
     electrons    :    275.72s CPU     63.10s WALL (       1 calls)
     forces       :      1.35s CPU      1.02s WALL (       1 calls)

     Called by init_run:
     wfcinit      :      0.48s CPU      0.64s WALL (       1 calls)
     wfcinit:atom :      0.06s CPU      0.06s WALL (      34 calls)
     wfcinit:wfcr :      0.30s CPU      0.36s WALL (      34 calls)
     potinit      :     20.05s CPU      3.54s WALL (       1 calls)
     hinit0       :      0.51s CPU      0.51s WALL (       1 calls)

     Called by electrons:
     c_bands      :     26.15s CPU     26.22s WALL (      21 calls)
     sum_band     :      4.02s CPU      4.02s WALL (      21 calls)
     v_of_rho     :      0.48s CPU      0.30s WALL (      22 calls)
     v_h          :      0.30s CPU      0.07s WALL (      22 calls)
     v_xc         :      0.19s CPU      0.24s WALL (      23 calls)
     newd         :      0.55s CPU      0.46s WALL (      22 calls)
                                        0.46s GPU  (      22 calls)
     PAW_pot      :    253.74s CPU     32.27s WALL (      22 calls)
     mix_rho      :      1.04s CPU      1.03s WALL (      21 calls)

     Called by c_bands:
     init_us_2    :      0.91s CPU      0.89s WALL (    1496 calls)
     cegterg      :     21.73s CPU     21.84s WALL (     714 calls)

     Called by sum_band:
     sum_band:wei :      0.04s CPU      0.04s WALL (      21 calls)
                                        0.04s GPU  (      21 calls)
     sum_band:loo :      2.85s CPU      2.83s WALL (      21 calls)
                                        2.83s GPU  (      21 calls)
     sum_band:buf :      0.74s CPU      0.76s WALL (     714 calls)
                                        0.75s GPU  (     714 calls)
     sum_band:ini :      0.43s CPU      0.43s WALL (     714 calls)
                                        0.42s GPU  (     714 calls)
     sum_band:cal :      0.07s CPU      0.10s WALL (     714 calls)
                                        0.06s GPU  (     714 calls)
     sum_band:bec :      0.34s CPU      0.35s WALL (     714 calls)
                                        0.35s GPU  (     714 calls)
     addusdens    :      0.81s CPU      0.82s WALL (      21 calls)
                                        0.82s GPU  (      21 calls)
     addusd:skk   :      0.01s CPU      0.01s WALL (      63 calls)
                                        0.01s GPU  (      63 calls)

     Called by *egterg:
     cdiaghg      :      9.09s CPU      9.22s WALL (    3979 calls)
                                        9.17s GPU  (    3979 calls)
     cegterg:over :      1.11s CPU      1.13s WALL (    3265 calls)
     cegterg:upda :      1.15s CPU      1.15s WALL (    3265 calls)
     cegterg:last :      0.18s CPU      0.18s WALL (    1436 calls)
     h_psi        :      8.05s CPU      8.18s WALL (    4013 calls)
                                        8.12s GPU  (    4013 calls)
     s_psi        :      1.27s CPU      1.31s WALL (    4013 calls)
     g_psi        :      0.02s CPU      0.12s WALL (    3265 calls)
                                        0.08s GPU  (    3265 calls)

     Called by h_psi:
     h_psi:calbec :      0.17s CPU      0.37s WALL (    4013 calls)
                                        0.32s GPU  (    4013 calls)
     vloc_psi     :      6.06s CPU      6.09s WALL (    4013 calls)
                                        6.04s GPU  (    4013 calls)
     add_vuspsi   :      1.22s CPU      1.41s WALL (    4013 calls)
                                        1.36s GPU  (    4013 calls)

     General routines
     calbec       :      0.19s CPU      0.22s WALL (    4863 calls)
     fft          :      6.23s CPU      1.30s WALL (     563 calls)
                                        0.03s GPU  (     519 calls)
     ffts         :      2.97s CPU      0.78s WALL (    1112 calls)
                                        0.03s GPU  (    1068 calls)
     fftw         :      0.37s CPU      3.60s WALL (   20552 calls)
                                        3.36s GPU  (   20552 calls)
     interpolate  :      9.49s CPU      2.08s WALL (      44 calls)
 
     Parallel routines

     PAW routines
     PAW_pot      :    253.74s CPU     32.27s WALL (      22 calls)
     PAW_symme    :      0.03s CPU      0.01s WALL (      43 calls)
 
     PWSCF        :   4m59.07s CPU   1m 9.62s WALL

 
   This run was terminated on:   3:24:17  12Jul2026            

=------------------------------------------------------------------------------=
   JOB DONE.
=------------------------------------------------------------------------------=
Warning: ieee_divide_by_zero is signaling
Warning: ieee_inexact is signaling
FORTRAN STOP
