
     Program PWSCF v.7.3.1 starts on 12Jul2026 at  5:37:51 

     This program is part of the open-source Quantum ESPRESSO suite
     for quantum simulation of materials; please cite
         "P. Giannozzi et al., J. Phys.:Condens. Matter 21 395502 (2009);
         "P. Giannozzi et al., J. Phys.:Condens. Matter 29 465901 (2017);
         "P. Giannozzi et al., J. Chem. Phys. 152 154105 (2020);
          URL http://www.quantum-espresso.org", 
     in publications or presentations arising from this work. More details at
     http://www.quantum-espresso.org/quote

     Parallel version (MPI & OpenMP), running on      14 processor cores
     Number of MPI processes:                 1
     Threads/MPI process:                    14

     MPI processes distributed on     1 nodes
     1359014 MiB available memory on the printing compute node when the environment starts
 
     Reading input from pw.in

     Current dimensions of program PWSCF are:
     Max number of different atomic species (ntypx) = 10
     Max number of k-points (npk) =  40000
     Max angular momentum in pseudopotentials (lmaxx) =  4
     file Co.pbe-spn-kjpaw_psl.0.3.1.UPF: wavefunction(s)  3P 3D renormalized
     file O.pbe-n-kjpaw_psl.1.0.0.UPF: wavefunction(s)  2S 2P renormalized
     file K.pbe-spn-kjpaw_psl.1.0.0.UPF: wavefunction(s)  3S renormalized
 
     Subspace diagonalization in iterative solution of the eigenvalue problem:
     a serial algorithm will be used

 
     G-vector sticks info
     --------------------
     sticks:   dense  smooth     PW     G-vecs:    dense   smooth      PW
     Sum        1003     499    151                73353    26017    4261
 
     Using Slab Decomposition
 


     bravais-lattice index     =            4
     lattice parameter (alat)  =       5.4802  a.u.
     unit-cell volume          =     412.8597 (a.u.)^3
     number of atoms/cell      =            4
     number of atomic types    =            3
     number of electrons       =        38.00
     number of Kohn-Sham states=           27
     kinetic-energy cutoff     =      60.0000  Ry
     charge density cutoff     =     480.0000  Ry
     scf convergence threshold =      1.0E-07
     mixing beta               =       0.3000
     number of iterations used =            8  local-TF  mixing
     Exchange-correlation= SLA  PW   PBX  PBC
                           (   1   4   3   4   0   0   0)

     GPU acceleration is ACTIVE.  1 visible GPUs per MPI rank
     GPU-aware MPI enabled


     GPU used by master process:

        Device Number: 0
        Device name: NVIDIA A100-SXM4-80GB
        Compute capability : 80
        Ratio of single to double precision performance  : 2
        Memory Clock Rate (KHz): 1593000
        Memory Bus Width (bits): 5120
        Peak Memory Bandwidth (GB/s): ******

     celldm(1)=   5.480206  celldm(2)=   0.000000  celldm(3)=   2.896552
     celldm(4)=   0.000000  celldm(5)=   0.000000  celldm(6)=   0.000000

     crystal axes: (cart. coord. in units of alat)
               a(1) = (   1.000000   0.000000   0.000000 )  
               a(2) = (  -0.500000   0.866025   0.000000 )  
               a(3) = (   0.000000   0.000000   2.896552 )  

     reciprocal axes: (cart. coord. in units 2 pi/alat)
               b(1) = (  1.000000  0.577350 -0.000000 )  
               b(2) = (  0.000000  1.154701  0.000000 )  
               b(3) = (  0.000000 -0.000000  0.345238 )  


     PseudoPot. # 1 for Co read from file:
     ../../pseudo/Co.pbe-spn-kjpaw_psl.0.3.1.UPF
     MD5 check sum: 3c0a43779828c046024e4f3be63f8e67
     Pseudo is Projector augmented-wave + core cor, Zval = 17.0
     Generated using &quot;atomic&quot; code by A. Dal Corso  v.6.2.2
     Shape of augmentation charge: PSQ
     Using radial grid of 1193 points,  6 beta functions with: 
                l(1) =   0
                l(2) =   0
                l(3) =   1
                l(4) =   1
                l(5) =   2
                l(6) =   2
     Q(r) pseudized with 0 coefficients 


     PseudoPot. # 2 for O  read from file:
     ../../pseudo/O.pbe-n-kjpaw_psl.1.0.0.UPF
     MD5 check sum: e99d9cef9b487d1ca56f5b95ecd0fd7a
     Pseudo is Projector augmented-wave + core cor, Zval =  6.0
     Generated using &quot;atomic&quot; code by A. Dal Corso  v.6.3
     Shape of augmentation charge: PSQ
     Using radial grid of 1095 points,  4 beta functions with: 
                l(1) =   0
                l(2) =   0
                l(3) =   1
                l(4) =   1
     Q(r) pseudized with 0 coefficients 


     PseudoPot. # 3 for K  read from file:
     ../../pseudo/K.pbe-spn-kjpaw_psl.1.0.0.UPF
     MD5 check sum: 34cc42130a09071ebe376fd42eb21491
     Pseudo is Projector augmented-wave + core cor, Zval =  9.0
     Generated using &quot;atomic&quot; code by A. Dal Corso  v.6.2.2
     Shape of augmentation charge: PSQ
     Using radial grid of 1165 points,  6 beta functions with: 
                l(1) =   0
                l(2) =   0
                l(3) =   1
                l(4) =   1
                l(5) =   2
                l(6) =   2
     Q(r) pseudized with 0 coefficients 


     atomic species   valence    mass     pseudopotential
     Co               17.00    58.93300     Co( 1.00)
     O                 6.00    15.99900     O ( 1.00)
     K                 9.00    39.09830     K ( 1.00)

     Starting magnetic structure 
     atomic species   magnetization
     Co              0.300
     O               0.000
     K               0.000

      6 Sym. Ops. (no inversion) found


                                    s                        frac. trans.

      isym =  1     identity                                     

 cryst.   s( 1) = (     1          0          0      )
                  (     0          1          0      )
                  (     0          0          1      )

 cart.    s( 1) = (  1.0000000  0.0000000  0.0000000 )
                  (  0.0000000  1.0000000  0.0000000 )
                  (  0.0000000  0.0000000  1.0000000 )


      isym =  2     120 deg rotation - cryst. axis [0,0,1]       

 cryst.   s( 2) = (     0          1          0      )
                  (    -1         -1          0      )
                  (     0          0          1      )

 cart.    s( 2) = ( -0.5000000 -0.8660254  0.0000000 )
                  (  0.8660254 -0.5000000  0.0000000 )
                  (  0.0000000  0.0000000  1.0000000 )


      isym =  3     120 deg rotation - cryst. axis [0,0,-1]      

 cryst.   s( 3) = (    -1         -1          0      )
                  (     1          0          0      )
                  (     0          0          1      )

 cart.    s( 3) = ( -0.5000000  0.8660254  0.0000000 )
                  ( -0.8660254 -0.5000000  0.0000000 )
                  (  0.0000000  0.0000000  1.0000000 )


      isym =  4     inv. 180 deg rotation - cart. axis [1,0,0]   

 cryst.   s( 4) = (    -1          0          0      )
                  (     1          1          0      )
                  (     0          0          1      )

 cart.    s( 4) = ( -1.0000000  0.0000000  0.0000000 )
                  (  0.0000000  1.0000000  0.0000000 )
                  (  0.0000000  0.0000000  1.0000000 )


      isym =  5     inv. 180 deg rotation - cryst. axis [0,1,0]  

 cryst.   s( 5) = (     1          1          0      )
                  (     0         -1          0      )
                  (     0          0          1      )

 cart.    s( 5) = (  0.5000000  0.8660254  0.0000000 )
                  (  0.8660254 -0.5000000  0.0000000 )
                  (  0.0000000  0.0000000  1.0000000 )


      isym =  6     inv. 180 deg rotation - cryst. axis [1,1,0]  

 cryst.   s( 6) = (     0         -1          0      )
                  (    -1          0          0      )
                  (     0          0          1      )

 cart.    s( 6) = (  0.5000000 -0.8660254  0.0000000 )
                  ( -0.8660254 -0.5000000  0.0000000 )
                  (  0.0000000  0.0000000  1.0000000 )


     point group C_3v (3m)  
     there are  3 classes
     the character table:

       E     2C3   3s_v 
A_1    1.00  1.00  1.00
A_2    1.00  1.00 -1.00
E      2.00 -1.00  0.00

     the symmetry operations in each class and the name of the first element:

     E        1
          identity                                               
     2C3      2    3
          120 deg rotation - cryst. axis [0,0,1]                 
     3s_v     4    5    6
          inv. 180 deg rotation - cart. axis [1,0,0]             

   Cartesian axes

     site n.     atom                  positions (alat units)
         1        Co     tau(   1) = (   0.0000000   0.0000000   0.0000000  )
         2        O      tau(   2) = (  -0.0000000   0.5773503   0.3310345  )
         3        O      tau(   3) = (   0.5000000   0.2886751   2.5655172  )
         4        K      tau(   4) = (   0.0000000   0.0000000   1.5517241  )

   Crystallographic axes

     site n.     atom                  positions (cryst. coord.)
         1        Co     tau(   1) = (  0.0000000  0.0000000  0.0000000  )
         2        O      tau(   2) = (  0.3333333  0.6666667  0.1142857  )
         3        O      tau(   3) = (  0.6666667  0.3333333  0.8857143  )
         4        K      tau(   4) = (  0.0000000  0.0000000  0.5357143  )

     number of k points=    25  Marzari-Vanderbilt smearing, width (Ry)=  0.0200
                       cart. coord. in units 2pi/alat
        k(    1) = (   0.0000000   0.0000000   0.0000000), wk =   0.0052083
        k(    2) = (   0.0000000   0.0000000   0.1150794), wk =   0.0104167
        k(    3) = (   0.0000000   0.1443376   0.0000000), wk =   0.0312500
        k(    4) = (   0.0000000   0.1443376   0.1150794), wk =   0.0312500
        k(    5) = (   0.0000000   0.2886751   0.0000000), wk =   0.0312500
        k(    6) = (   0.0000000   0.2886751   0.1150794), wk =   0.0312500
        k(    7) = (   0.0000000   0.4330127   0.0000000), wk =   0.0312500
        k(    8) = (   0.0000000   0.4330127   0.1150794), wk =   0.0312500
        k(    9) = (   0.0000000  -0.5773503   0.0000000), wk =   0.0156250
        k(   10) = (   0.0000000  -0.5773503   0.1150794), wk =   0.0312500
        k(   11) = (   0.1250000   0.2165064   0.0000000), wk =   0.0312500
        k(   12) = (   0.1250000   0.2165064   0.1150794), wk =   0.0625000
        k(   13) = (   0.1250000   0.3608439   0.0000000), wk =   0.0625000
        k(   14) = (   0.1250000   0.3608439   0.1150794), wk =   0.0625000
        k(   15) = (   0.1250000   0.5051815   0.0000000), wk =   0.0625000
        k(   16) = (   0.1250000   0.5051815   0.1150794), wk =   0.0625000
        k(   17) = (   0.2500000   0.4330127   0.0000000), wk =   0.0312500
        k(   18) = (   0.2500000   0.4330127   0.1150794), wk =   0.0625000
        k(   19) = (   0.2500000   0.5773503   0.0000000), wk =   0.0312500
        k(   20) = (   0.2500000   0.5773503   0.1150794), wk =   0.0625000
        k(   21) = (   0.0000000  -0.1443376   0.1150794), wk =   0.0312500
        k(   22) = (   0.0000000  -0.2886751   0.1150794), wk =   0.0312500
        k(   23) = (   0.0000000  -0.4330127   0.1150794), wk =   0.0312500
        k(   24) = (  -0.1250000  -0.3608439   0.1150794), wk =   0.0625000
        k(   25) = (  -0.1250000  -0.5051815   0.1150794), wk =   0.0625000

                       cryst. coord.
        k(    1) = (   0.0000000   0.0000000   0.0000000), wk =   0.0052083
        k(    2) = (   0.0000000   0.0000000   0.3333333), wk =   0.0104167
        k(    3) = (   0.0000000   0.1250000   0.0000000), wk =   0.0312500
        k(    4) = (   0.0000000   0.1250000   0.3333333), wk =   0.0312500
        k(    5) = (   0.0000000   0.2500000   0.0000000), wk =   0.0312500
        k(    6) = (   0.0000000   0.2500000   0.3333333), wk =   0.0312500
        k(    7) = (   0.0000000   0.3750000   0.0000000), wk =   0.0312500
        k(    8) = (   0.0000000   0.3750000   0.3333333), wk =   0.0312500
        k(    9) = (   0.0000000  -0.5000000   0.0000000), wk =   0.0156250
        k(   10) = (   0.0000000  -0.5000000   0.3333333), wk =   0.0312500
        k(   11) = (   0.1250000   0.1250000   0.0000000), wk =   0.0312500
        k(   12) = (   0.1250000   0.1250000   0.3333333), wk =   0.0625000
        k(   13) = (   0.1250000   0.2500000   0.0000000), wk =   0.0625000
        k(   14) = (   0.1250000   0.2500000   0.3333333), wk =   0.0625000
        k(   15) = (   0.1250000   0.3750000   0.0000000), wk =   0.0625000
        k(   16) = (   0.1250000   0.3750000   0.3333333), wk =   0.0625000
        k(   17) = (   0.2500000   0.2500000   0.0000000), wk =   0.0312500
        k(   18) = (   0.2500000   0.2500000   0.3333333), wk =   0.0625000
        k(   19) = (   0.2500000   0.3750000   0.0000000), wk =   0.0312500
        k(   20) = (   0.2500000   0.3750000   0.3333333), wk =   0.0625000
        k(   21) = (   0.0000000  -0.1250000   0.3333333), wk =   0.0312500
        k(   22) = (   0.0000000  -0.2500000   0.3333333), wk =   0.0312500
        k(   23) = (   0.0000000  -0.3750000   0.3333333), wk =   0.0312500
        k(   24) = (  -0.1250000  -0.2500000   0.3333333), wk =   0.0625000
        k(   25) = (  -0.1250000  -0.3750000   0.3333333), wk =   0.0625000

     Dense  grid:    73353 G-vectors     FFT dimensions: (  40,  40, 120)

     Smooth grid:    26017 G-vectors     FFT dimensions: (  27,  27,  80)

     Dynamical RAM for                 wfc:       1.33 MB

     Dynamical RAM for     wfc (w. buffer):      68.08 MB

     Dynamical RAM for           str. fact:       3.36 MB

     Dynamical RAM for           local pot:       0.00 MB

     Dynamical RAM for          nlocal pot:       2.57 MB

     Dynamical RAM for                qrad:       5.27 MB

     Dynamical RAM for          rho,v,vnew:      15.50 MB

     Dynamical RAM for               rhoin:       5.17 MB

     Dynamical RAM for            rho*nmix:      35.82 MB

     Dynamical RAM for           G-vectors:       4.40 MB

     Dynamical RAM for          h,s,v(r/c):       0.13 MB

     Dynamical RAM for          <psi|beta>:       0.02 MB

     Dynamical RAM for                 psi:       2.67 MB

     Dynamical RAM for                hpsi:       2.67 MB

     Dynamical RAM for                spsi:       2.67 MB

     Dynamical RAM for      wfcinit/wfcrot:       2.69 MB

     Dynamical RAM for           addusdens:     211.54 MB

     Dynamical RAM for          addusforce:     213.80 MB

     Estimated static dynamical RAM per process >     117.61 MB

     Estimated max dynamical RAM per process >     367.23 MB

     Check: negative core charge=   -0.000007
     Generating pointlists ...
     new r_m :   0.2745 (alat units)  1.5045 (a.u.) for type    1
     new r_m :   0.2745 (alat units)  1.5045 (a.u.) for type    2
     new r_m :   0.4125 (alat units)  2.2606 (a.u.) for type    3

     Initial potential from superposition of free atoms

     starting charge      37.9809, renormalised to      38.0000
     Starting wfcs are   26 randomized atomic wfcs +    1 random wfcs
     Checking if some PAW data can be deallocated... 

     total cpu time spent up to now is        4.3 secs

     Self-consistent Calculation
[tb_dev] Currently allocated     6.58E-01 Mbytes, locked:    0 /   6
[tb_pin] Currently allocated     0.00E+00 Mbytes, locked:    0 /   0

     iteration #  1     ecut=    60.00 Ry     beta= 0.30
     Davidson diagonalization with overlap

---- Real-time Memory Report at c_bands before calling an iterative solver
           695 MiB given to the printing process from OS
             0 MiB allocation reported by mallinfo(arena+hblkhd)
       1354621 MiB available memory on the node where the printing process lives
     GPU memory used/free/total (MiB): 1060 / 80090 / 81151
------------------
     ethr =  1.00E-02,  avg # of iterations =  8.0

     total cpu time spent up to now is        6.5 secs

     total energy              =    -572.75604950 Ry
     estimated scf accuracy    <       1.77590455 Ry

     total magnetization       =     4.00 Bohr mag/cell
     absolute magnetization    =     4.00 Bohr mag/cell
[tb_dev] Currently allocated     3.05E-05 Mbytes, locked:    0 /   2
[tb_pin] Currently allocated     0.00E+00 Mbytes, locked:    0 /   0

     iteration #  2     ecut=    60.00 Ry     beta= 0.30
     Davidson diagonalization with overlap

---- Real-time Memory Report at c_bands before calling an iterative solver
           737 MiB given to the printing process from OS
             0 MiB allocation reported by mallinfo(arena+hblkhd)
       1353007 MiB available memory on the node where the printing process lives
     GPU memory used/free/total (MiB): 1078 / 80072 / 81151
------------------
     ethr =  4.67E-03,  avg # of iterations =  2.0

     total cpu time spent up to now is        7.9 secs

     total energy              =    -572.71382164 Ry
     estimated scf accuracy    <       0.76500617 Ry

     total magnetization       =     3.95 Bohr mag/cell
     absolute magnetization    =     3.95 Bohr mag/cell
[tb_dev] Currently allocated     3.05E-05 Mbytes, locked:    0 /   2
[tb_pin] Currently allocated     0.00E+00 Mbytes, locked:    0 /   0

     iteration #  3     ecut=    60.00 Ry     beta= 0.30
     Davidson diagonalization with overlap

---- Real-time Memory Report at c_bands before calling an iterative solver
           741 MiB given to the printing process from OS
             0 MiB allocation reported by mallinfo(arena+hblkhd)
       1351541 MiB available memory on the node where the printing process lives
     GPU memory used/free/total (MiB): 1078 / 80072 / 81151
------------------
     ethr =  2.01E-03,  avg # of iterations =  2.4

     total cpu time spent up to now is        9.4 secs

     total energy              =    -572.97738309 Ry
     estimated scf accuracy    <       1.32106281 Ry

     total magnetization       =     1.36 Bohr mag/cell
     absolute magnetization    =     1.50 Bohr mag/cell
[tb_dev] Currently allocated     3.05E-05 Mbytes, locked:    0 /   2
[tb_pin] Currently allocated     0.00E+00 Mbytes, locked:    0 /   0

     iteration #  4     ecut=    60.00 Ry     beta= 0.30
     Davidson diagonalization with overlap

---- Real-time Memory Report at c_bands before calling an iterative solver
           741 MiB given to the printing process from OS
             0 MiB allocation reported by mallinfo(arena+hblkhd)
       1349814 MiB available memory on the node where the printing process lives
     GPU memory used/free/total (MiB): 1078 / 80072 / 81151
------------------
     ethr =  2.01E-03,  avg # of iterations =  1.8

     total cpu time spent up to now is       10.8 secs

     total energy              =    -572.99570809 Ry
     estimated scf accuracy    <       2.68448799 Ry

     total magnetization       =     0.78 Bohr mag/cell
     absolute magnetization    =     1.14 Bohr mag/cell
[tb_dev] Currently allocated     3.05E-05 Mbytes, locked:    0 /   2
[tb_pin] Currently allocated     0.00E+00 Mbytes, locked:    0 /   0

     iteration #  5     ecut=    60.00 Ry     beta= 0.30
     Davidson diagonalization with overlap

---- Real-time Memory Report at c_bands before calling an iterative solver
           744 MiB given to the printing process from OS
             0 MiB allocation reported by mallinfo(arena+hblkhd)
       1347632 MiB available memory on the node where the printing process lives
     GPU memory used/free/total (MiB): 1078 / 80072 / 81151
------------------
     ethr =  2.01E-03,  avg # of iterations =  1.9

     total cpu time spent up to now is       12.2 secs

     total energy              =    -572.59084064 Ry
     estimated scf accuracy    <       2.08542541 Ry

     total magnetization       =     0.50 Bohr mag/cell
     absolute magnetization    =     1.11 Bohr mag/cell
[tb_dev] Currently allocated     3.05E-05 Mbytes, locked:    0 /   2
[tb_pin] Currently allocated     0.00E+00 Mbytes, locked:    0 /   0

     iteration #  6     ecut=    60.00 Ry     beta= 0.30
     Davidson diagonalization with overlap

---- Real-time Memory Report at c_bands before calling an iterative solver
           745 MiB given to the printing process from OS
             0 MiB allocation reported by mallinfo(arena+hblkhd)
       1345033 MiB available memory on the node where the printing process lives
     GPU memory used/free/total (MiB): 1078 / 80072 / 81151
------------------
     ethr =  2.01E-03,  avg # of iterations =  2.7

     total cpu time spent up to now is       13.6 secs

     total energy              =    -572.71365773 Ry
     estimated scf accuracy    <       2.74353109 Ry

     total magnetization       =     0.16 Bohr mag/cell
     absolute magnetization    =     0.48 Bohr mag/cell
[tb_dev] Currently allocated     3.05E-05 Mbytes, locked:    0 /   2
[tb_pin] Currently allocated     0.00E+00 Mbytes, locked:    0 /   0

     iteration #  7     ecut=    60.00 Ry     beta= 0.30
     Davidson diagonalization with overlap

---- Real-time Memory Report at c_bands before calling an iterative solver
           748 MiB given to the printing process from OS
             0 MiB allocation reported by mallinfo(arena+hblkhd)
       1342780 MiB available memory on the node where the printing process lives
     GPU memory used/free/total (MiB): 1078 / 80072 / 81151
------------------
     ethr =  2.01E-03,  avg # of iterations =  1.2

     total cpu time spent up to now is       14.9 secs

     total energy              =    -572.89822794 Ry
     estimated scf accuracy    <       0.17763592 Ry

     total magnetization       =     0.23 Bohr mag/cell
     absolute magnetization    =     0.70 Bohr mag/cell
[tb_dev] Currently allocated     3.05E-05 Mbytes, locked:    0 /   2
[tb_pin] Currently allocated     0.00E+00 Mbytes, locked:    0 /   0

     iteration #  8     ecut=    60.00 Ry     beta= 0.30
     Davidson diagonalization with overlap

---- Real-time Memory Report at c_bands before calling an iterative solver
           750 MiB given to the printing process from OS
             0 MiB allocation reported by mallinfo(arena+hblkhd)
       1340016 MiB available memory on the node where the printing process lives
     GPU memory used/free/total (MiB): 1078 / 80072 / 81151
------------------
     ethr =  4.67E-04,  avg # of iterations =  2.5

     total cpu time spent up to now is       16.4 secs

     total energy              =    -572.92262059 Ry
     estimated scf accuracy    <       0.13569462 Ry

     total magnetization       =     0.22 Bohr mag/cell
     absolute magnetization    =     0.67 Bohr mag/cell
[tb_dev] Currently allocated     3.05E-05 Mbytes, locked:    0 /   2
[tb_pin] Currently allocated     0.00E+00 Mbytes, locked:    0 /   0

     iteration #  9     ecut=    60.00 Ry     beta= 0.30
     Davidson diagonalization with overlap

---- Real-time Memory Report at c_bands before calling an iterative solver
           752 MiB given to the printing process from OS
             0 MiB allocation reported by mallinfo(arena+hblkhd)
       1359054 MiB available memory on the node where the printing process lives
     GPU memory used/free/total (MiB): 1078 / 80072 / 81151
------------------
     ethr =  3.57E-04,  avg # of iterations =  3.3

     total cpu time spent up to now is       18.0 secs

     total energy              =    -572.89064985 Ry
     estimated scf accuracy    <       0.53856635 Ry

     total magnetization       =     0.07 Bohr mag/cell
     absolute magnetization    =     0.56 Bohr mag/cell
[tb_dev] Currently allocated     3.05E-05 Mbytes, locked:    0 /   2
[tb_pin] Currently allocated     0.00E+00 Mbytes, locked:    0 /   0

     iteration # 10     ecut=    60.00 Ry     beta= 0.30
     Davidson diagonalization with overlap

---- Real-time Memory Report at c_bands before calling an iterative solver
           755 MiB given to the printing process from OS
             0 MiB allocation reported by mallinfo(arena+hblkhd)
       1357681 MiB available memory on the node where the printing process lives
     GPU memory used/free/total (MiB): 1078 / 80072 / 81151
------------------
     ethr =  3.57E-04,  avg # of iterations =  1.5

     total cpu time spent up to now is       19.4 secs

     total energy              =    -572.91589782 Ry
     estimated scf accuracy    <       0.03509537 Ry

     total magnetization       =     0.35 Bohr mag/cell
     absolute magnetization    =     0.52 Bohr mag/cell
[tb_dev] Currently allocated     3.05E-05 Mbytes, locked:    0 /   2
[tb_pin] Currently allocated     0.00E+00 Mbytes, locked:    0 /   0

     iteration # 11     ecut=    60.00 Ry     beta= 0.30
     Davidson diagonalization with overlap

---- Real-time Memory Report at c_bands before calling an iterative solver
           755 MiB given to the printing process from OS
             0 MiB allocation reported by mallinfo(arena+hblkhd)
       1356718 MiB available memory on the node where the printing process lives
     GPU memory used/free/total (MiB): 1078 / 80072 / 81151
------------------
     ethr =  9.24E-05,  avg # of iterations =  3.0

     total cpu time spent up to now is       20.9 secs

     total energy              =    -572.90715993 Ry
     estimated scf accuracy    <       0.08532185 Ry

     total magnetization       =     0.26 Bohr mag/cell
     absolute magnetization    =     0.45 Bohr mag/cell
[tb_dev] Currently allocated     3.05E-05 Mbytes, locked:    0 /   2
[tb_pin] Currently allocated     0.00E+00 Mbytes, locked:    0 /   0

     iteration # 12     ecut=    60.00 Ry     beta= 0.30
     Davidson diagonalization with overlap

---- Real-time Memory Report at c_bands before calling an iterative solver
           755 MiB given to the printing process from OS
             0 MiB allocation reported by mallinfo(arena+hblkhd)
       1355235 MiB available memory on the node where the printing process lives
     GPU memory used/free/total (MiB): 1078 / 80072 / 81151
------------------
     ethr =  9.24E-05,  avg # of iterations =  2.7

     total cpu time spent up to now is       22.4 secs

     total energy              =    -572.91129017 Ry
     estimated scf accuracy    <       0.00550085 Ry

     total magnetization       =     0.41 Bohr mag/cell
     absolute magnetization    =     0.47 Bohr mag/cell
[tb_dev] Currently allocated     3.05E-05 Mbytes, locked:    0 /   2
[tb_pin] Currently allocated     0.00E+00 Mbytes, locked:    0 /   0

     iteration # 13     ecut=    60.00 Ry     beta= 0.30
     Davidson diagonalization with overlap

---- Real-time Memory Report at c_bands before calling an iterative solver
           755 MiB given to the printing process from OS
             0 MiB allocation reported by mallinfo(arena+hblkhd)
       1354147 MiB available memory on the node where the printing process lives
     GPU memory used/free/total (MiB): 1078 / 80072 / 81151
------------------
     c_bands:  1 eigenvalues not converged
     c_bands:  1 eigenvalues not converged
     c_bands:  1 eigenvalues not converged
     c_bands:  2 eigenvalues not converged
     c_bands:  1 eigenvalues not converged
     c_bands:  1 eigenvalues not converged
     c_bands:  1 eigenvalues not converged
     c_bands:  1 eigenvalues not converged
     ethr =  1.45E-05,  avg # of iterations = 10.2

     total cpu time spent up to now is       24.8 secs

     total energy              =    -572.91379858 Ry
     estimated scf accuracy    <       0.00250206 Ry

     total magnetization       =     0.44 Bohr mag/cell
     absolute magnetization    =     0.47 Bohr mag/cell
[tb_dev] Currently allocated     3.05E-05 Mbytes, locked:    0 /   2
[tb_pin] Currently allocated     0.00E+00 Mbytes, locked:    0 /   0

     iteration # 14     ecut=    60.00 Ry     beta= 0.30
     Davidson diagonalization with overlap

---- Real-time Memory Report at c_bands before calling an iterative solver
           755 MiB given to the printing process from OS
             0 MiB allocation reported by mallinfo(arena+hblkhd)
       1352474 MiB available memory on the node where the printing process lives
     GPU memory used/free/total (MiB): 1078 / 80072 / 81151
------------------
     c_bands:  1 eigenvalues not converged
     c_bands:  1 eigenvalues not converged
     ethr =  6.58E-06,  avg # of iterations =  3.3

     total cpu time spent up to now is       26.4 secs

     total energy              =    -572.91415658 Ry
     estimated scf accuracy    <       0.00045013 Ry

     total magnetization       =     0.43 Bohr mag/cell
     absolute magnetization    =     0.47 Bohr mag/cell
[tb_dev] Currently allocated     3.05E-05 Mbytes, locked:    0 /   2
[tb_pin] Currently allocated     0.00E+00 Mbytes, locked:    0 /   0

     iteration # 15     ecut=    60.00 Ry     beta= 0.30
     Davidson diagonalization with overlap

---- Real-time Memory Report at c_bands before calling an iterative solver
           755 MiB given to the printing process from OS
             0 MiB allocation reported by mallinfo(arena+hblkhd)
       1350668 MiB available memory on the node where the printing process lives
     GPU memory used/free/total (MiB): 1078 / 80072 / 81151
------------------
     c_bands:  1 eigenvalues not converged
     c_bands:  1 eigenvalues not converged
     c_bands:  1 eigenvalues not converged
     c_bands:  1 eigenvalues not converged
     c_bands:  1 eigenvalues not converged
     c_bands:  1 eigenvalues not converged
     c_bands:  1 eigenvalues not converged
     ethr =  1.18E-06,  avg # of iterations =  9.1

     total cpu time spent up to now is       28.7 secs

     total energy              =    -572.91439585 Ry
     estimated scf accuracy    <       0.00102525 Ry

     total magnetization       =     0.43 Bohr mag/cell
     absolute magnetization    =     0.48 Bohr mag/cell
[tb_dev] Currently allocated     3.05E-05 Mbytes, locked:    0 /   2
[tb_pin] Currently allocated     0.00E+00 Mbytes, locked:    0 /   0

     iteration # 16     ecut=    60.00 Ry     beta= 0.30
     Davidson diagonalization with overlap

---- Real-time Memory Report at c_bands before calling an iterative solver
           755 MiB given to the printing process from OS
             0 MiB allocation reported by mallinfo(arena+hblkhd)
       1349493 MiB available memory on the node where the printing process lives
     GPU memory used/free/total (MiB): 1078 / 80072 / 81151
------------------
     ethr =  1.18E-06,  avg # of iterations =  1.6

     total cpu time spent up to now is       30.0 secs

     total energy              =    -572.91447335 Ry
     estimated scf accuracy    <       0.00090875 Ry

     total magnetization       =     0.44 Bohr mag/cell
     absolute magnetization    =     0.48 Bohr mag/cell
[tb_dev] Currently allocated     3.05E-05 Mbytes, locked:    0 /   2
[tb_pin] Currently allocated     0.00E+00 Mbytes, locked:    0 /   0

     iteration # 17     ecut=    60.00 Ry     beta= 0.30
     Davidson diagonalization with overlap

---- Real-time Memory Report at c_bands before calling an iterative solver
           755 MiB given to the printing process from OS
             0 MiB allocation reported by mallinfo(arena+hblkhd)
       1346931 MiB available memory on the node where the printing process lives
     GPU memory used/free/total (MiB): 1078 / 80072 / 81151
------------------
     ethr =  1.18E-06,  avg # of iterations =  1.5

     total cpu time spent up to now is       31.4 secs

     total energy              =    -572.91440997 Ry
     estimated scf accuracy    <       0.00127870 Ry

     total magnetization       =     0.44 Bohr mag/cell
     absolute magnetization    =     0.48 Bohr mag/cell
[tb_dev] Currently allocated     3.05E-05 Mbytes, locked:    0 /   2
[tb_pin] Currently allocated     0.00E+00 Mbytes, locked:    0 /   0

     iteration # 18     ecut=    60.00 Ry     beta= 0.30
     Davidson diagonalization with overlap

---- Real-time Memory Report at c_bands before calling an iterative solver
           755 MiB given to the printing process from OS
             0 MiB allocation reported by mallinfo(arena+hblkhd)
       1344107 MiB available memory on the node where the printing process lives
     GPU memory used/free/total (MiB): 1078 / 80072 / 81151
------------------
     ethr =  1.18E-06,  avg # of iterations =  1.1

     total cpu time spent up to now is       32.7 secs

     total energy              =    -572.91441240 Ry
     estimated scf accuracy    <       0.00130306 Ry

     total magnetization       =     0.45 Bohr mag/cell
     absolute magnetization    =     0.49 Bohr mag/cell
[tb_dev] Currently allocated     3.05E-05 Mbytes, locked:    0 /   2
[tb_pin] Currently allocated     0.00E+00 Mbytes, locked:    0 /   0

     iteration # 19     ecut=    60.00 Ry     beta= 0.30
     Davidson diagonalization with overlap

---- Real-time Memory Report at c_bands before calling an iterative solver
           755 MiB given to the printing process from OS
             0 MiB allocation reported by mallinfo(arena+hblkhd)
       1361895 MiB available memory on the node where the printing process lives
     GPU memory used/free/total (MiB): 1078 / 80072 / 81151
------------------
     ethr =  1.18E-06,  avg # of iterations =  1.0

     total cpu time spent up to now is       34.0 secs

     total energy              =    -572.91441153 Ry
     estimated scf accuracy    <       0.00122553 Ry

     total magnetization       =     0.44 Bohr mag/cell
     absolute magnetization    =     0.49 Bohr mag/cell
[tb_dev] Currently allocated     3.05E-05 Mbytes, locked:    0 /   2
[tb_pin] Currently allocated     0.00E+00 Mbytes, locked:    0 /   0

     iteration # 20     ecut=    60.00 Ry     beta= 0.30
     Davidson diagonalization with overlap

---- Real-time Memory Report at c_bands before calling an iterative solver
           755 MiB given to the printing process from OS
             0 MiB allocation reported by mallinfo(arena+hblkhd)
       1360841 MiB available memory on the node where the printing process lives
     GPU memory used/free/total (MiB): 1078 / 80072 / 81151
------------------
     ethr =  1.18E-06,  avg # of iterations =  1.0

     total cpu time spent up to now is       35.3 secs

     total energy              =    -572.91414430 Ry
     estimated scf accuracy    <       0.00118145 Ry

     total magnetization       =     0.44 Bohr mag/cell
     absolute magnetization    =     0.49 Bohr mag/cell
[tb_dev] Currently allocated     3.05E-05 Mbytes, locked:    0 /   2
[tb_pin] Currently allocated     0.00E+00 Mbytes, locked:    0 /   0

     iteration # 21     ecut=    60.00 Ry     beta= 0.30
     Davidson diagonalization with overlap

---- Real-time Memory Report at c_bands before calling an iterative solver
           755 MiB given to the printing process from OS
             0 MiB allocation reported by mallinfo(arena+hblkhd)
       1359841 MiB available memory on the node where the printing process lives
     GPU memory used/free/total (MiB): 1078 / 80072 / 81151
------------------
     ethr =  1.18E-06,  avg # of iterations =  2.0

     total cpu time spent up to now is       36.7 secs

     total energy              =    -572.91407501 Ry
     estimated scf accuracy    <       0.00028493 Ry

     total magnetization       =     0.44 Bohr mag/cell
     absolute magnetization    =     0.49 Bohr mag/cell
[tb_dev] Currently allocated     3.05E-05 Mbytes, locked:    0 /   2
[tb_pin] Currently allocated     0.00E+00 Mbytes, locked:    0 /   0

     iteration # 22     ecut=    60.00 Ry     beta= 0.30
     Davidson diagonalization with overlap

---- Real-time Memory Report at c_bands before calling an iterative solver
           755 MiB given to the printing process from OS
             0 MiB allocation reported by mallinfo(arena+hblkhd)
       1358586 MiB available memory on the node where the printing process lives
     GPU memory used/free/total (MiB): 1078 / 80072 / 81151
------------------
     ethr =  7.50E-07,  avg # of iterations =  4.4

     total cpu time spent up to now is       38.4 secs

     total energy              =    -572.91417121 Ry
     estimated scf accuracy    <       0.00005615 Ry

     total magnetization       =     0.43 Bohr mag/cell
     absolute magnetization    =     0.49 Bohr mag/cell
[tb_dev] Currently allocated     3.05E-05 Mbytes, locked:    0 /   2
[tb_pin] Currently allocated     0.00E+00 Mbytes, locked:    0 /   0

     iteration # 23     ecut=    60.00 Ry     beta= 0.30
     Davidson diagonalization with overlap

---- Real-time Memory Report at c_bands before calling an iterative solver
           755 MiB given to the printing process from OS
             0 MiB allocation reported by mallinfo(arena+hblkhd)
       1357144 MiB available memory on the node where the printing process lives
     GPU memory used/free/total (MiB): 1078 / 80072 / 81151
------------------
     ethr =  1.48E-07,  avg # of iterations =  4.1

     total cpu time spent up to now is       40.2 secs

     total energy              =    -572.91418055 Ry
     estimated scf accuracy    <       0.00006269 Ry

     total magnetization       =     0.43 Bohr mag/cell
     absolute magnetization    =     0.48 Bohr mag/cell
[tb_dev] Currently allocated     3.05E-05 Mbytes, locked:    0 /   2
[tb_pin] Currently allocated     0.00E+00 Mbytes, locked:    0 /   0

     iteration # 24     ecut=    60.00 Ry     beta= 0.30
     Davidson diagonalization with overlap

---- Real-time Memory Report at c_bands before calling an iterative solver
           755 MiB given to the printing process from OS
             0 MiB allocation reported by mallinfo(arena+hblkhd)
       1355987 MiB available memory on the node where the printing process lives
     GPU memory used/free/total (MiB): 1078 / 80072 / 81151
------------------
     ethr =  1.48E-07,  avg # of iterations =  1.8

     total cpu time spent up to now is       41.6 secs

     total energy              =    -572.91418639 Ry
     estimated scf accuracy    <       0.00000301 Ry

     total magnetization       =     0.43 Bohr mag/cell
     absolute magnetization    =     0.48 Bohr mag/cell
[tb_dev] Currently allocated     3.05E-05 Mbytes, locked:    0 /   2
[tb_pin] Currently allocated     0.00E+00 Mbytes, locked:    0 /   0

     iteration # 25     ecut=    60.00 Ry     beta= 0.30
     Davidson diagonalization with overlap

---- Real-time Memory Report at c_bands before calling an iterative solver
           755 MiB given to the printing process from OS
             0 MiB allocation reported by mallinfo(arena+hblkhd)
       1354760 MiB available memory on the node where the printing process lives
     GPU memory used/free/total (MiB): 1078 / 80072 / 81151
------------------
     ethr =  7.92E-09,  avg # of iterations =  6.8

     total cpu time spent up to now is       43.7 secs

     total energy              =    -572.91419361 Ry
     estimated scf accuracy    <       0.00000562 Ry

     total magnetization       =     0.43 Bohr mag/cell
     absolute magnetization    =     0.48 Bohr mag/cell
[tb_dev] Currently allocated     3.05E-05 Mbytes, locked:    0 /   2
[tb_pin] Currently allocated     0.00E+00 Mbytes, locked:    0 /   0

     iteration # 26     ecut=    60.00 Ry     beta= 0.30
     Davidson diagonalization with overlap

---- Real-time Memory Report at c_bands before calling an iterative solver
           755 MiB given to the printing process from OS
             0 MiB allocation reported by mallinfo(arena+hblkhd)
       1353326 MiB available memory on the node where the printing process lives
     GPU memory used/free/total (MiB): 1078 / 80072 / 81151
------------------
     ethr =  7.92E-09,  avg # of iterations =  1.1

     total cpu time spent up to now is       45.0 secs

     total energy              =    -572.91419135 Ry
     estimated scf accuracy    <       0.00000730 Ry

     total magnetization       =     0.43 Bohr mag/cell
     absolute magnetization    =     0.48 Bohr mag/cell
[tb_dev] Currently allocated     3.05E-05 Mbytes, locked:    0 /   2
[tb_pin] Currently allocated     0.00E+00 Mbytes, locked:    0 /   0

     iteration # 27     ecut=    60.00 Ry     beta= 0.30
     Davidson diagonalization with overlap

---- Real-time Memory Report at c_bands before calling an iterative solver
           755 MiB given to the printing process from OS
             0 MiB allocation reported by mallinfo(arena+hblkhd)
       1352046 MiB available memory on the node where the printing process lives
     GPU memory used/free/total (MiB): 1078 / 80072 / 81151
------------------
     ethr =  7.92E-09,  avg # of iterations =  2.3

     total cpu time spent up to now is       46.4 secs

     total energy              =    -572.91419136 Ry
     estimated scf accuracy    <       0.00000136 Ry

     total magnetization       =     0.43 Bohr mag/cell
     absolute magnetization    =     0.48 Bohr mag/cell
[tb_dev] Currently allocated     3.05E-05 Mbytes, locked:    0 /   2
[tb_pin] Currently allocated     0.00E+00 Mbytes, locked:    0 /   0

     iteration # 28     ecut=    60.00 Ry     beta= 0.30
     Davidson diagonalization with overlap

---- Real-time Memory Report at c_bands before calling an iterative solver
           755 MiB given to the printing process from OS
             0 MiB allocation reported by mallinfo(arena+hblkhd)
       1351309 MiB available memory on the node where the printing process lives
     GPU memory used/free/total (MiB): 1078 / 80072 / 81151
------------------
     ethr =  3.58E-09,  avg # of iterations =  4.2

     total cpu time spent up to now is       48.1 secs

     total energy              =    -572.91419191 Ry
     estimated scf accuracy    <       0.00000012 Ry

     total magnetization       =     0.43 Bohr mag/cell
     absolute magnetization    =     0.48 Bohr mag/cell
[tb_dev] Currently allocated     3.05E-05 Mbytes, locked:    0 /   2
[tb_pin] Currently allocated     0.00E+00 Mbytes, locked:    0 /   0

     iteration # 29     ecut=    60.00 Ry     beta= 0.30
     Davidson diagonalization with overlap

---- Real-time Memory Report at c_bands before calling an iterative solver
           755 MiB given to the printing process from OS
             0 MiB allocation reported by mallinfo(arena+hblkhd)
       1348244 MiB available memory on the node where the printing process lives
     GPU memory used/free/total (MiB): 1078 / 80072 / 81151
------------------
     ethr =  3.15E-10,  avg # of iterations =  7.4

     total cpu time spent up to now is       50.1 secs

     total energy              =    -572.91419194 Ry
     estimated scf accuracy    <       0.00000010 Ry

     total magnetization       =     0.43 Bohr mag/cell
     absolute magnetization    =     0.48 Bohr mag/cell
[tb_dev] Currently allocated     3.05E-05 Mbytes, locked:    0 /   2
[tb_pin] Currently allocated     0.00E+00 Mbytes, locked:    0 /   0

     iteration # 30     ecut=    60.00 Ry     beta= 0.30
     Davidson diagonalization with overlap

---- Real-time Memory Report at c_bands before calling an iterative solver
           755 MiB given to the printing process from OS
             0 MiB allocation reported by mallinfo(arena+hblkhd)
       1345664 MiB available memory on the node where the printing process lives
     GPU memory used/free/total (MiB): 1078 / 80072 / 81151
------------------
     ethr =  2.64E-10,  avg # of iterations =  1.6
 
     Magnetic moment per site  (integrated on atomic sphere of radius R)
     atom   1 (R=0.275)  charge= 14.1332  magn=  0.3638
     atom   2 (R=0.275)  charge=  5.2342  magn=  0.0268
     atom   3 (R=0.275)  charge=  5.2517  magn=  0.0235
     atom   4 (R=0.413)  charge=  7.8001  magn= -0.0121

     total cpu time spent up to now is       51.4 secs

     End of self-consistent calculation

 ------ SPIN UP ------------


          k = 0.0000 0.0000 0.0000 (  3279 PWs)   bands (ev):

   -87.1704 -50.4160 -50.3844 -50.3844 -26.0367 -11.1179  -9.3936  -9.0732
    -8.0032  -8.0032   2.4610   3.2352   3.2352   5.7632   6.6847   6.6847
     6.9664   6.9664   7.0015   8.1774  10.3700  10.6104  10.6104  12.2520
    12.4078  12.4078  15.9092

     occupation numbers 
     1.0000   1.0000   1.0000   1.0000   1.0000   1.0000   1.0000   1.0000
     1.0000   1.0000   1.0000   1.0000   1.0000   1.0000   1.0000   1.0000
     1.0000   1.0000   1.0000   0.9022   0.0000   0.0000   0.0000   0.0000
     0.0000   0.0000   0.0000

          k = 0.0000 0.0000 0.1151 (  3249 PWs)   bands (ev):

   -87.1704 -50.4160 -50.3843 -50.3843 -26.0367 -11.1212  -9.3467  -9.1183
    -8.0032  -8.0032   2.5147   3.2353   3.2353   5.4577   6.6846   6.6846
     6.9664   6.9664   7.3992   8.0831  10.4879  10.6113  10.6113  11.9555
    12.4073  12.4073  15.9091

     occupation numbers 
     1.0000   1.0000   1.0000   1.0000   1.0000   1.0000   1.0000   1.0000
     1.0000   1.0000   1.0000   1.0000   1.0000   1.0000   1.0000   1.0000
     1.0000   1.0000   1.0001   1.0432   0.0000   0.0000   0.0000   0.0000
     0.0000   0.0000   0.0000

          k = 0.0000 0.1443 0.0000 (  3241 PWs)   bands (ev):

   -87.1697 -50.4147 -50.3921 -50.3861 -25.9499 -10.9506  -9.3591  -9.0295
    -8.4488  -8.0942   2.6656   3.0182   3.3412   5.5890   6.0638   6.1424
     7.2852   7.4905   7.5027   8.3659  10.0849  10.5127  10.7100  11.7714
    12.0461  12.9667  15.6914

     occupation numbers 
     1.0000   1.0000   1.0000   1.0000   1.0000   1.0000   1.0000   1.0000
     1.0000   1.0000   1.0000   1.0000   1.0000   1.0000   1.0000   1.0000
     1.0000   1.0005   1.0006   0.4144   0.0000   0.0000   0.0000   0.0000
     0.0000   0.0000   0.0000

          k = 0.0000 0.1443 0.1151 (  3236 PWs)   bands (ev):

   -87.1697 -50.4147 -50.3921 -50.3861 -25.9499 -10.9537  -9.3229  -9.0641
    -8.4485  -8.0942   2.7050   3.0101   3.3413   5.5978   5.9343   6.0637
     7.2686   7.4903   7.8628   8.2245  10.0808  10.5130  10.7691  11.7549
    11.9634  12.9667  15.4125

     occupation numbers 
     1.0000   1.0000   1.0000   1.0000   1.0000   1.0000   1.0000   1.0000
     1.0000   1.0000   1.0000   1.0000   1.0000   1.0000   1.0000   1.0000
     1.0000   1.0005   1.0532   0.7945   0.0000   0.0000   0.0000   0.0000
     0.0000   0.0000   0.0000

          k = 0.0000 0.2887 0.0000 (  3230 PWs)   bands (ev):

   -87.1680 -50.4123 -50.4109 -50.3906 -25.7318 -10.5123  -9.4396  -9.3167
    -8.8856  -8.3058   2.6777   3.1776   3.5939   4.2287   5.4760   6.4495
     7.3766   7.7518   7.9047   8.8108   9.4269  10.3913  10.5652  11.3904
    12.2794  14.5013  15.2326

     occupation numbers 
     1.0000   1.0000   1.0000   1.0000   1.0000   1.0000   1.0000   1.0000
     1.0000   1.0000   1.0000   1.0000   1.0000   1.0000   1.0000   1.0000
     1.0001   1.0207   1.0674   0.0023   0.0000   0.0000   0.0000   0.0000
     0.0000   0.0000   0.0000

          k = 0.0000 0.2887 0.1151 (  3236 PWs)   bands (ev):

   -87.1680 -50.4123 -50.4109 -50.3907 -25.7318 -10.5145  -9.4438  -9.2983
    -8.8980  -8.3058   2.6661   3.1950   3.5939   4.2414   5.4758   6.4115
     7.3641   7.7516   7.9710   8.6656   9.5886  10.3918  10.4579  11.4321
    12.3688  14.5024  15.4990

     occupation numbers 
     1.0000   1.0000   1.0000   1.0000   1.0000   1.0000   1.0000   1.0000
     1.0000   1.0000   1.0000   1.0000   1.0000   1.0000   1.0000   1.0000
     1.0000   1.0207   1.0826   0.0220   0.0000   0.0000   0.0000   0.0000
     0.0000   0.0000   0.0000

          k = 0.0000 0.4330 0.0000 (  3242 PWs)   bands (ev):

   -87.1663 -50.4303 -50.4092 -50.3954 -25.5000 -10.3437  -9.9787  -9.3572
    -8.7050  -8.5070   2.2034   3.2081   3.7987   4.2195   5.2320   5.9773
     7.2667   7.5842   7.7839   8.4391   9.3474  10.1329  10.4256  12.3038
    13.6888  14.8167  16.0392

     occupation numbers 
     1.0000   1.0000   1.0000   1.0000   1.0000   1.0000   1.0000   1.0000
     1.0000   1.0000   1.0000   1.0000   1.0000   1.0000   1.0000   1.0000
     1.0000   1.0024   1.0284   0.2482   0.0000   0.0000   0.0000   0.0000
     0.0000   0.0000   0.0000

          k = 0.0000 0.4330 0.1151 (  3243 PWs)   bands (ev):

   -87.1663 -50.4303 -50.4091 -50.3954 -25.5000 -10.3433  -9.9810  -9.3535
    -8.7069  -8.5070   2.2071   3.1983   3.7988   4.2344   5.2316   5.9520
     7.2793   7.5841   7.7783   8.4210   9.6327   9.8191  10.4270  12.3950
    13.6663  14.8133  16.0101

     occupation numbers 
     1.0000   1.0000   1.0000   1.0000   1.0000   1.0000   1.0000   1.0000
     1.0000   1.0000   1.0000   1.0000   1.0000   1.0000   1.0000   1.0000
     1.0000   1.0024   1.0270   0.2850   0.0000   0.0000   0.0000   0.0000
     0.0000   0.0000   0.0000

          k = 0.0000-0.5774 0.0000 (  3254 PWs)   bands (ev):

   -87.1656 -50.4382 -50.4081 -50.3972 -25.3995 -10.6952  -9.6586  -9.4676
    -8.6229  -8.5876   1.8220   3.3491   3.8447   4.4337   5.2380   5.6705
     7.0718   7.4192   7.7268   8.1559   9.2834  10.0995  10.4732  13.3642
    13.9604  14.6572  16.2180

     occupation numbers 
     1.0000   1.0000   1.0000   1.0000   1.0000   1.0000   1.0000   1.0000
     1.0000   1.0000   1.0000   1.0000   1.0000   1.0000   1.0000   1.0000
     1.0000   1.0001   1.0158   0.9438   0.0000   0.0000   0.0000   0.0000
     0.0000   0.0000   0.0000

          k = 0.0000-0.5774 0.1151 (  3256 PWs)   bands (ev):

   -87.1656 -50.4382 -50.4081 -50.3973 -25.3995 -10.6952  -9.6589  -9.4677
    -8.6226  -8.5876   1.8267   3.3387   3.8449   4.4525   5.2375   5.6261
     7.0821   7.4192   7.7398   8.1618   9.4275   9.9668  10.4747  13.2649
    13.9452  14.6532  16.4605

     occupation numbers 
     1.0000   1.0000   1.0000   1.0000   1.0000   1.0000   1.0000   1.0000
     1.0000   1.0000   1.0000   1.0000   1.0000   1.0000   1.0000   1.0000
     1.0000   1.0001   1.0183   0.9329   0.0000   0.0000   0.0000   0.0000
     0.0000   0.0000   0.0000

          k = 0.1250 0.2165 0.0000 (  3241 PWs)   bands (ev):

   -87.1685 -50.4128 -50.4048 -50.3903 -25.7971 -10.6476  -9.3256  -9.1063
    -8.9316  -8.3052   2.7817   3.0522   3.4793   4.6965   5.3585   6.4863
     7.3841   7.7848   7.8889   8.9166   9.6578  10.2573  10.9148  10.9834
    11.8904  14.2059  15.1063

     occupation numbers 
     1.0000   1.0000   1.0000   1.0000   1.0000   1.0000   1.0000   1.0000
     1.0000   1.0000   1.0000   1.0000   1.0000   1.0000   1.0000   1.0000
     1.0001   1.0287   1.0622   0.0003   0.0000   0.0000   0.0000   0.0000
     0.0000   0.0000   0.0000

          k = 0.1250 0.2165 0.1151 (  3233 PWs)   bands (ev):

   -87.1685 -50.4128 -50.4047 -50.3902 -25.7971 -10.6501  -9.3094  -9.1033
    -8.9489  -8.3052   2.7699   3.0734   3.4796   4.7098   5.3589   6.4166
     7.3836   7.7577   7.9782   8.8644   9.7823  10.1765  10.9021  10.9334
    11.9905  14.2057  15.1072

     occupation numbers 
     1.0000   1.0000   1.0000   1.0000   1.0000   1.0000   1.0000   1.0000
     1.0000   1.0000   1.0000   1.0000   1.0000   1.0000   1.0000   1.0000
     1.0001   1.0220   1.0831   0.0009   0.0000   0.0000   0.0000   0.0000
     0.0000   0.0000   0.0000

          k = 0.1250 0.3608 0.0000 (  3230 PWs)   bands (ev):

   -87.1668 -50.4218 -50.4100 -50.3967 -25.5700 -10.1720  -9.9331  -9.3243
    -8.7608  -8.6311   2.6129   3.1129   3.7523   4.1228   4.8953   6.2777
     7.4117   7.6869   7.9327   9.2821   9.5434  10.0896  10.3691  11.3980
    12.6625  14.1750  16.1775

     occupation numbers 
     1.0000   1.0000   1.0000   1.0000   1.0000   1.0000   1.0000   1.0000
     1.0000   1.0000   1.0000   1.0000   1.0000   1.0000   1.0000   1.0000
     1.0001   1.0099   1.0756   0.0000   0.0000   0.0000   0.0000   0.0000
     0.0000   0.0000   0.0000

          k = 0.1250 0.3608 0.1151 (  3231 PWs)   bands (ev):

   -87.1668 -50.4218 -50.4100 -50.3967 -25.5700 -10.1716  -9.9365  -9.3172
    -8.7650  -8.6311   2.6097   3.1106   3.7523   4.1355   4.8950   6.2752
     7.4129   7.6900   7.9310   9.1905   9.7387   9.8924  10.4168  11.4272
    12.7023  14.1762  16.1601

     occupation numbers 
     1.0000   1.0000   1.0000   1.0000   1.0000   1.0000   1.0000   1.0000
     1.0000   1.0000   1.0000   1.0000   1.0000   1.0000   1.0000   1.0000
     1.0001   1.0103   1.0751   0.0000   0.0000   0.0000   0.0000   0.0000
     0.0000   0.0000   0.0000

          k = 0.1250 0.5052 0.0000 (  3243 PWs)   bands (ev):

   -87.1656 -50.4338 -50.4080 -50.4015 -25.4007 -10.5019  -9.7269  -9.4004
    -8.8528  -8.6235   2.1071   3.1110   3.9849   4.4100   4.7985   5.6991
     7.1752   7.5174   7.8763   8.8857   9.5194  10.0888  10.2300  12.9040
    13.4548  13.6648  16.9264

     occupation numbers 
     1.0000   1.0000   1.0000   1.0000   1.0000   1.0000   1.0000   1.0000
     1.0000   1.0000   1.0000   1.0000   1.0000   1.0000   1.0000   1.0000
     1.0000   1.0008   1.0579   0.0006   0.0000   0.0000   0.0000   0.0000
     0.0000   0.0000   0.0000

          k = 0.1250 0.5052 0.1151 (  3244 PWs)   bands (ev):

   -87.1656 -50.4339 -50.4080 -50.4015 -25.4007 -10.5018  -9.7279  -9.3993
    -8.8528  -8.6237   2.1120   3.1065   3.9801   4.4235   4.7979   5.6714
     7.1813   7.5146   7.8873   8.8896   9.6611   9.8625  10.3237  12.8854
    13.4569  13.6536  16.9993

     occupation numbers 
     1.0000   1.0000   1.0000   1.0000   1.0000   1.0000   1.0000   1.0000
     1.0000   1.0000   1.0000   1.0000   1.0000   1.0000   1.0000   1.0000
     1.0000   1.0008   1.0617   0.0005   0.0000   0.0000   0.0000   0.0000
     0.0000   0.0000   0.0000

          k = 0.2500 0.4330 0.0000 (  3245 PWs)   bands (ev):

   -87.1656 -50.4279 -50.4084 -50.4071 -25.4019 -10.2213  -9.7731  -9.3563
    -9.2025  -8.6240   2.6560   2.8111   3.7449   4.4079   4.5584   5.7551
     7.2494   7.5920   8.0313   9.7541   9.8021  10.1840  10.4298  11.5656
    12.6330  13.3237  17.2153

     occupation numbers 
     1.0000   1.0000   1.0000   1.0000   1.0000   1.0000   1.0000   1.0000
     1.0000   1.0000   1.0000   1.0000   1.0000   1.0000   1.0000   1.0000
     1.0000   1.0027   1.0758   0.0000   0.0000   0.0000   0.0000   0.0000
     0.0000   0.0000   0.0000

          k = 0.2500 0.4330 0.1151 (  3234 PWs)   bands (ev):

   -87.1656 -50.4279 -50.4084 -50.4070 -25.4019 -10.2206  -9.7758  -9.3530
    -9.2035  -8.6244   2.6573   2.8121   3.7467   4.4047   4.5539   5.7591
     7.2468   7.5877   8.0508   9.5910   9.8466  10.3450  10.3998  11.5329
    12.6526  13.3074  17.3082

     occupation numbers 
     1.0000   1.0000   1.0000   1.0000   1.0000   1.0000   1.0000   1.0000
     1.0000   1.0000   1.0000   1.0000   1.0000   1.0000   1.0000   1.0000
     1.0000   1.0025   1.0669   0.0000   0.0000   0.0000   0.0000   0.0000
     0.0000   0.0000   0.0000

          k = 0.2500 0.5774 0.0000 (  3233 PWs)   bands (ev):

   -87.1651 -50.4283 -50.4138 -50.4072 -25.3304 -10.2482  -9.5940  -9.5183
    -9.3919  -8.5648   2.5079   2.9161   3.5415   4.5369   4.7958   5.3094
     7.0119   7.7661   7.9743   9.8104   9.8683  10.3029  10.5057  11.8115
    12.2602  13.7534  17.9655

     occupation numbers 
     1.0000   1.0000   1.0000   1.0000   1.0000   1.0000   1.0000   1.0000
     1.0000   1.0000   1.0000   1.0000   1.0000   1.0000   1.0000   1.0000
     1.0000   1.0240   1.0828   0.0000   0.0000   0.0000   0.0000   0.0000
     0.0000   0.0000   0.0000

          k = 0.2500 0.5774 0.1151 (  3249 PWs)   bands (ev):

   -87.1651 -50.4284 -50.4139 -50.4073 -25.3304 -10.2481  -9.5954  -9.5162
    -9.3926  -8.5648   2.5115   2.9170   3.5460   4.5289   4.7967   5.2992
     7.0133   7.7618   7.9885   9.7220   9.8355  10.4069  10.5240  11.8566
    12.2416  13.7412  17.9586

     occupation numbers 
     1.0000   1.0000   1.0000   1.0000   1.0000   1.0000   1.0000   1.0000
     1.0000   1.0000   1.0000   1.0000   1.0000   1.0000   1.0000   1.0000
     1.0000   1.0230   1.0833   0.0000   0.0000   0.0000   0.0000   0.0000
     0.0000   0.0000   0.0000

          k = 0.0000-0.1443 0.1151 (  3236 PWs)   bands (ev):

   -87.1697 -50.4147 -50.3921 -50.3861 -25.9499 -10.9537  -9.3230  -9.0641
    -8.4484  -8.0942   2.7069   3.0075   3.3412   5.5765   5.9641   6.0638
     7.2658   7.4903   7.8351   8.2596  10.0714  10.5131  10.7438  11.7664
    11.9679  12.9663  15.4449

     occupation numbers 
     1.0000   1.0000   1.0000   1.0000   1.0000   1.0000   1.0000   1.0000
     1.0000   1.0000   1.0000   1.0000   1.0000   1.0000   1.0000   1.0000
     1.0000   1.0005   1.0438   0.7029   0.0000   0.0000   0.0000   0.0000
     0.0000   0.0000   0.0000

          k = 0.0000-0.2887 0.1151 (  3236 PWs)   bands (ev):

   -87.1680 -50.4123 -50.4108 -50.3907 -25.7318 -10.5143  -9.4464  -9.2963
    -8.8976  -8.3058   2.6688   3.1829   3.5938   4.2486   5.4760   6.4272
     7.3667   7.7516   7.9215   8.8146   9.4208  10.3914  10.5385  11.4088
    12.2928  14.5012  15.2319

     occupation numbers 
     1.0000   1.0000   1.0000   1.0000   1.0000   1.0000   1.0000   1.0000
     1.0000   1.0000   1.0000   1.0000   1.0000   1.0000   1.0000   1.0000
     1.0000   1.0207   1.0725   0.0022   0.0000   0.0000   0.0000   0.0000
     0.0000   0.0000   0.0000

          k = 0.0000-0.4330 0.1151 (  3243 PWs)   bands (ev):

   -87.1663 -50.4303 -50.4091 -50.3954 -25.5000 -10.3423  -9.9825  -9.3535
    -8.7062  -8.5070   2.2030   3.1995   3.7987   4.2274   5.2319   5.9834
     7.2675   7.5841   7.7822   8.4560   9.3511  10.1225  10.4265  12.2128
    13.6752  14.8142  16.2907

     occupation numbers 
     1.0000   1.0000   1.0000   1.0000   1.0000   1.0000   1.0000   1.0000
     1.0000   1.0000   1.0000   1.0000   1.0000   1.0000   1.0000   1.0000
     1.0000   1.0024   1.0280   0.2164   0.0000   0.0000   0.0000   0.0000
     0.0000   0.0000   0.0000

          k =-0.1250-0.3608 0.1151 (  3231 PWs)   bands (ev):

   -87.1668 -50.4218 -50.4100 -50.3967 -25.5700 -10.1703  -9.9383  -9.3169
    -8.7646  -8.6312   2.6073   3.1095   3.7495   4.1402   4.8937   6.2903
     7.4074   7.6864   7.9321   9.2827   9.5278  10.0027  10.4442  11.4064
    12.6427  14.1873  16.1890

     occupation numbers 
     1.0000   1.0000   1.0000   1.0000   1.0000   1.0000   1.0000   1.0000
     1.0000   1.0000   1.0000   1.0000   1.0000   1.0000   1.0000   1.0000
     1.0001   1.0098   1.0754   0.0000   0.0000   0.0000   0.0000   0.0000
     0.0000   0.0000   0.0000

          k =-0.1250-0.5052 0.1151 (  3244 PWs)   bands (ev):

   -87.1656 -50.4339 -50.4080 -50.4015 -25.4007 -10.5016  -9.7284  -9.3992
    -8.8529  -8.6233   2.1100   3.1077   3.9843   4.4108   4.7973   5.6912
     7.1741   7.5127   7.8980   8.9079   9.5135  10.0098  10.3057  12.8255
    13.4612  13.6569  17.1317

     occupation numbers 
     1.0000   1.0000   1.0000   1.0000   1.0000   1.0000   1.0000   1.0000
     1.0000   1.0000   1.0000   1.0000   1.0000   1.0000   1.0000   1.0000
     1.0000   1.0007   1.0652   0.0004   0.0000   0.0000   0.0000   0.0000
     0.0000   0.0000   0.0000

 ------ SPIN DOWN ----------


          k = 0.0000 0.0000 0.0000 (  3279 PWs)   bands (ev):

   -86.7288 -49.9923 -49.9923 -49.9081 -26.0474 -11.0751  -9.3680  -9.0595
    -8.0135  -8.0135   2.6150   3.3598   3.3598   5.8358   6.7118   6.7118
     7.0147   7.3145   7.3145   8.6661  10.3755  10.7990  10.7990  12.2687
    12.3816  12.3816  16.4213

     occupation numbers 
     1.0000   1.0000   1.0000   1.0000   1.0000   1.0000   1.0000   1.0000
     1.0000   1.0000   1.0000   1.0000   1.0000   1.0000   1.0000   1.0000
     1.0000   1.0000   1.0000   0.0219   0.0000   0.0000   0.0000   0.0000
     0.0000   0.0000   0.0000

          k = 0.0000 0.0000 0.1151 (  3249 PWs)   bands (ev):

   -86.7288 -49.9922 -49.9922 -49.9081 -26.0474 -11.0785  -9.3180  -9.1077
    -8.0135  -8.0135   2.6735   3.3599   3.3599   5.5108   6.7117   6.7117
     7.3145   7.3145   7.3949   8.6008  10.4971  10.7999  10.7999  11.9736
    12.3809  12.3809  15.9044

     occupation numbers 
     1.0000   1.0000   1.0000   1.0000   1.0000   1.0000   1.0000   1.0000
     1.0000   1.0000   1.0000   1.0000   1.0000   1.0000   1.0000   1.0000
     1.0000   1.0000   1.0001   0.0502   0.0000   0.0000   0.0000   0.0000
     0.0000   0.0000   0.0000

          k = 0.0000 0.1443 0.0000 (  3241 PWs)   bands (ev):

   -86.7280 -50.0002 -49.9941 -49.9068 -25.9603 -10.9077  -9.3270  -9.0219
    -8.4609  -8.1047   2.8173   3.1349   3.4613   5.6774   6.1771   6.2154
     7.5717   7.6277   7.7649   8.7534  10.2540  10.6964  10.7277  11.7400
    12.0624  12.9412  15.7002

     occupation numbers 
     1.0000   1.0000   1.0000   1.0000   1.0000   1.0000   1.0000   1.0000
     1.0000   1.0000   1.0000   1.0000   1.0000   1.0000   1.0000   1.0000
     1.0019   1.0045   1.0237   0.0060   0.0000   0.0000   0.0000   0.0000
     0.0000   0.0000   0.0000

          k = 0.0000 0.1443 0.1151 (  3236 PWs)   bands (ev):

   -86.7280 -50.0002 -49.9941 -49.9068 -25.9603 -10.9109  -9.2865  -9.0606
    -8.4606  -8.1047   2.8588   3.1273   3.4614   5.6895   5.9937   6.1770
     7.5722   7.7648   7.9505   8.6365  10.2372  10.6968  10.8034  11.7263
    11.9787  12.9412  15.4234

     occupation numbers 
     1.0000   1.0000   1.0000   1.0000   1.0000   1.0000   1.0000   1.0000
     1.0000   1.0000   1.0000   1.0000   1.0000   1.0000   1.0000   1.0000
     1.0020   1.0237   1.0796   0.0323   0.0000   0.0000   0.0000   0.0000
     0.0000   0.0000   0.0000

          k = 0.0000 0.2887 0.0000 (  3230 PWs)   bands (ev):

   -86.7263 -50.0197 -49.9986 -49.9040 -25.7415 -10.4691  -9.4541  -9.2748
    -8.8874  -8.3168   2.7787   3.3070   3.7033   4.3275   5.5784   6.5252
     7.7187   8.0682   8.3334   8.8611   9.5913  10.5627  10.5783  11.3914
    12.2623  14.4785  15.2266

     occupation numbers 
     1.0000   1.0000   1.0000   1.0000   1.0000   1.0000   1.0000   1.0000
     1.0000   1.0000   1.0000   1.0000   1.0000   1.0000   1.0000   1.0000
     1.0144   1.0556   0.5002   0.0009   0.0000   0.0000   0.0000   0.0000
     0.0000   0.0000   0.0000

          k = 0.0000 0.2887 0.1151 (  3236 PWs)   bands (ev):

   -86.7263 -50.0196 -49.9987 -49.9039 -25.7415 -10.4714  -9.4573  -9.2556
    -8.9017  -8.3168   2.7667   3.3242   3.7034   4.3431   5.5781   6.4831
     7.7063   8.0680   8.4666   8.6733   9.7353  10.4603  10.5632  11.4293
    12.3647  14.4788  15.5153

     occupation numbers 
     1.0000   1.0000   1.0000   1.0000   1.0000   1.0000   1.0000   1.0000
     1.0000   1.0000   1.0000   1.0000   1.0000   1.0000   1.0000   1.0000
     1.0125   1.0558   0.1980   0.0198   0.0000   0.0000   0.0000   0.0000
     0.0000   0.0000   0.0000

          k = 0.0000 0.4330 0.0000 (  3242 PWs)   bands (ev):

   -86.7246 -50.0391 -50.0035 -49.9011 -25.5090 -10.3614  -9.9357  -9.3102
    -8.7095  -8.5186   2.2839   3.2674   3.9038   4.3751   5.2934   6.0604
     7.6884   7.9597   8.2260   8.4045   9.4467  10.2455  10.5915  12.3056
    13.6595  14.8100  16.0519

     occupation numbers 
     1.0000   1.0000   1.0000   1.0000   1.0000   1.0000   1.0000   1.0000
     1.0000   1.0000   1.0000   1.0000   1.0000   1.0000   1.0000   1.0000
     1.0101   1.0812   0.7906   0.3212   0.0000   0.0000   0.0000   0.0000
     0.0000   0.0000   0.0000

          k = 0.0000 0.4330 0.1151 (  3243 PWs)   bands (ev):

   -86.7246 -50.0391 -50.0035 -49.9010 -25.5090 -10.3611  -9.9379  -9.3061
    -8.7117  -8.5186   2.2879   3.2572   3.9040   4.3910   5.2930   6.0341
     7.7055   7.9596   8.2141   8.3907   9.7955   9.8566  10.5931  12.4070
    13.6370  14.8067  16.0226

     occupation numbers 
     1.0000   1.0000   1.0000   1.0000   1.0000   1.0000   1.0000   1.0000
     1.0000   1.0000   1.0000   1.0000   1.0000   1.0000   1.0000   1.0000
     1.0124   1.0812   0.8198   0.3532   0.0000   0.0000   0.0000   0.0000
     0.0000   0.0000   0.0000

          k = 0.0000-0.5774 0.0000 (  3254 PWs)   bands (ev):

   -86.7239 -50.0472 -50.0054 -49.8999 -25.4082 -10.7147  -9.6158  -9.4187
    -8.6276  -8.5994   1.8946   3.3895   3.9525   4.5971   5.2660   5.7421
     7.5744   7.8284   8.1025   8.1354   9.3136  10.2886  10.6397  13.3704
    13.9335  14.6504  16.2236

     occupation numbers 
     1.0000   1.0000   1.0000   1.0000   1.0000   1.0000   1.0000   1.0000
     1.0000   1.0000   1.0000   1.0000   1.0000   1.0000   1.0000   1.0000
     1.0020   1.0416   1.0231   0.9784   0.0000   0.0000   0.0000   0.0000
     0.0000   0.0000   0.0000

          k = 0.0000-0.5774 0.1151 (  3256 PWs)   bands (ev):

   -86.7239 -50.0472 -50.0054 -49.8999 -25.4082 -10.7146  -9.6160  -9.4187
    -8.6273  -8.5994   1.8994   3.3791   3.9527   4.6179   5.2655   5.6960
     7.5917   7.8284   8.1109   8.1410   9.4342  10.1760  10.6413  13.2681
    13.9209  14.6464  16.4674

     occupation numbers 
     1.0000   1.0000   1.0000   1.0000   1.0000   1.0000   1.0000   1.0000
     1.0000   1.0000   1.0000   1.0000   1.0000   1.0000   1.0000   1.0000
     1.0026   1.0416   1.0130   0.9694   0.0000   0.0000   0.0000   0.0000
     0.0000   0.0000   0.0000

          k = 0.1250 0.2165 0.0000 (  3241 PWs)   bands (ev):

   -86.7268 -50.0131 -49.9983 -49.9048 -25.8070 -10.6044  -9.2851  -9.1207
    -8.9315  -8.3164   2.8859   3.1976   3.5906   4.7811   5.4709   6.5552
     7.7503   8.0605   8.2980   8.9943   9.8298  10.4277  10.8823  10.9930
    11.9029  14.1816  15.0994

     occupation numbers 
     1.0000   1.0000   1.0000   1.0000   1.0000   1.0000   1.0000   1.0000
     1.0000   1.0000   1.0000   1.0000   1.0000   1.0000   1.0000   1.0000
     1.0204   1.0610   0.5976   0.0001   0.0000   0.0000   0.0000   0.0000
     0.0000   0.0000   0.0000

          k = 0.1250 0.2165 0.1151 (  3233 PWs)   bands (ev):

   -86.7268 -50.0131 -49.9982 -49.9047 -25.8070 -10.6070  -9.2675  -9.1164
    -8.9513  -8.3164   2.8733   3.2200   3.5911   4.7969   5.4712   6.4817
     7.7498   8.0245   8.4546   8.8952   9.9426  10.3276  10.8859  10.9422
    12.0105  14.1814  15.1002

     occupation numbers 
     1.0000   1.0000   1.0000   1.0000   1.0000   1.0000   1.0000   1.0000
     1.0000   1.0000   1.0000   1.0000   1.0000   1.0000   1.0000   1.0000
     1.0203   1.0780   0.2189   0.0005   0.0000   0.0000   0.0000   0.0000
     0.0000   0.0000   0.0000

          k = 0.1250 0.3608 0.0000 (  3230 PWs)   bands (ev):

   -86.7251 -50.0305 -50.0049 -49.9019 -25.5792 -10.1309  -9.9478  -9.2780
    -8.7649  -8.6433   2.7030   3.1882   3.8619   4.2542   4.9856   6.3555
     7.8082   8.1469   8.2982   9.2848   9.6512  10.2340  10.4289  11.3881
    12.6561  14.1659  16.1652

     occupation numbers 
     1.0000   1.0000   1.0000   1.0000   1.0000   1.0000   1.0000   1.0000
     1.0000   1.0000   1.0000   1.0000   1.0000   1.0000   1.0000   1.0000
     1.0353   0.9596   0.5969   0.0000   0.0000   0.0000   0.0000   0.0000
     0.0000   0.0000   0.0000

          k = 0.1250 0.3608 0.1151 (  3231 PWs)   bands (ev):

   -86.7251 -50.0305 -50.0049 -49.9019 -25.5792 -10.1299  -9.9518  -9.2704
    -8.7696  -8.6434   2.6998   3.1857   3.8611   4.2687   4.9854   6.3530
     7.8103   8.1517   8.2926   9.2142   9.8667   9.9566  10.5098  11.4191
    12.7021  14.1670  16.1535

     occupation numbers 
     1.0000   1.0000   1.0000   1.0000   1.0000   1.0000   1.0000   1.0000
     1.0000   1.0000   1.0000   1.0000   1.0000   1.0000   1.0000   1.0000
     1.0360   0.9513   0.6124   0.0000   0.0000   0.0000   0.0000   0.0000
     0.0000   0.0000   0.0000

          k = 0.1250 0.5052 0.0000 (  3243 PWs)   bands (ev):

   -86.7239 -50.0428 -50.0098 -49.8998 -25.4094 -10.5206  -9.6834  -9.3524
    -8.8657  -8.6281   2.1797   3.1727   4.0767   4.5391   4.8751   5.7788
     7.7240   7.9144   8.2219   8.8453   9.5740  10.2431  10.3948  12.8912
    13.4389  13.6558  16.9371

     occupation numbers 
     1.0000   1.0000   1.0000   1.0000   1.0000   1.0000   1.0000   1.0000
     1.0000   1.0000   1.0000   1.0000   1.0000   1.0000   1.0000   1.0000
     1.0153   1.0705   0.8008   0.0013   0.0000   0.0000   0.0000   0.0000
     0.0000   0.0000   0.0000

          k = 0.1250 0.5052 0.1151 (  3244 PWs)   bands (ev):

   -86.7239 -50.0428 -50.0097 -49.8999 -25.4094 -10.5205  -9.6843  -9.3512
    -8.8657  -8.6284   2.1848   3.1681   4.0718   4.5529   4.8754   5.7496
     7.7358   7.9108   8.2299   8.8485   9.6787  10.0672  10.4728  12.8731
    13.4402  13.6452  17.0120

     occupation numbers 
     1.0000   1.0000   1.0000   1.0000   1.0000   1.0000   1.0000   1.0000
     1.0000   1.0000   1.0000   1.0000   1.0000   1.0000   1.0000   1.0000
     1.0175   1.0693   0.7809   0.0012   0.0000   0.0000   0.0000   0.0000
     0.0000   0.0000   0.0000

          k = 0.2500 0.4330 0.0000 (  3245 PWs)   bands (ev):

   -86.7239 -50.0367 -50.0158 -49.8999 -25.4106 -10.2388  -9.7298  -9.3099
    -9.2154  -8.6286   2.7224   2.8917   3.8051   4.5286   4.6737   5.8382
     7.8376   7.9733   8.3465   9.8741   9.9776  10.2001  10.4360  11.5406
    12.6198  13.3266  17.2292

     occupation numbers 
     1.0000   1.0000   1.0000   1.0000   1.0000   1.0000   1.0000   1.0000
     1.0000   1.0000   1.0000   1.0000   1.0000   1.0000   1.0000   1.0000
     1.0447   1.0828   0.4651   0.0000   0.0000   0.0000   0.0000   0.0000
     0.0000   0.0000   0.0000

          k = 0.2500 0.4330 0.1151 (  3234 PWs)   bands (ev):

   -86.7239 -50.0367 -50.0157 -49.8998 -25.4106 -10.2383  -9.7322  -9.3058
    -9.2171  -8.6291   2.7239   2.8928   3.8070   4.5248   4.6686   5.8434
     7.8347   7.9689   8.3696   9.6957  10.0284  10.3271  10.4452  11.5077
    12.6397  13.3098  17.3234

     occupation numbers 
     1.0000   1.0000   1.0000   1.0000   1.0000   1.0000   1.0000   1.0000
     1.0000   1.0000   1.0000   1.0000   1.0000   1.0000   1.0000   1.0000
     1.0437   1.0824   0.4052   0.0000   0.0000   0.0000   0.0000   0.0000
     0.0000   0.0000   0.0000

          k = 0.2500 0.5774 0.0000 (  3233 PWs)   bands (ev):

   -86.7234 -50.0372 -50.0223 -49.8989 -25.3388 -10.2661  -9.5719  -9.5122
    -9.3434  -8.5694   2.5761   2.9850   3.5971   4.6343   4.9281   5.3797
     7.6344   8.1340   8.3114   9.9737  10.0399  10.2910  10.5030  11.7977
    12.2255  13.7589  17.9745

     occupation numbers 
     1.0000   1.0000   1.0000   1.0000   1.0000   1.0000   1.0000   1.0000
     1.0000   1.0000   1.0000   1.0000   1.0000   1.0000   1.0000   1.0000
     1.0049   0.9805   0.5606   0.0000   0.0000   0.0000   0.0000   0.0000
     0.0000   0.0000   0.0000

          k = 0.2500 0.5774 0.1151 (  3249 PWs)   bands (ev):

   -86.7234 -50.0372 -50.0224 -49.8990 -25.3388 -10.2660  -9.5733  -9.5105
    -9.3439  -8.5694   2.5798   2.9860   3.6016   4.6258   4.9294   5.3690
     7.6367   8.1289   8.3277   9.8501  10.0188  10.3816  10.5548  11.8453
    12.2072  13.7438  17.9685

     occupation numbers 
     1.0000   1.0000   1.0000   1.0000   1.0000   1.0000   1.0000   1.0000
     1.0000   1.0000   1.0000   1.0000   1.0000   1.0000   1.0000   1.0000
     1.0051   0.9883   0.5157   0.0000   0.0000   0.0000   0.0000   0.0000
     0.0000   0.0000   0.0000

          k = 0.0000-0.1443 0.1151 (  3236 PWs)   bands (ev):

   -86.7280 -50.0002 -49.9941 -49.9068 -25.9603 -10.9108  -9.2866  -9.0606
    -8.4605  -8.1047   2.8609   3.1245   3.4613   5.6627   6.0305   6.1771
     7.5563   7.7648   7.9541   8.6505  10.2348  10.6969  10.7706  11.7365
    11.9863  12.9407  15.4559

     occupation numbers 
     1.0000   1.0000   1.0000   1.0000   1.0000   1.0000   1.0000   1.0000
     1.0000   1.0000   1.0000   1.0000   1.0000   1.0000   1.0000   1.0000
     1.0015   1.0237   1.0803   0.0269   0.0000   0.0000   0.0000   0.0000
     0.0000   0.0000   0.0000

          k = 0.0000-0.2887 0.1151 (  3236 PWs)   bands (ev):

   -86.7263 -50.0196 -49.9988 -49.9039 -25.7415 -10.4711  -9.4592  -9.2543
    -8.9012  -8.3168   2.7687   3.3122   3.7033   4.3506   5.5784   6.5007
     7.7021   8.0680   8.3744   8.8489   9.5763  10.5563  10.5628  11.4095
    12.2809  14.4784  15.2261

     occupation numbers 
     1.0000   1.0000   1.0000   1.0000   1.0000   1.0000   1.0000   1.0000
     1.0000   1.0000   1.0000   1.0000   1.0000   1.0000   1.0000   1.0000
     1.0119   1.0557   0.3931   0.0012   0.0000   0.0000   0.0000   0.0000
     0.0000   0.0000   0.0000

          k = 0.0000-0.4330 0.1151 (  3243 PWs)   bands (ev):

   -86.7246 -50.0391 -50.0035 -49.9010 -25.5090 -10.3603  -9.9392  -9.3063
    -8.7109  -8.5186   2.2835   3.2586   3.9038   4.3827   5.2933   6.0686
     7.6957   7.9596   8.1999   8.4372   9.4487  10.2356  10.5925  12.2180
    13.6439  14.8075  16.3034

     occupation numbers 
     1.0000   1.0000   1.0000   1.0000   1.0000   1.0000   1.0000   1.0000
     1.0000   1.0000   1.0000   1.0000   1.0000   1.0000   1.0000   1.0000
     1.0110   1.0812   0.8532   0.2519   0.0000   0.0000   0.0000   0.0000
     0.0000   0.0000   0.0000

          k =-0.1250-0.3608 0.1151 (  3231 PWs)   bands (ev):

   -86.7251 -50.0305 -50.0049 -49.9019 -25.5792 -10.1282  -9.9539  -9.2703
    -8.7691  -8.6434   2.6971   3.1849   3.8587   4.2725   4.9840   6.3693
     7.8049   8.1493   8.2895   9.2934   9.6214  10.1330  10.5234  11.3991
    12.6386  14.1782  16.1747

     occupation numbers 
     1.0000   1.0000   1.0000   1.0000   1.0000   1.0000   1.0000   1.0000
     1.0000   1.0000   1.0000   1.0000   1.0000   1.0000   1.0000   1.0000
     1.0343   0.9554   0.6211   0.0000   0.0000   0.0000   0.0000   0.0000
     0.0000   0.0000   0.0000

          k =-0.1250-0.5052 0.1151 (  3244 PWs)   bands (ev):

   -86.7239 -50.0428 -50.0097 -49.8999 -25.4094 -10.5204  -9.6847  -9.3512
    -8.8658  -8.6280   2.1827   3.1692   4.0761   4.5396   4.8740   5.7713
     7.7257   7.9104   8.2434   8.8622   9.5667  10.1843  10.4530  12.8151
    13.4443  13.6456  17.1421

     occupation numbers 
     1.0000   1.0000   1.0000   1.0000   1.0000   1.0000   1.0000   1.0000
     1.0000   1.0000   1.0000   1.0000   1.0000   1.0000   1.0000   1.0000
     1.0156   1.0692   0.7461   0.0009   0.0000   0.0000   0.0000   0.0000
     0.0000   0.0000   0.0000

     the Fermi energy is     8.3714 ev

!    total energy              =    -572.91419196 Ry
     total all-electron energy =     -4292.025028 Ry
     estimated scf accuracy    <       0.00000002 Ry
     smearing contrib. (-TS)   =       0.00366528 Ry
     internal energy E=F+TS    =    -572.91785724 Ry

     The total energy is F=E-TS. E is the sum of the following terms:
     one-electron contribution =    -485.62024899 Ry
     hartree contribution      =     260.25472873 Ry
     xc contribution           =     -56.67259433 Ry
     ewald contribution        =    -128.68525917 Ry
     one-center paw contrib.   =    -162.19448349 Ry
      -> PAW hartree energy AE =     309.58213134 Ry
      -> PAW hartree energy PS =    -308.22869453 Ry
      -> PAW xc energy AE      =    -216.98534129 Ry
      -> PAW xc energy PS      =      53.43742099 Ry
      -> total E_H with PAW    =     261.60816554 Ry
      -> total E_XC with PAW   =    -220.22051462 Ry

     total magnetization       =     0.43 Bohr mag/cell
     absolute magnetization    =     0.48 Bohr mag/cell

     convergence has been achieved in  30 iterations

     Forces acting on atoms (cartesian axes, Ry/au):

     atom    1 type  1   force =     0.00000000    0.00000000    0.01444186
     atom    2 type  2   force =     0.00000000    0.00000000   -0.00651182
     atom    3 type  2   force =     0.00000000    0.00000000   -0.02298868
     atom    4 type  3   force =     0.00000000    0.00000000    0.01505864
     The non-local contrib.  to forces
     atom    1 type  1   force =     0.00000000    0.00000000    0.00877684
     atom    2 type  2   force =     0.00000000    0.00000000   -0.93763113
     atom    3 type  2   force =     0.00000000    0.00000000    0.71551364
     atom    4 type  3   force =    -0.00000000   -0.00000000    0.01926060
     The ionic contribution  to forces
     atom    1 type  1   force =    -0.00000000   -0.00000000    5.30015507
     atom    2 type  2   force =     0.00000000   -0.00000000   32.69441293
     atom    3 type  2   force =    -0.00000000    0.00000000  -29.00603066
     atom    4 type  3   force =     0.00000000   -0.00000000   -8.98853735
     The local contribution  to forces
     atom    1 type  1   force =    -0.00000000   -0.00000000   -5.29415090
     atom    2 type  2   force =     0.00000001   -0.00000001  -31.77128929
     atom    3 type  2   force =    -0.00000001    0.00000001   28.27338628
     atom    4 type  3   force =     0.00000000    0.00000000    8.98439538
     The core correction contribution to forces
     atom    1 type  1   force =     0.00000000   -0.00000000   -0.00015904
     atom    2 type  2   force =    -0.00000000    0.00000000    0.00804838
     atom    3 type  2   force =     0.00000000   -0.00000000   -0.00584624
     atom    4 type  3   force =    -0.00000000    0.00000000   -0.00007125
     The Hubbard contrib.    to forces
     atom    1 type  1   force =     0.00000000    0.00000000    0.00000000
     atom    2 type  2   force =     0.00000000    0.00000000    0.00000000
     atom    3 type  2   force =     0.00000000    0.00000000    0.00000000
     atom    4 type  3   force =     0.00000000    0.00000000    0.00000000
     The SCF correction term to forces
     atom    1 type  1   force =    -0.00000000    0.00000000   -0.00018480
     atom    2 type  2   force =    -0.00000000    0.00000000   -0.00005740
     atom    3 type  2   force =     0.00000000   -0.00000000   -0.00001639
     atom    4 type  3   force =    -0.00000000    0.00000000    0.00000657

     Total force =     0.031721     Total SCF correction =     0.000194

     Writing all to output data dir ./out/pw.save/ :
     XML data file, charge density, pseudopotentials, collected wavefunctions
 
     init_run     :     15.00s CPU      3.69s WALL (       1 calls)
     electrons    :    188.62s CPU     47.13s WALL (       1 calls)
     forces       :      0.61s CPU      0.58s WALL (       1 calls)

     Called by init_run:
     wfcinit      :      0.32s CPU      0.39s WALL (       1 calls)
     wfcinit:atom :      0.07s CPU      0.08s WALL (      50 calls)
     wfcinit:wfcr :      0.18s CPU      0.22s WALL (      50 calls)
     potinit      :     14.03s CPU      2.63s WALL (       1 calls)
     hinit0       :      0.53s CPU      0.52s WALL (       1 calls)

     Called by electrons:
     c_bands      :     18.68s CPU     18.64s WALL (      30 calls)
     sum_band     :      4.08s CPU      4.03s WALL (      30 calls)
     v_of_rho     :      0.50s CPU      0.24s WALL (      31 calls)
     v_h          :      0.35s CPU      0.05s WALL (      31 calls)
     v_xc         :      0.16s CPU      0.20s WALL (      32 calls)
     newd         :      0.98s CPU      0.81s WALL (      31 calls)
                                        0.81s GPU  (      31 calls)
     PAW_pot      :    168.29s CPU     23.14s WALL (      31 calls)
     mix_rho      :      0.98s CPU      0.95s WALL (      30 calls)

     Called by c_bands:
     init_us_2    :      1.32s CPU      1.25s WALL (    3100 calls)
     cegterg      :     16.07s CPU     16.13s WALL (    1500 calls)

     Called by sum_band:
     sum_band:wei :      0.04s CPU      0.04s WALL (      30 calls)
                                        0.04s GPU  (      30 calls)
     sum_band:loo :      2.20s CPU      2.16s WALL (      30 calls)
                                        2.15s GPU  (      30 calls)
     sum_band:buf :      0.28s CPU      0.31s WALL (    1500 calls)
                                        0.30s GPU  (    1500 calls)
     sum_band:ini :      0.63s CPU      0.62s WALL (    1500 calls)
                                        0.60s GPU  (    1500 calls)
     sum_band:cal :      0.06s CPU      0.09s WALL (    1500 calls)
                                        0.07s GPU  (    1500 calls)
     sum_band:bec :      0.33s CPU      0.38s WALL (    1500 calls)
                                        0.36s GPU  (    1500 calls)
     addusdens    :      1.62s CPU      1.62s WALL (      30 calls)
                                        1.62s GPU  (      30 calls)
     addusd:skk   :      0.00s CPU      0.01s WALL (      90 calls)
                                        0.01s GPU  (      90 calls)

     Called by *egterg:
     cdiaghg      :      5.45s CPU      5.64s WALL (    6374 calls)
                                        5.57s GPU  (    6374 calls)
     cegterg:over :      1.24s CPU      1.29s WALL (    4874 calls)
     cegterg:upda :      0.94s CPU      0.95s WALL (    4874 calls)
     cegterg:last :      0.16s CPU      0.16s WALL (    2643 calls)
     h_psi        :      6.00s CPU      6.01s WALL (    6424 calls)
                                        5.93s GPU  (    6424 calls)
     s_psi        :      0.99s CPU      1.05s WALL (    6424 calls)
     g_psi        :      0.02s CPU      0.12s WALL (    4874 calls)
                                        0.06s GPU  (    4874 calls)

     Called by h_psi:
     h_psi:calbec :      0.19s CPU      0.36s WALL (    6424 calls)
                                        0.28s GPU  (    6424 calls)
     vloc_psi     :      4.21s CPU      4.11s WALL (    6424 calls)
                                        4.03s GPU  (    6424 calls)
     add_vuspsi   :      0.90s CPU      1.07s WALL (    6424 calls)
                                        0.99s GPU  (    6424 calls)

     General routines
     calbec       :      0.21s CPU      0.25s WALL (    8124 calls)
     fft          :      3.96s CPU      1.00s WALL (     788 calls)
                                        0.03s GPU  (     726 calls)
     ffts         :      4.85s CPU      0.87s WALL (    1131 calls)
                                        0.03s GPU  (    1069 calls)
     fftw         :      0.41s CPU      1.40s WALL (   21954 calls)
                                        1.15s GPU  (   21954 calls)
     interpolate  :      9.00s CPU      1.83s WALL (      62 calls)
 
     Parallel routines

     PAW routines
     PAW_pot      :    168.29s CPU     23.14s WALL (      31 calls)
     PAW_symme    :      0.01s CPU      0.01s WALL (      61 calls)
 
     PWSCF        :   3m25.21s CPU     52.03s WALL

 
   This run was terminated on:   5:38:43  12Jul2026            

=------------------------------------------------------------------------------=
   JOB DONE.
=------------------------------------------------------------------------------=
Warning: ieee_divide_by_zero is signaling
Warning: ieee_inexact is signaling
FORTRAN STOP
