
     Program PWSCF v.7.3.1 starts on 12Jul2026 at  5:40:19 

     This program is part of the open-source Quantum ESPRESSO suite
     for quantum simulation of materials; please cite
         "P. Giannozzi et al., J. Phys.:Condens. Matter 21 395502 (2009);
         "P. Giannozzi et al., J. Phys.:Condens. Matter 29 465901 (2017);
         "P. Giannozzi et al., J. Chem. Phys. 152 154105 (2020);
          URL http://www.quantum-espresso.org", 
     in publications or presentations arising from this work. More details at
     http://www.quantum-espresso.org/quote

     Parallel version (MPI & OpenMP), running on      14 processor cores
     Number of MPI processes:                 1
     Threads/MPI process:                    14

     MPI processes distributed on     1 nodes
     1356626 MiB available memory on the printing compute node when the environment starts
 
     Reading input from pw.in

     Current dimensions of program PWSCF are:
     Max number of different atomic species (ntypx) = 10
     Max number of k-points (npk) =  40000
     Max angular momentum in pseudopotentials (lmaxx) =  4
     file Co.pbe-spn-kjpaw_psl.0.3.1.UPF: wavefunction(s)  3P 3D renormalized
     file O.pbe-n-kjpaw_psl.1.0.0.UPF: wavefunction(s)  2S 2P renormalized
 
     Subspace diagonalization in iterative solution of the eigenvalue problem:
     a serial algorithm will be used

 
     G-vector sticks info
     --------------------
     sticks:   dense  smooth     PW     G-vecs:    dense   smooth      PW
     Sum         931     475    151                45403    15993    2651
 
     Using Slab Decomposition
 


     bravais-lattice index     =            4
     lattice parameter (alat)  =       5.3290  a.u.
     unit-cell volume          =     255.6161 (a.u.)^3
     number of atoms/cell      =            4
     number of atomic types    =            3
     number of electrons       =        32.10
     number of Kohn-Sham states=           24
     kinetic-energy cutoff     =      60.0000  Ry
     charge density cutoff     =     480.0000  Ry
     scf convergence threshold =      1.0E-07
     mixing beta               =       0.3000
     number of iterations used =            8  local-TF  mixing
     Exchange-correlation= SLA  PW   PBX  PBC
                           (   1   4   3   4   0   0   0)

     GPU acceleration is ACTIVE.  1 visible GPUs per MPI rank
     GPU-aware MPI enabled


     GPU used by master process:

        Device Number: 0
        Device name: NVIDIA A100-SXM4-80GB
        Compute capability : 80
        Ratio of single to double precision performance  : 2
        Memory Clock Rate (KHz): 1593000
        Memory Bus Width (bits): 5120
        Peak Memory Bandwidth (GB/s): ******

     celldm(1)=   5.329028  celldm(2)=   0.000000  celldm(3)=   1.950355
     celldm(4)=   0.000000  celldm(5)=   0.000000  celldm(6)=   0.000000

     crystal axes: (cart. coord. in units of alat)
               a(1) = (   1.000000   0.000000   0.000000 )  
               a(2) = (  -0.500000   0.866025   0.000000 )  
               a(3) = (   0.000000   0.000000   1.950355 )  

     reciprocal axes: (cart. coord. in units 2 pi/alat)
               b(1) = (  1.000000  0.577350 -0.000000 )  
               b(2) = (  0.000000  1.154701  0.000000 )  
               b(3) = (  0.000000 -0.000000  0.512727 )  


     PseudoPot. # 1 for Co read from file:
     ../../pseudo/Co.pbe-spn-kjpaw_psl.0.3.1.UPF
     MD5 check sum: 3c0a43779828c046024e4f3be63f8e67
     Pseudo is Projector augmented-wave + core cor, Zval = 17.0
     Generated using &quot;atomic&quot; code by A. Dal Corso  v.6.2.2
     Shape of augmentation charge: PSQ
     Using radial grid of 1193 points,  6 beta functions with: 
                l(1) =   0
                l(2) =   0
                l(3) =   1
                l(4) =   1
                l(5) =   2
                l(6) =   2
     Q(r) pseudized with 0 coefficients 


     PseudoPot. # 2 for O  read from file:
     ../../pseudo/O.pbe-n-kjpaw_psl.1.0.0.UPF
     MD5 check sum: e99d9cef9b487d1ca56f5b95ecd0fd7a
     Pseudo is Projector augmented-wave + core cor, Zval =  6.0
     Generated using &quot;atomic&quot; code by A. Dal Corso  v.6.3
     Shape of augmentation charge: PSQ
     Using radial grid of 1095 points,  4 beta functions with: 
                l(1) =   0
                l(2) =   0
                l(3) =   1
                l(4) =   1
     Q(r) pseudized with 0 coefficients 


     PseudoPot. # 3 for Li read from file:
     ../../pseudo/Li.pbe-s-kjpaw_psl.1.0.0.UPF
     MD5 check sum: 3974953fb0fea6c4f83fb01d64ffc134
     Pseudo is Projector augmented-wave, Zval =  3.0
     Generated using &quot;atomic&quot; code by A. Dal Corso  v.6.3
     Shape of augmentation charge: PSQ
     Using radial grid of 1017 points,  4 beta functions with: 
                l(1) =   0
                l(2) =   0
                l(3) =   1
                l(4) =   1
     Q(r) pseudized with 0 coefficients 


     atomic species   valence    mass     pseudopotential
     Co               17.00    58.93300     Co( 1.00)
     O                 6.00    15.99900     O ( 1.00)
     Li                3.00     6.94100     Li( 1.00)

     Starting magnetic structure 
     atomic species   magnetization
     Co              0.300
     O               0.000
     Li              0.000

     12 Sym. Ops., with inversion, found


                                    s                        frac. trans.

      isym =  1     identity                                     

 cryst.   s( 1) = (     1          0          0      )
                  (     0          1          0      )
                  (     0          0          1      )

 cart.    s( 1) = (  1.0000000  0.0000000  0.0000000 )
                  (  0.0000000  1.0000000  0.0000000 )
                  (  0.0000000  0.0000000  1.0000000 )


      isym =  2     180 deg rotation - cart. axis [1,0,0]        

 cryst.   s( 2) = (     1          0          0      )
                  (    -1         -1          0      )
                  (     0          0         -1      )

 cart.    s( 2) = (  1.0000000  0.0000000  0.0000000 )
                  (  0.0000000 -1.0000000  0.0000000 )
                  (  0.0000000  0.0000000 -1.0000000 )


      isym =  3     120 deg rotation - cryst. axis [0,0,1]       

 cryst.   s( 3) = (     0          1          0      )
                  (    -1         -1          0      )
                  (     0          0          1      )

 cart.    s( 3) = ( -0.5000000 -0.8660254  0.0000000 )
                  (  0.8660254 -0.5000000  0.0000000 )
                  (  0.0000000  0.0000000  1.0000000 )


      isym =  4     120 deg rotation - cryst. axis [0,0,-1]      

 cryst.   s( 4) = (    -1         -1          0      )
                  (     1          0          0      )
                  (     0          0          1      )

 cart.    s( 4) = ( -0.5000000  0.8660254  0.0000000 )
                  ( -0.8660254 -0.5000000  0.0000000 )
                  (  0.0000000  0.0000000  1.0000000 )


      isym =  5     180 deg rotation - cryst. axis [0,1,0]       

 cryst.   s( 5) = (    -1         -1          0      )
                  (     0          1          0      )
                  (     0          0         -1      )

 cart.    s( 5) = ( -0.5000000 -0.8660254  0.0000000 )
                  ( -0.8660254  0.5000000  0.0000000 )
                  (  0.0000000  0.0000000 -1.0000000 )


      isym =  6     180 deg rotation - cryst. axis [1,1,0]       

 cryst.   s( 6) = (     0          1          0      )
                  (     1          0          0      )
                  (     0          0         -1      )

 cart.    s( 6) = ( -0.5000000  0.8660254  0.0000000 )
                  (  0.8660254  0.5000000  0.0000000 )
                  (  0.0000000  0.0000000 -1.0000000 )


      isym =  7     inversion                                    

 cryst.   s( 7) = (    -1          0          0      )
                  (     0         -1          0      )
                  (     0          0         -1      )

 cart.    s( 7) = ( -1.0000000  0.0000000  0.0000000 )
                  (  0.0000000 -1.0000000  0.0000000 )
                  (  0.0000000  0.0000000 -1.0000000 )


      isym =  8     inv. 180 deg rotation - cart. axis [1,0,0]   

 cryst.   s( 8) = (    -1          0          0      )
                  (     1          1          0      )
                  (     0          0          1      )

 cart.    s( 8) = ( -1.0000000  0.0000000  0.0000000 )
                  (  0.0000000  1.0000000  0.0000000 )
                  (  0.0000000  0.0000000  1.0000000 )


      isym =  9     inv. 120 deg rotation - cryst. axis [0,0,1]  

 cryst.   s( 9) = (     0         -1          0      )
                  (     1          1          0      )
                  (     0          0         -1      )

 cart.    s( 9) = (  0.5000000  0.8660254  0.0000000 )
                  ( -0.8660254  0.5000000  0.0000000 )
                  (  0.0000000  0.0000000 -1.0000000 )


      isym = 10     inv. 120 deg rotation - cryst. axis [0,0,-1] 

 cryst.   s(10) = (     1          1          0      )
                  (    -1          0          0      )
                  (     0          0         -1      )

 cart.    s(10) = (  0.5000000 -0.8660254  0.0000000 )
                  (  0.8660254  0.5000000  0.0000000 )
                  (  0.0000000  0.0000000 -1.0000000 )


      isym = 11     inv. 180 deg rotation - cryst. axis [0,1,0]  

 cryst.   s(11) = (     1          1          0      )
                  (     0         -1          0      )
                  (     0          0          1      )

 cart.    s(11) = (  0.5000000  0.8660254  0.0000000 )
                  (  0.8660254 -0.5000000  0.0000000 )
                  (  0.0000000  0.0000000  1.0000000 )


      isym = 12     inv. 180 deg rotation - cryst. axis [1,1,0]  

 cryst.   s(12) = (     0         -1          0      )
                  (    -1          0          0      )
                  (     0          0          1      )

 cart.    s(12) = (  0.5000000 -0.8660254  0.0000000 )
                  ( -0.8660254 -0.5000000  0.0000000 )
                  (  0.0000000  0.0000000  1.0000000 )


     point group D_3d (-3m) 
     there are  6 classes
     the character table:

       E     2C3   3C2'  i     2S6   3s_d 
A_1g   1.00  1.00  1.00  1.00  1.00  1.00
A_2g   1.00  1.00 -1.00  1.00  1.00 -1.00
E_g    2.00 -1.00  0.00  2.00 -1.00  0.00
A_1u   1.00  1.00  1.00 -1.00 -1.00 -1.00
A_2u   1.00  1.00 -1.00 -1.00 -1.00  1.00
E_u    2.00 -1.00  0.00 -2.00  1.00  0.00

     the symmetry operations in each class and the name of the first element:

     E        1
          identity                                               
     2C3      3    4
          120 deg rotation - cryst. axis [0,0,1]                 
     3C2'     2    5    6
          180 deg rotation - cart. axis [1,0,0]                  
     i        7
          inversion                                              
     2S6      9   10
          inv. 120 deg rotation - cryst. axis [0,0,1]            
     3s_d     8   11   12
          inv. 180 deg rotation - cart. axis [1,0,0]             

   Cartesian axes

     site n.     atom                  positions (alat units)
         1        Co     tau(   1) = (   0.0000000   0.0000000   0.0000000  )
         2        O      tau(   2) = (  -0.0000000   0.5773503   0.3404255  )
         3        O      tau(   3) = (   0.5000000   0.2886751   1.6099291  )
         4        Li     tau(   4) = (   0.0000000   0.0000000   0.9751773  )

   Crystallographic axes

     site n.     atom                  positions (cryst. coord.)
         1        Co     tau(   1) = (  0.0000000  0.0000000  0.0000000  )
         2        O      tau(   2) = (  0.3333333  0.6666667  0.1745455  )
         3        O      tau(   3) = (  0.6666667  0.3333333  0.8254545  )
         4        Li     tau(   4) = (  0.0000000  0.0000000  0.5000000  )

     number of k points=    25  Marzari-Vanderbilt smearing, width (Ry)=  0.0200
                       cart. coord. in units 2pi/alat
        k(    1) = (   0.0000000   0.0000000   0.0000000), wk =   0.0052083
        k(    2) = (   0.0000000   0.0000000   0.1709091), wk =   0.0104167
        k(    3) = (   0.0000000   0.1443376   0.0000000), wk =   0.0312500
        k(    4) = (   0.0000000   0.1443376   0.1709091), wk =   0.0312500
        k(    5) = (   0.0000000   0.2886751   0.0000000), wk =   0.0312500
        k(    6) = (   0.0000000   0.2886751   0.1709091), wk =   0.0312500
        k(    7) = (   0.0000000   0.4330127   0.0000000), wk =   0.0312500
        k(    8) = (   0.0000000   0.4330127   0.1709091), wk =   0.0312500
        k(    9) = (   0.0000000  -0.5773503   0.0000000), wk =   0.0156250
        k(   10) = (   0.0000000  -0.5773503   0.1709091), wk =   0.0312500
        k(   11) = (   0.1250000   0.2165064   0.0000000), wk =   0.0312500
        k(   12) = (   0.1250000   0.2165064   0.1709091), wk =   0.0625000
        k(   13) = (   0.1250000   0.3608439   0.0000000), wk =   0.0625000
        k(   14) = (   0.1250000   0.3608439   0.1709091), wk =   0.0625000
        k(   15) = (   0.1250000   0.5051815   0.0000000), wk =   0.0625000
        k(   16) = (   0.1250000   0.5051815   0.1709091), wk =   0.0625000
        k(   17) = (   0.2500000   0.4330127   0.0000000), wk =   0.0312500
        k(   18) = (   0.2500000   0.4330127   0.1709091), wk =   0.0625000
        k(   19) = (   0.2500000   0.5773503   0.0000000), wk =   0.0312500
        k(   20) = (   0.2500000   0.5773503   0.1709091), wk =   0.0625000
        k(   21) = (   0.0000000   0.1443376  -0.1709091), wk =   0.0312500
        k(   22) = (   0.0000000   0.2886751  -0.1709091), wk =   0.0312500
        k(   23) = (   0.0000000   0.4330127  -0.1709091), wk =   0.0312500
        k(   24) = (  -0.1250000   0.3608439  -0.1709091), wk =   0.0625000
        k(   25) = (  -0.1250000   0.5051815  -0.1709091), wk =   0.0625000

                       cryst. coord.
        k(    1) = (   0.0000000   0.0000000   0.0000000), wk =   0.0052083
        k(    2) = (   0.0000000   0.0000000   0.3333333), wk =   0.0104167
        k(    3) = (   0.0000000   0.1250000   0.0000000), wk =   0.0312500
        k(    4) = (   0.0000000   0.1250000   0.3333333), wk =   0.0312500
        k(    5) = (   0.0000000   0.2500000   0.0000000), wk =   0.0312500
        k(    6) = (   0.0000000   0.2500000   0.3333333), wk =   0.0312500
        k(    7) = (   0.0000000   0.3750000   0.0000000), wk =   0.0312500
        k(    8) = (   0.0000000   0.3750000   0.3333333), wk =   0.0312500
        k(    9) = (   0.0000000  -0.5000000   0.0000000), wk =   0.0156250
        k(   10) = (   0.0000000  -0.5000000   0.3333333), wk =   0.0312500
        k(   11) = (   0.1250000   0.1250000   0.0000000), wk =   0.0312500
        k(   12) = (   0.1250000   0.1250000   0.3333333), wk =   0.0625000
        k(   13) = (   0.1250000   0.2500000   0.0000000), wk =   0.0625000
        k(   14) = (   0.1250000   0.2500000   0.3333333), wk =   0.0625000
        k(   15) = (   0.1250000   0.3750000   0.0000000), wk =   0.0625000
        k(   16) = (   0.1250000   0.3750000   0.3333333), wk =   0.0625000
        k(   17) = (   0.2500000   0.2500000   0.0000000), wk =   0.0312500
        k(   18) = (   0.2500000   0.2500000   0.3333333), wk =   0.0625000
        k(   19) = (   0.2500000   0.3750000   0.0000000), wk =   0.0312500
        k(   20) = (   0.2500000   0.3750000   0.3333333), wk =   0.0625000
        k(   21) = (   0.0000000   0.1250000  -0.3333333), wk =   0.0312500
        k(   22) = (   0.0000000   0.2500000  -0.3333333), wk =   0.0312500
        k(   23) = (   0.0000000   0.3750000  -0.3333333), wk =   0.0312500
        k(   24) = (  -0.1250000   0.3750000  -0.3333333), wk =   0.0625000
        k(   25) = (  -0.1250000   0.5000000  -0.3333333), wk =   0.0625000

     Dense  grid:    45403 G-vectors     FFT dimensions: (  40,  40,  75)

     Smooth grid:    15993 G-vectors     FFT dimensions: (  27,  27,  54)

     Dynamical RAM for                 wfc:       0.73 MB

     Dynamical RAM for     wfc (w. buffer):      37.47 MB

     Dynamical RAM for           str. fact:       2.08 MB

     Dynamical RAM for           local pot:       0.00 MB

     Dynamical RAM for          nlocal pot:       1.29 MB

     Dynamical RAM for                qrad:       5.27 MB

     Dynamical RAM for          rho,v,vnew:       9.65 MB

     Dynamical RAM for               rhoin:       3.22 MB

     Dynamical RAM for            rho*nmix:      22.17 MB

     Dynamical RAM for           G-vectors:       2.72 MB

     Dynamical RAM for          h,s,v(r/c):       0.11 MB

     Dynamical RAM for          <psi|beta>:       0.02 MB

     Dynamical RAM for                 psi:       1.47 MB

     Dynamical RAM for                hpsi:       1.47 MB

     Dynamical RAM for                spsi:       1.47 MB

     Dynamical RAM for      wfcinit/wfcrot:       1.48 MB

     Dynamical RAM for           addusdens:     130.94 MB

     Dynamical RAM for          addusforce:     132.34 MB

     Estimated static dynamical RAM per process >      69.95 MB

     Estimated max dynamical RAM per process >     224.46 MB

     Check: negative core charge=   -0.000009
     Generating pointlists ...
     new r_m :   0.2765 (alat units)  1.4733 (a.u.) for type    1
     new r_m :   0.2765 (alat units)  1.4733 (a.u.) for type    2
     new r_m :   0.3539 (alat units)  1.8862 (a.u.) for type    3

     Initial potential from superposition of free atoms

     starting charge      31.9951, renormalised to      32.1000
     Starting wfcs are   23 randomized atomic wfcs +    1 random wfcs
     Checking if some PAW data can be deallocated... 

     total cpu time spent up to now is        3.1 secs

     Self-consistent Calculation
[tb_dev] Currently allocated     6.36E-01 Mbytes, locked:    0 /   6
[tb_pin] Currently allocated     0.00E+00 Mbytes, locked:    0 /   0

     iteration #  1     ecut=    60.00 Ry     beta= 0.30
     Davidson diagonalization with overlap

---- Real-time Memory Report at c_bands before calling an iterative solver
           639 MiB given to the printing process from OS
             0 MiB allocation reported by mallinfo(arena+hblkhd)
       1354912 MiB available memory on the node where the printing process lives
     GPU memory used/free/total (MiB): 916 / 80234 / 81151
------------------
     ethr =  1.00E-02,  avg # of iterations =  7.9

     total cpu time spent up to now is        4.9 secs

     total energy              =    -474.87634566 Ry
     estimated scf accuracy    <       1.30870310 Ry

     total magnetization       =     3.90 Bohr mag/cell
     absolute magnetization    =     3.90 Bohr mag/cell
[tb_dev] Currently allocated     3.05E-05 Mbytes, locked:    0 /   2
[tb_pin] Currently allocated     0.00E+00 Mbytes, locked:    0 /   0

     iteration #  2     ecut=    60.00 Ry     beta= 0.30
     Davidson diagonalization with overlap

---- Real-time Memory Report at c_bands before calling an iterative solver
           682 MiB given to the printing process from OS
             0 MiB allocation reported by mallinfo(arena+hblkhd)
       1352849 MiB available memory on the node where the printing process lives
     GPU memory used/free/total (MiB): 928 / 80222 / 81151
------------------
     ethr =  4.08E-03,  avg # of iterations =  1.9

     total cpu time spent up to now is        6.0 secs

     total energy              =    -474.83489599 Ry
     estimated scf accuracy    <       0.43028203 Ry

     total magnetization       =     3.95 Bohr mag/cell
     absolute magnetization    =     3.95 Bohr mag/cell
[tb_dev] Currently allocated     3.05E-05 Mbytes, locked:    0 /   2
[tb_pin] Currently allocated     0.00E+00 Mbytes, locked:    0 /   0

     iteration #  3     ecut=    60.00 Ry     beta= 0.30
     Davidson diagonalization with overlap

---- Real-time Memory Report at c_bands before calling an iterative solver
           685 MiB given to the printing process from OS
             0 MiB allocation reported by mallinfo(arena+hblkhd)
       1351890 MiB available memory on the node where the printing process lives
     GPU memory used/free/total (MiB): 928 / 80222 / 81151
------------------
     ethr =  1.34E-03,  avg # of iterations =  2.6

     total cpu time spent up to now is        7.1 secs

     total energy              =    -475.01539136 Ry
     estimated scf accuracy    <       0.61393269 Ry

     total magnetization       =     1.75 Bohr mag/cell
     absolute magnetization    =     1.81 Bohr mag/cell
[tb_dev] Currently allocated     3.05E-05 Mbytes, locked:    0 /   2
[tb_pin] Currently allocated     0.00E+00 Mbytes, locked:    0 /   0

     iteration #  4     ecut=    60.00 Ry     beta= 0.30
     Davidson diagonalization with overlap

---- Real-time Memory Report at c_bands before calling an iterative solver
           686 MiB given to the printing process from OS
             0 MiB allocation reported by mallinfo(arena+hblkhd)
       1350801 MiB available memory on the node where the printing process lives
     GPU memory used/free/total (MiB): 928 / 80222 / 81151
------------------
     ethr =  1.34E-03,  avg # of iterations =  1.3

     total cpu time spent up to now is        8.1 secs

     total energy              =    -475.06952718 Ry
     estimated scf accuracy    <       0.62102106 Ry

     total magnetization       =     1.77 Bohr mag/cell
     absolute magnetization    =     1.83 Bohr mag/cell
[tb_dev] Currently allocated     3.05E-05 Mbytes, locked:    0 /   2
[tb_pin] Currently allocated     0.00E+00 Mbytes, locked:    0 /   0

     iteration #  5     ecut=    60.00 Ry     beta= 0.30
     Davidson diagonalization with overlap

---- Real-time Memory Report at c_bands before calling an iterative solver
           686 MiB given to the printing process from OS
             0 MiB allocation reported by mallinfo(arena+hblkhd)
       1350753 MiB available memory on the node where the printing process lives
     GPU memory used/free/total (MiB): 928 / 80222 / 81151
------------------
     ethr =  1.34E-03,  avg # of iterations =  1.7

     total cpu time spent up to now is        9.1 secs

     total energy              =    -475.12945767 Ry
     estimated scf accuracy    <       1.23419126 Ry

     total magnetization       =     1.25 Bohr mag/cell
     absolute magnetization    =     1.40 Bohr mag/cell
[tb_dev] Currently allocated     3.05E-05 Mbytes, locked:    0 /   2
[tb_pin] Currently allocated     0.00E+00 Mbytes, locked:    0 /   0

     iteration #  6     ecut=    60.00 Ry     beta= 0.30
     Davidson diagonalization with overlap

---- Real-time Memory Report at c_bands before calling an iterative solver
           688 MiB given to the printing process from OS
             0 MiB allocation reported by mallinfo(arena+hblkhd)
       1348934 MiB available memory on the node where the printing process lives
     GPU memory used/free/total (MiB): 928 / 80222 / 81151
------------------
     ethr =  1.34E-03,  avg # of iterations =  1.0

     total cpu time spent up to now is       10.1 secs

     total energy              =    -474.99490168 Ry
     estimated scf accuracy    <       1.57049902 Ry

     total magnetization       =     0.82 Bohr mag/cell
     absolute magnetization    =     1.16 Bohr mag/cell
[tb_dev] Currently allocated     3.05E-05 Mbytes, locked:    0 /   2
[tb_pin] Currently allocated     0.00E+00 Mbytes, locked:    0 /   0

     iteration #  7     ecut=    60.00 Ry     beta= 0.30
     Davidson diagonalization with overlap

---- Real-time Memory Report at c_bands before calling an iterative solver
           689 MiB given to the printing process from OS
             0 MiB allocation reported by mallinfo(arena+hblkhd)
       1347365 MiB available memory on the node where the printing process lives
     GPU memory used/free/total (MiB): 928 / 80222 / 81151
------------------
     ethr =  1.34E-03,  avg # of iterations =  1.1

     total cpu time spent up to now is       11.1 secs

     total energy              =    -475.04355332 Ry
     estimated scf accuracy    <       0.38845309 Ry

     total magnetization       =     1.08 Bohr mag/cell
     absolute magnetization    =     1.29 Bohr mag/cell
[tb_dev] Currently allocated     3.05E-05 Mbytes, locked:    0 /   2
[tb_pin] Currently allocated     0.00E+00 Mbytes, locked:    0 /   0

     iteration #  8     ecut=    60.00 Ry     beta= 0.30
     Davidson diagonalization with overlap

---- Real-time Memory Report at c_bands before calling an iterative solver
           690 MiB given to the printing process from OS
             0 MiB allocation reported by mallinfo(arena+hblkhd)
       1345499 MiB available memory on the node where the printing process lives
     GPU memory used/free/total (MiB): 928 / 80222 / 81151
------------------
     ethr =  1.21E-03,  avg # of iterations =  1.0

     total cpu time spent up to now is       12.0 secs

     total energy              =    -475.04751516 Ry
     estimated scf accuracy    <       0.35081028 Ry

     total magnetization       =     1.06 Bohr mag/cell
     absolute magnetization    =     1.27 Bohr mag/cell
[tb_dev] Currently allocated     3.05E-05 Mbytes, locked:    0 /   2
[tb_pin] Currently allocated     0.00E+00 Mbytes, locked:    0 /   0

     iteration #  9     ecut=    60.00 Ry     beta= 0.30
     Davidson diagonalization with overlap

---- Real-time Memory Report at c_bands before calling an iterative solver
           690 MiB given to the printing process from OS
             0 MiB allocation reported by mallinfo(arena+hblkhd)
       1343875 MiB available memory on the node where the printing process lives
     GPU memory used/free/total (MiB): 928 / 80222 / 81151
------------------
     ethr =  1.09E-03,  avg # of iterations =  1.0

     total cpu time spent up to now is       13.1 secs

     total energy              =    -475.05166412 Ry
     estimated scf accuracy    <       0.30897255 Ry

     total magnetization       =     1.02 Bohr mag/cell
     absolute magnetization    =     1.23 Bohr mag/cell
[tb_dev] Currently allocated     3.05E-05 Mbytes, locked:    0 /   2
[tb_pin] Currently allocated     0.00E+00 Mbytes, locked:    0 /   0

     iteration # 10     ecut=    60.00 Ry     beta= 0.30
     Davidson diagonalization with overlap

---- Real-time Memory Report at c_bands before calling an iterative solver
           690 MiB given to the printing process from OS
             0 MiB allocation reported by mallinfo(arena+hblkhd)
       1341534 MiB available memory on the node where the printing process lives
     GPU memory used/free/total (MiB): 928 / 80222 / 81151
------------------
     ethr =  9.63E-04,  avg # of iterations =  1.0

     total cpu time spent up to now is       14.1 secs

     total energy              =    -475.02683069 Ry
     estimated scf accuracy    <       0.24377834 Ry

     total magnetization       =     0.76 Bohr mag/cell
     absolute magnetization    =     1.03 Bohr mag/cell
[tb_dev] Currently allocated     3.05E-05 Mbytes, locked:    0 /   2
[tb_pin] Currently allocated     0.00E+00 Mbytes, locked:    0 /   0

     iteration # 11     ecut=    60.00 Ry     beta= 0.30
     Davidson diagonalization with overlap

---- Real-time Memory Report at c_bands before calling an iterative solver
           691 MiB given to the printing process from OS
             0 MiB allocation reported by mallinfo(arena+hblkhd)
       1360236 MiB available memory on the node where the printing process lives
     GPU memory used/free/total (MiB): 928 / 80222 / 81151
------------------
     ethr =  7.59E-04,  avg # of iterations =  1.7

     total cpu time spent up to now is       15.1 secs

     total energy              =    -475.11960290 Ry
     estimated scf accuracy    <       0.13523311 Ry

     total magnetization       =    -0.05 Bohr mag/cell
     absolute magnetization    =     0.30 Bohr mag/cell
[tb_dev] Currently allocated     3.05E-05 Mbytes, locked:    0 /   2
[tb_pin] Currently allocated     0.00E+00 Mbytes, locked:    0 /   0

     iteration # 12     ecut=    60.00 Ry     beta= 0.30
     Davidson diagonalization with overlap

---- Real-time Memory Report at c_bands before calling an iterative solver
           692 MiB given to the printing process from OS
             0 MiB allocation reported by mallinfo(arena+hblkhd)
       1359590 MiB available memory on the node where the printing process lives
     GPU memory used/free/total (MiB): 928 / 80222 / 81151
------------------
     ethr =  4.21E-04,  avg # of iterations =  1.6

     total cpu time spent up to now is       16.2 secs

     total energy              =    -475.04361111 Ry
     estimated scf accuracy    <       0.16347376 Ry

     total magnetization       =    -0.02 Bohr mag/cell
     absolute magnetization    =     0.29 Bohr mag/cell
[tb_dev] Currently allocated     3.05E-05 Mbytes, locked:    0 /   2
[tb_pin] Currently allocated     0.00E+00 Mbytes, locked:    0 /   0

     iteration # 13     ecut=    60.00 Ry     beta= 0.30
     Davidson diagonalization with overlap

---- Real-time Memory Report at c_bands before calling an iterative solver
           692 MiB given to the printing process from OS
             0 MiB allocation reported by mallinfo(arena+hblkhd)
       1358712 MiB available memory on the node where the printing process lives
     GPU memory used/free/total (MiB): 928 / 80222 / 81151
------------------
     ethr =  4.21E-04,  avg # of iterations =  1.1

     total cpu time spent up to now is       17.2 secs

     total energy              =    -474.78220749 Ry
     estimated scf accuracy    <       0.08695520 Ry

     total magnetization       =     0.22 Bohr mag/cell
     absolute magnetization    =     0.55 Bohr mag/cell
[tb_dev] Currently allocated     3.05E-05 Mbytes, locked:    0 /   2
[tb_pin] Currently allocated     0.00E+00 Mbytes, locked:    0 /   0

     iteration # 14     ecut=    60.00 Ry     beta= 0.30
     Davidson diagonalization with overlap

---- Real-time Memory Report at c_bands before calling an iterative solver
           692 MiB given to the printing process from OS
             0 MiB allocation reported by mallinfo(arena+hblkhd)
       1357895 MiB available memory on the node where the printing process lives
     GPU memory used/free/total (MiB): 928 / 80222 / 81151
------------------
     ethr =  2.71E-04,  avg # of iterations =  2.6

     total cpu time spent up to now is       18.3 secs

     total energy              =    -474.77122860 Ry
     estimated scf accuracy    <       0.27632156 Ry

     total magnetization       =     3.94 Bohr mag/cell
     absolute magnetization    =     3.96 Bohr mag/cell
[tb_dev] Currently allocated     3.05E-05 Mbytes, locked:    0 /   2
[tb_pin] Currently allocated     0.00E+00 Mbytes, locked:    0 /   0

     iteration # 15     ecut=    60.00 Ry     beta= 0.30
     Davidson diagonalization with overlap

---- Real-time Memory Report at c_bands before calling an iterative solver
           692 MiB given to the printing process from OS
             0 MiB allocation reported by mallinfo(arena+hblkhd)
       1356895 MiB available memory on the node where the printing process lives
     GPU memory used/free/total (MiB): 928 / 80222 / 81151
------------------
     ethr =  2.71E-04,  avg # of iterations =  2.9

     total cpu time spent up to now is       19.5 secs

     total energy              =    -475.09492403 Ry
     estimated scf accuracy    <       0.12251991 Ry

     total magnetization       =    -0.01 Bohr mag/cell
     absolute magnetization    =     0.12 Bohr mag/cell
[tb_dev] Currently allocated     3.05E-05 Mbytes, locked:    0 /   2
[tb_pin] Currently allocated     0.00E+00 Mbytes, locked:    0 /   0

     iteration # 16     ecut=    60.00 Ry     beta= 0.30
     Davidson diagonalization with overlap

---- Real-time Memory Report at c_bands before calling an iterative solver
           692 MiB given to the printing process from OS
             0 MiB allocation reported by mallinfo(arena+hblkhd)
       1355927 MiB available memory on the node where the printing process lives
     GPU memory used/free/total (MiB): 928 / 80222 / 81151
------------------
     ethr =  2.71E-04,  avg # of iterations =  1.0

     total cpu time spent up to now is       20.5 secs

     total energy              =    -475.09620503 Ry
     estimated scf accuracy    <       0.01298303 Ry

     total magnetization       =     0.09 Bohr mag/cell
     absolute magnetization    =     0.18 Bohr mag/cell
[tb_dev] Currently allocated     3.05E-05 Mbytes, locked:    0 /   2
[tb_pin] Currently allocated     0.00E+00 Mbytes, locked:    0 /   0

     iteration # 17     ecut=    60.00 Ry     beta= 0.30
     Davidson diagonalization with overlap

---- Real-time Memory Report at c_bands before calling an iterative solver
           692 MiB given to the printing process from OS
             0 MiB allocation reported by mallinfo(arena+hblkhd)
       1355030 MiB available memory on the node where the printing process lives
     GPU memory used/free/total (MiB): 928 / 80222 / 81151
------------------
     ethr =  4.04E-05,  avg # of iterations =  4.1

     total cpu time spent up to now is       21.9 secs

     total energy              =    -475.10268816 Ry
     estimated scf accuracy    <       0.02227444 Ry

     total magnetization       =     0.10 Bohr mag/cell
     absolute magnetization    =     0.26 Bohr mag/cell
[tb_dev] Currently allocated     3.05E-05 Mbytes, locked:    0 /   2
[tb_pin] Currently allocated     0.00E+00 Mbytes, locked:    0 /   0

     iteration # 18     ecut=    60.00 Ry     beta= 0.30
     Davidson diagonalization with overlap

---- Real-time Memory Report at c_bands before calling an iterative solver
           692 MiB given to the printing process from OS
             0 MiB allocation reported by mallinfo(arena+hblkhd)
       1354367 MiB available memory on the node where the printing process lives
     GPU memory used/free/total (MiB): 928 / 80222 / 81151
------------------
     ethr =  4.04E-05,  avg # of iterations =  1.1

     total cpu time spent up to now is       22.8 secs

     total energy              =    -475.10497320 Ry
     estimated scf accuracy    <       0.00845545 Ry

     total magnetization       =     0.10 Bohr mag/cell
     absolute magnetization    =     0.20 Bohr mag/cell
[tb_dev] Currently allocated     3.05E-05 Mbytes, locked:    0 /   2
[tb_pin] Currently allocated     0.00E+00 Mbytes, locked:    0 /   0

     iteration # 19     ecut=    60.00 Ry     beta= 0.30
     Davidson diagonalization with overlap

---- Real-time Memory Report at c_bands before calling an iterative solver
           692 MiB given to the printing process from OS
             0 MiB allocation reported by mallinfo(arena+hblkhd)
       1353305 MiB available memory on the node where the printing process lives
     GPU memory used/free/total (MiB): 928 / 80222 / 81151
------------------
     ethr =  2.63E-05,  avg # of iterations =  1.4

     total cpu time spent up to now is       23.8 secs

     total energy              =    -475.10517645 Ry
     estimated scf accuracy    <       0.00140685 Ry

     total magnetization       =     0.07 Bohr mag/cell
     absolute magnetization    =     0.13 Bohr mag/cell
[tb_dev] Currently allocated     3.05E-05 Mbytes, locked:    0 /   2
[tb_pin] Currently allocated     0.00E+00 Mbytes, locked:    0 /   0

     iteration # 20     ecut=    60.00 Ry     beta= 0.30
     Davidson diagonalization with overlap

---- Real-time Memory Report at c_bands before calling an iterative solver
           692 MiB given to the printing process from OS
             0 MiB allocation reported by mallinfo(arena+hblkhd)
       1352308 MiB available memory on the node where the printing process lives
     GPU memory used/free/total (MiB): 928 / 80222 / 81151
------------------
     ethr =  4.38E-06,  avg # of iterations =  4.5

     total cpu time spent up to now is       25.2 secs

     total energy              =    -475.10552638 Ry
     estimated scf accuracy    <       0.00313223 Ry

     total magnetization       =     0.08 Bohr mag/cell
     absolute magnetization    =     0.15 Bohr mag/cell
[tb_dev] Currently allocated     3.05E-05 Mbytes, locked:    0 /   2
[tb_pin] Currently allocated     0.00E+00 Mbytes, locked:    0 /   0

     iteration # 21     ecut=    60.00 Ry     beta= 0.30
     Davidson diagonalization with overlap

---- Real-time Memory Report at c_bands before calling an iterative solver
           692 MiB given to the printing process from OS
             0 MiB allocation reported by mallinfo(arena+hblkhd)
       1351639 MiB available memory on the node where the printing process lives
     GPU memory used/free/total (MiB): 928 / 80222 / 81151
------------------
     ethr =  4.38E-06,  avg # of iterations =  2.2

     total cpu time spent up to now is       26.3 secs

     total energy              =    -475.10609157 Ry
     estimated scf accuracy    <       0.00019031 Ry

     total magnetization       =     0.01 Bohr mag/cell
     absolute magnetization    =     0.04 Bohr mag/cell
[tb_dev] Currently allocated     3.05E-05 Mbytes, locked:    0 /   2
[tb_pin] Currently allocated     0.00E+00 Mbytes, locked:    0 /   0

     iteration # 22     ecut=    60.00 Ry     beta= 0.30
     Davidson diagonalization with overlap

---- Real-time Memory Report at c_bands before calling an iterative solver
           692 MiB given to the printing process from OS
             0 MiB allocation reported by mallinfo(arena+hblkhd)
       1350410 MiB available memory on the node where the printing process lives
     GPU memory used/free/total (MiB): 928 / 80222 / 81151
------------------
     ethr =  5.93E-07,  avg # of iterations =  6.5

     total cpu time spent up to now is       27.8 secs

     total energy              =    -475.10629182 Ry
     estimated scf accuracy    <       0.00062352 Ry

     total magnetization       =    -0.02 Bohr mag/cell
     absolute magnetization    =     0.03 Bohr mag/cell
[tb_dev] Currently allocated     3.05E-05 Mbytes, locked:    0 /   2
[tb_pin] Currently allocated     0.00E+00 Mbytes, locked:    0 /   0

     iteration # 23     ecut=    60.00 Ry     beta= 0.30
     Davidson diagonalization with overlap

---- Real-time Memory Report at c_bands before calling an iterative solver
           692 MiB given to the printing process from OS
             0 MiB allocation reported by mallinfo(arena+hblkhd)
       1348096 MiB available memory on the node where the printing process lives
     GPU memory used/free/total (MiB): 928 / 80222 / 81151
------------------
     ethr =  5.93E-07,  avg # of iterations =  1.2

     total cpu time spent up to now is       28.8 secs

     total energy              =    -475.10632848 Ry
     estimated scf accuracy    <       0.00055939 Ry

     total magnetization       =    -0.02 Bohr mag/cell
     absolute magnetization    =     0.03 Bohr mag/cell
[tb_dev] Currently allocated     3.05E-05 Mbytes, locked:    0 /   2
[tb_pin] Currently allocated     0.00E+00 Mbytes, locked:    0 /   0

     iteration # 24     ecut=    60.00 Ry     beta= 0.30
     Davidson diagonalization with overlap

---- Real-time Memory Report at c_bands before calling an iterative solver
           692 MiB given to the printing process from OS
             0 MiB allocation reported by mallinfo(arena+hblkhd)
       1346525 MiB available memory on the node where the printing process lives
     GPU memory used/free/total (MiB): 928 / 80222 / 81151
------------------
     ethr =  5.93E-07,  avg # of iterations =  1.7

     total cpu time spent up to now is       29.8 secs

     total energy              =    -475.10643342 Ry
     estimated scf accuracy    <       0.00000808 Ry

     total magnetization       =     0.01 Bohr mag/cell
     absolute magnetization    =     0.02 Bohr mag/cell
[tb_dev] Currently allocated     3.05E-05 Mbytes, locked:    0 /   2
[tb_pin] Currently allocated     0.00E+00 Mbytes, locked:    0 /   0

     iteration # 25     ecut=    60.00 Ry     beta= 0.30
     Davidson diagonalization with overlap

---- Real-time Memory Report at c_bands before calling an iterative solver
           692 MiB given to the printing process from OS
             0 MiB allocation reported by mallinfo(arena+hblkhd)
       1344978 MiB available memory on the node where the printing process lives
     GPU memory used/free/total (MiB): 928 / 80222 / 81151
------------------
     ethr =  2.52E-08,  avg # of iterations =  5.0

     total cpu time spent up to now is       31.3 secs

     total energy              =    -475.10644453 Ry
     estimated scf accuracy    <       0.00000220 Ry

     total magnetization       =     0.00 Bohr mag/cell
     absolute magnetization    =     0.01 Bohr mag/cell
[tb_dev] Currently allocated     3.05E-05 Mbytes, locked:    0 /   2
[tb_pin] Currently allocated     0.00E+00 Mbytes, locked:    0 /   0

     iteration # 26     ecut=    60.00 Ry     beta= 0.30
     Davidson diagonalization with overlap

---- Real-time Memory Report at c_bands before calling an iterative solver
           692 MiB given to the printing process from OS
             0 MiB allocation reported by mallinfo(arena+hblkhd)
       1360219 MiB available memory on the node where the printing process lives
     GPU memory used/free/total (MiB): 928 / 80222 / 81151
------------------
     ethr =  6.85E-09,  avg # of iterations =  2.1

     total cpu time spent up to now is       32.4 secs

     total energy              =    -475.10644530 Ry
     estimated scf accuracy    <       0.00000176 Ry

     total magnetization       =     0.00 Bohr mag/cell
     absolute magnetization    =     0.01 Bohr mag/cell
[tb_dev] Currently allocated     3.05E-05 Mbytes, locked:    0 /   2
[tb_pin] Currently allocated     0.00E+00 Mbytes, locked:    0 /   0

     iteration # 27     ecut=    60.00 Ry     beta= 0.30
     Davidson diagonalization with overlap

---- Real-time Memory Report at c_bands before calling an iterative solver
           692 MiB given to the printing process from OS
             0 MiB allocation reported by mallinfo(arena+hblkhd)
       1359930 MiB available memory on the node where the printing process lives
     GPU memory used/free/total (MiB): 928 / 80222 / 81151
------------------
     ethr =  5.50E-09,  avg # of iterations =  2.4

     total cpu time spent up to now is       33.5 secs

     total energy              =    -475.10644637 Ry
     estimated scf accuracy    <       0.00000018 Ry

     total magnetization       =     0.00 Bohr mag/cell
     absolute magnetization    =     0.00 Bohr mag/cell
[tb_dev] Currently allocated     3.05E-05 Mbytes, locked:    0 /   2
[tb_pin] Currently allocated     0.00E+00 Mbytes, locked:    0 /   0

     iteration # 28     ecut=    60.00 Ry     beta= 0.30
     Davidson diagonalization with overlap

---- Real-time Memory Report at c_bands before calling an iterative solver
           692 MiB given to the printing process from OS
             0 MiB allocation reported by mallinfo(arena+hblkhd)
       1359029 MiB available memory on the node where the printing process lives
     GPU memory used/free/total (MiB): 928 / 80222 / 81151
------------------
     ethr =  5.73E-10,  avg # of iterations =  5.9
 
     Magnetic moment per site  (integrated on atomic sphere of radius R)
     atom   1 (R=0.276)  charge= 14.1078  magn=  0.0015
     atom   2 (R=0.276)  charge=  5.2313  magn= -0.0004
     atom   3 (R=0.276)  charge=  5.2313  magn= -0.0004
     atom   4 (R=0.354)  charge=  2.2082  magn=  0.0001

     total cpu time spent up to now is       35.0 secs

     End of self-consistent calculation

 ------ SPIN UP ------------


          k = 0.0000 0.0000 0.0000 (  2029 PWs)   bands (ev):

   -85.6708 -48.9534 -48.9534 -48.8885 -37.7063 -11.0655  -9.1772   2.2336
     3.7729   3.7729   6.1385   7.1091   7.1091   8.2164   8.2164   9.1201
    11.8103  11.8103  11.9328  16.4031  19.1980  22.4862  24.7505  24.7505

     occupation numbers 
     1.0000   1.0000   1.0000   1.0000   1.0000   1.0000   1.0000   1.0000
     1.0000   1.0000   1.0000   1.0000   1.0000   1.0000   1.0000   1.0000
     0.0000   0.0000   0.0000   0.0000   0.0000   0.0000   0.0000   0.0000

          k = 0.0000 0.0000 0.1709 (  2024 PWs)   bands (ev):

   -85.6708 -48.9534 -48.9534 -48.8885 -37.7062 -11.0549  -9.1992   2.5077
     3.7743   3.7743   5.4783   7.1052   7.1052   8.2149   8.2149   9.3608
    11.8176  11.8176  12.7312  15.5663  19.0043  22.8590  24.9198  24.9198

     occupation numbers 
     1.0000   1.0000   1.0000   1.0000   1.0000   1.0000   1.0000   1.0000
     1.0000   1.0000   1.0000   1.0000   1.0000   1.0000   1.0000   1.0000
     0.0000   0.0000   0.0000   0.0000   0.0000   0.0000   0.0000   0.0000

          k = 0.0000 0.1443 0.0000 (  2019 PWs)   bands (ev):

   -85.6697 -48.9648 -48.9561 -48.8867 -37.7021 -10.8749  -9.1585   2.4628
     3.4039   3.8734   6.0324   6.5810   6.6124   8.4465   8.6255   9.1458
    11.2512  11.7082  12.3451  16.8988  19.5904  22.9091  23.4660  24.1455

     occupation numbers 
     1.0000   1.0000   1.0000   1.0000   1.0000   1.0000   1.0000   1.0000
     1.0000   1.0000   1.0000   1.0000   1.0000   1.0000   1.0000   1.0000
     0.0000   0.0000   0.0000   0.0000   0.0000   0.0000   0.0000   0.0000

          k = 0.0000 0.1443 0.1709 (  2019 PWs)   bands (ev):

   -85.6697 -48.9649 -48.9561 -48.8867 -37.7021 -10.8637  -9.1798   2.7196
     3.3444   3.8721   5.9809   6.0890   6.6160   8.4261   8.6261   9.4123
    11.1486  11.7027  13.1385  16.1109  19.6449  22.8052  23.5950  24.1362

     occupation numbers 
     1.0000   1.0000   1.0000   1.0000   1.0000   1.0000   1.0000   1.0000
     1.0000   1.0000   1.0000   1.0000   1.0000   1.0000   1.0000   1.0000
     0.0000   0.0000   0.0000   0.0000   0.0000   0.0000   0.0000   0.0000

          k = 0.0000 0.2887 0.0000 (  2021 PWs)   bands (ev):

   -85.6670 -48.9928 -48.9627 -48.8824 -37.6921 -10.3729  -9.1265   2.8696
     3.0993   4.1055   4.3850   5.9636   6.7858   8.5065   8.9736   9.2041
    10.6413  11.5907  13.0150  17.5440  20.3575  21.0244  22.9255  23.6826

     occupation numbers 
     1.0000   1.0000   1.0000   1.0000   1.0000   1.0000   1.0000   1.0000
     1.0000   1.0000   1.0000   1.0000   1.0000   1.0000   1.0000   1.0000
     0.1249   0.0000   0.0000   0.0000   0.0000   0.0000   0.0000   0.0000

          k = 0.0000 0.2887 0.1709 (  2008 PWs)   bands (ev):

   -85.6670 -48.9928 -48.9626 -48.8823 -37.6920 -10.3617  -9.1435   2.7248
     3.3337   4.0985   4.4144   5.9770   6.6052   8.4193   8.9796   9.3988
    10.3676  11.5663  13.6084  17.1738  20.2395  21.0858  22.9583  23.1718

     occupation numbers 
     1.0000   1.0000   1.0000   1.0000   1.0000   1.0000   1.0000   1.0000
     1.0000   1.0000   1.0000   1.0000   1.0000   1.0000   1.0000   1.0000
     0.7468   0.0000   0.0000   0.0000   0.0000   0.0000   0.0000   0.0000

          k = 0.0000 0.4330 0.0000 (  2014 PWs)   bands (ev):

   -85.6643 -49.0208 -48.9693 -48.8779 -37.6820  -9.7666  -9.1460   2.3251
     3.2764   4.1131   4.2788   5.6301   5.9896   8.4172   8.9266   9.1758
    10.9574  11.6465  13.4778  17.6357  18.8185  21.0324  21.9707  23.2407

     occupation numbers 
     1.0000   1.0000   1.0000   1.0000   1.0000   1.0000   1.0000   1.0000
     1.0000   1.0000   1.0000   1.0000   1.0000   1.0000   1.0000   1.0000
     0.0016   0.0000   0.0000   0.0000   0.0000   0.0000   0.0000   0.0000

          k = 0.0000 0.4330 0.1709 (  1996 PWs)   bands (ev):

   -85.6643 -49.0207 -48.9691 -48.8779 -37.6819  -9.7606  -9.1521   2.1941
     3.2464   4.2518   4.2622   5.6587   6.2411   8.2936   8.9294   9.2104
    10.6379  11.6087  13.7239  18.0810  18.1682  21.4122  22.1001  22.6520

     occupation numbers 
     1.0000   1.0000   1.0000   1.0000   1.0000   1.0000   1.0000   1.0000
     1.0000   1.0000   1.0000   1.0000   1.0000   1.0000   1.0000   1.0000
     0.1291   0.0000   0.0000   0.0000   0.0000   0.0000   0.0000   0.0000

          k = 0.0000-0.5774 0.0000 (  1982 PWs)   bands (ev):

   -85.6632 -49.0321 -48.9719 -48.8760 -37.6776  -9.3393  -9.3094   1.8889
     3.3201   4.3096   4.6496   5.2790   5.5805   8.3143   8.8313   9.1356
    11.2981  11.7066  13.5991  17.4729  18.1907  20.9902  21.6258  23.0891

     occupation numbers 
     1.0000   1.0000   1.0000   1.0000   1.0000   1.0000   1.0000   1.0000
     1.0000   1.0000   1.0000   1.0000   1.0000   1.0000   1.0000   1.0000
     0.0000   0.0000   0.0000   0.0000   0.0000   0.0000   0.0000   0.0000

          k = 0.0000-0.5774 0.1709 (  2004 PWs)   bands (ev):

   -85.6632 -49.0324 -48.9719 -48.8761 -37.6777  -9.3321  -9.3155   1.7928
     3.2833   4.2925   4.5599   5.6098   5.7262   8.2148   8.8309   9.1064
    11.1468  11.6694  13.5943  17.1305  19.1302  20.5133  21.7943  23.1190

     occupation numbers 
     1.0000   1.0000   1.0000   1.0000   1.0000   1.0000   1.0000   1.0000
     1.0000   1.0000   1.0000   1.0000   1.0000   1.0000   1.0000   1.0000
     0.0000   0.0000   0.0000   0.0000   0.0000   0.0000   0.0000   0.0000

          k = 0.1250 0.2165 0.0000 (  2017 PWs)   bands (ev):

   -85.6678 -48.9833 -48.9621 -48.8836 -37.6950 -10.5283  -9.1324   2.8823
     3.0541   3.9696   4.9739   5.8714   6.8778   8.6014   8.9166   9.1857
    10.9511  11.2175  12.9620  17.4512  20.2353  21.8551  22.5860  23.6737

     occupation numbers 
     1.0000   1.0000   1.0000   1.0000   1.0000   1.0000   1.0000   1.0000
     1.0000   1.0000   1.0000   1.0000   1.0000   1.0000   1.0000   1.0000
     0.0018   0.0000   0.0000   0.0000   0.0000   0.0000   0.0000   0.0000

          k = 0.1250 0.2165 0.1709 (  2012 PWs)   bands (ev):

   -85.6678 -48.9833 -48.9620 -48.8836 -37.6949 -10.5158  -9.1529   2.8981
     3.1918   3.9716   4.9748   5.8599   6.5071   8.6142   8.8593   9.3827
    10.7595  11.3999  13.3909  17.0717  20.3090  21.5754  22.8189  23.2714

     occupation numbers 
     1.0000   1.0000   1.0000   1.0000   1.0000   1.0000   1.0000   1.0000
     1.0000   1.0000   1.0000   1.0000   1.0000   1.0000   1.0000   1.0000
     0.0329   0.0000   0.0000   0.0000   0.0000   0.0000   0.0000   0.0000

          k = 0.1250 0.3608 0.0000 (  2004 PWs)   bands (ev):

   -85.6651 -49.0084 -48.9714 -48.8792 -37.6849  -9.9735  -9.1185   2.7671
     3.2889   3.8441   4.3004   5.2894   6.4799   8.5887   9.0586   9.1859
    10.7756  11.2263  13.5805  17.7518  19.4763  20.8109  22.0883  23.9029

     occupation numbers 
     1.0000   1.0000   1.0000   1.0000   1.0000   1.0000   1.0000   1.0000
     1.0000   1.0000   1.0000   1.0000   1.0000   1.0000   1.0000   1.0000
     0.0267   0.0000   0.0000   0.0000   0.0000   0.0000   0.0000   0.0000

          k = 0.1250 0.3608 0.1709 (  2005 PWs)   bands (ev):

   -85.6651 -49.0084 -48.9714 -48.8792 -37.6848  -9.9627  -9.1322   2.6179
     3.2847   4.0733   4.2980   5.3041   6.4718   8.5474   9.0060   9.2310
    10.6023  11.3210  13.7121  18.0050  18.9371  20.7283  22.5996  23.2623

     occupation numbers 
     1.0000   1.0000   1.0000   1.0000   1.0000   1.0000   1.0000   1.0000
     1.0000   1.0000   1.0000   1.0000   1.0000   1.0000   1.0000   1.0000
     0.1795   0.0000   0.0000   0.0000   0.0000   0.0000   0.0000   0.0000

          k = 0.1250 0.5052 0.0000 (  1995 PWs)   bands (ev):

   -85.6632 -49.0259 -48.9783 -48.8760 -37.6777  -9.4633  -9.1880   2.2026
     3.2057   4.3127   4.4636   5.0815   5.6040   8.4851   8.8929   9.1939
    11.0820  11.3443  13.9816  17.2235  18.5953  20.6445  22.1653  23.3022

     occupation numbers 
     1.0000   1.0000   1.0000   1.0000   1.0000   1.0000   1.0000   1.0000
     1.0000   1.0000   1.0000   1.0000   1.0000   1.0000   1.0000   1.0000
     0.0001   0.0000   0.0000   0.0000   0.0000   0.0000   0.0000   0.0000

          k = 0.1250 0.5052 0.1709 (  1996 PWs)   bands (ev):

   -85.6632 -49.0260 -48.9782 -48.8761 -37.6777  -9.4608  -9.1893   2.0982
     3.1473   4.3251   4.4704   5.1373   5.8945   8.3923   8.9068   9.1506
    10.9928  11.4413  13.8112  17.1010  18.9023  20.5064  22.1243  23.2371

     occupation numbers 
     1.0000   1.0000   1.0000   1.0000   1.0000   1.0000   1.0000   1.0000
     1.0000   1.0000   1.0000   1.0000   1.0000   1.0000   1.0000   1.0000
     0.0008   0.0000   0.0000   0.0000   0.0000   0.0000   0.0000   0.0000

          k = 0.2500 0.4330 0.0000 (  2011 PWs)   bands (ev):

   -85.6632 -49.0173 -48.9872 -48.8760 -37.6778  -9.5209  -9.1329   2.8281
     2.9211   4.0276   4.3826   4.7456   5.8686   8.5973   8.9443   9.3003
    10.7062  11.1877  14.3052  16.9776  18.9903  20.3824  22.7809  23.8586

     occupation numbers 
     1.0000   1.0000   1.0000   1.0000   1.0000   1.0000   1.0000   1.0000
     1.0000   1.0000   1.0000   1.0000   1.0000   1.0000   1.0000   1.0000
     0.0627   0.0000   0.0000   0.0000   0.0000   0.0000   0.0000   0.0000

          k = 0.2500 0.4330 0.1709 (  2010 PWs)   bands (ev):

   -85.6632 -49.0173 -48.9872 -48.8761 -37.6777  -9.5106  -9.1434   2.7666
     2.7982   4.0109   4.6244   4.7729   5.8792   8.6060   8.9544   9.1633
    10.9490  11.2377  13.9491  16.9216  19.2620  20.1202  22.4666  23.8384

     occupation numbers 
     1.0000   1.0000   1.0000   1.0000   1.0000   1.0000   1.0000   1.0000
     1.0000   1.0000   1.0000   1.0000   1.0000   1.0000   1.0000   1.0000
     0.0018   0.0000   0.0000   0.0000   0.0000   0.0000   0.0000   0.0000

          k = 0.2500 0.5774 0.0000 (  1978 PWs)   bands (ev):

   -85.6624 -49.0177 -48.9965 -48.8745 -37.6747  -9.2580  -9.2029   2.6341
     3.0718   3.7329   4.6418   4.9550   5.2595   8.4549   9.0698   9.2685
    10.8559  11.0311  14.8331  16.1286  19.1499  20.1963  23.3193  23.7276

     occupation numbers 
     1.0000   1.0000   1.0000   1.0000   1.0000   1.0000   1.0000   1.0000
     1.0000   1.0000   1.0000   1.0000   1.0000   1.0000   1.0000   1.0000
     0.0085   0.0004   0.0000   0.0000   0.0000   0.0000   0.0000   0.0000

          k = 0.2500 0.5774 0.1709 (  2008 PWs)   bands (ev):

   -85.6624 -49.0178 -48.9966 -48.8749 -37.6748  -9.2520  -9.2077   2.5502
     2.9979   3.6816   4.7415   5.0213   5.3873   8.4337   9.0679   9.1812
    11.0636  11.2242  14.4071  15.8271  19.5053  20.0251  22.6957  23.8628

     occupation numbers 
     1.0000   1.0000   1.0000   1.0000   1.0000   1.0000   1.0000   1.0000
     1.0000   1.0000   1.0000   1.0000   1.0000   1.0000   1.0000   1.0000
     0.0002   0.0000   0.0000   0.0000   0.0000   0.0000   0.0000   0.0000

          k = 0.0000 0.1443-0.1709 (  2019 PWs)   bands (ev):

   -85.6697 -48.9649 -48.9561 -48.8867 -37.7021 -10.8634  -9.1805   2.7330
     3.3415   3.8769   5.8846   6.1662   6.6018   8.4337   8.6263   9.3930
    11.2461  11.7201  12.9916  16.2115  19.5767  22.8626  23.5937  24.2331

     occupation numbers 
     1.0000   1.0000   1.0000   1.0000   1.0000   1.0000   1.0000   1.0000
     1.0000   1.0000   1.0000   1.0000   1.0000   1.0000   1.0000   1.0000
     0.0000   0.0000   0.0000   0.0000   0.0000   0.0000   0.0000   0.0000

          k = 0.0000 0.2887-0.1709 (  2008 PWs)   bands (ev):

   -85.6670 -48.9928 -48.9626 -48.8823 -37.6920 -10.3587  -9.1484   2.8043
     3.3133   4.1094   4.4132   5.9549   6.4133   8.4887   8.9779   9.2970
    10.7210  11.5915  13.2318  17.6042  19.7301  21.8496  22.9768  23.0258

     occupation numbers 
     1.0000   1.0000   1.0000   1.0000   1.0000   1.0000   1.0000   1.0000
     1.0000   1.0000   1.0000   1.0000   1.0000   1.0000   1.0000   1.0000
     0.0529   0.0000   0.0000   0.0000   0.0000   0.0000   0.0000   0.0000

          k = 0.0000 0.4330-0.1709 (  1996 PWs)   bands (ev):

   -85.6643 -49.0207 -48.9691 -48.8779 -37.6819  -9.7506  -9.1649   2.2460
     3.2272   4.2737   4.3914   5.6386   5.8845   8.3863   8.9308   9.1382
    11.0042  11.6248  13.3809  17.8677  19.1817  20.6680  22.0963  23.4746

     occupation numbers 
     1.0000   1.0000   1.0000   1.0000   1.0000   1.0000   1.0000   1.0000
     1.0000   1.0000   1.0000   1.0000   1.0000   1.0000   1.0000   1.0000
     0.0007   0.0000   0.0000   0.0000   0.0000   0.0000   0.0000   0.0000

          k =-0.1250 0.3608-0.1709 (  2005 PWs)   bands (ev):

   -85.6651 -49.0084 -48.9715 -48.8792 -37.6848  -9.9589  -9.1375   2.6695
     3.2643   4.0928   4.3194   5.2925   6.2960   8.6358   9.0046   9.1409
    10.9125  11.2345  13.5225  18.1672  19.1362  20.6761  22.2134  23.7405

     occupation numbers 
     1.0000   1.0000   1.0000   1.0000   1.0000   1.0000   1.0000   1.0000
     1.0000   1.0000   1.0000   1.0000   1.0000   1.0000   1.0000   1.0000
     0.0034   0.0000   0.0000   0.0000   0.0000   0.0000   0.0000   0.0000

          k =-0.1250 0.5052-0.1709 (  1996 PWs)   bands (ev):

   -85.6632 -49.0260 -48.9782 -48.8761 -37.6777  -9.4498  -9.2016   2.1178
     3.1441   4.2969   4.6013   5.1435   5.6870   8.4534   8.8982   9.1110
    11.2060  11.3684  13.7122  17.0369  19.4901  20.1868  21.7611  23.5651

     occupation numbers 
     1.0000   1.0000   1.0000   1.0000   1.0000   1.0000   1.0000   1.0000
     1.0000   1.0000   1.0000   1.0000   1.0000   1.0000   1.0000   1.0000
     0.0000   0.0000   0.0000   0.0000   0.0000   0.0000   0.0000   0.0000

 ------ SPIN DOWN ----------


          k = 0.0000 0.0000 0.0000 (  2029 PWs)   bands (ev):

   -85.6678 -48.9500 -48.9500 -48.8865 -37.7061 -11.0664  -9.1784   2.2335
     3.7740   3.7740   6.1376   7.1077   7.1077   8.2174   8.2174   9.1215
    11.8130  11.8130  11.9342  16.4033  19.1985  22.4866  24.7511  24.7511

     occupation numbers 
     1.0000   1.0000   1.0000   1.0000   1.0000   1.0000   1.0000   1.0000
     1.0000   1.0000   1.0000   1.0000   1.0000   1.0000   1.0000   1.0000
     0.0000   0.0000   0.0000   0.0000   0.0000   0.0000   0.0000   0.0000

          k = 0.0000 0.0000 0.1709 (  2024 PWs)   bands (ev):

   -85.6678 -48.9500 -48.9500 -48.8865 -37.7060 -11.0558  -9.2004   2.5075
     3.7754   3.7754   5.4780   7.1038   7.1038   8.2159   8.2159   9.3619
    11.8203  11.8203  12.7326  15.5666  19.0048  22.8591  24.9204  24.9204

     occupation numbers 
     1.0000   1.0000   1.0000   1.0000   1.0000   1.0000   1.0000   1.0000
     1.0000   1.0000   1.0000   1.0000   1.0000   1.0000   1.0000   1.0000
     0.0000   0.0000   0.0000   0.0000   0.0000   0.0000   0.0000   0.0000

          k = 0.0000 0.1443 0.0000 (  2019 PWs)   bands (ev):

   -85.6667 -48.9615 -48.9528 -48.8847 -37.7019 -10.8758  -9.1597   2.4627
     3.4046   3.8744   6.0317   6.5800   6.6116   8.4473   8.6260   9.1471
    11.2542  11.7110  12.3465  16.8990  19.5908  22.9095  23.4668  24.1463

     occupation numbers 
     1.0000   1.0000   1.0000   1.0000   1.0000   1.0000   1.0000   1.0000
     1.0000   1.0000   1.0000   1.0000   1.0000   1.0000   1.0000   1.0000
     0.0000   0.0000   0.0000   0.0000   0.0000   0.0000   0.0000   0.0000

          k = 0.0000 0.1443 0.1709 (  2019 PWs)   bands (ev):

   -85.6667 -48.9615 -48.9528 -48.8847 -37.7019 -10.8647  -9.1810   2.7194
     3.3451   3.8731   5.9805   6.0882   6.6152   8.4268   8.6266   9.4133
    11.1514  11.7055  13.1401  16.1112  19.6453  22.8056  23.5957  24.1370

     occupation numbers 
     1.0000   1.0000   1.0000   1.0000   1.0000   1.0000   1.0000   1.0000
     1.0000   1.0000   1.0000   1.0000   1.0000   1.0000   1.0000   1.0000
     0.0000   0.0000   0.0000   0.0000   0.0000   0.0000   0.0000   0.0000

          k = 0.0000 0.2887 0.0000 (  2021 PWs)   bands (ev):

   -85.6641 -48.9894 -48.9593 -48.8804 -37.6919 -10.3739  -9.1277   2.8698
     3.0991   4.1065   4.3847   5.9628   6.7847   8.5074   8.9742   9.2053
    10.6451  11.5936  13.0166  17.5445  20.3578  21.0255  22.9265  23.6831

     occupation numbers 
     1.0000   1.0000   1.0000   1.0000   1.0000   1.0000   1.0000   1.0000
     1.0000   1.0000   1.0000   1.0000   1.0000   1.0000   1.0000   1.0000
     0.1204   0.0000   0.0000   0.0000   0.0000   0.0000   0.0000   0.0000

          k = 0.0000 0.2887 0.1709 (  2008 PWs)   bands (ev):

   -85.6640 -48.9895 -48.9592 -48.8803 -37.6918 -10.3627  -9.1446   2.7251
     3.3333   4.0995   4.4141   5.9763   6.6043   8.4202   8.9802   9.3998
    10.3713  11.5692  13.6102  17.1740  20.2407  21.0865  22.9593  23.1720

     occupation numbers 
     1.0000   1.0000   1.0000   1.0000   1.0000   1.0000   1.0000   1.0000
     1.0000   1.0000   1.0000   1.0000   1.0000   1.0000   1.0000   1.0000
     0.7370   0.0000   0.0000   0.0000   0.0000   0.0000   0.0000   0.0000

          k = 0.0000 0.4330 0.0000 (  2014 PWs)   bands (ev):

   -85.6614 -49.0175 -48.9659 -48.8759 -37.6818  -9.7677  -9.1471   2.3247
     3.2760   4.1131   4.2796   5.6291   5.9891   8.4183   8.9279   9.1768
    10.9610  11.6491  13.4797  17.6368  18.8195  21.0328  21.9719  23.2408

     occupation numbers 
     1.0000   1.0000   1.0000   1.0000   1.0000   1.0000   1.0000   1.0000
     1.0000   1.0000   1.0000   1.0000   1.0000   1.0000   1.0000   1.0000
     0.0015   0.0000   0.0000   0.0000   0.0000   0.0000   0.0000   0.0000

          k = 0.0000 0.4330 0.1709 (  1996 PWs)   bands (ev):

   -85.6613 -49.0174 -48.9657 -48.8759 -37.6817  -9.7617  -9.1533   2.1938
     3.2461   4.2517   4.2630   5.6578   6.2403   8.2947   8.9308   9.2115
    10.6417  11.6113  13.7259  18.0825  18.1688  21.4129  22.1013  22.6520

     occupation numbers 
     1.0000   1.0000   1.0000   1.0000   1.0000   1.0000   1.0000   1.0000
     1.0000   1.0000   1.0000   1.0000   1.0000   1.0000   1.0000   1.0000
     0.1244   0.0000   0.0000   0.0000   0.0000   0.0000   0.0000   0.0000

          k = 0.0000-0.5774 0.0000 (  1982 PWs)   bands (ev):

   -85.6602 -49.0287 -48.9685 -48.8740 -37.6775  -9.3405  -9.3105   1.8885
     3.3194   4.3104   4.6500   5.2784   5.5794   8.3157   8.8330   9.1365
    11.3016  11.7090  13.6010  17.4748  18.1910  20.9908  21.6270  23.0889

     occupation numbers 
     1.0000   1.0000   1.0000   1.0000   1.0000   1.0000   1.0000   1.0000
     1.0000   1.0000   1.0000   1.0000   1.0000   1.0000   1.0000   1.0000
     0.0000   0.0000   0.0000   0.0000   0.0000   0.0000   0.0000   0.0000

          k = 0.0000-0.5774 0.1709 (  2004 PWs)   bands (ev):

   -85.6602 -49.0290 -48.9685 -48.8741 -37.6775  -9.3332  -9.3166   1.7925
     3.2826   4.2933   4.5603   5.6087   5.7253   8.2161   8.8326   9.1075
    11.1504  11.6719  13.5962  17.1321  19.1307  20.5138  21.7955  23.1194

     occupation numbers 
     1.0000   1.0000   1.0000   1.0000   1.0000   1.0000   1.0000   1.0000
     1.0000   1.0000   1.0000   1.0000   1.0000   1.0000   1.0000   1.0000
     0.0000   0.0000   0.0000   0.0000   0.0000   0.0000   0.0000   0.0000

          k = 0.1250 0.2165 0.0000 (  2017 PWs)   bands (ev):

   -85.6648 -48.9800 -48.9587 -48.8816 -37.6948 -10.5293  -9.1336   2.8821
     3.0545   3.9706   4.9731   5.8710   6.8767   8.6022   8.9169   9.1869
    10.9546  11.2205  12.9636  17.4515  20.2355  21.8566  22.5867  23.6740

     occupation numbers 
     1.0000   1.0000   1.0000   1.0000   1.0000   1.0000   1.0000   1.0000
     1.0000   1.0000   1.0000   1.0000   1.0000   1.0000   1.0000   1.0000
     0.0017   0.0000   0.0000   0.0000   0.0000   0.0000   0.0000   0.0000

          k = 0.1250 0.2165 0.1709 (  2012 PWs)   bands (ev):

   -85.6648 -48.9799 -48.9587 -48.8816 -37.6947 -10.5168  -9.1540   2.8984
     3.1915   3.9726   4.9740   5.8596   6.5063   8.6151   8.8597   9.3837
    10.7628  11.4029  13.3926  17.0719  20.3094  21.5769  22.8195  23.2716

     occupation numbers 
     1.0000   1.0000   1.0000   1.0000   1.0000   1.0000   1.0000   1.0000
     1.0000   1.0000   1.0000   1.0000   1.0000   1.0000   1.0000   1.0000
     0.0316   0.0000   0.0000   0.0000   0.0000   0.0000   0.0000   0.0000

          k = 0.1250 0.3608 0.0000 (  2004 PWs)   bands (ev):

   -85.6621 -49.0050 -48.9681 -48.8771 -37.6847  -9.9746  -9.1197   2.7669
     3.2885   3.8444   4.3006   5.2890   6.4791   8.5897   9.0596   9.1867
    10.7791  11.2294  13.5822  17.7526  19.4775  20.8113  22.0888  23.9029

     occupation numbers 
     1.0000   1.0000   1.0000   1.0000   1.0000   1.0000   1.0000   1.0000
     1.0000   1.0000   1.0000   1.0000   1.0000   1.0000   1.0000   1.0000
     0.0255   0.0000   0.0000   0.0000   0.0000   0.0000   0.0000   0.0000

          k = 0.1250 0.3608 0.1709 (  2005 PWs)   bands (ev):

   -85.6621 -49.0050 -48.9681 -48.8772 -37.6846  -9.9638  -9.1333   2.6178
     3.2844   4.0735   4.2980   5.3037   6.4709   8.5484   9.0070   9.2320
    10.6059  11.3240  13.7139  18.0055  18.9386  20.7288  22.5996  23.2631

     occupation numbers 
     1.0000   1.0000   1.0000   1.0000   1.0000   1.0000   1.0000   1.0000
     1.0000   1.0000   1.0000   1.0000   1.0000   1.0000   1.0000   1.0000
     0.1739   0.0000   0.0000   0.0000   0.0000   0.0000   0.0000   0.0000

          k = 0.1250 0.5052 0.0000 (  1995 PWs)   bands (ev):

   -85.6602 -49.0226 -48.9749 -48.8740 -37.6775  -9.4644  -9.1891   2.2021
     3.2053   4.3132   4.4635   5.0810   5.6035   8.4864   8.8946   9.1947
    11.0853  11.3473  13.9835  17.2254  18.5955  20.6452  22.1660  23.3022

     occupation numbers 
     1.0000   1.0000   1.0000   1.0000   1.0000   1.0000   1.0000   1.0000
     1.0000   1.0000   1.0000   1.0000   1.0000   1.0000   1.0000   1.0000
     0.0001   0.0000   0.0000   0.0000   0.0000   0.0000   0.0000   0.0000

          k = 0.1250 0.5052 0.1709 (  1996 PWs)   bands (ev):

   -85.6602 -49.0226 -48.9749 -48.8741 -37.6775  -9.4619  -9.1905   2.0978
     3.1469   4.3254   4.4705   5.1368   5.8937   8.3935   8.9084   9.1515
    10.9963  11.4441  13.8132  17.1030  18.9026  20.5070  22.1248  23.2375

     occupation numbers 
     1.0000   1.0000   1.0000   1.0000   1.0000   1.0000   1.0000   1.0000
     1.0000   1.0000   1.0000   1.0000   1.0000   1.0000   1.0000   1.0000
     0.0008   0.0000   0.0000   0.0000   0.0000   0.0000   0.0000   0.0000

          k = 0.2500 0.4330 0.0000 (  2011 PWs)   bands (ev):

   -85.6602 -49.0139 -48.9839 -48.8740 -37.6776  -9.5220  -9.1340   2.8278
     2.9206   4.0273   4.3826   4.7458   5.8680   8.5985   8.9459   9.3009
    10.7094  11.1912  14.3070  16.9796  18.9904  20.3831  22.7810  23.8590

     occupation numbers 
     1.0000   1.0000   1.0000   1.0000   1.0000   1.0000   1.0000   1.0000
     1.0000   1.0000   1.0000   1.0000   1.0000   1.0000   1.0000   1.0000
     0.0605   0.0000   0.0000   0.0000   0.0000   0.0000   0.0000   0.0000

          k = 0.2500 0.4330 0.1709 (  2010 PWs)   bands (ev):

   -85.6602 -49.0139 -48.9838 -48.8741 -37.6775  -9.5117  -9.1445   2.7663
     2.7979   4.0105   4.6244   4.7730   5.8785   8.6072   8.9559   9.1641
    10.9522  11.2411  13.9511  16.9237  19.2622  20.1207  22.4667  23.8405

     occupation numbers 
     1.0000   1.0000   1.0000   1.0000   1.0000   1.0000   1.0000   1.0000
     1.0000   1.0000   1.0000   1.0000   1.0000   1.0000   1.0000   1.0000
     0.0017   0.0000   0.0000   0.0000   0.0000   0.0000   0.0000   0.0000

          k = 0.2500 0.5774 0.0000 (  1978 PWs)   bands (ev):

   -85.6594 -49.0143 -48.9932 -48.8725 -37.6745  -9.2591  -9.2040   2.6337
     3.0715   3.7322   4.6419   4.9555   5.2587   8.4563   9.0712   9.2692
    10.8591  11.0347  14.8350  16.1306  19.1500  20.1970  23.3198  23.7276

     occupation numbers 
     1.0000   1.0000   1.0000   1.0000   1.0000   1.0000   1.0000   1.0000
     1.0000   1.0000   1.0000   1.0000   1.0000   1.0000   1.0000   1.0000
     0.0081   0.0004   0.0000   0.0000   0.0000   0.0000   0.0000   0.0000

          k = 0.2500 0.5774 0.1709 (  2008 PWs)   bands (ev):

   -85.6595 -49.0145 -48.9933 -48.8729 -37.6746  -9.2531  -9.2088   2.5498
     2.9975   3.6810   4.7415   5.0218   5.3866   8.4351   9.0692   9.1821
    11.0668  11.2276  14.4091  15.8292  19.5054  20.0256  22.6959  23.8631

     occupation numbers 
     1.0000   1.0000   1.0000   1.0000   1.0000   1.0000   1.0000   1.0000
     1.0000   1.0000   1.0000   1.0000   1.0000   1.0000   1.0000   1.0000
     0.0002   0.0000   0.0000   0.0000   0.0000   0.0000   0.0000   0.0000

          k = 0.0000 0.1443-0.1709 (  2019 PWs)   bands (ev):

   -85.6667 -48.9615 -48.9527 -48.8846 -37.7019 -10.8643  -9.1817   2.7328
     3.3422   3.8780   5.8842   6.1654   6.6009   8.4344   8.6269   9.3940
    11.2490  11.7229  12.9931  16.2117  19.5771  22.8628  23.5945  24.2339

     occupation numbers 
     1.0000   1.0000   1.0000   1.0000   1.0000   1.0000   1.0000   1.0000
     1.0000   1.0000   1.0000   1.0000   1.0000   1.0000   1.0000   1.0000
     0.0000   0.0000   0.0000   0.0000   0.0000   0.0000   0.0000   0.0000

          k = 0.0000 0.2887-0.1709 (  2008 PWs)   bands (ev):

   -85.6640 -48.9895 -48.9592 -48.8803 -37.6918 -10.3597  -9.1496   2.8045
     3.3128   4.1103   4.4129   5.9541   6.4125   8.4895   8.9786   9.2982
    10.7245  11.5943  13.2334  17.6044  19.7309  21.8507  22.9778  23.0260

     occupation numbers 
     1.0000   1.0000   1.0000   1.0000   1.0000   1.0000   1.0000   1.0000
     1.0000   1.0000   1.0000   1.0000   1.0000   1.0000   1.0000   1.0000
     0.0507   0.0000   0.0000   0.0000   0.0000   0.0000   0.0000   0.0000

          k = 0.0000 0.4330-0.1709 (  1996 PWs)   bands (ev):

   -85.6613 -49.0174 -48.9657 -48.8759 -37.6817  -9.7517  -9.1660   2.2456
     3.2268   4.2746   4.3913   5.6377   5.8839   8.3873   8.9321   9.1395
    11.0077  11.6274  13.3827  17.8691  19.1818  20.6688  22.0974  23.4757

     occupation numbers 
     1.0000   1.0000   1.0000   1.0000   1.0000   1.0000   1.0000   1.0000
     1.0000   1.0000   1.0000   1.0000   1.0000   1.0000   1.0000   1.0000
     0.0006   0.0000   0.0000   0.0000   0.0000   0.0000   0.0000   0.0000

          k =-0.1250 0.3608-0.1709 (  2005 PWs)   bands (ev):

   -85.6621 -49.0050 -48.9681 -48.8772 -37.6846  -9.9600  -9.1387   2.6694
     3.2640   4.0932   4.3193   5.2922   6.2952   8.6367   9.0055   9.1422
    10.9159  11.2374  13.5244  18.1682  19.1371  20.6768  22.2138  23.7405

     occupation numbers 
     1.0000   1.0000   1.0000   1.0000   1.0000   1.0000   1.0000   1.0000
     1.0000   1.0000   1.0000   1.0000   1.0000   1.0000   1.0000   1.0000
     0.0032   0.0000   0.0000   0.0000   0.0000   0.0000   0.0000   0.0000

          k =-0.1250 0.5052-0.1709 (  1996 PWs)   bands (ev):

   -85.6602 -49.0226 -48.9749 -48.8741 -37.6775  -9.4509  -9.2027   2.1174
     3.1437   4.2973   4.6012   5.1431   5.6864   8.4545   8.8998   9.1120
    11.2095  11.3711  13.7142  17.0388  19.4903  20.1874  21.7616  23.5657

     occupation numbers 
     1.0000   1.0000   1.0000   1.0000   1.0000   1.0000   1.0000   1.0000
     1.0000   1.0000   1.0000   1.0000   1.0000   1.0000   1.0000   1.0000
     0.0000   0.0000   0.0000   0.0000   0.0000   0.0000   0.0000   0.0000

     the Fermi energy is    10.4958 ev

!    total energy              =    -475.10644667 Ry
     total all-electron energy =     -3102.978584 Ry
     estimated scf accuracy    <       0.00000007 Ry
     smearing contrib. (-TS)   =      -0.00109474 Ry
     internal energy E=F+TS    =    -475.10535193 Ry

     The total energy is F=E-TS. E is the sum of the following terms:
     one-electron contribution =    -337.07938863 Ry
     hartree contribution      =     183.81699407 Ry
     xc contribution           =     -49.36697566 Ry
     ewald contribution        =    -165.79803195 Ry
     one-center paw contrib.   =    -106.67794976 Ry
      -> PAW hartree energy AE =     282.68639640 Ry
      -> PAW hartree energy PS =    -281.31458664 Ry
      -> PAW xc energy AE      =    -154.55211536 Ry
      -> PAW xc energy PS      =      46.50235584 Ry
      -> total E_H with PAW    =     185.18880383 Ry
      -> total E_XC with PAW   =    -157.41673518 Ry

     total magnetization       =     0.00 Bohr mag/cell
     absolute magnetization    =     0.00 Bohr mag/cell

     convergence has been achieved in  28 iterations

     Forces acting on atoms (cartesian axes, Ry/au):

     atom    1 type  1   force =     0.00000000   -0.00000000    0.00000000
     atom    2 type  2   force =     0.00000000    0.00000000    0.08436660
     atom    3 type  2   force =     0.00000000    0.00000000   -0.08436660
     atom    4 type  3   force =     0.00000000    0.00000000    0.00000000
     The non-local contrib.  to forces
     atom    1 type  1   force =     0.00000000    0.00000000    0.00000000
     atom    2 type  2   force =     0.00000000    0.00000000   -0.50420301
     atom    3 type  2   force =     0.00000000    0.00000000    0.50420301
     atom    4 type  3   force =     0.00000000    0.00000000    0.00000000
     The ionic contribution  to forces
     atom    1 type  1   force =    -0.00000000   -0.00000000   -0.00000000
     atom    2 type  2   force =     0.00000000   -0.00000000   25.88988048
     atom    3 type  2   force =    -0.00000000    0.00000000  -25.88988048
     atom    4 type  3   force =    -0.00000000    0.00000000    0.00000000
     The local contribution  to forces
     atom    1 type  1   force =    -0.00000000    0.00000000   -0.00000000
     atom    2 type  2   force =     0.00000001   -0.00000001  -25.30510307
     atom    3 type  2   force =    -0.00000001    0.00000001   25.30510307
     atom    4 type  3   force =    -0.00000000   -0.00000000    0.00000000
     The core correction contribution to forces
     atom    1 type  1   force =    -0.00000000   -0.00000000    0.00000000
     atom    2 type  2   force =    -0.00000000    0.00000000    0.00363911
     atom    3 type  2   force =     0.00000000   -0.00000000   -0.00363911
     atom    4 type  3   force =     0.00000000    0.00000000    0.00000000
     The Hubbard contrib.    to forces
     atom    1 type  1   force =     0.00000000    0.00000000    0.00000000
     atom    2 type  2   force =     0.00000000    0.00000000    0.00000000
     atom    3 type  2   force =     0.00000000    0.00000000    0.00000000
     atom    4 type  3   force =     0.00000000    0.00000000    0.00000000
     The SCF correction term to forces
     atom    1 type  1   force =     0.00000000   -0.00000000    0.00000000
     atom    2 type  2   force =    -0.00000000    0.00000000    0.00015309
     atom    3 type  2   force =     0.00000000   -0.00000000   -0.00015309
     atom    4 type  3   force =    -0.00000000    0.00000000    0.00000000

     Total force =     0.119312     Total SCF correction =     0.000217

     Writing all to output data dir ./out/pw.save/ :
     XML data file, charge density, pseudopotentials, collected wavefunctions
 
     init_run     :     10.01s CPU      2.62s WALL (       1 calls)
     electrons    :    128.95s CPU     31.86s WALL (       1 calls)
     forces       :      0.52s CPU      0.50s WALL (       1 calls)

     Called by init_run:
     wfcinit      :      0.26s CPU      0.38s WALL (       1 calls)
     wfcinit:atom :      0.04s CPU      0.04s WALL (      50 calls)
     wfcinit:wfcr :      0.17s CPU      0.27s WALL (      50 calls)
     potinit      :      9.27s CPU      1.63s WALL (       1 calls)
     hinit0       :      0.41s CPU      0.44s WALL (       1 calls)

     Called by electrons:
     c_bands      :     13.43s CPU     13.27s WALL (      28 calls)
     sum_band     :      2.97s CPU      2.90s WALL (      28 calls)
     v_of_rho     :      0.41s CPU      0.22s WALL (      29 calls)
     v_h          :      0.28s CPU      0.03s WALL (      29 calls)
     v_xc         :      0.13s CPU      0.19s WALL (      30 calls)
     newd         :      0.65s CPU      0.51s WALL (      29 calls)
                                        0.51s GPU  (      29 calls)
     PAW_pot      :    114.27s CPU     14.82s WALL (      29 calls)
     mix_rho      :      0.75s CPU      0.72s WALL (      28 calls)

     Called by c_bands:
     init_us_2    :      1.16s CPU      1.10s WALL (    2900 calls)
     cegterg      :     11.53s CPU     11.44s WALL (    1400 calls)

     Called by sum_band:
     sum_band:wei :      0.03s CPU      0.04s WALL (      28 calls)
                                        0.03s GPU  (      28 calls)
     sum_band:loo :      1.92s CPU      1.85s WALL (      28 calls)
                                        1.85s GPU  (      28 calls)
     sum_band:buf :      0.14s CPU      0.17s WALL (    1400 calls)
                                        0.15s GPU  (    1400 calls)
     sum_band:ini :      0.55s CPU      0.55s WALL (    1400 calls)
                                        0.54s GPU  (    1400 calls)
     sum_band:cal :      0.04s CPU      0.19s WALL (    1400 calls)
                                        0.18s GPU  (    1400 calls)
     sum_band:bec :      0.30s CPU      0.32s WALL (    1400 calls)
                                        0.30s GPU  (    1400 calls)
     addusdens    :      0.89s CPU      0.89s WALL (      28 calls)
                                        0.89s GPU  (      28 calls)
     addusd:skk   :      0.00s CPU      0.01s WALL (      84 calls)
                                        0.00s GPU  (      84 calls)

     Called by *egterg:
     cdiaghg      :      3.73s CPU      3.86s WALL (    4889 calls)
                                        3.80s GPU  (    4889 calls)
     cegterg:over :      0.58s CPU      0.59s WALL (    3489 calls)
     cegterg:upda :      0.70s CPU      0.70s WALL (    3489 calls)
     cegterg:last :      0.13s CPU      0.12s WALL (    2301 calls)
     h_psi        :      4.55s CPU      4.55s WALL (    4939 calls)
                                        4.49s GPU  (    4939 calls)
     s_psi        :      0.74s CPU      0.77s WALL (    4939 calls)
     g_psi        :      0.02s CPU      0.08s WALL (    3489 calls)
                                        0.04s GPU  (    3489 calls)

     Called by h_psi:
     h_psi:calbec :      0.12s CPU      0.49s WALL (    4939 calls)
                                        0.43s GPU  (    4939 calls)
     vloc_psi     :      3.01s CPU      2.95s WALL (    4939 calls)
                                        2.89s GPU  (    4939 calls)
     add_vuspsi   :      0.67s CPU      0.78s WALL (    4939 calls)
                                        0.72s GPU  (    4939 calls)

     General routines
     calbec       :      0.14s CPU      0.16s WALL (    6539 calls)
     fft          :      3.36s CPU      0.65s WALL (     738 calls)
                                        0.04s GPU  (     680 calls)
     ffts         :      2.12s CPU      0.38s WALL (     919 calls)
                                        0.02s GPU  (     861 calls)
     fftw         :      0.29s CPU      0.97s WALL (   18378 calls)
                                        0.78s GPU  (   18378 calls)
     interpolate  :      5.59s CPU      0.97s WALL (      58 calls)
 
     Parallel routines

     PAW routines
     PAW_pot      :    114.27s CPU     14.82s WALL (      29 calls)
     PAW_symme    :      0.06s CPU      0.01s WALL (      57 calls)
 
     PWSCF        :   2m20.23s CPU     35.54s WALL

 
   This run was terminated on:   5:40:55  12Jul2026            

=------------------------------------------------------------------------------=
   JOB DONE.
=------------------------------------------------------------------------------=
Warning: ieee_divide_by_zero is signaling
Warning: ieee_inexact is signaling
FORTRAN STOP
