
     Program PWSCF v.7.3.1 starts on 12Jul2026 at  2:15:56 

     This program is part of the open-source Quantum ESPRESSO suite
     for quantum simulation of materials; please cite
         "P. Giannozzi et al., J. Phys.:Condens. Matter 21 395502 (2009);
         "P. Giannozzi et al., J. Phys.:Condens. Matter 29 465901 (2017);
         "P. Giannozzi et al., J. Chem. Phys. 152 154105 (2020);
          URL http://www.quantum-espresso.org", 
     in publications or presentations arising from this work. More details at
     http://www.quantum-espresso.org/quote

     Parallel version (MPI & OpenMP), running on      14 processor cores
     Number of MPI processes:                 1
     Threads/MPI process:                    14

     MPI processes distributed on     1 nodes
     851392 MiB available memory on the printing compute node when the environment starts
 
     Reading input from pw.in

     Current dimensions of program PWSCF are:
     Max number of different atomic species (ntypx) = 10
     Max number of k-points (npk) =  40000
     Max angular momentum in pseudopotentials (lmaxx) =  4
     file Co.pbe-spn-kjpaw_psl.0.3.1.UPF: wavefunction(s)  3P 3D renormalized
     file O.pbe-n-kjpaw_psl.1.0.0.UPF: wavefunction(s)  2S 2P renormalized
     file Na.pbe-spn-kjpaw_psl.1.0.0.UPF: wavefunction(s)  2P renormalized
 
     Subspace diagonalization in iterative solution of the eigenvalue problem:
     a serial algorithm will be used

 
     G-vector sticks info
     --------------------
     sticks:   dense  smooth     PW     G-vecs:    dense   smooth      PW
     Sum         979     499    151                72573    25753    4225
 
     Using Slab Decomposition
 


     bravais-lattice index     =            4
     lattice parameter (alat)  =       5.4575  a.u.
     unit-cell volume          =     409.4500 (a.u.)^3
     number of atoms/cell      =            4
     number of atomic types    =            3
     number of electrons       =        38.00
     number of Kohn-Sham states=           27
     kinetic-energy cutoff     =      60.0000  Ry
     charge density cutoff     =     480.0000  Ry
     scf convergence threshold =      1.0E-08
     mixing beta               =       0.3000
     number of iterations used =            8  plain     mixing
     Exchange-correlation= SLA  PW   PBX  PBC
                           (   1   4   3   4   0   0   0)

     GPU acceleration is ACTIVE.  1 visible GPUs per MPI rank
     GPU-aware MPI enabled


     GPU used by master process:

        Device Number: 0
        Device name: NVIDIA A100-SXM4-80GB
        Compute capability : 80
        Ratio of single to double precision performance  : 2
        Memory Clock Rate (KHz): 1593000
        Memory Bus Width (bits): 5120
        Peak Memory Bandwidth (GB/s): ******

     celldm(1)=   5.457529  celldm(2)=   0.000000  celldm(3)=   2.908587
     celldm(4)=   0.000000  celldm(5)=   0.000000  celldm(6)=   0.000000

     crystal axes: (cart. coord. in units of alat)
               a(1) = (   1.000000   0.000000   0.000000 )  
               a(2) = (  -0.500000   0.866025   0.000000 )  
               a(3) = (   0.000000   0.000000   2.908587 )  

     reciprocal axes: (cart. coord. in units 2 pi/alat)
               b(1) = (  1.000000  0.577350 -0.000000 )  
               b(2) = (  0.000000  1.154701  0.000000 )  
               b(3) = (  0.000000 -0.000000  0.343810 )  


     PseudoPot. # 1 for Co read from file:
     ../../pseudo/Co.pbe-spn-kjpaw_psl.0.3.1.UPF
     MD5 check sum: 3c0a43779828c046024e4f3be63f8e67
     Pseudo is Projector augmented-wave + core cor, Zval = 17.0
     Generated using &quot;atomic&quot; code by A. Dal Corso  v.6.2.2
     Shape of augmentation charge: PSQ
     Using radial grid of 1193 points,  6 beta functions with: 
                l(1) =   0
                l(2) =   0
                l(3) =   1
                l(4) =   1
                l(5) =   2
                l(6) =   2
     Q(r) pseudized with 0 coefficients 


     PseudoPot. # 2 for O  read from file:
     ../../pseudo/O.pbe-n-kjpaw_psl.1.0.0.UPF
     MD5 check sum: e99d9cef9b487d1ca56f5b95ecd0fd7a
     Pseudo is Projector augmented-wave + core cor, Zval =  6.0
     Generated using &quot;atomic&quot; code by A. Dal Corso  v.6.3
     Shape of augmentation charge: PSQ
     Using radial grid of 1095 points,  4 beta functions with: 
                l(1) =   0
                l(2) =   0
                l(3) =   1
                l(4) =   1
     Q(r) pseudized with 0 coefficients 


     PseudoPot. # 3 for Na read from file:
     ../../pseudo/Na.pbe-spn-kjpaw_psl.1.0.0.UPF
     MD5 check sum: 05b4deb74e3932c23ab016979dc8b5d4
     Pseudo is Projector augmented-wave + core cor, Zval =  9.0
     Generated using &quot;atomic&quot; code by A. Dal Corso  v.6.3
     Shape of augmentation charge: PSQ
     Using radial grid of 1121 points,  4 beta functions with: 
                l(1) =   0
                l(2) =   0
                l(3) =   1
                l(4) =   1
     Q(r) pseudized with 0 coefficients 


     atomic species   valence    mass     pseudopotential
     Co               17.00    58.93300     Co( 1.00)
     O                 6.00    15.99900     O ( 1.00)
     Na                9.00    22.98977     Na( 1.00)

     Starting magnetic structure 
     atomic species   magnetization
     Co              0.300
     O               0.000
     Na              0.000

      6 Sym. Ops. (no inversion) found


                                    s                        frac. trans.

      isym =  1     identity                                     

 cryst.   s( 1) = (     1          0          0      )
                  (     0          1          0      )
                  (     0          0          1      )

 cart.    s( 1) = (  1.0000000  0.0000000  0.0000000 )
                  (  0.0000000  1.0000000  0.0000000 )
                  (  0.0000000  0.0000000  1.0000000 )


      isym =  2     120 deg rotation - cryst. axis [0,0,1]       

 cryst.   s( 2) = (     0          1          0      )
                  (    -1         -1          0      )
                  (     0          0          1      )

 cart.    s( 2) = ( -0.5000000 -0.8660254  0.0000000 )
                  (  0.8660254 -0.5000000  0.0000000 )
                  (  0.0000000  0.0000000  1.0000000 )


      isym =  3     120 deg rotation - cryst. axis [0,0,-1]      

 cryst.   s( 3) = (    -1         -1          0      )
                  (     1          0          0      )
                  (     0          0          1      )

 cart.    s( 3) = ( -0.5000000  0.8660254  0.0000000 )
                  ( -0.8660254 -0.5000000  0.0000000 )
                  (  0.0000000  0.0000000  1.0000000 )


      isym =  4     inv. 180 deg rotation - cart. axis [1,0,0]   

 cryst.   s( 4) = (    -1          0          0      )
                  (     1          1          0      )
                  (     0          0          1      )

 cart.    s( 4) = ( -1.0000000  0.0000000  0.0000000 )
                  (  0.0000000  1.0000000  0.0000000 )
                  (  0.0000000  0.0000000  1.0000000 )


      isym =  5     inv. 180 deg rotation - cryst. axis [0,1,0]  

 cryst.   s( 5) = (     1          1          0      )
                  (     0         -1          0      )
                  (     0          0          1      )

 cart.    s( 5) = (  0.5000000  0.8660254  0.0000000 )
                  (  0.8660254 -0.5000000  0.0000000 )
                  (  0.0000000  0.0000000  1.0000000 )


      isym =  6     inv. 180 deg rotation - cryst. axis [1,1,0]  

 cryst.   s( 6) = (     0         -1          0      )
                  (    -1          0          0      )
                  (     0          0          1      )

 cart.    s( 6) = (  0.5000000 -0.8660254  0.0000000 )
                  ( -0.8660254 -0.5000000  0.0000000 )
                  (  0.0000000  0.0000000  1.0000000 )


     point group C_3v (3m)  
     there are  3 classes
     the character table:

       E     2C3   3s_v 
A_1    1.00  1.00  1.00
A_2    1.00  1.00 -1.00
E      2.00 -1.00  0.00

     the symmetry operations in each class and the name of the first element:

     E        1
          identity                                               
     2C3      2    3
          120 deg rotation - cryst. axis [0,0,1]                 
     3s_v     4    5    6
          inv. 180 deg rotation - cart. axis [1,0,0]             

   Cartesian axes

     site n.     atom                  positions (alat units)
         1        Co     tau(   1) = (   0.0000000   0.0000000   0.0000000  )
         2        O      tau(   2) = (  -0.0000000   0.5773503   0.3324100  )
         3        O      tau(   3) = (   0.5000000   0.2886751   2.5761773  )
         4        Na     tau(   4) = (  -0.0000000   0.5773503   1.7139889  )

   Crystallographic axes

     site n.     atom                  positions (cryst. coord.)
         1        Co     tau(   1) = (  0.0000000  0.0000000  0.0000000  )
         2        O      tau(   2) = (  0.3333333  0.6666667  0.1142857  )
         3        O      tau(   3) = (  0.6666667  0.3333333  0.8857143  )
         4        Na     tau(   4) = (  0.3333333  0.6666667  0.5892857  )

     number of k points=    25  Marzari-Vanderbilt smearing, width (Ry)=  0.0200
                       cart. coord. in units 2pi/alat
        k(    1) = (   0.0000000   0.0000000   0.0000000), wk =   0.0052083
        k(    2) = (   0.0000000   0.0000000   0.1146032), wk =   0.0104167
        k(    3) = (   0.0000000   0.1443376   0.0000000), wk =   0.0312500
        k(    4) = (   0.0000000   0.1443376   0.1146032), wk =   0.0312500
        k(    5) = (   0.0000000   0.2886751   0.0000000), wk =   0.0312500
        k(    6) = (   0.0000000   0.2886751   0.1146032), wk =   0.0312500
        k(    7) = (   0.0000000   0.4330127   0.0000000), wk =   0.0312500
        k(    8) = (   0.0000000   0.4330127   0.1146032), wk =   0.0312500
        k(    9) = (   0.0000000  -0.5773503   0.0000000), wk =   0.0156250
        k(   10) = (   0.0000000  -0.5773503   0.1146032), wk =   0.0312500
        k(   11) = (   0.1250000   0.2165064   0.0000000), wk =   0.0312500
        k(   12) = (   0.1250000   0.2165064   0.1146032), wk =   0.0625000
        k(   13) = (   0.1250000   0.3608439   0.0000000), wk =   0.0625000
        k(   14) = (   0.1250000   0.3608439   0.1146032), wk =   0.0625000
        k(   15) = (   0.1250000   0.5051815   0.0000000), wk =   0.0625000
        k(   16) = (   0.1250000   0.5051815   0.1146032), wk =   0.0625000
        k(   17) = (   0.2500000   0.4330127   0.0000000), wk =   0.0312500
        k(   18) = (   0.2500000   0.4330127   0.1146032), wk =   0.0625000
        k(   19) = (   0.2500000   0.5773503   0.0000000), wk =   0.0312500
        k(   20) = (   0.2500000   0.5773503   0.1146032), wk =   0.0625000
        k(   21) = (   0.0000000  -0.1443376   0.1146032), wk =   0.0312500
        k(   22) = (   0.0000000  -0.2886751   0.1146032), wk =   0.0312500
        k(   23) = (   0.0000000  -0.4330127   0.1146032), wk =   0.0312500
        k(   24) = (  -0.1250000  -0.3608439   0.1146032), wk =   0.0625000
        k(   25) = (  -0.1250000  -0.5051815   0.1146032), wk =   0.0625000

                       cryst. coord.
        k(    1) = (   0.0000000   0.0000000   0.0000000), wk =   0.0052083
        k(    2) = (   0.0000000   0.0000000   0.3333333), wk =   0.0104167
        k(    3) = (   0.0000000   0.1250000   0.0000000), wk =   0.0312500
        k(    4) = (   0.0000000   0.1250000   0.3333333), wk =   0.0312500
        k(    5) = (   0.0000000   0.2500000   0.0000000), wk =   0.0312500
        k(    6) = (   0.0000000   0.2500000   0.3333333), wk =   0.0312500
        k(    7) = (   0.0000000   0.3750000   0.0000000), wk =   0.0312500
        k(    8) = (   0.0000000   0.3750000   0.3333333), wk =   0.0312500
        k(    9) = (   0.0000000  -0.5000000   0.0000000), wk =   0.0156250
        k(   10) = (   0.0000000  -0.5000000   0.3333333), wk =   0.0312500
        k(   11) = (   0.1250000   0.1250000   0.0000000), wk =   0.0312500
        k(   12) = (   0.1250000   0.1250000   0.3333333), wk =   0.0625000
        k(   13) = (   0.1250000   0.2500000   0.0000000), wk =   0.0625000
        k(   14) = (   0.1250000   0.2500000   0.3333333), wk =   0.0625000
        k(   15) = (   0.1250000   0.3750000   0.0000000), wk =   0.0625000
        k(   16) = (   0.1250000   0.3750000   0.3333333), wk =   0.0625000
        k(   17) = (   0.2500000   0.2500000   0.0000000), wk =   0.0312500
        k(   18) = (   0.2500000   0.2500000   0.3333333), wk =   0.0625000
        k(   19) = (   0.2500000   0.3750000   0.0000000), wk =   0.0312500
        k(   20) = (   0.2500000   0.3750000   0.3333333), wk =   0.0625000
        k(   21) = (   0.0000000  -0.1250000   0.3333333), wk =   0.0312500
        k(   22) = (   0.0000000  -0.2500000   0.3333333), wk =   0.0312500
        k(   23) = (   0.0000000  -0.3750000   0.3333333), wk =   0.0312500
        k(   24) = (  -0.1250000  -0.2500000   0.3333333), wk =   0.0625000
        k(   25) = (  -0.1250000  -0.3750000   0.3333333), wk =   0.0625000

     Dense  grid:    72573 G-vectors     FFT dimensions: (  40,  40, 120)

     Smooth grid:    25753 G-vectors     FFT dimensions: (  27,  27,  80)

     Dynamical RAM for                 wfc:       1.32 MB

     Dynamical RAM for     wfc (w. buffer):      67.51 MB

     Dynamical RAM for           str. fact:       3.32 MB

     Dynamical RAM for           local pot:       0.00 MB

     Dynamical RAM for          nlocal pot:       2.06 MB

     Dynamical RAM for                qrad:       5.27 MB

     Dynamical RAM for          rho,v,vnew:      15.43 MB

     Dynamical RAM for               rhoin:       5.14 MB

     Dynamical RAM for            rho*nmix:      35.44 MB

     Dynamical RAM for           G-vectors:       4.35 MB

     Dynamical RAM for          h,s,v(r/c):       0.13 MB

     Dynamical RAM for          <psi|beta>:       0.02 MB

     Dynamical RAM for                 psi:       2.65 MB

     Dynamical RAM for                hpsi:       2.65 MB

     Dynamical RAM for                spsi:       2.65 MB

     Dynamical RAM for      wfcinit/wfcrot:       2.66 MB

     Dynamical RAM for           addusdens:     209.29 MB

     Dynamical RAM for          addusforce:     211.52 MB

     Estimated static dynamical RAM per process >     116.31 MB

     Estimated max dynamical RAM per process >     363.27 MB

     Check: negative core charge=   -0.000007
     Generating pointlists ...
     new r_m :   0.2748 (alat units)  1.4998 (a.u.) for type    1
     new r_m :   0.2748 (alat units)  1.4998 (a.u.) for type    2
     new r_m :   0.4125 (alat units)  2.2512 (a.u.) for type    3

     Initial potential from superposition of free atoms

     starting charge      37.9934, renormalised to      38.0000
     Starting wfcs are   23 randomized atomic wfcs +    4 random wfcs
     Checking if some PAW data can be deallocated... 

     total cpu time spent up to now is        3.7 secs

     Self-consistent Calculation
[tb_dev] Currently allocated     6.54E-01 Mbytes, locked:    0 /   6
[tb_pin] Currently allocated     0.00E+00 Mbytes, locked:    0 /   0

     iteration #  1     ecut=    60.00 Ry     beta= 0.30
     Davidson diagonalization with overlap

---- Real-time Memory Report at c_bands before calling an iterative solver
           690 MiB given to the printing process from OS
             0 MiB allocation reported by mallinfo(arena+hblkhd)
        850968 MiB available memory on the node where the printing process lives
     GPU memory used/free/total (MiB): 1056 / 80094 / 81151
------------------
     ethr =  1.00E-02,  avg # of iterations =  9.4

     total cpu time spent up to now is        5.7 secs

     total energy              =    -568.55808292 Ry
     estimated scf accuracy    <       1.75383641 Ry

     total magnetization       =     4.16 Bohr mag/cell
     absolute magnetization    =     4.16 Bohr mag/cell
[tb_dev] Currently allocated     3.05E-05 Mbytes, locked:    0 /   2
[tb_pin] Currently allocated     0.00E+00 Mbytes, locked:    0 /   0

     iteration #  2     ecut=    60.00 Ry     beta= 0.30
     Davidson diagonalization with overlap

---- Real-time Memory Report at c_bands before calling an iterative solver
           735 MiB given to the printing process from OS
             0 MiB allocation reported by mallinfo(arena+hblkhd)
        850910 MiB available memory on the node where the printing process lives
     GPU memory used/free/total (MiB): 1074 / 80076 / 81151
------------------
     ethr =  4.62E-03,  avg # of iterations =  2.2

     total cpu time spent up to now is        6.9 secs

     total energy              =    -568.68509534 Ry
     estimated scf accuracy    <       3.16382350 Ry

     total magnetization       =     0.78 Bohr mag/cell
     absolute magnetization    =     1.25 Bohr mag/cell
[tb_dev] Currently allocated     3.05E-05 Mbytes, locked:    0 /   2
[tb_pin] Currently allocated     0.00E+00 Mbytes, locked:    0 /   0

     iteration #  3     ecut=    60.00 Ry     beta= 0.30
     Davidson diagonalization with overlap

---- Real-time Memory Report at c_bands before calling an iterative solver
           739 MiB given to the printing process from OS
             0 MiB allocation reported by mallinfo(arena+hblkhd)
        851413 MiB available memory on the node where the printing process lives
     GPU memory used/free/total (MiB): 1074 / 80076 / 81151
------------------
     ethr =  4.62E-03,  avg # of iterations =  1.3

     total cpu time spent up to now is        7.9 secs

     total energy              =    -568.96940822 Ry
     estimated scf accuracy    <       1.13875254 Ry

     total magnetization       =     3.67 Bohr mag/cell
     absolute magnetization    =     3.67 Bohr mag/cell
[tb_dev] Currently allocated     3.05E-05 Mbytes, locked:    0 /   2
[tb_pin] Currently allocated     0.00E+00 Mbytes, locked:    0 /   0

     iteration #  4     ecut=    60.00 Ry     beta= 0.30
     Davidson diagonalization with overlap

---- Real-time Memory Report at c_bands before calling an iterative solver
           741 MiB given to the printing process from OS
             0 MiB allocation reported by mallinfo(arena+hblkhd)
        851211 MiB available memory on the node where the printing process lives
     GPU memory used/free/total (MiB): 1074 / 80076 / 81151
------------------
     ethr =  3.00E-03,  avg # of iterations =  1.1

     total cpu time spent up to now is        8.9 secs

     total energy              =    -569.09251170 Ry
     estimated scf accuracy    <       0.39078504 Ry

     total magnetization       =     2.18 Bohr mag/cell
     absolute magnetization    =     2.24 Bohr mag/cell
[tb_dev] Currently allocated     3.05E-05 Mbytes, locked:    0 /   2
[tb_pin] Currently allocated     0.00E+00 Mbytes, locked:    0 /   0

     iteration #  5     ecut=    60.00 Ry     beta= 0.30
     Davidson diagonalization with overlap

---- Real-time Memory Report at c_bands before calling an iterative solver
           742 MiB given to the printing process from OS
             0 MiB allocation reported by mallinfo(arena+hblkhd)
        851068 MiB available memory on the node where the printing process lives
     GPU memory used/free/total (MiB): 1074 / 80076 / 81151
------------------
     ethr =  1.03E-03,  avg # of iterations =  1.9

     total cpu time spent up to now is       10.0 secs

     total energy              =    -569.13395319 Ry
     estimated scf accuracy    <       0.17588535 Ry

     total magnetization       =     2.11 Bohr mag/cell
     absolute magnetization    =     2.20 Bohr mag/cell
[tb_dev] Currently allocated     3.05E-05 Mbytes, locked:    0 /   2
[tb_pin] Currently allocated     0.00E+00 Mbytes, locked:    0 /   0

     iteration #  6     ecut=    60.00 Ry     beta= 0.30
     Davidson diagonalization with overlap

---- Real-time Memory Report at c_bands before calling an iterative solver
           742 MiB given to the printing process from OS
             0 MiB allocation reported by mallinfo(arena+hblkhd)
        851063 MiB available memory on the node where the printing process lives
     GPU memory used/free/total (MiB): 1074 / 80076 / 81151
------------------
     ethr =  4.63E-04,  avg # of iterations =  3.1

     total cpu time spent up to now is       11.2 secs

     total energy              =    -569.16743312 Ry
     estimated scf accuracy    <       0.22033731 Ry

     total magnetization       =     1.37 Bohr mag/cell
     absolute magnetization    =     1.65 Bohr mag/cell
[tb_dev] Currently allocated     3.05E-05 Mbytes, locked:    0 /   2
[tb_pin] Currently allocated     0.00E+00 Mbytes, locked:    0 /   0

     iteration #  7     ecut=    60.00 Ry     beta= 0.30
     Davidson diagonalization with overlap

---- Real-time Memory Report at c_bands before calling an iterative solver
           746 MiB given to the printing process from OS
             0 MiB allocation reported by mallinfo(arena+hblkhd)
        850857 MiB available memory on the node where the printing process lives
     GPU memory used/free/total (MiB): 1074 / 80076 / 81151
------------------
     ethr =  4.63E-04,  avg # of iterations =  1.7

     total cpu time spent up to now is       12.3 secs

     total energy              =    -569.20871515 Ry
     estimated scf accuracy    <       0.05319156 Ry

     total magnetization       =     0.64 Bohr mag/cell
     absolute magnetization    =     1.02 Bohr mag/cell
[tb_dev] Currently allocated     3.05E-05 Mbytes, locked:    0 /   2
[tb_pin] Currently allocated     0.00E+00 Mbytes, locked:    0 /   0

     iteration #  8     ecut=    60.00 Ry     beta= 0.30
     Davidson diagonalization with overlap

---- Real-time Memory Report at c_bands before calling an iterative solver
           748 MiB given to the printing process from OS
             0 MiB allocation reported by mallinfo(arena+hblkhd)
        850828 MiB available memory on the node where the printing process lives
     GPU memory used/free/total (MiB): 1074 / 80076 / 81151
------------------
     ethr =  1.40E-04,  avg # of iterations =  6.8

     total cpu time spent up to now is       14.0 secs

     total energy              =    -569.21008571 Ry
     estimated scf accuracy    <       0.04854870 Ry

     total magnetization       =     0.46 Bohr mag/cell
     absolute magnetization    =     0.61 Bohr mag/cell
[tb_dev] Currently allocated     3.05E-05 Mbytes, locked:    0 /   2
[tb_pin] Currently allocated     0.00E+00 Mbytes, locked:    0 /   0

     iteration #  9     ecut=    60.00 Ry     beta= 0.30
     Davidson diagonalization with overlap

---- Real-time Memory Report at c_bands before calling an iterative solver
           749 MiB given to the printing process from OS
             0 MiB allocation reported by mallinfo(arena+hblkhd)
        850800 MiB available memory on the node where the printing process lives
     GPU memory used/free/total (MiB): 1074 / 80076 / 81151
------------------
     ethr =  1.28E-04,  avg # of iterations =  1.2

     total cpu time spent up to now is       15.0 secs

     total energy              =    -569.21792779 Ry
     estimated scf accuracy    <       0.01550552 Ry

     total magnetization       =     0.62 Bohr mag/cell
     absolute magnetization    =     0.81 Bohr mag/cell
[tb_dev] Currently allocated     3.05E-05 Mbytes, locked:    0 /   2
[tb_pin] Currently allocated     0.00E+00 Mbytes, locked:    0 /   0

     iteration # 10     ecut=    60.00 Ry     beta= 0.30
     Davidson diagonalization with overlap

---- Real-time Memory Report at c_bands before calling an iterative solver
           751 MiB given to the printing process from OS
             0 MiB allocation reported by mallinfo(arena+hblkhd)
        850766 MiB available memory on the node where the printing process lives
     GPU memory used/free/total (MiB): 1074 / 80076 / 81151
------------------
     ethr =  4.08E-05,  avg # of iterations =  3.4

     total cpu time spent up to now is       16.3 secs

     total energy              =    -569.22122520 Ry
     estimated scf accuracy    <       0.00202378 Ry

     total magnetization       =     0.57 Bohr mag/cell
     absolute magnetization    =     0.62 Bohr mag/cell
[tb_dev] Currently allocated     3.05E-05 Mbytes, locked:    0 /   2
[tb_pin] Currently allocated     0.00E+00 Mbytes, locked:    0 /   0

     iteration # 11     ecut=    60.00 Ry     beta= 0.30
     Davidson diagonalization with overlap

---- Real-time Memory Report at c_bands before calling an iterative solver
           751 MiB given to the printing process from OS
             0 MiB allocation reported by mallinfo(arena+hblkhd)
        850773 MiB available memory on the node where the printing process lives
     GPU memory used/free/total (MiB): 1074 / 80076 / 81151
------------------
     c_bands:  1 eigenvalues not converged
     c_bands:  1 eigenvalues not converged
     c_bands:  1 eigenvalues not converged
     c_bands:  1 eigenvalues not converged
     ethr =  5.33E-06,  avg # of iterations =  8.9

     total cpu time spent up to now is       18.3 secs

     total energy              =    -569.22177229 Ry
     estimated scf accuracy    <       0.00187281 Ry

     total magnetization       =     0.49 Bohr mag/cell
     absolute magnetization    =     0.52 Bohr mag/cell
[tb_dev] Currently allocated     3.05E-05 Mbytes, locked:    0 /   2
[tb_pin] Currently allocated     0.00E+00 Mbytes, locked:    0 /   0

     iteration # 12     ecut=    60.00 Ry     beta= 0.30
     Davidson diagonalization with overlap

---- Real-time Memory Report at c_bands before calling an iterative solver
           751 MiB given to the printing process from OS
             0 MiB allocation reported by mallinfo(arena+hblkhd)
        850806 MiB available memory on the node where the printing process lives
     GPU memory used/free/total (MiB): 1074 / 80076 / 81151
------------------
     ethr =  4.93E-06,  avg # of iterations =  1.9

     total cpu time spent up to now is       19.4 secs

     total energy              =    -569.22194791 Ry
     estimated scf accuracy    <       0.00150346 Ry

     total magnetization       =     0.45 Bohr mag/cell
     absolute magnetization    =     0.48 Bohr mag/cell
[tb_dev] Currently allocated     3.05E-05 Mbytes, locked:    0 /   2
[tb_pin] Currently allocated     0.00E+00 Mbytes, locked:    0 /   0

     iteration # 13     ecut=    60.00 Ry     beta= 0.30
     Davidson diagonalization with overlap

---- Real-time Memory Report at c_bands before calling an iterative solver
           751 MiB given to the printing process from OS
             0 MiB allocation reported by mallinfo(arena+hblkhd)
        850811 MiB available memory on the node where the printing process lives
     GPU memory used/free/total (MiB): 1074 / 80076 / 81151
------------------
     ethr =  3.96E-06,  avg # of iterations =  1.3

     total cpu time spent up to now is       20.4 secs

     total energy              =    -569.22243966 Ry
     estimated scf accuracy    <       0.00017335 Ry

     total magnetization       =     0.56 Bohr mag/cell
     absolute magnetization    =     0.58 Bohr mag/cell
[tb_dev] Currently allocated     3.05E-05 Mbytes, locked:    0 /   2
[tb_pin] Currently allocated     0.00E+00 Mbytes, locked:    0 /   0

     iteration # 14     ecut=    60.00 Ry     beta= 0.30
     Davidson diagonalization with overlap

---- Real-time Memory Report at c_bands before calling an iterative solver
           751 MiB given to the printing process from OS
             0 MiB allocation reported by mallinfo(arena+hblkhd)
        850823 MiB available memory on the node where the printing process lives
     GPU memory used/free/total (MiB): 1074 / 80076 / 81151
------------------
     ethr =  4.56E-07,  avg # of iterations =  4.3

     total cpu time spent up to now is       21.9 secs

     total energy              =    -569.22237487 Ry
     estimated scf accuracy    <       0.00039000 Ry

     total magnetization       =     0.55 Bohr mag/cell
     absolute magnetization    =     0.58 Bohr mag/cell
[tb_dev] Currently allocated     3.05E-05 Mbytes, locked:    0 /   2
[tb_pin] Currently allocated     0.00E+00 Mbytes, locked:    0 /   0

     iteration # 15     ecut=    60.00 Ry     beta= 0.30
     Davidson diagonalization with overlap

---- Real-time Memory Report at c_bands before calling an iterative solver
           752 MiB given to the printing process from OS
             0 MiB allocation reported by mallinfo(arena+hblkhd)
        851234 MiB available memory on the node where the printing process lives
     GPU memory used/free/total (MiB): 1074 / 80076 / 81151
------------------
     ethr =  4.56E-07,  avg # of iterations =  2.4

     total cpu time spent up to now is       23.1 secs

     total energy              =    -569.22252154 Ry
     estimated scf accuracy    <       0.00005905 Ry

     total magnetization       =     0.59 Bohr mag/cell
     absolute magnetization    =     0.61 Bohr mag/cell
[tb_dev] Currently allocated     3.05E-05 Mbytes, locked:    0 /   2
[tb_pin] Currently allocated     0.00E+00 Mbytes, locked:    0 /   0

     iteration # 16     ecut=    60.00 Ry     beta= 0.30
     Davidson diagonalization with overlap

---- Real-time Memory Report at c_bands before calling an iterative solver
           752 MiB given to the printing process from OS
             0 MiB allocation reported by mallinfo(arena+hblkhd)
        851093 MiB available memory on the node where the printing process lives
     GPU memory used/free/total (MiB): 1074 / 80076 / 81151
------------------
     ethr =  1.55E-07,  avg # of iterations =  3.4

     total cpu time spent up to now is       24.4 secs

     total energy              =    -569.22255576 Ry
     estimated scf accuracy    <       0.00002975 Ry

     total magnetization       =     0.58 Bohr mag/cell
     absolute magnetization    =     0.61 Bohr mag/cell
[tb_dev] Currently allocated     3.05E-05 Mbytes, locked:    0 /   2
[tb_pin] Currently allocated     0.00E+00 Mbytes, locked:    0 /   0

     iteration # 17     ecut=    60.00 Ry     beta= 0.30
     Davidson diagonalization with overlap

---- Real-time Memory Report at c_bands before calling an iterative solver
           752 MiB given to the printing process from OS
             0 MiB allocation reported by mallinfo(arena+hblkhd)
        851010 MiB available memory on the node where the printing process lives
     GPU memory used/free/total (MiB): 1074 / 80076 / 81151
------------------
     ethr =  7.83E-08,  avg # of iterations =  2.5

     total cpu time spent up to now is       25.6 secs

     total energy              =    -569.22256150 Ry
     estimated scf accuracy    <       0.00000584 Ry

     total magnetization       =     0.58 Bohr mag/cell
     absolute magnetization    =     0.61 Bohr mag/cell
[tb_dev] Currently allocated     3.05E-05 Mbytes, locked:    0 /   2
[tb_pin] Currently allocated     0.00E+00 Mbytes, locked:    0 /   0

     iteration # 18     ecut=    60.00 Ry     beta= 0.30
     Davidson diagonalization with overlap

---- Real-time Memory Report at c_bands before calling an iterative solver
           753 MiB given to the printing process from OS
             0 MiB allocation reported by mallinfo(arena+hblkhd)
        850819 MiB available memory on the node where the printing process lives
     GPU memory used/free/total (MiB): 1074 / 80076 / 81151
------------------
     ethr =  1.54E-08,  avg # of iterations =  6.0

     total cpu time spent up to now is       27.2 secs

     total energy              =    -569.22256562 Ry
     estimated scf accuracy    <       0.00000638 Ry

     total magnetization       =     0.58 Bohr mag/cell
     absolute magnetization    =     0.61 Bohr mag/cell
[tb_dev] Currently allocated     3.05E-05 Mbytes, locked:    0 /   2
[tb_pin] Currently allocated     0.00E+00 Mbytes, locked:    0 /   0

     iteration # 19     ecut=    60.00 Ry     beta= 0.30
     Davidson diagonalization with overlap

---- Real-time Memory Report at c_bands before calling an iterative solver
           753 MiB given to the printing process from OS
             0 MiB allocation reported by mallinfo(arena+hblkhd)
        850786 MiB available memory on the node where the printing process lives
     GPU memory used/free/total (MiB): 1074 / 80076 / 81151
------------------
     ethr =  1.54E-08,  avg # of iterations =  1.8

     total cpu time spent up to now is       28.3 secs

     total energy              =    -569.22256677 Ry
     estimated scf accuracy    <       0.00000099 Ry

     total magnetization       =     0.58 Bohr mag/cell
     absolute magnetization    =     0.61 Bohr mag/cell
[tb_dev] Currently allocated     3.05E-05 Mbytes, locked:    0 /   2
[tb_pin] Currently allocated     0.00E+00 Mbytes, locked:    0 /   0

     iteration # 20     ecut=    60.00 Ry     beta= 0.30
     Davidson diagonalization with overlap

---- Real-time Memory Report at c_bands before calling an iterative solver
           753 MiB given to the printing process from OS
             0 MiB allocation reported by mallinfo(arena+hblkhd)
        850794 MiB available memory on the node where the printing process lives
     GPU memory used/free/total (MiB): 1074 / 80076 / 81151
------------------
     ethr =  2.61E-09,  avg # of iterations =  4.8

     total cpu time spent up to now is       29.8 secs

     total energy              =    -569.22256770 Ry
     estimated scf accuracy    <       0.00000027 Ry

     total magnetization       =     0.58 Bohr mag/cell
     absolute magnetization    =     0.61 Bohr mag/cell
[tb_dev] Currently allocated     3.05E-05 Mbytes, locked:    0 /   2
[tb_pin] Currently allocated     0.00E+00 Mbytes, locked:    0 /   0

     iteration # 21     ecut=    60.00 Ry     beta= 0.30
     Davidson diagonalization with overlap

---- Real-time Memory Report at c_bands before calling an iterative solver
           753 MiB given to the printing process from OS
             0 MiB allocation reported by mallinfo(arena+hblkhd)
        850842 MiB available memory on the node where the printing process lives
     GPU memory used/free/total (MiB): 1074 / 80076 / 81151
------------------
     ethr =  7.10E-10,  avg # of iterations =  4.0

     total cpu time spent up to now is       31.2 secs

     total energy              =    -569.22256782 Ry
     estimated scf accuracy    <       0.00000007 Ry

     total magnetization       =     0.58 Bohr mag/cell
     absolute magnetization    =     0.61 Bohr mag/cell
[tb_dev] Currently allocated     3.05E-05 Mbytes, locked:    0 /   2
[tb_pin] Currently allocated     0.00E+00 Mbytes, locked:    0 /   0

     iteration # 22     ecut=    60.00 Ry     beta= 0.30
     Davidson diagonalization with overlap

---- Real-time Memory Report at c_bands before calling an iterative solver
           753 MiB given to the printing process from OS
             0 MiB allocation reported by mallinfo(arena+hblkhd)
        850837 MiB available memory on the node where the printing process lives
     GPU memory used/free/total (MiB): 1074 / 80076 / 81151
------------------
     ethr =  1.82E-10,  avg # of iterations =  4.9

     total cpu time spent up to now is       32.7 secs

     total energy              =    -569.22256788 Ry
     estimated scf accuracy    <       0.00000004 Ry

     total magnetization       =     0.58 Bohr mag/cell
     absolute magnetization    =     0.61 Bohr mag/cell
[tb_dev] Currently allocated     3.05E-05 Mbytes, locked:    0 /   2
[tb_pin] Currently allocated     0.00E+00 Mbytes, locked:    0 /   0

     iteration # 23     ecut=    60.00 Ry     beta= 0.30
     Davidson diagonalization with overlap

---- Real-time Memory Report at c_bands before calling an iterative solver
           753 MiB given to the printing process from OS
             0 MiB allocation reported by mallinfo(arena+hblkhd)
        851375 MiB available memory on the node where the printing process lives
     GPU memory used/free/total (MiB): 1074 / 80076 / 81151
------------------
     ethr =  9.26E-11,  avg # of iterations =  2.7
 
     Magnetic moment per site  (integrated on atomic sphere of radius R)
     atom   1 (R=0.275)  charge= 14.1078  magn=  0.4571
     atom   2 (R=0.275)  charge=  5.2092  magn=  0.0518
     atom   3 (R=0.275)  charge=  5.2471  magn=  0.0389
     atom   4 (R=0.413)  charge=  8.2208  magn= -0.0034

     total cpu time spent up to now is       33.9 secs

     End of self-consistent calculation

 ------ SPIN UP ------------


          k = 0.0000 0.0000 0.0000 (  3231 PWs)   bands (ev):

   -90.3633 -53.5964 -53.5732 -53.5732 -48.1592 -20.0031 -19.9725 -19.9725
   -14.1267 -12.2182  -0.5164   0.1714   0.1714   2.6958   3.5994   3.7524
     3.7524   3.8107   3.8107   5.1203   7.6073   7.6073   8.8110  11.8051
    14.9157  16.5453  20.4366

     occupation numbers 
     1.0000   1.0000   1.0000   1.0000   1.0000   1.0000   1.0000   1.0000
     1.0000   1.0000   1.0000   1.0000   1.0000   1.0000   1.0000   1.0000
     1.0000   1.0000   1.0000   0.9555   0.0000   0.0000   0.0000   0.0000
     0.0000   0.0000   0.0000

          k = 0.0000 0.0000 0.1146 (  3237 PWs)   bands (ev):

   -90.3633 -53.5965 -53.5732 -53.5732 -48.1592 -20.0032 -19.9725 -19.9725
   -14.1266 -12.2186  -0.4906   0.1714   0.1714   2.3991   3.7523   3.7523
     3.8107   3.8107   4.0529   5.0362   7.6073   7.6073   8.4372  12.6230
    14.2345  16.5401  20.4476

     occupation numbers 
     1.0000   1.0000   1.0000   1.0000   1.0000   1.0000   1.0000   1.0000
     1.0000   1.0000   1.0000   1.0000   1.0000   1.0000   1.0000   1.0000
     1.0000   1.0000   1.0000   1.0578   0.0000   0.0000   0.0000   0.0000
     0.0000   0.0000   0.0000

          k = 0.0000 0.1443 0.0000 (  3229 PWs)   bands (ev):

   -90.3626 -53.5952 -53.5814 -53.5751 -48.1540 -20.0167 -19.9959 -19.9820
   -13.9567 -12.2187  -0.3468   0.0106   0.2812   2.5941   3.0427   3.1106
     3.9056   4.2054   4.4194   5.2075   7.1152   7.5079   9.1508  12.3919
    15.5266  16.8155  19.2123

     occupation numbers 
     1.0000   1.0000   1.0000   1.0000   1.0000   1.0000   1.0000   1.0000
     1.0000   1.0000   1.0000   1.0000   1.0000   1.0000   1.0000   1.0000
     1.0000   1.0000   1.0002   0.7639   0.0000   0.0000   0.0000   0.0000
     0.0000   0.0000   0.0000

          k = 0.0000 0.1443 0.1146 (  3219 PWs)   bands (ev):

   -90.3626 -53.5951 -53.5813 -53.5751 -48.1539 -20.0166 -19.9958 -19.9820
   -13.9566 -12.2190  -0.3304   0.0109   0.2812   2.6002   2.8589   3.0427
     4.1041   4.4031   4.4194   5.0945   7.1713   7.5079   8.8201  13.1217
    14.7384  17.0661  19.1633

     occupation numbers 
     1.0000   1.0000   1.0000   1.0000   1.0000   1.0000   1.0000   1.0000
     1.0000   1.0000   1.0000   1.0000   1.0000   1.0000   1.0000   1.0000
     1.0000   1.0002   1.0002   0.9961   0.0000   0.0000   0.0000   0.0000
     0.0000   0.0000   0.0000

          k = 0.0000 0.2887 0.0000 (  3212 PWs)   bands (ev):

   -90.3608 -53.6012 -53.5923 -53.5798 -48.1414 -20.1216 -20.0046 -19.9785
   -13.5120 -12.2316  -0.3707   0.2274   0.5409   1.2620   2.4681   3.5474
     4.2746   4.6576   4.6661   5.2863   6.5493   7.3862   9.9715  13.7148
    15.3820  16.8331  17.5084

     occupation numbers 
     1.0000   1.0000   1.0000   1.0000   1.0000   1.0000   1.0000   1.0000
     1.0000   1.0000   1.0000   1.0000   1.0000   1.0000   1.0000   1.0000
     1.0000   1.0099   1.0109   0.5496   0.0000   0.0000   0.0000   0.0000
     0.0000   0.0000   0.0000

          k = 0.0000 0.2887 0.1146 (  3212 PWs)   bands (ev):

   -90.3608 -53.6011 -53.5923 -53.5799 -48.1414 -20.1215 -20.0047 -19.9785
   -13.5119 -12.2318  -0.3762   0.2374   0.5409   1.2706   2.4681   3.4913
     4.2267   4.6576   4.8606   5.1127   6.7071   7.3861   9.7600  14.1705
    15.4839  15.9029  18.1337

     occupation numbers 
     1.0000   1.0000   1.0000   1.0000   1.0000   1.0000   1.0000   1.0000
     1.0000   1.0000   1.0000   1.0000   1.0000   1.0000   1.0000   1.0000
     1.0000   1.0099   1.0625   0.9683   0.0000   0.0000   0.0000   0.0000
     0.0000   0.0000   0.0000

          k = 0.0000 0.4330 0.0000 (  3198 PWs)   bands (ev):

   -90.3590 -53.6209 -53.5893 -53.5845 -48.1288 -20.2246 -20.0272 -19.9610
   -12.9869 -12.2845  -0.8104   0.2184   0.7439   1.2942   2.2664   3.0826
     4.1964   4.4462   4.6904   6.3932   7.0254   7.4221  11.2380  12.1212
    15.2750  16.1411  17.5318

     occupation numbers 
     1.0000   1.0000   1.0000   1.0000   1.0000   1.0000   1.0000   1.0000
     1.0000   1.0000   1.0000   1.0000   1.0000   1.0000   1.0000   1.0000
     1.0000   1.0004   1.0146   0.0000   0.0000   0.0000   0.0000   0.0000
     0.0000   0.0000   0.0000

          k = 0.0000 0.4330 0.1146 (  3216 PWs)   bands (ev):

   -90.3590 -53.6210 -53.5893 -53.5847 -48.1288 -20.2247 -20.0275 -19.9611
   -12.9869 -12.2845  -0.8117   0.2171   0.7439   1.2998   2.2663   3.0874
     4.1936   4.4461   4.6942   6.2570   7.1876   7.4220  11.1575  12.1048
    15.5643  16.2794  16.9391

     occupation numbers 
     1.0000   1.0000   1.0000   1.0000   1.0000   1.0000   1.0000   1.0000
     1.0000   1.0000   1.0000   1.0000   1.0000   1.0000   1.0000   1.0000
     1.0000   1.0004   1.0152   0.0000   0.0000   0.0000   0.0000   0.0000
     0.0000   0.0000   0.0000

          k = 0.0000-0.5774 0.0000 (  3214 PWs)   bands (ev):

   -90.3583 -53.6292 -53.5881 -53.5866 -48.1236 -20.2669 -20.0368 -19.9539
   -12.6993 -12.3612  -1.1919   0.3822   0.7855   1.4913   2.3067   2.7925
     3.9765   4.2498   4.6334   6.8460   7.4703   8.5392   9.8064  12.7672
    13.8964  16.5144  17.4481

     occupation numbers 
     1.0000   1.0000   1.0000   1.0000   1.0000   1.0000   1.0000   1.0000
     1.0000   1.0000   1.0000   1.0000   1.0000   1.0000   1.0000   1.0000
     1.0000   1.0000   1.0072   0.0000   0.0000   0.0000   0.0000   0.0000
     0.0000   0.0000   0.0000

          k = 0.0000-0.5774 0.1146 (  3216 PWs)   bands (ev):

   -90.3583 -53.6293 -53.5881 -53.5866 -48.1236 -20.2671 -20.0368 -19.9538
   -12.6993 -12.3613  -1.1923   0.3812   0.7855   1.4915   2.3067   2.7990
     3.9756   4.2498   4.6321   6.8470   7.4703   8.5115   9.7966  12.9044
    13.9161  16.3890  16.9731

     occupation numbers 
     1.0000   1.0000   1.0000   1.0000   1.0000   1.0000   1.0000   1.0000
     1.0000   1.0000   1.0000   1.0000   1.0000   1.0000   1.0000   1.0000
     1.0000   1.0000   1.0071   0.0000   0.0000   0.0000   0.0000   0.0000
     0.0000   0.0000   0.0000

          k = 0.1250 0.2165 0.0000 (  3225 PWs)   bands (ev):

   -90.3613 -53.5945 -53.5931 -53.5794 -48.1451 -20.0862 -20.0032 -19.9836
   -13.6492 -12.2247  -0.2931   0.1266   0.4283   1.7265   2.3348   3.5593
     4.2639   4.4189   4.7640   5.2282   6.7088   7.2668   9.7174  13.3530
    16.2599  16.8718  17.3010

     occupation numbers 
     1.0000   1.0000   1.0000   1.0000   1.0000   1.0000   1.0000   1.0000
     1.0000   1.0000   1.0000   1.0000   1.0000   1.0000   1.0000   1.0000
     1.0000   1.0002   1.0309   0.7095   0.0000   0.0000   0.0000   0.0000
     0.0000   0.0000   0.0000

          k = 0.1250 0.2165 0.1146 (  3212 PWs)   bands (ev):

   -90.3613 -53.5944 -53.5931 -53.5793 -48.1451 -20.0861 -20.0030 -19.9835
   -13.6490 -12.2249  -0.2969   0.1384   0.4289   1.7344   2.3348   3.4254
     4.2609   4.5235   4.8755   5.1363   6.7985   7.2372   9.5339  13.8285
    15.5963  16.6911  17.9825

     occupation numbers 
     1.0000   1.0000   1.0000   1.0000   1.0000   1.0000   1.0000   1.0000
     1.0000   1.0000   1.0000   1.0000   1.0000   1.0000   1.0000   1.0000
     1.0000   1.0014   1.0674   0.9263   0.0000   0.0000   0.0000   0.0000
     0.0000   0.0000   0.0000

          k = 0.1250 0.3608 0.0000 (  3216 PWs)   bands (ev):

   -90.3595 -53.6123 -53.5903 -53.5861 -48.1325 -20.1791 -20.0367 -19.9662
   -13.1640 -12.2511  -0.4132   0.1167   0.7304   1.1787   1.9028   3.3901
     4.3007   4.5703   4.8801   5.9562   6.7292   7.1757  10.7621  13.6484
    14.8064  17.0783  17.7588

     occupation numbers 
     1.0000   1.0000   1.0000   1.0000   1.0000   1.0000   1.0000   1.0000
     1.0000   1.0000   1.0000   1.0000   1.0000   1.0000   1.0000   1.0000
     1.0000   1.0030   1.0688   0.0001   0.0000   0.0000   0.0000   0.0000
     0.0000   0.0000   0.0000

          k = 0.1250 0.3608 0.1146 (  3205 PWs)   bands (ev):

   -90.3595 -53.6122 -53.5903 -53.5860 -48.1325 -20.1789 -20.0366 -19.9662
   -13.1639 -12.2511  -0.4164   0.1167   0.7325   1.1867   1.9030   3.3854
     4.2999   4.5779   4.8649   5.8625   6.9156   7.1238  10.6852  13.6288
    15.0588  16.7693  17.6970

     occupation numbers 
     1.0000   1.0000   1.0000   1.0000   1.0000   1.0000   1.0000   1.0000
     1.0000   1.0000   1.0000   1.0000   1.0000   1.0000   1.0000   1.0000
     1.0000   1.0033   1.0639   0.0005   0.0000   0.0000   0.0000   0.0000
     0.0000   0.0000   0.0000

          k = 0.1250 0.5052 0.0000 (  3220 PWs)   bands (ev):

   -90.3583 -53.6248 -53.5910 -53.5882 -48.1236 -20.2433 -20.0610 -19.9540
   -12.7479 -12.3134  -0.9070   0.1192   0.9344   1.5029   1.8315   2.8057
     4.0699   4.3677   4.8136   6.7876   7.1906   8.0713  10.8375  12.3852
    14.9280  15.9901  17.1564

     occupation numbers 
     1.0000   1.0000   1.0000   1.0000   1.0000   1.0000   1.0000   1.0000
     1.0000   1.0000   1.0000   1.0000   1.0000   1.0000   1.0000   1.0000
     1.0000   1.0001   1.0463   0.0000   0.0000   0.0000   0.0000   0.0000
     0.0000   0.0000   0.0000

          k = 0.1250 0.5052 0.1146 (  3217 PWs)   bands (ev):

   -90.3583 -53.6247 -53.5910 -53.5881 -48.1236 -20.2432 -20.0610 -19.9540
   -12.7478 -12.3134  -0.9075   0.1185   0.9341   1.5043   1.8313   2.8101
     4.0693   4.3683   4.8113   6.7675   7.2030   8.0805  10.8100  12.4022
    15.0598  16.0240  17.0352

     occupation numbers 
     1.0000   1.0000   1.0000   1.0000   1.0000   1.0000   1.0000   1.0000
     1.0000   1.0000   1.0000   1.0000   1.0000   1.0000   1.0000   1.0000
     1.0000   1.0001   1.0456   0.0000   0.0000   0.0000   0.0000   0.0000
     0.0000   0.0000   0.0000

          k = 0.2500 0.4330 0.0000 (  3215 PWs)   bands (ev):

   -90.3583 -53.6185 -53.5972 -53.5882 -48.1236 -20.2101 -20.0944 -19.9541
   -12.7874 -12.2744  -0.3958  -0.1461   0.7392   1.3811   1.6650   2.8471
     4.1339   4.4581   4.9888   6.7506   6.8746   7.8232  11.8662  12.2932
    14.7785  16.6725  16.9804

     occupation numbers 
     1.0000   1.0000   1.0000   1.0000   1.0000   1.0000   1.0000   1.0000
     1.0000   1.0000   1.0000   1.0000   1.0000   1.0000   1.0000   1.0000
     1.0000   1.0005   1.0798   0.0000   0.0000   0.0000   0.0000   0.0000
     0.0000   0.0000   0.0000

          k = 0.2500 0.4330 0.1146 (  3206 PWs)   bands (ev):

   -90.3583 -53.6185 -53.5972 -53.5881 -48.1236 -20.2100 -20.0944 -19.9539
   -12.7874 -12.2745  -0.3963  -0.1471   0.7393   1.3830   1.6669   2.8470
     4.1344   4.4592   4.9816   6.7769   6.8616   7.8033  11.8902  12.3116
    14.7579  16.5505  17.0678

     occupation numbers 
     1.0000   1.0000   1.0000   1.0000   1.0000   1.0000   1.0000   1.0000
     1.0000   1.0000   1.0000   1.0000   1.0000   1.0000   1.0000   1.0000
     1.0000   1.0005   1.0813   0.0000   0.0000   0.0000   0.0000   0.0000
     0.0000   0.0000   0.0000

          k = 0.2500 0.5774 0.0000 (  3210 PWs)   bands (ev):

   -90.3578 -53.6189 -53.6039 -53.5873 -48.1199 -20.2112 -20.1300 -19.9489
   -12.6213 -12.2856  -0.5194  -0.0732   0.5552   1.5339   1.8772   2.4052
     3.8752   4.6470   4.9064   6.8552   6.8867   9.3669  10.3903  13.7400
    14.0596  14.8777  16.8881

     occupation numbers 
     1.0000   1.0000   1.0000   1.0000   1.0000   1.0000   1.0000   1.0000
     1.0000   1.0000   1.0000   1.0000   1.0000   1.0000   1.0000   1.0000
     1.0000   1.0086   1.0762   0.0000   0.0000   0.0000   0.0000   0.0000
     0.0000   0.0000   0.0000

          k = 0.2500 0.5774 0.1146 (  3215 PWs)   bands (ev):

   -90.3578 -53.6190 -53.6039 -53.5873 -48.1199 -20.2113 -20.1299 -19.9489
   -12.6213 -12.2856  -0.5198  -0.0734   0.5553   1.5342   1.8771   2.4059
     3.8752   4.6472   4.9047   6.8585   6.8940   9.3522  10.3738  13.7818
    14.0409  14.9444  16.8615

     occupation numbers 
     1.0000   1.0000   1.0000   1.0000   1.0000   1.0000   1.0000   1.0000
     1.0000   1.0000   1.0000   1.0000   1.0000   1.0000   1.0000   1.0000
     1.0000   1.0086   1.0758   0.0000   0.0000   0.0000   0.0000   0.0000
     0.0000   0.0000   0.0000

          k = 0.0000-0.1443 0.1146 (  3219 PWs)   bands (ev):

   -90.3626 -53.5951 -53.5813 -53.5751 -48.1539 -20.0166 -19.9958 -19.9820
   -13.9566 -12.2190  -0.3292   0.0098   0.2811   2.5751   2.8906   3.0427
     4.0951   4.3979   4.4194   5.1139   7.1279   7.5080   8.8693  13.0703
    14.7686  17.0649  19.2215

     occupation numbers 
     1.0000   1.0000   1.0000   1.0000   1.0000   1.0000   1.0000   1.0000
     1.0000   1.0000   1.0000   1.0000   1.0000   1.0000   1.0000   1.0000
     1.0000   1.0001   1.0002   0.9664   0.0000   0.0000   0.0000   0.0000
     0.0000   0.0000   0.0000

          k = 0.0000-0.2887 0.1146 (  3212 PWs)   bands (ev):

   -90.3608 -53.6011 -53.5923 -53.5799 -48.1414 -20.1215 -20.0047 -19.9785
   -13.5119 -12.2318  -0.3741   0.2342   0.5409   1.2725   2.4681   3.4764
     4.2423   4.6576   4.7586   5.3082   6.5486   7.3862   9.8960  13.9733
    15.3726  16.0842  18.4744

     occupation numbers 
     1.0000   1.0000   1.0000   1.0000   1.0000   1.0000   1.0000   1.0000
     1.0000   1.0000   1.0000   1.0000   1.0000   1.0000   1.0000   1.0000
     1.0000   1.0099   1.0294   0.4898   0.0000   0.0000   0.0000   0.0000
     0.0000   0.0000   0.0000

          k = 0.0000-0.4330 0.1146 (  3216 PWs)   bands (ev):

   -90.3590 -53.6210 -53.5893 -53.5847 -48.1288 -20.2247 -20.0275 -19.9611
   -12.9869 -12.2846  -0.8118   0.2167   0.7439   1.3028   2.2663   3.0798
     4.1973   4.4461   4.6814   6.4271   6.9734   7.4220  11.3330  12.1296
    15.1114  16.0934  17.3166

     occupation numbers 
     1.0000   1.0000   1.0000   1.0000   1.0000   1.0000   1.0000   1.0000
     1.0000   1.0000   1.0000   1.0000   1.0000   1.0000   1.0000   1.0000
     1.0000   1.0004   1.0131   0.0000   0.0000   0.0000   0.0000   0.0000
     0.0000   0.0000   0.0000

          k =-0.1250-0.3608 0.1146 (  3205 PWs)   bands (ev):

   -90.3595 -53.6122 -53.5903 -53.5860 -48.1325 -20.1789 -20.0366 -19.9662
   -13.1639 -12.2512  -0.4160   0.1161   0.7314   1.1895   1.9027   3.3790
     4.3039   4.5817   4.8409   5.9822   6.7387   7.1701  10.7733  13.6382
    14.8652  16.7969  17.8263

     occupation numbers 
     1.0000   1.0000   1.0000   1.0000   1.0000   1.0000   1.0000   1.0000
     1.0000   1.0000   1.0000   1.0000   1.0000   1.0000   1.0000   1.0000
     1.0000   1.0035   1.0557   0.0000   0.0000   0.0000   0.0000   0.0000
     0.0000   0.0000   0.0000

          k =-0.1250-0.5052 0.1146 (  3217 PWs)   bands (ev):

   -90.3583 -53.6247 -53.5910 -53.5881 -48.1236 -20.2432 -20.0610 -19.9540
   -12.7478 -12.3134  -0.9076   0.1186   0.9340   1.5053   1.8318   2.8075
     4.0702   4.3682   4.8092   6.8068   7.1905   8.0257  10.8329  12.5220
    14.9080  15.8822  16.9123

     occupation numbers 
     1.0000   1.0000   1.0000   1.0000   1.0000   1.0000   1.0000   1.0000
     1.0000   1.0000   1.0000   1.0000   1.0000   1.0000   1.0000   1.0000
     1.0000   1.0001   1.0449   0.0000   0.0000   0.0000   0.0000   0.0000
     0.0000   0.0000   0.0000

 ------ SPIN DOWN ----------


          k = 0.0000 0.0000 0.0000 (  3231 PWs)   bands (ev):

   -89.8055 -53.0723 -53.0723 -52.9666 -48.1606 -20.0037 -19.9744 -19.9744
   -14.0546 -12.1364  -0.3124   0.3403   0.3403   2.8072   3.6450   3.8158
     3.8158   4.2711   4.2711   5.7406   7.8478   7.8478   8.8298  11.8577
    14.9854  16.6265  20.4612

     occupation numbers 
     1.0000   1.0000   1.0000   1.0000   1.0000   1.0000   1.0000   1.0000
     1.0000   1.0000   1.0000   1.0000   1.0000   1.0000   1.0000   1.0000
     1.0000   1.0000   1.0000   0.0047   0.0000   0.0000   0.0000   0.0000
     0.0000   0.0000   0.0000

          k = 0.0000 0.0000 0.1146 (  3237 PWs)   bands (ev):

   -89.8055 -53.0723 -53.0723 -52.9667 -48.1606 -20.0039 -19.9744 -19.9744
   -14.0545 -12.1367  -0.2823   0.3403   0.3403   2.4776   3.8157   3.8157
     4.1154   4.2711   4.2711   5.6688   7.8479   7.8479   8.4533  12.6796
    14.3088  16.6002  20.5025

     occupation numbers 
     1.0000   1.0000   1.0000   1.0000   1.0000   1.0000   1.0000   1.0000
     1.0000   1.0000   1.0000   1.0000   1.0000   1.0000   1.0000   1.0000
     1.0000   1.0000   1.0000   0.0140   0.0000   0.0000   0.0000   0.0000
     0.0000   0.0000   0.0000

          k = 0.0000 0.1443 0.0000 (  3229 PWs)   bands (ev):

   -89.8048 -53.0807 -53.0743 -52.9654 -48.1554 -20.0186 -19.9965 -19.9839
   -13.8843 -12.1362  -0.1581   0.1860   0.4447   2.7337   3.2327   3.2328
     3.9792   4.6007   4.7683   5.7823   7.3511   7.7426   9.1796  12.4402
    15.5940  16.9004  19.1910

     occupation numbers 
     1.0000   1.0000   1.0000   1.0000   1.0000   1.0000   1.0000   1.0000
     1.0000   1.0000   1.0000   1.0000   1.0000   1.0000   1.0000   1.0000
     1.0000   1.0046   1.0321   0.0023   0.0000   0.0000   0.0000   0.0000
     0.0000   0.0000   0.0000

          k = 0.0000 0.1443 0.1146 (  3219 PWs)   bands (ev):

   -89.8047 -53.0807 -53.0743 -52.9653 -48.1554 -20.0185 -19.9964 -19.9838
   -13.8842 -12.1365  -0.1413   0.1890   0.4447   2.7420   2.9484   3.2328
     4.3284   4.6513   4.7683   5.6934   7.4160   7.7425   8.8367  13.1747
    14.8105  17.1324  19.1446

     occupation numbers 
     1.0000   1.0000   1.0000   1.0000   1.0000   1.0000   1.0000   1.0000
     1.0000   1.0000   1.0000   1.0000   1.0000   1.0000   1.0000   1.0000
     1.0000   1.0091   1.0321   0.0098   0.0000   0.0000   0.0000   0.0000
     0.0000   0.0000   0.0000

          k = 0.0000 0.2887 0.0000 (  3212 PWs)   bands (ev):

   -89.8029 -53.1011 -53.0791 -52.9624 -48.1428 -20.1237 -20.0065 -19.9791
   -13.4389 -12.1474  -0.2313   0.4089   0.6922   1.4110   2.6330   3.6899
     4.6720   4.9159   5.0666   5.6816   6.8084   7.6079   9.9949  13.7534
    15.3673  16.8906  17.5989

     occupation numbers 
     1.0000   1.0000   1.0000   1.0000   1.0000   1.0000   1.0000   1.0000
     1.0000   1.0000   1.0000   1.0000   1.0000   1.0000   1.0000   1.0000
     1.0117   1.0785   1.0308   0.0116   0.0000   0.0000   0.0000   0.0000
     0.0000   0.0000   0.0000

          k = 0.0000 0.2887 0.1146 (  3212 PWs)   bands (ev):

   -89.8029 -53.1010 -53.0792 -52.9624 -48.1428 -20.1236 -20.0066 -19.9791
   -13.4388 -12.1475  -0.2372   0.4193   0.6923   1.4230   2.6329   3.6159
     4.6181   5.0666   5.0851   5.5639   6.9666   7.6079   9.7697  14.2092
    15.4739  15.9646  18.2091

     occupation numbers 
     1.0000   1.0000   1.0000   1.0000   1.0000   1.0000   1.0000   1.0000
     1.0000   1.0000   1.0000   1.0000   1.0000   1.0000   1.0000   1.0000
     1.0059   1.0308   1.0089   0.0552   0.0000   0.0000   0.0000   0.0000
     0.0000   0.0000   0.0000

          k = 0.0000 0.4330 0.0000 (  3198 PWs)   bands (ev):

   -89.8011 -53.1214 -53.0840 -52.9592 -48.1302 -20.2269 -20.0291 -19.9616
   -12.9137 -12.1977  -0.6907   0.3105   0.8923   1.5108   2.3705   3.2275
     4.7258   4.9313   5.2386   6.5170   7.1817   7.6417  11.2450  12.1052
    15.3085  16.1522  17.6018

     occupation numbers 
     1.0000   1.0000   1.0000   1.0000   1.0000   1.0000   1.0000   1.0000
     1.0000   1.0000   1.0000   1.0000   1.0000   1.0000   1.0000   1.0000
     1.0214   1.0813   0.6815   0.0000   0.0000   0.0000   0.0000   0.0000
     0.0000   0.0000   0.0000

          k = 0.0000 0.4330 0.1146 (  3216 PWs)   bands (ev):

   -89.8011 -53.1214 -53.0841 -52.9593 -48.1303 -20.2270 -20.0294 -19.9617
   -12.9137 -12.1977  -0.6920   0.3091   0.8923   1.5173   2.3704   3.2325
     4.7204   4.9312   5.2442   6.3769   7.3521   7.6416  11.1593  12.0890
    15.5957  16.2953  16.9916

     occupation numbers 
     1.0000   1.0000   1.0000   1.0000   1.0000   1.0000   1.0000   1.0000
     1.0000   1.0000   1.0000   1.0000   1.0000   1.0000   1.0000   1.0000
     1.0202   1.0813   0.6660   0.0000   0.0000   0.0000   0.0000   0.0000
     0.0000   0.0000   0.0000

          k = 0.0000-0.5774 0.0000 (  3214 PWs)   bands (ev):

   -89.8003 -53.1298 -53.0861 -52.9580 -48.1250 -20.2692 -20.0388 -19.9545
   -12.6291 -12.2702  -1.0825   0.4516   0.9385   1.7135   2.3608   2.9215
     4.6019   4.7819   5.1348   7.1361   7.6924   8.5271   9.7937  12.7629
    13.9099  16.5430  17.4783

     occupation numbers 
     1.0000   1.0000   1.0000   1.0000   1.0000   1.0000   1.0000   1.0000
     1.0000   1.0000   1.0000   1.0000   1.0000   1.0000   1.0000   1.0000
     1.0047   1.0362   0.9292   0.0000   0.0000   0.0000   0.0000   0.0000
     0.0000   0.0000   0.0000

          k = 0.0000-0.5774 0.1146 (  3216 PWs)   bands (ev):

   -89.8003 -53.1299 -53.0861 -52.9580 -48.1250 -20.2694 -20.0387 -19.9544
   -12.6291 -12.2702  -1.0830   0.4505   0.9385   1.7136   2.3609   2.9284
     4.6006   4.7819   5.1338   7.1369   7.6925   8.4973   9.7859  12.9020
    13.9271  16.4259  17.0184

     occupation numbers 
     1.0000   1.0000   1.0000   1.0000   1.0000   1.0000   1.0000   1.0000
     1.0000   1.0000   1.0000   1.0000   1.0000   1.0000   1.0000   1.0000
     1.0046   1.0361   0.9310   0.0000   0.0000   0.0000   0.0000   0.0000
     0.0000   0.0000   0.0000

          k = 0.1250 0.2165 0.0000 (  3225 PWs)   bands (ev):

   -89.8035 -53.0942 -53.0787 -52.9632 -48.1465 -20.0882 -20.0051 -19.9842
   -13.5762 -12.1410  -0.1500   0.3273   0.5832   1.8578   2.5103   3.6883
     4.5527   4.7367   5.1105   5.7241   6.9474   7.4980   9.7444  13.3953
    16.2906  16.8766  17.3934

     occupation numbers 
     1.0000   1.0000   1.0000   1.0000   1.0000   1.0000   1.0000   1.0000
     1.0000   1.0000   1.0000   1.0000   1.0000   1.0000   1.0000   1.0000
     1.0023   1.0239   0.9720   0.0061   0.0000   0.0000   0.0000   0.0000
     0.0000   0.0000   0.0000

          k = 0.1250 0.2165 0.1146 (  3212 PWs)   bands (ev):

   -89.8035 -53.0942 -53.0787 -52.9632 -48.1465 -20.0882 -20.0049 -19.9841
   -13.5761 -12.1411  -0.1545   0.3408   0.5843   1.8685   2.5102   3.5307
     4.6826   4.7477   5.1961   5.6410   7.0426   7.4664   9.5514  13.8722
    15.6664  16.6717  18.0514

     occupation numbers 
     1.0000   1.0000   1.0000   1.0000   1.0000   1.0000   1.0000   1.0000
     1.0000   1.0000   1.0000   1.0000   1.0000   1.0000   1.0000   1.0000
     1.0133   1.0266   0.7929   0.0207   0.0000   0.0000   0.0000   0.0000
     0.0000   0.0000   0.0000

          k = 0.1250 0.3608 0.0000 (  3216 PWs)   bands (ev):

   -89.8016 -53.1125 -53.0856 -52.9602 -48.1340 -20.1813 -20.0386 -19.9668
   -13.0905 -12.1653  -0.2835   0.2307   0.8788   1.3710   2.0440   3.5292
     4.8016   5.1453   5.3187   5.9962   6.9693   7.3952  10.7763  13.6285
    14.8385  17.1123  17.8009

     occupation numbers 
     1.0000   1.0000   1.0000   1.0000   1.0000   1.0000   1.0000   1.0000
     1.0000   1.0000   1.0000   1.0000   1.0000   1.0000   1.0000   1.0000
     1.0423   0.9086   0.4619   0.0000   0.0000   0.0000   0.0000   0.0000
     0.0000   0.0000   0.0000

          k = 0.1250 0.3608 0.1146 (  3205 PWs)   bands (ev):

   -89.8016 -53.1124 -53.0856 -52.9602 -48.1339 -20.1811 -20.0386 -19.9668
   -13.0905 -12.1653  -0.2868   0.2306   0.8804   1.3814   2.0443   3.5226
     4.7987   5.1275   5.3289   5.9214   7.1416   7.3460  10.6926  13.6091
    15.0891  16.8229  17.7471

     occupation numbers 
     1.0000   1.0000   1.0000   1.0000   1.0000   1.0000   1.0000   1.0000
     1.0000   1.0000   1.0000   1.0000   1.0000   1.0000   1.0000   1.0000
     1.0414   0.9427   0.4352   0.0002   0.0000   0.0000   0.0000   0.0000
     0.0000   0.0000   0.0000

          k = 0.1250 0.5052 0.0000 (  3220 PWs)   bands (ev):

   -89.8004 -53.1253 -53.0906 -52.9581 -48.1251 -20.2456 -20.0630 -19.9546
   -12.6760 -12.2239  -0.7973   0.2173   1.0649   1.6854   1.9492   2.9441
     4.7374   4.8803   5.2600   7.0512   7.4160   8.0765  10.8205  12.3868
    14.9356  16.0030  17.1899

     occupation numbers 
     1.0000   1.0000   1.0000   1.0000   1.0000   1.0000   1.0000   1.0000
     1.0000   1.0000   1.0000   1.0000   1.0000   1.0000   1.0000   1.0000
     1.0240   1.0689   0.6226   0.0000   0.0000   0.0000   0.0000   0.0000
     0.0000   0.0000   0.0000

          k = 0.1250 0.5052 0.1146 (  3217 PWs)   bands (ev):

   -89.8004 -53.1253 -53.0906 -52.9580 -48.1250 -20.2455 -20.0630 -19.9545
   -12.6760 -12.2240  -0.7977   0.2165   1.0646   1.6868   1.9491   2.9489
     4.7363   4.8809   5.2577   7.0234   7.4318   8.0907  10.7929  12.4041
    15.0646  16.0382  17.0635

     occupation numbers 
     1.0000   1.0000   1.0000   1.0000   1.0000   1.0000   1.0000   1.0000
     1.0000   1.0000   1.0000   1.0000   1.0000   1.0000   1.0000   1.0000
     1.0238   1.0691   0.6289   0.0000   0.0000   0.0000   0.0000   0.0000
     0.0000   0.0000   0.0000

          k = 0.2500 0.4330 0.0000 (  3215 PWs)   bands (ev):

   -89.8004 -53.1189 -53.0970 -52.9581 -48.1250 -20.2123 -20.0965 -19.9547
   -12.7148 -12.1858  -0.2904  -0.0269   0.8303   1.5416   1.8460   2.9868
     4.8334   4.9520   5.4114   6.9576   7.1333   7.8423  11.8495  12.2897
    14.7835  16.6924  16.9973

     occupation numbers 
     1.0000   1.0000   1.0000   1.0000   1.0000   1.0000   1.0000   1.0000
     1.0000   1.0000   1.0000   1.0000   1.0000   1.0000   1.0000   1.0000
     1.0531   1.0832   0.2456   0.0000   0.0000   0.0000   0.0000   0.0000
     0.0000   0.0000   0.0000

          k = 0.2500 0.4330 0.1146 (  3206 PWs)   bands (ev):

   -89.8003 -53.1189 -53.0969 -52.9580 -48.1250 -20.2123 -20.0964 -19.9545
   -12.7148 -12.1858  -0.2908  -0.0280   0.8305   1.5430   1.8489   2.9865
     4.8336   4.9533   5.4026   6.9871   7.1171   7.8243  11.8720  12.3090
    14.7623  16.5671  17.0811

     occupation numbers 
     1.0000   1.0000   1.0000   1.0000   1.0000   1.0000   1.0000   1.0000
     1.0000   1.0000   1.0000   1.0000   1.0000   1.0000   1.0000   1.0000
     1.0532   1.0833   0.2632   0.0000   0.0000   0.0000   0.0000   0.0000
     0.0000   0.0000   0.0000

          k = 0.2500 0.5774 0.0000 (  3210 PWs)   bands (ev):

   -89.7998 -53.1194 -53.1039 -52.9571 -48.1213 -20.2135 -20.1321 -19.9494
   -12.5505 -12.1942  -0.4144   0.0344   0.6416   1.6747   2.0600   2.5333
     4.6167   5.1246   5.3559   7.1173   7.1244   9.3475  10.3721  13.7363
    14.0595  14.8850  16.8970

     occupation numbers 
     1.0000   1.0000   1.0000   1.0000   1.0000   1.0000   1.0000   1.0000
     1.0000   1.0000   1.0000   1.0000   1.0000   1.0000   1.0000   1.0000
     1.0058   0.9479   0.3673   0.0000   0.0000   0.0000   0.0000   0.0000
     0.0000   0.0000   0.0000

          k = 0.2500 0.5774 0.1146 (  3215 PWs)   bands (ev):

   -89.7998 -53.1194 -53.1039 -52.9572 -48.1214 -20.2136 -20.1320 -19.9495
   -12.5505 -12.1942  -0.4148   0.0341   0.6417   1.6749   2.0598   2.5343
     4.6168   5.1248   5.3542   7.1208   7.1328   9.3313  10.3548  13.7803
    14.0401  14.9533  16.8738

     occupation numbers 
     1.0000   1.0000   1.0000   1.0000   1.0000   1.0000   1.0000   1.0000
     1.0000   1.0000   1.0000   1.0000   1.0000   1.0000   1.0000   1.0000
     1.0058   0.9476   0.3714   0.0000   0.0000   0.0000   0.0000   0.0000
     0.0000   0.0000   0.0000

          k = 0.0000-0.1443 0.1146 (  3219 PWs)   bands (ev):

   -89.8048 -53.0807 -53.0743 -52.9653 -48.1554 -20.0185 -19.9964 -19.9838
   -13.8842 -12.1365  -0.1401   0.1880   0.4447   2.7041   2.9959   3.2327
     4.2997   4.6716   4.7683   5.7042   7.3662   7.7426   8.8923  13.1217
    14.8430  17.1296  19.2011

     occupation numbers 
     1.0000   1.0000   1.0000   1.0000   1.0000   1.0000   1.0000   1.0000
     1.0000   1.0000   1.0000   1.0000   1.0000   1.0000   1.0000   1.0000
     1.0000   1.0117   1.0321   0.0083   0.0000   0.0000   0.0000   0.0000
     0.0000   0.0000   0.0000

          k = 0.0000-0.2887 0.1146 (  3212 PWs)   bands (ev):

   -89.8029 -53.1010 -53.0792 -52.9624 -48.1428 -20.1236 -20.0066 -19.9791
   -13.4388 -12.1475  -0.2354   0.4163   0.6922   1.4249   2.6329   3.6010
     4.6210   5.0666   5.0803   5.6678   6.8085   7.6079   9.9134  14.0091
    15.3638  16.1559  18.5432

     occupation numbers 
     1.0000   1.0000   1.0000   1.0000   1.0000   1.0000   1.0000   1.0000
     1.0000   1.0000   1.0000   1.0000   1.0000   1.0000   1.0000   1.0000
     1.0061   1.0308   1.0149   0.0142   0.0000   0.0000   0.0000   0.0000
     0.0000   0.0000   0.0000

          k = 0.0000-0.4330 0.1146 (  3216 PWs)   bands (ev):

   -89.8011 -53.1214 -53.0841 -52.9593 -48.1303 -20.2270 -20.0294 -19.9617
   -12.9136 -12.1978  -0.6922   0.3087   0.8923   1.5211   2.3704   3.2234
     4.7224   4.9312   5.2296   6.5477   7.1380   7.6416  11.3379  12.1139
    15.1391  16.1099  17.3971

     occupation numbers 
     1.0000   1.0000   1.0000   1.0000   1.0000   1.0000   1.0000   1.0000
     1.0000   1.0000   1.0000   1.0000   1.0000   1.0000   1.0000   1.0000
     1.0206   1.0813   0.7058   0.0000   0.0000   0.0000   0.0000   0.0000
     0.0000   0.0000   0.0000

          k =-0.1250-0.3608 0.1146 (  3205 PWs)   bands (ev):

   -89.8016 -53.1124 -53.0856 -52.9602 -48.1339 -20.1811 -20.0386 -19.9668
   -13.0904 -12.1653  -0.2865   0.2301   0.8795   1.3845   2.0440   3.5151
     4.8028   5.1413   5.2817   6.0389   6.9801   7.3904  10.7835  13.6180
    14.8934  16.8598  17.8459

     occupation numbers 
     1.0000   1.0000   1.0000   1.0000   1.0000   1.0000   1.0000   1.0000
     1.0000   1.0000   1.0000   1.0000   1.0000   1.0000   1.0000   1.0000
     1.0428   0.9165   0.5624   0.0000   0.0000   0.0000   0.0000   0.0000
     0.0000   0.0000   0.0000

          k =-0.1250-0.5052 0.1146 (  3217 PWs)   bands (ev):

   -89.8004 -53.1253 -53.0906 -52.9580 -48.1250 -20.2455 -20.0630 -19.9545
   -12.6760 -12.2240  -0.7978   0.2166   1.0645   1.6878   1.9501   2.9458
     4.7373   4.8806   5.2553   7.0769   7.4136   8.0270  10.8154  12.5242
    14.9160  15.8983  16.9336

     occupation numbers 
     1.0000   1.0000   1.0000   1.0000   1.0000   1.0000   1.0000   1.0000
     1.0000   1.0000   1.0000   1.0000   1.0000   1.0000   1.0000   1.0000
     1.0240   1.0690   0.6355   0.0000   0.0000   0.0000   0.0000   0.0000
     0.0000   0.0000   0.0000

     the Fermi energy is     5.3424 ev

!    total energy              =    -569.22256789 Ry
     total all-electron energy =     -3412.713123 Ry
     estimated scf accuracy    <          7.8E-09 Ry
     smearing contrib. (-TS)   =       0.00310272 Ry
     internal energy E=F+TS    =    -569.22567061 Ry

     The total energy is F=E-TS. E is the sum of the following terms:
     one-electron contribution =    -574.15531092 Ry
     hartree contribution      =     301.62004639 Ry
     xc contribution           =     -60.04143745 Ry
     ewald contribution        =    -114.70097235 Ry
     one-center paw contrib.   =    -121.94799628 Ry
      -> PAW hartree energy AE =     343.02909171 Ry
      -> PAW hartree energy PS =    -343.02645060 Ry
      -> PAW xc energy AE      =    -178.95809699 Ry
      -> PAW xc energy PS      =      57.00745959 Ry
      -> total E_H with PAW    =     301.62268750 Ry
      -> total E_XC with PAW   =    -181.99207484 Ry

     total magnetization       =     0.58 Bohr mag/cell
     absolute magnetization    =     0.61 Bohr mag/cell

     convergence has been achieved in  23 iterations

     Forces acting on atoms (cartesian axes, Ry/au):

     atom    1 type  1   force =     0.00000000    0.00000000    0.02863755
     atom    2 type  2   force =     0.00000000    0.00000000   -0.02944225
     atom    3 type  2   force =     0.00000000    0.00000000   -0.02160403
     atom    4 type  3   force =    -0.00000000   -0.00000000    0.02240873
     The non-local contrib.  to forces
     atom    1 type  1   force =     0.00000000    0.00000000    0.02785208
     atom    2 type  2   force =     0.00000000    0.00000000   -1.20138807
     atom    3 type  2   force =     0.00000000    0.00000000    0.77961994
     atom    4 type  3   force =     0.00000000    0.00000000   -0.00708300
     The ionic contribution  to forces
     atom    1 type  1   force =    -0.00000000    0.00000000   13.27290050
     atom    2 type  2   force =     0.00000000   -0.00000000   35.86295584
     atom    3 type  2   force =    -0.00000000    0.00000000  -26.62066395
     atom    4 type  3   force =     0.00000000   -0.00000000  -22.51519239
     The local contribution  to forces
     atom    1 type  1   force =    -0.00000000   -0.00000000  -13.27191334
     atom    2 type  2   force =     0.00000001   -0.00000001  -34.70165694
     atom    3 type  2   force =    -0.00000001    0.00000001   25.82589989
     atom    4 type  3   force =     0.00000006   -0.00000004   22.54471785
     The core correction contribution to forces
     atom    1 type  1   force =     0.00000000   -0.00000000   -0.00029904
     atom    2 type  2   force =    -0.00000000    0.00000000    0.01065754
     atom    3 type  2   force =     0.00000000   -0.00000000   -0.00652308
     atom    4 type  3   force =     0.00000000   -0.00000000   -0.00003510
     The Hubbard contrib.    to forces
     atom    1 type  1   force =     0.00000000    0.00000000    0.00000000
     atom    2 type  2   force =     0.00000000    0.00000000    0.00000000
     atom    3 type  2   force =     0.00000000    0.00000000    0.00000000
     atom    4 type  3   force =     0.00000000    0.00000000    0.00000000
     The SCF correction term to forces
     atom    1 type  1   force =    -0.00000000   -0.00000000    0.00010826
     atom    2 type  2   force =     0.00000000   -0.00000000    0.00000029
     atom    3 type  2   force =    -0.00000000    0.00000000    0.00007407
     atom    4 type  3   force =     0.00000000   -0.00000000    0.00001228

     Total force =     0.051535     Total SCF correction =     0.000132

     Writing all to output data dir ./out/pw.save/ :
     XML data file, charge density, pseudopotentials, collected wavefunctions
 
     init_run     :     11.92s CPU      3.20s WALL (       1 calls)
     electrons    :    105.10s CPU     30.26s WALL (       1 calls)
     forces       :      0.73s CPU      0.58s WALL (       1 calls)

     Called by init_run:
     wfcinit      :      0.26s CPU      0.32s WALL (       1 calls)
     wfcinit:atom :      0.04s CPU      0.04s WALL (      50 calls)
     wfcinit:wfcr :      0.16s CPU      0.19s WALL (      50 calls)
     potinit      :     11.08s CPU      2.27s WALL (       1 calls)
     hinit0       :      0.49s CPU      0.48s WALL (       1 calls)

     Called by electrons:
     c_bands      :     15.16s CPU     15.08s WALL (      23 calls)
     sum_band     :      2.65s CPU      2.59s WALL (      23 calls)
     v_of_rho     :      0.39s CPU      0.20s WALL (      24 calls)
     v_h          :      0.27s CPU      0.04s WALL (      24 calls)
     v_xc         :      0.13s CPU      0.16s WALL (      25 calls)
     newd         :      0.57s CPU      0.43s WALL (      24 calls)
                                        0.43s GPU  (      24 calls)
     PAW_pot      :     89.42s CPU     12.06s WALL (      24 calls)
     mix_rho      :      0.38s CPU      0.37s WALL (      23 calls)

     Called by c_bands:
     init_us_2    :      1.02s CPU      0.96s WALL (    2400 calls)
     cegterg      :     13.16s CPU     13.18s WALL (    1150 calls)

     Called by sum_band:
     sum_band:wei :      0.03s CPU      0.03s WALL (      23 calls)
                                        0.03s GPU  (      23 calls)
     sum_band:loo :      1.67s CPU      1.61s WALL (      23 calls)
                                        1.61s GPU  (      23 calls)
     sum_band:buf :      0.20s CPU      0.23s WALL (    1150 calls)
                                        0.21s GPU  (    1150 calls)
     sum_band:ini :      0.48s CPU      0.47s WALL (    1150 calls)
                                        0.46s GPU  (    1150 calls)
     sum_band:cal :      0.04s CPU      0.07s WALL (    1150 calls)
                                        0.06s GPU  (    1150 calls)
     sum_band:bec :      0.25s CPU      0.27s WALL (    1150 calls)
                                        0.25s GPU  (    1150 calls)
     addusdens    :      0.79s CPU      0.79s WALL (      23 calls)
                                        0.79s GPU  (      23 calls)
     addusd:skk   :      0.00s CPU      0.00s WALL (      69 calls)
                                        0.00s GPU  (      69 calls)

     Called by *egterg:
     cdiaghg      :      4.48s CPU      4.64s WALL (    5202 calls)
                                        4.58s GPU  (    5202 calls)
     cegterg:over :      1.05s CPU      1.09s WALL (    4052 calls)
     cegterg:upda :      0.79s CPU      0.80s WALL (    4052 calls)
     cegterg:last :      0.14s CPU      0.14s WALL (    2212 calls)
     h_psi        :      4.84s CPU      4.83s WALL (    5252 calls)
                                        4.77s GPU  (    5252 calls)
     s_psi        :      0.81s CPU      0.85s WALL (    5252 calls)
     g_psi        :      0.02s CPU      0.10s WALL (    4052 calls)
                                        0.05s GPU  (    4052 calls)

     Called by h_psi:
     h_psi:calbec :      0.16s CPU      0.30s WALL (    5252 calls)
                                        0.23s GPU  (    5252 calls)
     vloc_psi     :      3.37s CPU      3.28s WALL (    5252 calls)
                                        3.22s GPU  (    5252 calls)
     add_vuspsi   :      0.73s CPU      0.87s WALL (    5252 calls)
                                        0.80s GPU  (    5252 calls)

     General routines
     calbec       :      0.18s CPU      0.21s WALL (    6602 calls)
     fft          :      3.21s CPU      0.93s WALL (     613 calls)
                                        0.02s GPU  (     565 calls)
     ffts         :      4.09s CPU      0.77s WALL (      94 calls)
                                        0.00s GPU  (      46 calls)
     fftw         :      0.34s CPU      1.11s WALL (   17512 calls)
                                        0.91s GPU  (   17512 calls)
     interpolate  :      7.46s CPU      1.69s WALL (      48 calls)
 
     Parallel routines

     PAW routines
     PAW_pot      :     89.42s CPU     12.06s WALL (      24 calls)
     PAW_symme    :      0.02s CPU      0.00s WALL (      47 calls)
 
     PWSCF        :   1m58.66s CPU     34.60s WALL

 
   This run was terminated on:   2:16:31  12Jul2026            

=------------------------------------------------------------------------------=
   JOB DONE.
=------------------------------------------------------------------------------=
Warning: ieee_divide_by_zero is signaling
Warning: ieee_inexact is signaling
FORTRAN STOP
