
     Program PWSCF v.7.3.1 starts on 12Jul2026 at  4: 7:51 

     This program is part of the open-source Quantum ESPRESSO suite
     for quantum simulation of materials; please cite
         "P. Giannozzi et al., J. Phys.:Condens. Matter 21 395502 (2009);
         "P. Giannozzi et al., J. Phys.:Condens. Matter 29 465901 (2017);
         "P. Giannozzi et al., J. Chem. Phys. 152 154105 (2020);
          URL http://www.quantum-espresso.org", 
     in publications or presentations arising from this work. More details at
     http://www.quantum-espresso.org/quote

     Parallel version (MPI & OpenMP), running on      14 processor cores
     Number of MPI processes:                 1
     Threads/MPI process:                    14

     MPI processes distributed on     1 nodes
     828492 MiB available memory on the printing compute node when the environment starts
 
     Reading input from pw.in

     Current dimensions of program PWSCF are:
     Max number of different atomic species (ntypx) = 10
     Max number of k-points (npk) =  40000
     Max angular momentum in pseudopotentials (lmaxx) =  4
     file Co.pbe-spn-kjpaw_psl.0.3.1.UPF: wavefunction(s)  3P 3D renormalized
     file O.pbe-n-kjpaw_psl.1.0.0.UPF: wavefunction(s)  2S 2P renormalized
     file Na.pbe-spn-kjpaw_psl.1.0.0.UPF: wavefunction(s)  2P renormalized

     Atomic positions and unit cell read from directory:
     ../Na_s3_c5.5_d0.00/out/pw.save/
 
 
     Subspace diagonalization in iterative solution of the eigenvalue problem:
     a serial algorithm will be used

 
     G-vector sticks info
     --------------------
     sticks:   dense  smooth     PW     G-vecs:    dense   smooth      PW
     Sum        2941    1483    421               142753    50601    7731
 
     Using Slab Decomposition
 


     bravais-lattice index     =            4
     lattice parameter (alat)  =       9.4527  a.u.
     unit-cell volume          =     804.2768 (a.u.)^3
     number of atoms/cell      =           10
     number of atomic types    =            3
     number of electrons       =        96.00
     number of Kohn-Sham states=           64
     kinetic-energy cutoff     =      60.0000  Ry
     charge density cutoff     =     480.0000  Ry
     Exchange-correlation= SLA  PW   PBX  PBC
                           (   1   4   3   4   0   0   0)

     GPU acceleration is ACTIVE.  1 visible GPUs per MPI rank
     GPU-aware MPI enabled


     GPU used by master process:

        Device Number: 0
        Device name: NVIDIA A100-SXM4-80GB
        Compute capability : 80
        Ratio of single to double precision performance  : 2
        Memory Clock Rate (KHz): 1593000
        Memory Bus Width (bits): 5120
        Peak Memory Bandwidth (GB/s): ******

     celldm(1)=   9.452718  celldm(2)=   0.000000  celldm(3)=   1.099524
     celldm(4)=   0.000000  celldm(5)=   0.000000  celldm(6)=   0.000000

     crystal axes: (cart. coord. in units of alat)
               a(1) = (   1.000000   0.000000   0.000000 )  
               a(2) = (  -0.500000   0.866025   0.000000 )  
               a(3) = (   0.000000   0.000000   1.099524 )  

     reciprocal axes: (cart. coord. in units 2 pi/alat)
               b(1) = (  1.000000  0.577350 -0.000000 )  
               b(2) = (  0.000000  1.154701  0.000000 )  
               b(3) = (  0.000000 -0.000000  0.909484 )  


     PseudoPot. # 1 for Co read from file:
     ../../pseudo/Co.pbe-spn-kjpaw_psl.0.3.1.UPF
     MD5 check sum: 3c0a43779828c046024e4f3be63f8e67
     Pseudo is Projector augmented-wave + core cor, Zval = 17.0
     Generated using &quot;atomic&quot; code by A. Dal Corso  v.6.2.2
     Shape of augmentation charge: PSQ
     Using radial grid of 1193 points,  6 beta functions with: 
                l(1) =   0
                l(2) =   0
                l(3) =   1
                l(4) =   1
                l(5) =   2
                l(6) =   2
     Q(r) pseudized with 0 coefficients 


     PseudoPot. # 2 for O  read from file:
     ../../pseudo/O.pbe-n-kjpaw_psl.1.0.0.UPF
     MD5 check sum: e99d9cef9b487d1ca56f5b95ecd0fd7a
     Pseudo is Projector augmented-wave + core cor, Zval =  6.0
     Generated using &quot;atomic&quot; code by A. Dal Corso  v.6.3
     Shape of augmentation charge: PSQ
     Using radial grid of 1095 points,  4 beta functions with: 
                l(1) =   0
                l(2) =   0
                l(3) =   1
                l(4) =   1
     Q(r) pseudized with 0 coefficients 


     PseudoPot. # 3 for Na read from file:
     ../../pseudo/Na.pbe-spn-kjpaw_psl.1.0.0.UPF
     MD5 check sum: 05b4deb74e3932c23ab016979dc8b5d4
     Pseudo is Projector augmented-wave + core cor, Zval =  9.0
     Generated using &quot;atomic&quot; code by A. Dal Corso  v.6.3
     Shape of augmentation charge: PSQ
     Using radial grid of 1121 points,  4 beta functions with: 
                l(1) =   0
                l(2) =   0
                l(3) =   1
                l(4) =   1
     Q(r) pseudized with 0 coefficients 


     atomic species   valence    mass     pseudopotential
     Co               17.00    58.93300     Co( 1.00)
     O                 6.00    15.99900     O ( 1.00)
     Na                9.00    22.98977     Na( 1.00)

     Starting magnetic structure 
     atomic species   magnetization
     Co              0.300
     O               0.000
     Na              0.000

     12 Sym. Ops., with inversion, found


                                    s                        frac. trans.

      isym =  1     identity                                     

 cryst.   s( 1) = (     1          0          0      )
                  (     0          1          0      )
                  (     0          0          1      )

 cart.    s( 1) = (  1.0000000  0.0000000  0.0000000 )
                  (  0.0000000  1.0000000  0.0000000 )
                  (  0.0000000  0.0000000  1.0000000 )


      isym =  2     180 deg rotation - cart. axis [0,1,0]        

 cryst.   s( 2) = (    -1          0          0      )
                  (     1          1          0      )
                  (     0          0         -1      )

 cart.    s( 2) = ( -1.0000000  0.0000000  0.0000000 )
                  (  0.0000000  1.0000000  0.0000000 )
                  (  0.0000000  0.0000000 -1.0000000 )


      isym =  3     120 deg rotation - cryst. axis [0,0,1]       

 cryst.   s( 3) = (     0          1          0      )
                  (    -1         -1          0      )
                  (     0          0          1      )

 cart.    s( 3) = ( -0.5000000 -0.8660254  0.0000000 )
                  (  0.8660254 -0.5000000  0.0000000 )
                  (  0.0000000  0.0000000  1.0000000 )


      isym =  4     120 deg rotation - cryst. axis [0,0,-1]      

 cryst.   s( 4) = (    -1         -1          0      )
                  (     1          0          0      )
                  (     0          0          1      )

 cart.    s( 4) = ( -0.5000000  0.8660254  0.0000000 )
                  ( -0.8660254 -0.5000000  0.0000000 )
                  (  0.0000000  0.0000000  1.0000000 )


      isym =  5     180 deg rotation - cryst. axis [1,-1,0]      

 cryst.   s( 5) = (     0         -1          0      )
                  (    -1          0          0      )
                  (     0          0         -1      )

 cart.    s( 5) = (  0.5000000 -0.8660254  0.0000000 )
                  ( -0.8660254 -0.5000000  0.0000000 )
                  (  0.0000000  0.0000000 -1.0000000 )


      isym =  6     180 deg rotation - cryst. axis [2,1,0]       

 cryst.   s( 6) = (     1          1          0      )
                  (     0         -1          0      )
                  (     0          0         -1      )

 cart.    s( 6) = (  0.5000000  0.8660254  0.0000000 )
                  (  0.8660254 -0.5000000  0.0000000 )
                  (  0.0000000  0.0000000 -1.0000000 )


      isym =  7     inversion                                    

 cryst.   s( 7) = (    -1          0          0      )
                  (     0         -1          0      )
                  (     0          0         -1      )

 cart.    s( 7) = ( -1.0000000  0.0000000  0.0000000 )
                  (  0.0000000 -1.0000000  0.0000000 )
                  (  0.0000000  0.0000000 -1.0000000 )


      isym =  8     inv. 180 deg rotation - cart. axis [0,1,0]   

 cryst.   s( 8) = (     1          0          0      )
                  (    -1         -1          0      )
                  (     0          0          1      )

 cart.    s( 8) = (  1.0000000  0.0000000  0.0000000 )
                  (  0.0000000 -1.0000000  0.0000000 )
                  (  0.0000000  0.0000000  1.0000000 )


      isym =  9     inv. 120 deg rotation - cryst. axis [0,0,1]  

 cryst.   s( 9) = (     0         -1          0      )
                  (     1          1          0      )
                  (     0          0         -1      )

 cart.    s( 9) = (  0.5000000  0.8660254  0.0000000 )
                  ( -0.8660254  0.5000000  0.0000000 )
                  (  0.0000000  0.0000000 -1.0000000 )


      isym = 10     inv. 120 deg rotation - cryst. axis [0,0,-1] 

 cryst.   s(10) = (     1          1          0      )
                  (    -1          0          0      )
                  (     0          0         -1      )

 cart.    s(10) = (  0.5000000 -0.8660254  0.0000000 )
                  (  0.8660254  0.5000000  0.0000000 )
                  (  0.0000000  0.0000000 -1.0000000 )


      isym = 11     inv. 180 deg rotation - cryst. axis [1,-1,0] 

 cryst.   s(11) = (     0          1          0      )
                  (     1          0          0      )
                  (     0          0          1      )

 cart.    s(11) = ( -0.5000000  0.8660254  0.0000000 )
                  (  0.8660254  0.5000000  0.0000000 )
                  (  0.0000000  0.0000000  1.0000000 )


      isym = 12     inv. 180 deg rotation - cryst. axis [2,1,0]  

 cryst.   s(12) = (    -1         -1          0      )
                  (     0          1          0      )
                  (     0          0          1      )

 cart.    s(12) = ( -0.5000000 -0.8660254  0.0000000 )
                  ( -0.8660254  0.5000000  0.0000000 )
                  (  0.0000000  0.0000000  1.0000000 )


     point group D_3d (-3m) 
     there are  6 classes
     the character table:

       E     2C3   3C2'  i     2S6   3s_d 
A_1g   1.00  1.00  1.00  1.00  1.00  1.00
A_2g   1.00  1.00 -1.00  1.00  1.00 -1.00
E_g    2.00 -1.00  0.00  2.00 -1.00  0.00
A_1u   1.00  1.00  1.00 -1.00 -1.00 -1.00
A_2u   1.00  1.00 -1.00 -1.00 -1.00  1.00
E_u    2.00 -1.00  0.00 -2.00  1.00  0.00

     the symmetry operations in each class and the name of the first element:

     E        1
          identity                                               
     2C3      3    4
          120 deg rotation - cryst. axis [0,0,1]                 
     3C2'     2    6    5
          180 deg rotation - cart. axis [0,1,0]                  
     i        7
          inversion                                              
     2S6      9   10
          inv. 120 deg rotation - cryst. axis [0,0,1]            
     3s_d     8   12   11
          inv. 180 deg rotation - cart. axis [0,1,0]             

   Cartesian axes

     site n.     atom                  positions (alat units)
         1        Co     tau(   1) = (   0.0000000   0.0000000   0.0000000  )
         2        Co     tau(   2) = (  -0.0000000   0.5773503   0.0000000  )
         3        Co     tau(   3) = (   0.5000000   0.2886751   0.0000000  )
         4        O      tau(   4) = (   0.1666667   0.2886751   0.1919170  )
         5        O      tau(   5) = (   0.6666667   0.0000000   0.1919170  )
         6        O      tau(   6) = (  -0.3333333   0.5773503   0.1919170  )
         7        O      tau(   7) = (   0.3333333   0.0000000   0.9076074  )
         8        O      tau(   8) = (   0.3333333   0.5773503   0.9076074  )
         9        O      tau(   9) = (  -0.1666667   0.2886751   0.9076074  )
        10        Na     tau(  10) = (   0.0000000   0.0000000   0.5497622  )

   Crystallographic axes

     site n.     atom                  positions (cryst. coord.)
         1        Co     tau(   1) = (  0.0000000  0.0000000  0.0000000  )
         2        Co     tau(   2) = (  0.3333333  0.6666667  0.0000000  )
         3        Co     tau(   3) = (  0.6666667  0.3333333  0.0000000  )
         4        O      tau(   4) = (  0.3333333  0.3333333  0.1745455  )
         5        O      tau(   5) = (  0.6666667  0.0000000  0.1745455  )
         6        O      tau(   6) = (  0.0000000  0.6666667  0.1745455  )
         7        O      tau(   7) = (  0.3333333  0.0000000  0.8254545  )
         8        O      tau(   8) = (  0.6666667  0.6666667  0.8254545  )
         9        O      tau(   9) = (  0.0000000  0.3333333  0.8254545  )
        10        Na     tau(  10) = (  0.0000000  0.0000000  0.5000000  )

     number of k points=   449  Marzari-Vanderbilt smearing, width (Ry)=  0.0200
                       cart. coord. in units 2pi/alat
        k(    1) = (   0.0000000   0.0000000   0.0000000), wk =   0.0002170
        k(    2) = (   0.0000000   0.0000000   0.1136855), wk =   0.0004340
        k(    3) = (   0.0000000   0.0000000   0.2273710), wk =   0.0004340
        k(    4) = (   0.0000000   0.0000000   0.3410566), wk =   0.0004340
        k(    5) = (   0.0000000   0.0000000  -0.4547421), wk =   0.0002170
        k(    6) = (   0.0000000   0.0481125   0.0000000), wk =   0.0013021
        k(    7) = (   0.0000000   0.0481125   0.1136855), wk =   0.0026042
        k(    8) = (   0.0000000   0.0481125   0.2273710), wk =   0.0026042
        k(    9) = (   0.0000000   0.0481125   0.3410566), wk =   0.0026042
        k(   10) = (   0.0000000   0.0481125  -0.4547421), wk =   0.0013021
        k(   11) = (   0.0000000   0.0962250   0.0000000), wk =   0.0013021
        k(   12) = (   0.0000000   0.0962250   0.1136855), wk =   0.0026042
        k(   13) = (   0.0000000   0.0962250   0.2273710), wk =   0.0026042
        k(   14) = (   0.0000000   0.0962250   0.3410566), wk =   0.0026042
        k(   15) = (   0.0000000   0.0962250  -0.4547421), wk =   0.0013021
        k(   16) = (   0.0000000   0.1443376   0.0000000), wk =   0.0013021
        k(   17) = (   0.0000000   0.1443376   0.1136855), wk =   0.0026042
        k(   18) = (   0.0000000   0.1443376   0.2273710), wk =   0.0026042
        k(   19) = (   0.0000000   0.1443376   0.3410566), wk =   0.0026042
        k(   20) = (   0.0000000   0.1443376  -0.4547421), wk =   0.0013021
        k(   21) = (   0.0000000   0.1924501   0.0000000), wk =   0.0013021
        k(   22) = (   0.0000000   0.1924501   0.1136855), wk =   0.0026042
        k(   23) = (   0.0000000   0.1924501   0.2273710), wk =   0.0026042
        k(   24) = (   0.0000000   0.1924501   0.3410566), wk =   0.0026042
        k(   25) = (   0.0000000   0.1924501  -0.4547421), wk =   0.0013021
        k(   26) = (   0.0000000   0.2405626   0.0000000), wk =   0.0013021
        k(   27) = (   0.0000000   0.2405626   0.1136855), wk =   0.0026042
        k(   28) = (   0.0000000   0.2405626   0.2273710), wk =   0.0026042
        k(   29) = (   0.0000000   0.2405626   0.3410566), wk =   0.0026042
        k(   30) = (   0.0000000   0.2405626  -0.4547421), wk =   0.0013021
        k(   31) = (   0.0000000   0.2886751   0.0000000), wk =   0.0013021
        k(   32) = (   0.0000000   0.2886751   0.1136855), wk =   0.0026042
        k(   33) = (   0.0000000   0.2886751   0.2273710), wk =   0.0026042
        k(   34) = (   0.0000000   0.2886751   0.3410566), wk =   0.0026042
        k(   35) = (   0.0000000   0.2886751  -0.4547421), wk =   0.0013021
        k(   36) = (   0.0000000   0.3367877   0.0000000), wk =   0.0013021
        k(   37) = (   0.0000000   0.3367877   0.1136855), wk =   0.0026042
        k(   38) = (   0.0000000   0.3367877   0.2273710), wk =   0.0026042
        k(   39) = (   0.0000000   0.3367877   0.3410566), wk =   0.0026042
        k(   40) = (   0.0000000   0.3367877  -0.4547421), wk =   0.0013021
        k(   41) = (   0.0000000   0.3849002   0.0000000), wk =   0.0013021
        k(   42) = (   0.0000000   0.3849002   0.1136855), wk =   0.0026042
        k(   43) = (   0.0000000   0.3849002   0.2273710), wk =   0.0026042
        k(   44) = (   0.0000000   0.3849002   0.3410566), wk =   0.0026042
        k(   45) = (   0.0000000   0.3849002  -0.4547421), wk =   0.0013021
        k(   46) = (   0.0000000   0.4330127   0.0000000), wk =   0.0013021
        k(   47) = (   0.0000000   0.4330127   0.1136855), wk =   0.0026042
        k(   48) = (   0.0000000   0.4330127   0.2273710), wk =   0.0026042
        k(   49) = (   0.0000000   0.4330127   0.3410566), wk =   0.0026042
        k(   50) = (   0.0000000   0.4330127  -0.4547421), wk =   0.0013021
        k(   51) = (   0.0000000   0.4811252   0.0000000), wk =   0.0013021
        k(   52) = (   0.0000000   0.4811252   0.1136855), wk =   0.0026042
        k(   53) = (   0.0000000   0.4811252   0.2273710), wk =   0.0026042
        k(   54) = (   0.0000000   0.4811252   0.3410566), wk =   0.0026042
        k(   55) = (   0.0000000   0.4811252  -0.4547421), wk =   0.0013021
        k(   56) = (   0.0000000   0.5292377   0.0000000), wk =   0.0013021
        k(   57) = (   0.0000000   0.5292377   0.1136855), wk =   0.0026042
        k(   58) = (   0.0000000   0.5292377   0.2273710), wk =   0.0026042
        k(   59) = (   0.0000000   0.5292377   0.3410566), wk =   0.0026042
        k(   60) = (   0.0000000   0.5292377  -0.4547421), wk =   0.0013021
        k(   61) = (   0.0000000  -0.5773503   0.0000000), wk =   0.0006510
        k(   62) = (   0.0000000  -0.5773503   0.1136855), wk =   0.0013021
        k(   63) = (   0.0000000  -0.5773503   0.2273710), wk =   0.0013021
        k(   64) = (   0.0000000  -0.5773503   0.3410566), wk =   0.0013021
        k(   65) = (   0.0000000  -0.5773503  -0.4547421), wk =   0.0006510
        k(   66) = (   0.0416667   0.0721688   0.0000000), wk =   0.0013021
        k(   67) = (   0.0416667   0.0721688   0.1136855), wk =   0.0013021
        k(   68) = (   0.0416667   0.0721688   0.2273710), wk =   0.0013021
        k(   69) = (   0.0416667   0.0721688   0.3410566), wk =   0.0013021
        k(   70) = (   0.0416667   0.0721688  -0.4547421), wk =   0.0013021
        k(   71) = (   0.0416667   0.1202813   0.0000000), wk =   0.0026042
        k(   72) = (   0.0416667   0.1202813   0.1136855), wk =   0.0026042
        k(   73) = (   0.0416667   0.1202813   0.2273710), wk =   0.0026042
        k(   74) = (   0.0416667   0.1202813   0.3410566), wk =   0.0026042
        k(   75) = (   0.0416667   0.1202813  -0.4547421), wk =   0.0026042
        k(   76) = (   0.0416667   0.1683938   0.0000000), wk =   0.0026042
        k(   77) = (   0.0416667   0.1683938   0.1136855), wk =   0.0026042
        k(   78) = (   0.0416667   0.1683938   0.2273710), wk =   0.0026042
        k(   79) = (   0.0416667   0.1683938   0.3410566), wk =   0.0026042
        k(   80) = (   0.0416667   0.1683938  -0.4547421), wk =   0.0026042
        k(   81) = (   0.0416667   0.2165064   0.0000000), wk =   0.0026042
        k(   82) = (   0.0416667   0.2165064   0.1136855), wk =   0.0026042
        k(   83) = (   0.0416667   0.2165064   0.2273710), wk =   0.0026042
        k(   84) = (   0.0416667   0.2165064   0.3410566), wk =   0.0026042
        k(   85) = (   0.0416667   0.2165064  -0.4547421), wk =   0.0026042
        k(   86) = (   0.0416667   0.2646189   0.0000000), wk =   0.0026042
        k(   87) = (   0.0416667   0.2646189   0.1136855), wk =   0.0026042
        k(   88) = (   0.0416667   0.2646189   0.2273710), wk =   0.0026042
        k(   89) = (   0.0416667   0.2646189   0.3410566), wk =   0.0026042
        k(   90) = (   0.0416667   0.2646189  -0.4547421), wk =   0.0026042
        k(   91) = (   0.0416667   0.3127314   0.0000000), wk =   0.0026042
        k(   92) = (   0.0416667   0.3127314   0.1136855), wk =   0.0026042
        k(   93) = (   0.0416667   0.3127314   0.2273710), wk =   0.0026042
        k(   94) = (   0.0416667   0.3127314   0.3410566), wk =   0.0026042
        k(   95) = (   0.0416667   0.3127314  -0.4547421), wk =   0.0026042
        k(   96) = (   0.0416667   0.3608439   0.0000000), wk =   0.0026042
        k(   97) = (   0.0416667   0.3608439   0.1136855), wk =   0.0026042
        k(   98) = (   0.0416667   0.3608439   0.2273710), wk =   0.0026042
        k(   99) = (   0.0416667   0.3608439   0.3410566), wk =   0.0026042
        k(  100) = (   0.0416667   0.3608439  -0.4547421), wk =   0.0026042
        k(  101) = (   0.0416667   0.4089564   0.0000000), wk =   0.0026042
        k(  102) = (   0.0416667   0.4089564   0.1136855), wk =   0.0026042
        k(  103) = (   0.0416667   0.4089564   0.2273710), wk =   0.0026042
        k(  104) = (   0.0416667   0.4089564   0.3410566), wk =   0.0026042
        k(  105) = (   0.0416667   0.4089564  -0.4547421), wk =   0.0026042
        k(  106) = (   0.0416667   0.4570690   0.0000000), wk =   0.0026042
        k(  107) = (   0.0416667   0.4570690   0.1136855), wk =   0.0026042
        k(  108) = (   0.0416667   0.4570690   0.2273710), wk =   0.0026042
        k(  109) = (   0.0416667   0.4570690   0.3410566), wk =   0.0026042
        k(  110) = (   0.0416667   0.4570690  -0.4547421), wk =   0.0026042
        k(  111) = (   0.0416667   0.5051815   0.0000000), wk =   0.0026042
        k(  112) = (   0.0416667   0.5051815   0.1136855), wk =   0.0026042
        k(  113) = (   0.0416667   0.5051815   0.2273710), wk =   0.0026042
        k(  114) = (   0.0416667   0.5051815   0.3410566), wk =   0.0026042
        k(  115) = (   0.0416667   0.5051815  -0.4547421), wk =   0.0026042
        k(  116) = (   0.0416667   0.5532940   0.0000000), wk =   0.0026042
        k(  117) = (   0.0416667   0.5532940   0.1136855), wk =   0.0026042
        k(  118) = (   0.0416667   0.5532940   0.2273710), wk =   0.0026042
        k(  119) = (   0.0416667   0.5532940   0.3410566), wk =   0.0026042
        k(  120) = (   0.0416667   0.5532940  -0.4547421), wk =   0.0026042
        k(  121) = (   0.0833333   0.1443376   0.0000000), wk =   0.0013021
        k(  122) = (   0.0833333   0.1443376   0.1136855), wk =   0.0013021
        k(  123) = (   0.0833333   0.1443376   0.2273710), wk =   0.0013021
        k(  124) = (   0.0833333   0.1443376   0.3410566), wk =   0.0013021
        k(  125) = (   0.0833333   0.1443376  -0.4547421), wk =   0.0013021
        k(  126) = (   0.0833333   0.1924501   0.0000000), wk =   0.0026042
        k(  127) = (   0.0833333   0.1924501   0.1136855), wk =   0.0026042
        k(  128) = (   0.0833333   0.1924501   0.2273710), wk =   0.0026042
        k(  129) = (   0.0833333   0.1924501   0.3410566), wk =   0.0026042
        k(  130) = (   0.0833333   0.1924501  -0.4547421), wk =   0.0026042
        k(  131) = (   0.0833333   0.2405626   0.0000000), wk =   0.0026042
        k(  132) = (   0.0833333   0.2405626   0.1136855), wk =   0.0026042
        k(  133) = (   0.0833333   0.2405626   0.2273710), wk =   0.0026042
        k(  134) = (   0.0833333   0.2405626   0.3410566), wk =   0.0026042
        k(  135) = (   0.0833333   0.2405626  -0.4547421), wk =   0.0026042
        k(  136) = (   0.0833333   0.2886751   0.0000000), wk =   0.0026042
        k(  137) = (   0.0833333   0.2886751   0.1136855), wk =   0.0026042
        k(  138) = (   0.0833333   0.2886751   0.2273710), wk =   0.0026042
        k(  139) = (   0.0833333   0.2886751   0.3410566), wk =   0.0026042
        k(  140) = (   0.0833333   0.2886751  -0.4547421), wk =   0.0026042
        k(  141) = (   0.0833333   0.3367877   0.0000000), wk =   0.0026042
        k(  142) = (   0.0833333   0.3367877   0.1136855), wk =   0.0026042
        k(  143) = (   0.0833333   0.3367877   0.2273710), wk =   0.0026042
        k(  144) = (   0.0833333   0.3367877   0.3410566), wk =   0.0026042
        k(  145) = (   0.0833333   0.3367877  -0.4547421), wk =   0.0026042
        k(  146) = (   0.0833333   0.3849002   0.0000000), wk =   0.0026042
        k(  147) = (   0.0833333   0.3849002   0.1136855), wk =   0.0026042
        k(  148) = (   0.0833333   0.3849002   0.2273710), wk =   0.0026042
        k(  149) = (   0.0833333   0.3849002   0.3410566), wk =   0.0026042
        k(  150) = (   0.0833333   0.3849002  -0.4547421), wk =   0.0026042
        k(  151) = (   0.0833333   0.4330127   0.0000000), wk =   0.0026042
        k(  152) = (   0.0833333   0.4330127   0.1136855), wk =   0.0026042
        k(  153) = (   0.0833333   0.4330127   0.2273710), wk =   0.0026042
        k(  154) = (   0.0833333   0.4330127   0.3410566), wk =   0.0026042
        k(  155) = (   0.0833333   0.4330127  -0.4547421), wk =   0.0026042
        k(  156) = (   0.0833333   0.4811252   0.0000000), wk =   0.0026042
        k(  157) = (   0.0833333   0.4811252   0.1136855), wk =   0.0026042
        k(  158) = (   0.0833333   0.4811252   0.2273710), wk =   0.0026042
        k(  159) = (   0.0833333   0.4811252   0.3410566), wk =   0.0026042
        k(  160) = (   0.0833333   0.4811252  -0.4547421), wk =   0.0026042
        k(  161) = (   0.0833333   0.5292377   0.0000000), wk =   0.0026042
        k(  162) = (   0.0833333   0.5292377   0.1136855), wk =   0.0026042
        k(  163) = (   0.0833333   0.5292377   0.2273710), wk =   0.0026042
        k(  164) = (   0.0833333   0.5292377   0.3410566), wk =   0.0026042
        k(  165) = (   0.0833333   0.5292377  -0.4547421), wk =   0.0026042
        k(  166) = (   0.0833333   0.5773503   0.0000000), wk =   0.0013021
        k(  167) = (   0.0833333   0.5773503   0.1136855), wk =   0.0013021
        k(  168) = (   0.0833333   0.5773503   0.2273710), wk =   0.0013021
        k(  169) = (   0.0833333   0.5773503   0.3410566), wk =   0.0013021
        k(  170) = (   0.0833333   0.5773503  -0.4547421), wk =   0.0013021
        k(  171) = (   0.1250000   0.2165064   0.0000000), wk =   0.0013021
        k(  172) = (   0.1250000   0.2165064   0.1136855), wk =   0.0013021
        k(  173) = (   0.1250000   0.2165064   0.2273710), wk =   0.0013021
        k(  174) = (   0.1250000   0.2165064   0.3410566), wk =   0.0013021
        k(  175) = (   0.1250000   0.2165064  -0.4547421), wk =   0.0013021
        k(  176) = (   0.1250000   0.2646189   0.0000000), wk =   0.0026042
        k(  177) = (   0.1250000   0.2646189   0.1136855), wk =   0.0026042
        k(  178) = (   0.1250000   0.2646189   0.2273710), wk =   0.0026042
        k(  179) = (   0.1250000   0.2646189   0.3410566), wk =   0.0026042
        k(  180) = (   0.1250000   0.2646189  -0.4547421), wk =   0.0026042
        k(  181) = (   0.1250000   0.3127314   0.0000000), wk =   0.0026042
        k(  182) = (   0.1250000   0.3127314   0.1136855), wk =   0.0026042
        k(  183) = (   0.1250000   0.3127314   0.2273710), wk =   0.0026042
        k(  184) = (   0.1250000   0.3127314   0.3410566), wk =   0.0026042
        k(  185) = (   0.1250000   0.3127314  -0.4547421), wk =   0.0026042
        k(  186) = (   0.1250000   0.3608439   0.0000000), wk =   0.0026042
        k(  187) = (   0.1250000   0.3608439   0.1136855), wk =   0.0026042
        k(  188) = (   0.1250000   0.3608439   0.2273710), wk =   0.0026042
        k(  189) = (   0.1250000   0.3608439   0.3410566), wk =   0.0026042
        k(  190) = (   0.1250000   0.3608439  -0.4547421), wk =   0.0026042
        k(  191) = (   0.1250000   0.4089564   0.0000000), wk =   0.0026042
        k(  192) = (   0.1250000   0.4089564   0.1136855), wk =   0.0026042
        k(  193) = (   0.1250000   0.4089564   0.2273710), wk =   0.0026042
        k(  194) = (   0.1250000   0.4089564   0.3410566), wk =   0.0026042
        k(  195) = (   0.1250000   0.4089564  -0.4547421), wk =   0.0026042
        k(  196) = (   0.1250000   0.4570690   0.0000000), wk =   0.0026042
        k(  197) = (   0.1250000   0.4570690   0.1136855), wk =   0.0026042
        k(  198) = (   0.1250000   0.4570690   0.2273710), wk =   0.0026042
        k(  199) = (   0.1250000   0.4570690   0.3410566), wk =   0.0026042
        k(  200) = (   0.1250000   0.4570690  -0.4547421), wk =   0.0026042
        k(  201) = (   0.1250000   0.5051815   0.0000000), wk =   0.0026042
        k(  202) = (   0.1250000   0.5051815   0.1136855), wk =   0.0026042
        k(  203) = (   0.1250000   0.5051815   0.2273710), wk =   0.0026042
        k(  204) = (   0.1250000   0.5051815   0.3410566), wk =   0.0026042
        k(  205) = (   0.1250000   0.5051815  -0.4547421), wk =   0.0026042
        k(  206) = (   0.1250000   0.5532940   0.0000000), wk =   0.0026042
        k(  207) = (   0.1250000   0.5532940   0.1136855), wk =   0.0026042
        k(  208) = (   0.1250000   0.5532940   0.2273710), wk =   0.0026042
        k(  209) = (   0.1250000   0.5532940   0.3410566), wk =   0.0026042
        k(  210) = (   0.1250000   0.5532940  -0.4547421), wk =   0.0026042
        k(  211) = (   0.1666667   0.2886751   0.0000000), wk =   0.0013021
        k(  212) = (   0.1666667   0.2886751   0.1136855), wk =   0.0013021
        k(  213) = (   0.1666667   0.2886751   0.2273710), wk =   0.0013021
        k(  214) = (   0.1666667   0.2886751   0.3410566), wk =   0.0013021
        k(  215) = (   0.1666667   0.2886751  -0.4547421), wk =   0.0013021
        k(  216) = (   0.1666667   0.3367877   0.0000000), wk =   0.0026042
        k(  217) = (   0.1666667   0.3367877   0.1136855), wk =   0.0026042
        k(  218) = (   0.1666667   0.3367877   0.2273710), wk =   0.0026042
        k(  219) = (   0.1666667   0.3367877   0.3410566), wk =   0.0026042
        k(  220) = (   0.1666667   0.3367877  -0.4547421), wk =   0.0026042
        k(  221) = (   0.1666667   0.3849002   0.0000000), wk =   0.0026042
        k(  222) = (   0.1666667   0.3849002   0.1136855), wk =   0.0026042
        k(  223) = (   0.1666667   0.3849002   0.2273710), wk =   0.0026042
        k(  224) = (   0.1666667   0.3849002   0.3410566), wk =   0.0026042
        k(  225) = (   0.1666667   0.3849002  -0.4547421), wk =   0.0026042
        k(  226) = (   0.1666667   0.4330127   0.0000000), wk =   0.0026042
        k(  227) = (   0.1666667   0.4330127   0.1136855), wk =   0.0026042
        k(  228) = (   0.1666667   0.4330127   0.2273710), wk =   0.0026042
        k(  229) = (   0.1666667   0.4330127   0.3410566), wk =   0.0026042
        k(  230) = (   0.1666667   0.4330127  -0.4547421), wk =   0.0026042
        k(  231) = (   0.1666667   0.4811252   0.0000000), wk =   0.0026042
        k(  232) = (   0.1666667   0.4811252   0.1136855), wk =   0.0026042
        k(  233) = (   0.1666667   0.4811252   0.2273710), wk =   0.0026042
        k(  234) = (   0.1666667   0.4811252   0.3410566), wk =   0.0026042
        k(  235) = (   0.1666667   0.4811252  -0.4547421), wk =   0.0026042
        k(  236) = (   0.1666667   0.5292377   0.0000000), wk =   0.0026042
        k(  237) = (   0.1666667   0.5292377   0.1136855), wk =   0.0026042
        k(  238) = (   0.1666667   0.5292377   0.2273710), wk =   0.0026042
        k(  239) = (   0.1666667   0.5292377   0.3410566), wk =   0.0026042
        k(  240) = (   0.1666667   0.5292377  -0.4547421), wk =   0.0026042
        k(  241) = (   0.1666667   0.5773503   0.0000000), wk =   0.0013021
        k(  242) = (   0.1666667   0.5773503   0.1136855), wk =   0.0013021
        k(  243) = (   0.1666667   0.5773503   0.2273710), wk =   0.0013021
        k(  244) = (   0.1666667   0.5773503   0.3410566), wk =   0.0013021
        k(  245) = (   0.1666667   0.5773503  -0.4547421), wk =   0.0013021
        k(  246) = (   0.2083333   0.3608439   0.0000000), wk =   0.0013021
        k(  247) = (   0.2083333   0.3608439   0.1136855), wk =   0.0013021
        k(  248) = (   0.2083333   0.3608439   0.2273710), wk =   0.0013021
        k(  249) = (   0.2083333   0.3608439   0.3410566), wk =   0.0013021
        k(  250) = (   0.2083333   0.3608439  -0.4547421), wk =   0.0013021
        k(  251) = (   0.2083333   0.4089564   0.0000000), wk =   0.0026042
        k(  252) = (   0.2083333   0.4089564   0.1136855), wk =   0.0026042
        k(  253) = (   0.2083333   0.4089564   0.2273710), wk =   0.0026042
        k(  254) = (   0.2083333   0.4089564   0.3410566), wk =   0.0026042
        k(  255) = (   0.2083333   0.4089564  -0.4547421), wk =   0.0026042
        k(  256) = (   0.2083333   0.4570690   0.0000000), wk =   0.0026042
        k(  257) = (   0.2083333   0.4570690   0.1136855), wk =   0.0026042
        k(  258) = (   0.2083333   0.4570690   0.2273710), wk =   0.0026042
        k(  259) = (   0.2083333   0.4570690   0.3410566), wk =   0.0026042
        k(  260) = (   0.2083333   0.4570690  -0.4547421), wk =   0.0026042
        k(  261) = (   0.2083333   0.5051815   0.0000000), wk =   0.0026042
        k(  262) = (   0.2083333   0.5051815   0.1136855), wk =   0.0026042
        k(  263) = (   0.2083333   0.5051815   0.2273710), wk =   0.0026042
        k(  264) = (   0.2083333   0.5051815   0.3410566), wk =   0.0026042
        k(  265) = (   0.2083333   0.5051815  -0.4547421), wk =   0.0026042
        k(  266) = (   0.2083333   0.5532940   0.0000000), wk =   0.0026042
        k(  267) = (   0.2083333   0.5532940   0.1136855), wk =   0.0026042
        k(  268) = (   0.2083333   0.5532940   0.2273710), wk =   0.0026042
        k(  269) = (   0.2083333   0.5532940   0.3410566), wk =   0.0026042
        k(  270) = (   0.2083333   0.5532940  -0.4547421), wk =   0.0026042
        k(  271) = (   0.2500000   0.4330127   0.0000000), wk =   0.0013021
        k(  272) = (   0.2500000   0.4330127   0.1136855), wk =   0.0013021
        k(  273) = (   0.2500000   0.4330127   0.2273710), wk =   0.0013021
        k(  274) = (   0.2500000   0.4330127   0.3410566), wk =   0.0013021
        k(  275) = (   0.2500000   0.4330127  -0.4547421), wk =   0.0013021
        k(  276) = (   0.2500000   0.4811252   0.0000000), wk =   0.0026042
        k(  277) = (   0.2500000   0.4811252   0.1136855), wk =   0.0026042
        k(  278) = (   0.2500000   0.4811252   0.2273710), wk =   0.0026042
        k(  279) = (   0.2500000   0.4811252   0.3410566), wk =   0.0026042
        k(  280) = (   0.2500000   0.4811252  -0.4547421), wk =   0.0026042
        k(  281) = (   0.2500000   0.5292377   0.0000000), wk =   0.0026042
        k(  282) = (   0.2500000   0.5292377   0.1136855), wk =   0.0026042
        k(  283) = (   0.2500000   0.5292377   0.2273710), wk =   0.0026042
        k(  284) = (   0.2500000   0.5292377   0.3410566), wk =   0.0026042
        k(  285) = (   0.2500000   0.5292377  -0.4547421), wk =   0.0026042
        k(  286) = (   0.2500000   0.5773503   0.0000000), wk =   0.0013021
        k(  287) = (   0.2500000   0.5773503   0.1136855), wk =   0.0013021
        k(  288) = (   0.2500000   0.5773503   0.2273710), wk =   0.0013021
        k(  289) = (   0.2500000   0.5773503   0.3410566), wk =   0.0013021
        k(  290) = (   0.2500000   0.5773503  -0.4547421), wk =   0.0013021
        k(  291) = (   0.2916667   0.5051815   0.0000000), wk =   0.0013021
        k(  292) = (   0.2916667   0.5051815   0.1136855), wk =   0.0013021
        k(  293) = (   0.2916667   0.5051815   0.2273710), wk =   0.0013021
        k(  294) = (   0.2916667   0.5051815   0.3410566), wk =   0.0013021
        k(  295) = (   0.2916667   0.5051815  -0.4547421), wk =   0.0013021
        k(  296) = (   0.2916667   0.5532940   0.0000000), wk =   0.0026042
        k(  297) = (   0.2916667   0.5532940   0.1136855), wk =   0.0026042
        k(  298) = (   0.2916667   0.5532940   0.2273710), wk =   0.0026042
        k(  299) = (   0.2916667   0.5532940   0.3410566), wk =   0.0026042
        k(  300) = (   0.2916667   0.5532940  -0.4547421), wk =   0.0026042
        k(  301) = (   0.3333333   0.5773503   0.0000000), wk =   0.0004340
        k(  302) = (   0.3333333   0.5773503   0.1136855), wk =   0.0004340
        k(  303) = (   0.3333333   0.5773503   0.2273710), wk =   0.0004340
        k(  304) = (   0.3333333   0.5773503   0.3410566), wk =   0.0004340
        k(  305) = (   0.3333333   0.5773503  -0.4547421), wk =   0.0004340
        k(  306) = (  -0.0416667  -0.0721688   0.1136855), wk =   0.0013021
        k(  307) = (  -0.0416667  -0.0721688   0.2273710), wk =   0.0013021
        k(  308) = (  -0.0416667  -0.0721688   0.3410566), wk =   0.0013021
        k(  309) = (  -0.0416667  -0.1202813   0.1136855), wk =   0.0026042
        k(  310) = (  -0.0416667  -0.1202813   0.2273710), wk =   0.0026042
        k(  311) = (  -0.0416667  -0.1202813   0.3410566), wk =   0.0026042
        k(  312) = (  -0.0416667  -0.1683938   0.1136855), wk =   0.0026042
        k(  313) = (  -0.0416667  -0.1683938   0.2273710), wk =   0.0026042
        k(  314) = (  -0.0416667  -0.1683938   0.3410566), wk =   0.0026042
        k(  315) = (  -0.0416667  -0.2165064   0.1136855), wk =   0.0026042
        k(  316) = (  -0.0416667  -0.2165064   0.2273710), wk =   0.0026042
        k(  317) = (  -0.0416667  -0.2165064   0.3410566), wk =   0.0026042
        k(  318) = (  -0.0416667  -0.2646189   0.1136855), wk =   0.0026042
        k(  319) = (  -0.0416667  -0.2646189   0.2273710), wk =   0.0026042
        k(  320) = (  -0.0416667  -0.2646189   0.3410566), wk =   0.0026042
        k(  321) = (  -0.0416667  -0.3127314   0.1136855), wk =   0.0026042
        k(  322) = (  -0.0416667  -0.3127314   0.2273710), wk =   0.0026042
        k(  323) = (  -0.0416667  -0.3127314   0.3410566), wk =   0.0026042
        k(  324) = (  -0.0416667  -0.3608439   0.1136855), wk =   0.0026042
        k(  325) = (  -0.0416667  -0.3608439   0.2273710), wk =   0.0026042
        k(  326) = (  -0.0416667  -0.3608439   0.3410566), wk =   0.0026042
        k(  327) = (  -0.0416667  -0.4089564   0.1136855), wk =   0.0026042
        k(  328) = (  -0.0416667  -0.4089564   0.2273710), wk =   0.0026042
        k(  329) = (  -0.0416667  -0.4089564   0.3410566), wk =   0.0026042
        k(  330) = (  -0.0416667  -0.4570690   0.1136855), wk =   0.0026042
        k(  331) = (  -0.0416667  -0.4570690   0.2273710), wk =   0.0026042
        k(  332) = (  -0.0416667  -0.4570690   0.3410566), wk =   0.0026042
        k(  333) = (  -0.0416667  -0.5051815   0.1136855), wk =   0.0026042
        k(  334) = (  -0.0416667  -0.5051815   0.2273710), wk =   0.0026042
        k(  335) = (  -0.0416667  -0.5051815   0.3410566), wk =   0.0026042
        k(  336) = (  -0.0416667  -0.5532940   0.1136855), wk =   0.0026042
        k(  337) = (  -0.0416667  -0.5532940   0.2273710), wk =   0.0026042
        k(  338) = (  -0.0416667  -0.5532940   0.3410566), wk =   0.0026042
        k(  339) = (  -0.0833333  -0.1443376   0.1136855), wk =   0.0013021
        k(  340) = (  -0.0833333  -0.1443376   0.2273710), wk =   0.0013021
        k(  341) = (  -0.0833333  -0.1443376   0.3410566), wk =   0.0013021
        k(  342) = (  -0.0833333  -0.1924501   0.1136855), wk =   0.0026042
        k(  343) = (  -0.0833333  -0.1924501   0.2273710), wk =   0.0026042
        k(  344) = (  -0.0833333  -0.1924501   0.3410566), wk =   0.0026042
        k(  345) = (  -0.0833333  -0.2405626   0.1136855), wk =   0.0026042
        k(  346) = (  -0.0833333  -0.2405626   0.2273710), wk =   0.0026042
        k(  347) = (  -0.0833333  -0.2405626   0.3410566), wk =   0.0026042
        k(  348) = (  -0.0833333  -0.2886751   0.1136855), wk =   0.0026042
        k(  349) = (  -0.0833333  -0.2886751   0.2273710), wk =   0.0026042
        k(  350) = (  -0.0833333  -0.2886751   0.3410566), wk =   0.0026042
        k(  351) = (  -0.0833333  -0.3367877   0.1136855), wk =   0.0026042
        k(  352) = (  -0.0833333  -0.3367877   0.2273710), wk =   0.0026042
        k(  353) = (  -0.0833333  -0.3367877   0.3410566), wk =   0.0026042
        k(  354) = (  -0.0833333  -0.3849002   0.1136855), wk =   0.0026042
        k(  355) = (  -0.0833333  -0.3849002   0.2273710), wk =   0.0026042
        k(  356) = (  -0.0833333  -0.3849002   0.3410566), wk =   0.0026042
        k(  357) = (  -0.0833333  -0.4330127   0.1136855), wk =   0.0026042
        k(  358) = (  -0.0833333  -0.4330127   0.2273710), wk =   0.0026042
        k(  359) = (  -0.0833333  -0.4330127   0.3410566), wk =   0.0026042
        k(  360) = (  -0.0833333  -0.4811252   0.1136855), wk =   0.0026042
        k(  361) = (  -0.0833333  -0.4811252   0.2273710), wk =   0.0026042
        k(  362) = (  -0.0833333  -0.4811252   0.3410566), wk =   0.0026042
        k(  363) = (  -0.0833333  -0.5292377   0.1136855), wk =   0.0026042
        k(  364) = (  -0.0833333  -0.5292377   0.2273710), wk =   0.0026042
        k(  365) = (  -0.0833333  -0.5292377   0.3410566), wk =   0.0026042
        k(  366) = (  -0.0833333  -0.5773503   0.1136855), wk =   0.0013021
        k(  367) = (  -0.0833333  -0.5773503   0.2273710), wk =   0.0013021
        k(  368) = (  -0.0833333  -0.5773503   0.3410566), wk =   0.0013021
        k(  369) = (  -0.1250000  -0.2165064   0.1136855), wk =   0.0013021
        k(  370) = (  -0.1250000  -0.2165064   0.2273710), wk =   0.0013021
        k(  371) = (  -0.1250000  -0.2165064   0.3410566), wk =   0.0013021
        k(  372) = (  -0.1250000  -0.2646189   0.1136855), wk =   0.0026042
        k(  373) = (  -0.1250000  -0.2646189   0.2273710), wk =   0.0026042
        k(  374) = (  -0.1250000  -0.2646189   0.3410566), wk =   0.0026042
        k(  375) = (  -0.1250000  -0.3127314   0.1136855), wk =   0.0026042
        k(  376) = (  -0.1250000  -0.3127314   0.2273710), wk =   0.0026042
        k(  377) = (  -0.1250000  -0.3127314   0.3410566), wk =   0.0026042
        k(  378) = (  -0.1250000  -0.3608439   0.1136855), wk =   0.0026042
        k(  379) = (  -0.1250000  -0.3608439   0.2273710), wk =   0.0026042
        k(  380) = (  -0.1250000  -0.3608439   0.3410566), wk =   0.0026042
        k(  381) = (  -0.1250000  -0.4089564   0.1136855), wk =   0.0026042
        k(  382) = (  -0.1250000  -0.4089564   0.2273710), wk =   0.0026042
        k(  383) = (  -0.1250000  -0.4089564   0.3410566), wk =   0.0026042
        k(  384) = (  -0.1250000  -0.4570690   0.1136855), wk =   0.0026042
        k(  385) = (  -0.1250000  -0.4570690   0.2273710), wk =   0.0026042
        k(  386) = (  -0.1250000  -0.4570690   0.3410566), wk =   0.0026042
        k(  387) = (  -0.1250000  -0.5051815   0.1136855), wk =   0.0026042
        k(  388) = (  -0.1250000  -0.5051815   0.2273710), wk =   0.0026042
        k(  389) = (  -0.1250000  -0.5051815   0.3410566), wk =   0.0026042
        k(  390) = (  -0.1250000  -0.5532940   0.1136855), wk =   0.0026042
        k(  391) = (  -0.1250000  -0.5532940   0.2273710), wk =   0.0026042
        k(  392) = (  -0.1250000  -0.5532940   0.3410566), wk =   0.0026042
        k(  393) = (  -0.1666667  -0.2886751   0.1136855), wk =   0.0013021
        k(  394) = (  -0.1666667  -0.2886751   0.2273710), wk =   0.0013021
        k(  395) = (  -0.1666667  -0.2886751   0.3410566), wk =   0.0013021
        k(  396) = (  -0.1666667  -0.3367877   0.1136855), wk =   0.0026042
        k(  397) = (  -0.1666667  -0.3367877   0.2273710), wk =   0.0026042
        k(  398) = (  -0.1666667  -0.3367877   0.3410566), wk =   0.0026042
        k(  399) = (  -0.1666667  -0.3849002   0.1136855), wk =   0.0026042
        k(  400) = (  -0.1666667  -0.3849002   0.2273710), wk =   0.0026042
        k(  401) = (  -0.1666667  -0.3849002   0.3410566), wk =   0.0026042
        k(  402) = (  -0.1666667  -0.4330127   0.1136855), wk =   0.0026042
        k(  403) = (  -0.1666667  -0.4330127   0.2273710), wk =   0.0026042
        k(  404) = (  -0.1666667  -0.4330127   0.3410566), wk =   0.0026042
        k(  405) = (  -0.1666667  -0.4811252   0.1136855), wk =   0.0026042
        k(  406) = (  -0.1666667  -0.4811252   0.2273710), wk =   0.0026042
        k(  407) = (  -0.1666667  -0.4811252   0.3410566), wk =   0.0026042
        k(  408) = (  -0.1666667  -0.5292377   0.1136855), wk =   0.0026042
        k(  409) = (  -0.1666667  -0.5292377   0.2273710), wk =   0.0026042
        k(  410) = (  -0.1666667  -0.5292377   0.3410566), wk =   0.0026042
        k(  411) = (  -0.1666667  -0.5773503   0.1136855), wk =   0.0013021
        k(  412) = (  -0.1666667  -0.5773503   0.2273710), wk =   0.0013021
        k(  413) = (  -0.1666667  -0.5773503   0.3410566), wk =   0.0013021
        k(  414) = (  -0.2083333  -0.3608439   0.1136855), wk =   0.0013021
        k(  415) = (  -0.2083333  -0.3608439   0.2273710), wk =   0.0013021
        k(  416) = (  -0.2083333  -0.3608439   0.3410566), wk =   0.0013021
        k(  417) = (  -0.2083333  -0.4089564   0.1136855), wk =   0.0026042
        k(  418) = (  -0.2083333  -0.4089564   0.2273710), wk =   0.0026042
        k(  419) = (  -0.2083333  -0.4089564   0.3410566), wk =   0.0026042
        k(  420) = (  -0.2083333  -0.4570690   0.1136855), wk =   0.0026042
        k(  421) = (  -0.2083333  -0.4570690   0.2273710), wk =   0.0026042
        k(  422) = (  -0.2083333  -0.4570690   0.3410566), wk =   0.0026042
        k(  423) = (  -0.2083333  -0.5051815   0.1136855), wk =   0.0026042
        k(  424) = (  -0.2083333  -0.5051815   0.2273710), wk =   0.0026042
        k(  425) = (  -0.2083333  -0.5051815   0.3410566), wk =   0.0026042
        k(  426) = (  -0.2083333  -0.5532940   0.1136855), wk =   0.0026042
        k(  427) = (  -0.2083333  -0.5532940   0.2273710), wk =   0.0026042
        k(  428) = (  -0.2083333  -0.5532940   0.3410566), wk =   0.0026042
        k(  429) = (  -0.2500000  -0.4330127   0.1136855), wk =   0.0013021
        k(  430) = (  -0.2500000  -0.4330127   0.2273710), wk =   0.0013021
        k(  431) = (  -0.2500000  -0.4330127   0.3410566), wk =   0.0013021
        k(  432) = (  -0.2500000  -0.4811252   0.1136855), wk =   0.0026042
        k(  433) = (  -0.2500000  -0.4811252   0.2273710), wk =   0.0026042
        k(  434) = (  -0.2500000  -0.4811252   0.3410566), wk =   0.0026042
        k(  435) = (  -0.2500000  -0.5292377   0.1136855), wk =   0.0026042
        k(  436) = (  -0.2500000  -0.5292377   0.2273710), wk =   0.0026042
        k(  437) = (  -0.2500000  -0.5292377   0.3410566), wk =   0.0026042
        k(  438) = (  -0.2500000  -0.5773503   0.1136855), wk =   0.0013021
        k(  439) = (  -0.2500000  -0.5773503   0.2273710), wk =   0.0013021
        k(  440) = (  -0.2500000  -0.5773503   0.3410566), wk =   0.0013021
        k(  441) = (  -0.2916667  -0.5051815   0.1136855), wk =   0.0013021
        k(  442) = (  -0.2916667  -0.5051815   0.2273710), wk =   0.0013021
        k(  443) = (  -0.2916667  -0.5051815   0.3410566), wk =   0.0013021
        k(  444) = (  -0.2916667  -0.5532940   0.1136855), wk =   0.0026042
        k(  445) = (  -0.2916667  -0.5532940   0.2273710), wk =   0.0026042
        k(  446) = (  -0.2916667  -0.5532940   0.3410566), wk =   0.0026042
        k(  447) = (  -0.3333333  -0.5773503   0.1136855), wk =   0.0004340
        k(  448) = (  -0.3333333  -0.5773503   0.2273710), wk =   0.0004340
        k(  449) = (  -0.3333333  -0.5773503   0.3410566), wk =   0.0004340

                       cryst. coord.
        k(    1) = (   0.0000000   0.0000000   0.0000000), wk =   0.0002170
        k(    2) = (   0.0000000   0.0000000   0.1250000), wk =   0.0004340
        k(    3) = (   0.0000000   0.0000000   0.2500000), wk =   0.0004340
        k(    4) = (   0.0000000   0.0000000   0.3750000), wk =   0.0004340
        k(    5) = (   0.0000000   0.0000000  -0.5000000), wk =   0.0002170
        k(    6) = (   0.0000000   0.0416667   0.0000000), wk =   0.0013021
        k(    7) = (   0.0000000   0.0416667   0.1250000), wk =   0.0026042
        k(    8) = (   0.0000000   0.0416667   0.2500000), wk =   0.0026042
        k(    9) = (   0.0000000   0.0416667   0.3750000), wk =   0.0026042
        k(   10) = (   0.0000000   0.0416667  -0.5000000), wk =   0.0013021
        k(   11) = (   0.0000000   0.0833333   0.0000000), wk =   0.0013021
        k(   12) = (   0.0000000   0.0833333   0.1250000), wk =   0.0026042
        k(   13) = (   0.0000000   0.0833333   0.2500000), wk =   0.0026042
        k(   14) = (   0.0000000   0.0833333   0.3750000), wk =   0.0026042
        k(   15) = (   0.0000000   0.0833333  -0.5000000), wk =   0.0013021
        k(   16) = (   0.0000000   0.1250000   0.0000000), wk =   0.0013021
        k(   17) = (   0.0000000   0.1250000   0.1250000), wk =   0.0026042
        k(   18) = (   0.0000000   0.1250000   0.2500000), wk =   0.0026042
        k(   19) = (   0.0000000   0.1250000   0.3750000), wk =   0.0026042
        k(   20) = (   0.0000000   0.1250000  -0.5000000), wk =   0.0013021
        k(   21) = (   0.0000000   0.1666667   0.0000000), wk =   0.0013021
        k(   22) = (   0.0000000   0.1666667   0.1250000), wk =   0.0026042
        k(   23) = (   0.0000000   0.1666667   0.2500000), wk =   0.0026042
        k(   24) = (   0.0000000   0.1666667   0.3750000), wk =   0.0026042
        k(   25) = (   0.0000000   0.1666667  -0.5000000), wk =   0.0013021
        k(   26) = (   0.0000000   0.2083333   0.0000000), wk =   0.0013021
        k(   27) = (   0.0000000   0.2083333   0.1250000), wk =   0.0026042
        k(   28) = (   0.0000000   0.2083333   0.2500000), wk =   0.0026042
        k(   29) = (   0.0000000   0.2083333   0.3750000), wk =   0.0026042
        k(   30) = (   0.0000000   0.2083333  -0.5000000), wk =   0.0013021
        k(   31) = (   0.0000000   0.2500000   0.0000000), wk =   0.0013021
        k(   32) = (   0.0000000   0.2500000   0.1250000), wk =   0.0026042
        k(   33) = (   0.0000000   0.2500000   0.2500000), wk =   0.0026042
        k(   34) = (   0.0000000   0.2500000   0.3750000), wk =   0.0026042
        k(   35) = (   0.0000000   0.2500000  -0.5000000), wk =   0.0013021
        k(   36) = (   0.0000000   0.2916667   0.0000000), wk =   0.0013021
        k(   37) = (   0.0000000   0.2916667   0.1250000), wk =   0.0026042
        k(   38) = (   0.0000000   0.2916667   0.2500000), wk =   0.0026042
        k(   39) = (   0.0000000   0.2916667   0.3750000), wk =   0.0026042
        k(   40) = (   0.0000000   0.2916667  -0.5000000), wk =   0.0013021
        k(   41) = (   0.0000000   0.3333333   0.0000000), wk =   0.0013021
        k(   42) = (   0.0000000   0.3333333   0.1250000), wk =   0.0026042
        k(   43) = (   0.0000000   0.3333333   0.2500000), wk =   0.0026042
        k(   44) = (   0.0000000   0.3333333   0.3750000), wk =   0.0026042
        k(   45) = (   0.0000000   0.3333333  -0.5000000), wk =   0.0013021
        k(   46) = (   0.0000000   0.3750000   0.0000000), wk =   0.0013021
        k(   47) = (   0.0000000   0.3750000   0.1250000), wk =   0.0026042
        k(   48) = (   0.0000000   0.3750000   0.2500000), wk =   0.0026042
        k(   49) = (   0.0000000   0.3750000   0.3750000), wk =   0.0026042
        k(   50) = (   0.0000000   0.3750000  -0.5000000), wk =   0.0013021
        k(   51) = (   0.0000000   0.4166667   0.0000000), wk =   0.0013021
        k(   52) = (   0.0000000   0.4166667   0.1250000), wk =   0.0026042
        k(   53) = (   0.0000000   0.4166667   0.2500000), wk =   0.0026042
        k(   54) = (   0.0000000   0.4166667   0.3750000), wk =   0.0026042
        k(   55) = (   0.0000000   0.4166667  -0.5000000), wk =   0.0013021
        k(   56) = (   0.0000000   0.4583333   0.0000000), wk =   0.0013021
        k(   57) = (   0.0000000   0.4583333   0.1250000), wk =   0.0026042
        k(   58) = (   0.0000000   0.4583333   0.2500000), wk =   0.0026042
        k(   59) = (   0.0000000   0.4583333   0.3750000), wk =   0.0026042
        k(   60) = (   0.0000000   0.4583333  -0.5000000), wk =   0.0013021
        k(   61) = (   0.0000000  -0.5000000   0.0000000), wk =   0.0006510
        k(   62) = (   0.0000000  -0.5000000   0.1250000), wk =   0.0013021
        k(   63) = (   0.0000000  -0.5000000   0.2500000), wk =   0.0013021
        k(   64) = (   0.0000000  -0.5000000   0.3750000), wk =   0.0013021
        k(   65) = (   0.0000000  -0.5000000  -0.5000000), wk =   0.0006510
        k(   66) = (   0.0416667   0.0416667   0.0000000), wk =   0.0013021
        k(   67) = (   0.0416667   0.0416667   0.1250000), wk =   0.0013021
        k(   68) = (   0.0416667   0.0416667   0.2500000), wk =   0.0013021
        k(   69) = (   0.0416667   0.0416667   0.3750000), wk =   0.0013021
        k(   70) = (   0.0416667   0.0416667  -0.5000000), wk =   0.0013021
        k(   71) = (   0.0416667   0.0833333   0.0000000), wk =   0.0026042
        k(   72) = (   0.0416667   0.0833333   0.1250000), wk =   0.0026042
        k(   73) = (   0.0416667   0.0833333   0.2500000), wk =   0.0026042
        k(   74) = (   0.0416667   0.0833333   0.3750000), wk =   0.0026042
        k(   75) = (   0.0416667   0.0833333  -0.5000000), wk =   0.0026042
        k(   76) = (   0.0416667   0.1250000   0.0000000), wk =   0.0026042
        k(   77) = (   0.0416667   0.1250000   0.1250000), wk =   0.0026042
        k(   78) = (   0.0416667   0.1250000   0.2500000), wk =   0.0026042
        k(   79) = (   0.0416667   0.1250000   0.3750000), wk =   0.0026042
        k(   80) = (   0.0416667   0.1250000  -0.5000000), wk =   0.0026042
        k(   81) = (   0.0416667   0.1666667   0.0000000), wk =   0.0026042
        k(   82) = (   0.0416667   0.1666667   0.1250000), wk =   0.0026042
        k(   83) = (   0.0416667   0.1666667   0.2500000), wk =   0.0026042
        k(   84) = (   0.0416667   0.1666667   0.3750000), wk =   0.0026042
        k(   85) = (   0.0416667   0.1666667  -0.5000000), wk =   0.0026042
        k(   86) = (   0.0416667   0.2083333   0.0000000), wk =   0.0026042
        k(   87) = (   0.0416667   0.2083333   0.1250000), wk =   0.0026042
        k(   88) = (   0.0416667   0.2083333   0.2500000), wk =   0.0026042
        k(   89) = (   0.0416667   0.2083333   0.3750000), wk =   0.0026042
        k(   90) = (   0.0416667   0.2083333  -0.5000000), wk =   0.0026042
        k(   91) = (   0.0416667   0.2500000   0.0000000), wk =   0.0026042
        k(   92) = (   0.0416667   0.2500000   0.1250000), wk =   0.0026042
        k(   93) = (   0.0416667   0.2500000   0.2500000), wk =   0.0026042
        k(   94) = (   0.0416667   0.2500000   0.3750000), wk =   0.0026042
        k(   95) = (   0.0416667   0.2500000  -0.5000000), wk =   0.0026042
        k(   96) = (   0.0416667   0.2916667   0.0000000), wk =   0.0026042
        k(   97) = (   0.0416667   0.2916667   0.1250000), wk =   0.0026042
        k(   98) = (   0.0416667   0.2916667   0.2500000), wk =   0.0026042
        k(   99) = (   0.0416667   0.2916667   0.3750000), wk =   0.0026042
        k(  100) = (   0.0416667   0.2916667  -0.5000000), wk =   0.0026042
        k(  101) = (   0.0416667   0.3333333   0.0000000), wk =   0.0026042
        k(  102) = (   0.0416667   0.3333333   0.1250000), wk =   0.0026042
        k(  103) = (   0.0416667   0.3333333   0.2500000), wk =   0.0026042
        k(  104) = (   0.0416667   0.3333333   0.3750000), wk =   0.0026042
        k(  105) = (   0.0416667   0.3333333  -0.5000000), wk =   0.0026042
        k(  106) = (   0.0416667   0.3750000   0.0000000), wk =   0.0026042
        k(  107) = (   0.0416667   0.3750000   0.1250000), wk =   0.0026042
        k(  108) = (   0.0416667   0.3750000   0.2500000), wk =   0.0026042
        k(  109) = (   0.0416667   0.3750000   0.3750000), wk =   0.0026042
        k(  110) = (   0.0416667   0.3750000  -0.5000000), wk =   0.0026042
        k(  111) = (   0.0416667   0.4166667   0.0000000), wk =   0.0026042
        k(  112) = (   0.0416667   0.4166667   0.1250000), wk =   0.0026042
        k(  113) = (   0.0416667   0.4166667   0.2500000), wk =   0.0026042
        k(  114) = (   0.0416667   0.4166667   0.3750000), wk =   0.0026042
        k(  115) = (   0.0416667   0.4166667  -0.5000000), wk =   0.0026042
        k(  116) = (   0.0416667   0.4583333   0.0000000), wk =   0.0026042
        k(  117) = (   0.0416667   0.4583333   0.1250000), wk =   0.0026042
        k(  118) = (   0.0416667   0.4583333   0.2500000), wk =   0.0026042
        k(  119) = (   0.0416667   0.4583333   0.3750000), wk =   0.0026042
        k(  120) = (   0.0416667   0.4583333  -0.5000000), wk =   0.0026042
        k(  121) = (   0.0833333   0.0833333   0.0000000), wk =   0.0013021
        k(  122) = (   0.0833333   0.0833333   0.1250000), wk =   0.0013021
        k(  123) = (   0.0833333   0.0833333   0.2500000), wk =   0.0013021
        k(  124) = (   0.0833333   0.0833333   0.3750000), wk =   0.0013021
        k(  125) = (   0.0833333   0.0833333  -0.5000000), wk =   0.0013021
        k(  126) = (   0.0833333   0.1250000   0.0000000), wk =   0.0026042
        k(  127) = (   0.0833333   0.1250000   0.1250000), wk =   0.0026042
        k(  128) = (   0.0833333   0.1250000   0.2500000), wk =   0.0026042
        k(  129) = (   0.0833333   0.1250000   0.3750000), wk =   0.0026042
        k(  130) = (   0.0833333   0.1250000  -0.5000000), wk =   0.0026042
        k(  131) = (   0.0833333   0.1666667   0.0000000), wk =   0.0026042
        k(  132) = (   0.0833333   0.1666667   0.1250000), wk =   0.0026042
        k(  133) = (   0.0833333   0.1666667   0.2500000), wk =   0.0026042
        k(  134) = (   0.0833333   0.1666667   0.3750000), wk =   0.0026042
        k(  135) = (   0.0833333   0.1666667  -0.5000000), wk =   0.0026042
        k(  136) = (   0.0833333   0.2083333   0.0000000), wk =   0.0026042
        k(  137) = (   0.0833333   0.2083333   0.1250000), wk =   0.0026042
        k(  138) = (   0.0833333   0.2083333   0.2500000), wk =   0.0026042
        k(  139) = (   0.0833333   0.2083333   0.3750000), wk =   0.0026042
        k(  140) = (   0.0833333   0.2083333  -0.5000000), wk =   0.0026042
        k(  141) = (   0.0833333   0.2500000   0.0000000), wk =   0.0026042
        k(  142) = (   0.0833333   0.2500000   0.1250000), wk =   0.0026042
        k(  143) = (   0.0833333   0.2500000   0.2500000), wk =   0.0026042
        k(  144) = (   0.0833333   0.2500000   0.3750000), wk =   0.0026042
        k(  145) = (   0.0833333   0.2500000  -0.5000000), wk =   0.0026042
        k(  146) = (   0.0833333   0.2916667   0.0000000), wk =   0.0026042
        k(  147) = (   0.0833333   0.2916667   0.1250000), wk =   0.0026042
        k(  148) = (   0.0833333   0.2916667   0.2500000), wk =   0.0026042
        k(  149) = (   0.0833333   0.2916667   0.3750000), wk =   0.0026042
        k(  150) = (   0.0833333   0.2916667  -0.5000000), wk =   0.0026042
        k(  151) = (   0.0833333   0.3333333   0.0000000), wk =   0.0026042
        k(  152) = (   0.0833333   0.3333333   0.1250000), wk =   0.0026042
        k(  153) = (   0.0833333   0.3333333   0.2500000), wk =   0.0026042
        k(  154) = (   0.0833333   0.3333333   0.3750000), wk =   0.0026042
        k(  155) = (   0.0833333   0.3333333  -0.5000000), wk =   0.0026042
        k(  156) = (   0.0833333   0.3750000   0.0000000), wk =   0.0026042
        k(  157) = (   0.0833333   0.3750000   0.1250000), wk =   0.0026042
        k(  158) = (   0.0833333   0.3750000   0.2500000), wk =   0.0026042
        k(  159) = (   0.0833333   0.3750000   0.3750000), wk =   0.0026042
        k(  160) = (   0.0833333   0.3750000  -0.5000000), wk =   0.0026042
        k(  161) = (   0.0833333   0.4166667   0.0000000), wk =   0.0026042
        k(  162) = (   0.0833333   0.4166667   0.1250000), wk =   0.0026042
        k(  163) = (   0.0833333   0.4166667   0.2500000), wk =   0.0026042
        k(  164) = (   0.0833333   0.4166667   0.3750000), wk =   0.0026042
        k(  165) = (   0.0833333   0.4166667  -0.5000000), wk =   0.0026042
        k(  166) = (   0.0833333   0.4583333   0.0000000), wk =   0.0013021
        k(  167) = (   0.0833333   0.4583333   0.1250000), wk =   0.0013021
        k(  168) = (   0.0833333   0.4583333   0.2500000), wk =   0.0013021
        k(  169) = (   0.0833333   0.4583333   0.3750000), wk =   0.0013021
        k(  170) = (   0.0833333   0.4583333  -0.5000000), wk =   0.0013021
        k(  171) = (   0.1250000   0.1250000   0.0000000), wk =   0.0013021
        k(  172) = (   0.1250000   0.1250000   0.1250000), wk =   0.0013021
        k(  173) = (   0.1250000   0.1250000   0.2500000), wk =   0.0013021
        k(  174) = (   0.1250000   0.1250000   0.3750000), wk =   0.0013021
        k(  175) = (   0.1250000   0.1250000  -0.5000000), wk =   0.0013021
        k(  176) = (   0.1250000   0.1666667   0.0000000), wk =   0.0026042
        k(  177) = (   0.1250000   0.1666667   0.1250000), wk =   0.0026042
        k(  178) = (   0.1250000   0.1666667   0.2500000), wk =   0.0026042
        k(  179) = (   0.1250000   0.1666667   0.3750000), wk =   0.0026042
        k(  180) = (   0.1250000   0.1666667  -0.5000000), wk =   0.0026042
        k(  181) = (   0.1250000   0.2083333   0.0000000), wk =   0.0026042
        k(  182) = (   0.1250000   0.2083333   0.1250000), wk =   0.0026042
        k(  183) = (   0.1250000   0.2083333   0.2500000), wk =   0.0026042
        k(  184) = (   0.1250000   0.2083333   0.3750000), wk =   0.0026042
        k(  185) = (   0.1250000   0.2083333  -0.5000000), wk =   0.0026042
        k(  186) = (   0.1250000   0.2500000   0.0000000), wk =   0.0026042
        k(  187) = (   0.1250000   0.2500000   0.1250000), wk =   0.0026042
        k(  188) = (   0.1250000   0.2500000   0.2500000), wk =   0.0026042
        k(  189) = (   0.1250000   0.2500000   0.3750000), wk =   0.0026042
        k(  190) = (   0.1250000   0.2500000  -0.5000000), wk =   0.0026042
        k(  191) = (   0.1250000   0.2916667   0.0000000), wk =   0.0026042
        k(  192) = (   0.1250000   0.2916667   0.1250000), wk =   0.0026042
        k(  193) = (   0.1250000   0.2916667   0.2500000), wk =   0.0026042
        k(  194) = (   0.1250000   0.2916667   0.3750000), wk =   0.0026042
        k(  195) = (   0.1250000   0.2916667  -0.5000000), wk =   0.0026042
        k(  196) = (   0.1250000   0.3333333   0.0000000), wk =   0.0026042
        k(  197) = (   0.1250000   0.3333333   0.1250000), wk =   0.0026042
        k(  198) = (   0.1250000   0.3333333   0.2500000), wk =   0.0026042
        k(  199) = (   0.1250000   0.3333333   0.3750000), wk =   0.0026042
        k(  200) = (   0.1250000   0.3333333  -0.5000000), wk =   0.0026042
        k(  201) = (   0.1250000   0.3750000   0.0000000), wk =   0.0026042
        k(  202) = (   0.1250000   0.3750000   0.1250000), wk =   0.0026042
        k(  203) = (   0.1250000   0.3750000   0.2500000), wk =   0.0026042
        k(  204) = (   0.1250000   0.3750000   0.3750000), wk =   0.0026042
        k(  205) = (   0.1250000   0.3750000  -0.5000000), wk =   0.0026042
        k(  206) = (   0.1250000   0.4166667   0.0000000), wk =   0.0026042
        k(  207) = (   0.1250000   0.4166667   0.1250000), wk =   0.0026042
        k(  208) = (   0.1250000   0.4166667   0.2500000), wk =   0.0026042
        k(  209) = (   0.1250000   0.4166667   0.3750000), wk =   0.0026042
        k(  210) = (   0.1250000   0.4166667  -0.5000000), wk =   0.0026042
        k(  211) = (   0.1666667   0.1666667   0.0000000), wk =   0.0013021
        k(  212) = (   0.1666667   0.1666667   0.1250000), wk =   0.0013021
        k(  213) = (   0.1666667   0.1666667   0.2500000), wk =   0.0013021
        k(  214) = (   0.1666667   0.1666667   0.3750000), wk =   0.0013021
        k(  215) = (   0.1666667   0.1666667  -0.5000000), wk =   0.0013021
        k(  216) = (   0.1666667   0.2083333   0.0000000), wk =   0.0026042
        k(  217) = (   0.1666667   0.2083333   0.1250000), wk =   0.0026042
        k(  218) = (   0.1666667   0.2083333   0.2500000), wk =   0.0026042
        k(  219) = (   0.1666667   0.2083333   0.3750000), wk =   0.0026042
        k(  220) = (   0.1666667   0.2083333  -0.5000000), wk =   0.0026042
        k(  221) = (   0.1666667   0.2500000   0.0000000), wk =   0.0026042
        k(  222) = (   0.1666667   0.2500000   0.1250000), wk =   0.0026042
        k(  223) = (   0.1666667   0.2500000   0.2500000), wk =   0.0026042
        k(  224) = (   0.1666667   0.2500000   0.3750000), wk =   0.0026042
        k(  225) = (   0.1666667   0.2500000  -0.5000000), wk =   0.0026042
        k(  226) = (   0.1666667   0.2916667   0.0000000), wk =   0.0026042
        k(  227) = (   0.1666667   0.2916667   0.1250000), wk =   0.0026042
        k(  228) = (   0.1666667   0.2916667   0.2500000), wk =   0.0026042
        k(  229) = (   0.1666667   0.2916667   0.3750000), wk =   0.0026042
        k(  230) = (   0.1666667   0.2916667  -0.5000000), wk =   0.0026042
        k(  231) = (   0.1666667   0.3333333   0.0000000), wk =   0.0026042
        k(  232) = (   0.1666667   0.3333333   0.1250000), wk =   0.0026042
        k(  233) = (   0.1666667   0.3333333   0.2500000), wk =   0.0026042
        k(  234) = (   0.1666667   0.3333333   0.3750000), wk =   0.0026042
        k(  235) = (   0.1666667   0.3333333  -0.5000000), wk =   0.0026042
        k(  236) = (   0.1666667   0.3750000   0.0000000), wk =   0.0026042
        k(  237) = (   0.1666667   0.3750000   0.1250000), wk =   0.0026042
        k(  238) = (   0.1666667   0.3750000   0.2500000), wk =   0.0026042
        k(  239) = (   0.1666667   0.3750000   0.3750000), wk =   0.0026042
        k(  240) = (   0.1666667   0.3750000  -0.5000000), wk =   0.0026042
        k(  241) = (   0.1666667   0.4166667   0.0000000), wk =   0.0013021
        k(  242) = (   0.1666667   0.4166667   0.1250000), wk =   0.0013021
        k(  243) = (   0.1666667   0.4166667   0.2500000), wk =   0.0013021
        k(  244) = (   0.1666667   0.4166667   0.3750000), wk =   0.0013021
        k(  245) = (   0.1666667   0.4166667  -0.5000000), wk =   0.0013021
        k(  246) = (   0.2083333   0.2083333   0.0000000), wk =   0.0013021
        k(  247) = (   0.2083333   0.2083333   0.1250000), wk =   0.0013021
        k(  248) = (   0.2083333   0.2083333   0.2500000), wk =   0.0013021
        k(  249) = (   0.2083333   0.2083333   0.3750000), wk =   0.0013021
        k(  250) = (   0.2083333   0.2083333  -0.5000000), wk =   0.0013021
        k(  251) = (   0.2083333   0.2500000   0.0000000), wk =   0.0026042
        k(  252) = (   0.2083333   0.2500000   0.1250000), wk =   0.0026042
        k(  253) = (   0.2083333   0.2500000   0.2500000), wk =   0.0026042
        k(  254) = (   0.2083333   0.2500000   0.3750000), wk =   0.0026042
        k(  255) = (   0.2083333   0.2500000  -0.5000000), wk =   0.0026042
        k(  256) = (   0.2083333   0.2916667   0.0000000), wk =   0.0026042
        k(  257) = (   0.2083333   0.2916667   0.1250000), wk =   0.0026042
        k(  258) = (   0.2083333   0.2916667   0.2500000), wk =   0.0026042
        k(  259) = (   0.2083333   0.2916667   0.3750000), wk =   0.0026042
        k(  260) = (   0.2083333   0.2916667  -0.5000000), wk =   0.0026042
        k(  261) = (   0.2083333   0.3333333   0.0000000), wk =   0.0026042
        k(  262) = (   0.2083333   0.3333333   0.1250000), wk =   0.0026042
        k(  263) = (   0.2083333   0.3333333   0.2500000), wk =   0.0026042
        k(  264) = (   0.2083333   0.3333333   0.3750000), wk =   0.0026042
        k(  265) = (   0.2083333   0.3333333  -0.5000000), wk =   0.0026042
        k(  266) = (   0.2083333   0.3750000   0.0000000), wk =   0.0026042
        k(  267) = (   0.2083333   0.3750000   0.1250000), wk =   0.0026042
        k(  268) = (   0.2083333   0.3750000   0.2500000), wk =   0.0026042
        k(  269) = (   0.2083333   0.3750000   0.3750000), wk =   0.0026042
        k(  270) = (   0.2083333   0.3750000  -0.5000000), wk =   0.0026042
        k(  271) = (   0.2500000   0.2500000   0.0000000), wk =   0.0013021
        k(  272) = (   0.2500000   0.2500000   0.1250000), wk =   0.0013021
        k(  273) = (   0.2500000   0.2500000   0.2500000), wk =   0.0013021
        k(  274) = (   0.2500000   0.2500000   0.3750000), wk =   0.0013021
        k(  275) = (   0.2500000   0.2500000  -0.5000000), wk =   0.0013021
        k(  276) = (   0.2500000   0.2916667   0.0000000), wk =   0.0026042
        k(  277) = (   0.2500000   0.2916667   0.1250000), wk =   0.0026042
        k(  278) = (   0.2500000   0.2916667   0.2500000), wk =   0.0026042
        k(  279) = (   0.2500000   0.2916667   0.3750000), wk =   0.0026042
        k(  280) = (   0.2500000   0.2916667  -0.5000000), wk =   0.0026042
        k(  281) = (   0.2500000   0.3333333   0.0000000), wk =   0.0026042
        k(  282) = (   0.2500000   0.3333333   0.1250000), wk =   0.0026042
        k(  283) = (   0.2500000   0.3333333   0.2500000), wk =   0.0026042
        k(  284) = (   0.2500000   0.3333333   0.3750000), wk =   0.0026042
        k(  285) = (   0.2500000   0.3333333  -0.5000000), wk =   0.0026042
        k(  286) = (   0.2500000   0.3750000   0.0000000), wk =   0.0013021
        k(  287) = (   0.2500000   0.3750000   0.1250000), wk =   0.0013021
        k(  288) = (   0.2500000   0.3750000   0.2500000), wk =   0.0013021
        k(  289) = (   0.2500000   0.3750000   0.3750000), wk =   0.0013021
        k(  290) = (   0.2500000   0.3750000  -0.5000000), wk =   0.0013021
        k(  291) = (   0.2916667   0.2916667   0.0000000), wk =   0.0013021
        k(  292) = (   0.2916667   0.2916667   0.1250000), wk =   0.0013021
        k(  293) = (   0.2916667   0.2916667   0.2500000), wk =   0.0013021
        k(  294) = (   0.2916667   0.2916667   0.3750000), wk =   0.0013021
        k(  295) = (   0.2916667   0.2916667  -0.5000000), wk =   0.0013021
        k(  296) = (   0.2916667   0.3333333   0.0000000), wk =   0.0026042
        k(  297) = (   0.2916667   0.3333333   0.1250000), wk =   0.0026042
        k(  298) = (   0.2916667   0.3333333   0.2500000), wk =   0.0026042
        k(  299) = (   0.2916667   0.3333333   0.3750000), wk =   0.0026042
        k(  300) = (   0.2916667   0.3333333  -0.5000000), wk =   0.0026042
        k(  301) = (   0.3333333   0.3333333   0.0000000), wk =   0.0004340
        k(  302) = (   0.3333333   0.3333333   0.1250000), wk =   0.0004340
        k(  303) = (   0.3333333   0.3333333   0.2500000), wk =   0.0004340
        k(  304) = (   0.3333333   0.3333333   0.3750000), wk =   0.0004340
        k(  305) = (   0.3333333   0.3333333  -0.5000000), wk =   0.0004340
        k(  306) = (  -0.0416667  -0.0416667   0.1250000), wk =   0.0013021
        k(  307) = (  -0.0416667  -0.0416667   0.2500000), wk =   0.0013021
        k(  308) = (  -0.0416667  -0.0416667   0.3750000), wk =   0.0013021
        k(  309) = (  -0.0416667  -0.0833333   0.1250000), wk =   0.0026042
        k(  310) = (  -0.0416667  -0.0833333   0.2500000), wk =   0.0026042
        k(  311) = (  -0.0416667  -0.0833333   0.3750000), wk =   0.0026042
        k(  312) = (  -0.0416667  -0.1250000   0.1250000), wk =   0.0026042
        k(  313) = (  -0.0416667  -0.1250000   0.2500000), wk =   0.0026042
        k(  314) = (  -0.0416667  -0.1250000   0.3750000), wk =   0.0026042
        k(  315) = (  -0.0416667  -0.1666667   0.1250000), wk =   0.0026042
        k(  316) = (  -0.0416667  -0.1666667   0.2500000), wk =   0.0026042
        k(  317) = (  -0.0416667  -0.1666667   0.3750000), wk =   0.0026042
        k(  318) = (  -0.0416667  -0.2083333   0.1250000), wk =   0.0026042
        k(  319) = (  -0.0416667  -0.2083333   0.2500000), wk =   0.0026042
        k(  320) = (  -0.0416667  -0.2083333   0.3750000), wk =   0.0026042
        k(  321) = (  -0.0416667  -0.2500000   0.1250000), wk =   0.0026042
        k(  322) = (  -0.0416667  -0.2500000   0.2500000), wk =   0.0026042
        k(  323) = (  -0.0416667  -0.2500000   0.3750000), wk =   0.0026042
        k(  324) = (  -0.0416667  -0.2916667   0.1250000), wk =   0.0026042
        k(  325) = (  -0.0416667  -0.2916667   0.2500000), wk =   0.0026042
        k(  326) = (  -0.0416667  -0.2916667   0.3750000), wk =   0.0026042
        k(  327) = (  -0.0416667  -0.3333333   0.1250000), wk =   0.0026042
        k(  328) = (  -0.0416667  -0.3333333   0.2500000), wk =   0.0026042
        k(  329) = (  -0.0416667  -0.3333333   0.3750000), wk =   0.0026042
        k(  330) = (  -0.0416667  -0.3750000   0.1250000), wk =   0.0026042
        k(  331) = (  -0.0416667  -0.3750000   0.2500000), wk =   0.0026042
        k(  332) = (  -0.0416667  -0.3750000   0.3750000), wk =   0.0026042
        k(  333) = (  -0.0416667  -0.4166667   0.1250000), wk =   0.0026042
        k(  334) = (  -0.0416667  -0.4166667   0.2500000), wk =   0.0026042
        k(  335) = (  -0.0416667  -0.4166667   0.3750000), wk =   0.0026042
        k(  336) = (  -0.0416667  -0.4583333   0.1250000), wk =   0.0026042
        k(  337) = (  -0.0416667  -0.4583333   0.2500000), wk =   0.0026042
        k(  338) = (  -0.0416667  -0.4583333   0.3750000), wk =   0.0026042
        k(  339) = (  -0.0833333  -0.0833333   0.1250000), wk =   0.0013021
        k(  340) = (  -0.0833333  -0.0833333   0.2500000), wk =   0.0013021
        k(  341) = (  -0.0833333  -0.0833333   0.3750000), wk =   0.0013021
        k(  342) = (  -0.0833333  -0.1250000   0.1250000), wk =   0.0026042
        k(  343) = (  -0.0833333  -0.1250000   0.2500000), wk =   0.0026042
        k(  344) = (  -0.0833333  -0.1250000   0.3750000), wk =   0.0026042
        k(  345) = (  -0.0833333  -0.1666667   0.1250000), wk =   0.0026042
        k(  346) = (  -0.0833333  -0.1666667   0.2500000), wk =   0.0026042
        k(  347) = (  -0.0833333  -0.1666667   0.3750000), wk =   0.0026042
        k(  348) = (  -0.0833333  -0.2083333   0.1250000), wk =   0.0026042
        k(  349) = (  -0.0833333  -0.2083333   0.2500000), wk =   0.0026042
        k(  350) = (  -0.0833333  -0.2083333   0.3750000), wk =   0.0026042
        k(  351) = (  -0.0833333  -0.2500000   0.1250000), wk =   0.0026042
        k(  352) = (  -0.0833333  -0.2500000   0.2500000), wk =   0.0026042
        k(  353) = (  -0.0833333  -0.2500000   0.3750000), wk =   0.0026042
        k(  354) = (  -0.0833333  -0.2916667   0.1250000), wk =   0.0026042
        k(  355) = (  -0.0833333  -0.2916667   0.2500000), wk =   0.0026042
        k(  356) = (  -0.0833333  -0.2916667   0.3750000), wk =   0.0026042
        k(  357) = (  -0.0833333  -0.3333333   0.1250000), wk =   0.0026042
        k(  358) = (  -0.0833333  -0.3333333   0.2500000), wk =   0.0026042
        k(  359) = (  -0.0833333  -0.3333333   0.3750000), wk =   0.0026042
        k(  360) = (  -0.0833333  -0.3750000   0.1250000), wk =   0.0026042
        k(  361) = (  -0.0833333  -0.3750000   0.2500000), wk =   0.0026042
        k(  362) = (  -0.0833333  -0.3750000   0.3750000), wk =   0.0026042
        k(  363) = (  -0.0833333  -0.4166667   0.1250000), wk =   0.0026042
        k(  364) = (  -0.0833333  -0.4166667   0.2500000), wk =   0.0026042
        k(  365) = (  -0.0833333  -0.4166667   0.3750000), wk =   0.0026042
        k(  366) = (  -0.0833333  -0.4583333   0.1250000), wk =   0.0013021
        k(  367) = (  -0.0833333  -0.4583333   0.2500000), wk =   0.0013021
        k(  368) = (  -0.0833333  -0.4583333   0.3750000), wk =   0.0013021
        k(  369) = (  -0.1250000  -0.1250000   0.1250000), wk =   0.0013021
        k(  370) = (  -0.1250000  -0.1250000   0.2500000), wk =   0.0013021
        k(  371) = (  -0.1250000  -0.1250000   0.3750000), wk =   0.0013021
        k(  372) = (  -0.1250000  -0.1666667   0.1250000), wk =   0.0026042
        k(  373) = (  -0.1250000  -0.1666667   0.2500000), wk =   0.0026042
        k(  374) = (  -0.1250000  -0.1666667   0.3750000), wk =   0.0026042
        k(  375) = (  -0.1250000  -0.2083333   0.1250000), wk =   0.0026042
        k(  376) = (  -0.1250000  -0.2083333   0.2500000), wk =   0.0026042
        k(  377) = (  -0.1250000  -0.2083333   0.3750000), wk =   0.0026042
        k(  378) = (  -0.1250000  -0.2500000   0.1250000), wk =   0.0026042
        k(  379) = (  -0.1250000  -0.2500000   0.2500000), wk =   0.0026042
        k(  380) = (  -0.1250000  -0.2500000   0.3750000), wk =   0.0026042
        k(  381) = (  -0.1250000  -0.2916667   0.1250000), wk =   0.0026042
        k(  382) = (  -0.1250000  -0.2916667   0.2500000), wk =   0.0026042
        k(  383) = (  -0.1250000  -0.2916667   0.3750000), wk =   0.0026042
        k(  384) = (  -0.1250000  -0.3333333   0.1250000), wk =   0.0026042
        k(  385) = (  -0.1250000  -0.3333333   0.2500000), wk =   0.0026042
        k(  386) = (  -0.1250000  -0.3333333   0.3750000), wk =   0.0026042
        k(  387) = (  -0.1250000  -0.3750000   0.1250000), wk =   0.0026042
        k(  388) = (  -0.1250000  -0.3750000   0.2500000), wk =   0.0026042
        k(  389) = (  -0.1250000  -0.3750000   0.3750000), wk =   0.0026042
        k(  390) = (  -0.1250000  -0.4166667   0.1250000), wk =   0.0026042
        k(  391) = (  -0.1250000  -0.4166667   0.2500000), wk =   0.0026042
        k(  392) = (  -0.1250000  -0.4166667   0.3750000), wk =   0.0026042
        k(  393) = (  -0.1666667  -0.1666667   0.1250000), wk =   0.0013021
        k(  394) = (  -0.1666667  -0.1666667   0.2500000), wk =   0.0013021
        k(  395) = (  -0.1666667  -0.1666667   0.3750000), wk =   0.0013021
        k(  396) = (  -0.1666667  -0.2083333   0.1250000), wk =   0.0026042
        k(  397) = (  -0.1666667  -0.2083333   0.2500000), wk =   0.0026042
        k(  398) = (  -0.1666667  -0.2083333   0.3750000), wk =   0.0026042
        k(  399) = (  -0.1666667  -0.2500000   0.1250000), wk =   0.0026042
        k(  400) = (  -0.1666667  -0.2500000   0.2500000), wk =   0.0026042
        k(  401) = (  -0.1666667  -0.2500000   0.3750000), wk =   0.0026042
        k(  402) = (  -0.1666667  -0.2916667   0.1250000), wk =   0.0026042
        k(  403) = (  -0.1666667  -0.2916667   0.2500000), wk =   0.0026042
        k(  404) = (  -0.1666667  -0.2916667   0.3750000), wk =   0.0026042
        k(  405) = (  -0.1666667  -0.3333333   0.1250000), wk =   0.0026042
        k(  406) = (  -0.1666667  -0.3333333   0.2500000), wk =   0.0026042
        k(  407) = (  -0.1666667  -0.3333333   0.3750000), wk =   0.0026042
        k(  408) = (  -0.1666667  -0.3750000   0.1250000), wk =   0.0026042
        k(  409) = (  -0.1666667  -0.3750000   0.2500000), wk =   0.0026042
        k(  410) = (  -0.1666667  -0.3750000   0.3750000), wk =   0.0026042
        k(  411) = (  -0.1666667  -0.4166667   0.1250000), wk =   0.0013021
        k(  412) = (  -0.1666667  -0.4166667   0.2500000), wk =   0.0013021
        k(  413) = (  -0.1666667  -0.4166667   0.3750000), wk =   0.0013021
        k(  414) = (  -0.2083333  -0.2083333   0.1250000), wk =   0.0013021
        k(  415) = (  -0.2083333  -0.2083333   0.2500000), wk =   0.0013021
        k(  416) = (  -0.2083333  -0.2083333   0.3750000), wk =   0.0013021
        k(  417) = (  -0.2083333  -0.2500000   0.1250000), wk =   0.0026042
        k(  418) = (  -0.2083333  -0.2500000   0.2500000), wk =   0.0026042
        k(  419) = (  -0.2083333  -0.2500000   0.3750000), wk =   0.0026042
        k(  420) = (  -0.2083333  -0.2916667   0.1250000), wk =   0.0026042
        k(  421) = (  -0.2083333  -0.2916667   0.2500000), wk =   0.0026042
        k(  422) = (  -0.2083333  -0.2916667   0.3750000), wk =   0.0026042
        k(  423) = (  -0.2083333  -0.3333333   0.1250000), wk =   0.0026042
        k(  424) = (  -0.2083333  -0.3333333   0.2500000), wk =   0.0026042
        k(  425) = (  -0.2083333  -0.3333333   0.3750000), wk =   0.0026042
        k(  426) = (  -0.2083333  -0.3750000   0.1250000), wk =   0.0026042
        k(  427) = (  -0.2083333  -0.3750000   0.2500000), wk =   0.0026042
        k(  428) = (  -0.2083333  -0.3750000   0.3750000), wk =   0.0026042
        k(  429) = (  -0.2500000  -0.2500000   0.1250000), wk =   0.0013021
        k(  430) = (  -0.2500000  -0.2500000   0.2500000), wk =   0.0013021
[...]
     5.7892   5.8414   5.8548   5.9955   6.1063   6.1409   6.3416   6.4437
     6.5704   7.9576   8.0516   8.1471   8.6388   8.6681   8.7060  14.3927
    14.7926  15.1474  17.2915  17.7960  18.0676  19.2001  19.5149  19.9442

     occupation numbers 
     1.0000   1.0000   1.0000   1.0000   1.0000   1.0000   1.0000   1.0000
     1.0000   1.0000   1.0000   1.0000   1.0000   1.0000   1.0000   1.0000
     1.0000   1.0000   1.0000   1.0000   1.0000   1.0000   1.0000   1.0000
     1.0000   1.0000   1.0000   1.0000   1.0000   1.0000   1.0000   1.0000
     1.0000   1.0000   1.0000   1.0000   1.0000   1.0000   1.0000   1.0000
     1.0237   1.0380   1.0423   1.0826   1.0442   1.0056   0.5443   0.2885
     0.0929   0.0000   0.0000   0.0000   0.0000   0.0000   0.0000   0.0000
     0.0000   0.0000   0.0000   0.0000   0.0000   0.0000   0.0000   0.0000

          k =-0.2500-0.5774 0.1137 (  6300 PWs)   bands (ev):

   -88.7770 -88.7765 -88.7317 -52.0992 -52.0899 -52.0846 -52.0654 -52.0421
   -52.0401 -51.9063 -51.9054 -51.8673 -43.6085 -15.5894 -15.5248 -15.5241
   -11.9951 -11.9665 -11.7178 -11.0799 -11.0333 -11.0196   0.4755   0.8103
     0.8559   1.5084   1.5575   1.5697   1.9210   1.9247   2.0014   2.3509
     2.5611   2.7262   3.4671   3.4825   3.5204   4.3850   4.7049   4.7808
     5.7936   5.8608   5.8703   5.9881   6.1208   6.1446   6.3421   6.4728
     6.5160   8.0403   8.0803   8.1802   8.6543   8.6571   8.7263  14.3854
    14.4388  15.1166  18.0224  18.2344  18.4802  18.9506  19.4390  19.4863

     occupation numbers 
     1.0000   1.0000   1.0000   1.0000   1.0000   1.0000   1.0000   1.0000
     1.0000   1.0000   1.0000   1.0000   1.0000   1.0000   1.0000   1.0000
     1.0000   1.0000   1.0000   1.0000   1.0000   1.0000   1.0000   1.0000
     1.0000   1.0000   1.0000   1.0000   1.0000   1.0000   1.0000   1.0000
     1.0000   1.0000   1.0000   1.0000   1.0000   1.0000   1.0000   1.0000
     1.0247   1.0443   1.0475   1.0818   1.0298   1.0006   0.5428   0.2302
     0.1585   0.0000   0.0000   0.0000   0.0000   0.0000   0.0000   0.0000
     0.0000   0.0000   0.0000   0.0000   0.0000   0.0000   0.0000   0.0000

          k =-0.2500-0.5774 0.2274 (  6296 PWs)   bands (ev):

   -88.7770 -88.7764 -88.7316 -52.0992 -52.0900 -52.0846 -52.0654 -52.0421
   -52.0401 -51.9063 -51.9054 -51.8673 -43.6085 -15.5921 -15.5244 -15.5238
   -11.9808 -11.9673 -11.7155 -11.0818 -11.0334 -11.0331   0.4607   0.7737
     0.8344   1.4881   1.5390   1.5452   1.9212   1.9263   2.0014   2.4502
     2.6329   2.7885   3.4678   3.4811   3.5208   4.3877   4.6908   4.7574
     5.7900   5.8523   5.8615   5.9885   6.1182   6.1420   6.3368   6.4706
     6.5145   8.0339   8.0771   8.1841   8.6522   8.6586   8.7241  14.4111
    14.4699  15.0527  17.7631  17.9244  18.3064  19.1328  19.4187  19.8385

     occupation numbers 
     1.0000   1.0000   1.0000   1.0000   1.0000   1.0000   1.0000   1.0000
     1.0000   1.0000   1.0000   1.0000   1.0000   1.0000   1.0000   1.0000
     1.0000   1.0000   1.0000   1.0000   1.0000   1.0000   1.0000   1.0000
     1.0000   1.0000   1.0000   1.0000   1.0000   1.0000   1.0000   1.0000
     1.0000   1.0000   1.0000   1.0000   1.0000   1.0000   1.0000   1.0000
     1.0239   1.0415   1.0445   1.0818   1.0326   1.0042   0.5575   0.2343
     0.1607   0.0000   0.0000   0.0000   0.0000   0.0000   0.0000   0.0000
     0.0000   0.0000   0.0000   0.0000   0.0000   0.0000   0.0000   0.0000

          k =-0.2500-0.5774 0.3411 (  6324 PWs)   bands (ev):

   -88.7770 -88.7765 -88.7317 -52.0993 -52.0900 -52.0846 -52.0654 -52.0422
   -52.0401 -51.9064 -51.9056 -51.8675 -43.6085 -15.5952 -15.5242 -15.5237
   -11.9666 -11.9651 -11.7104 -11.0876 -11.0470 -11.0350   0.4500   0.7412
     0.8101   1.4618   1.5275   1.5277   1.9226   1.9270   2.0001   2.5321
     2.6934   2.8376   3.4687   3.4811   3.5241   4.4176   4.6952   4.7585
     5.7835   5.8445   5.8520   5.9889   6.1162   6.1391   6.3415   6.4834
     6.5265   7.9741   8.0233   8.1450   8.6503   8.6585   8.7201  14.5488
    14.6197  15.1295  17.4738  17.6247  18.0450  19.1992  19.5681  20.0183

     occupation numbers 
     1.0000   1.0000   1.0000   1.0000   1.0000   1.0000   1.0000   1.0000
     1.0000   1.0000   1.0000   1.0000   1.0000   1.0000   1.0000   1.0000
     1.0000   1.0000   1.0000   1.0000   1.0000   1.0000   1.0000   1.0000
     1.0000   1.0000   1.0000   1.0000   1.0000   1.0000   1.0000   1.0000
     1.0000   1.0000   1.0000   1.0000   1.0000   1.0000   1.0000   1.0000
     1.0224   1.0390   1.0414   1.0819   1.0347   1.0079   0.5443   0.2110
     0.1439   0.0000   0.0000   0.0000   0.0000   0.0000   0.0000   0.0000
     0.0000   0.0000   0.0000   0.0000   0.0000   0.0000   0.0000   0.0000

          k =-0.2917-0.5052 0.1137 (  6291 PWs)   bands (ev):

   -88.7770 -88.7764 -88.7317 -52.0985 -52.0915 -52.0835 -52.0655 -52.0421
   -52.0400 -51.9064 -51.9053 -51.8673 -43.6085 -15.5894 -15.5247 -15.5240
   -12.0847 -11.8066 -11.7886 -11.0627 -11.0569 -11.0116   0.6044   0.6222
     0.9036   1.4781   1.5359   1.6064   1.8712   1.9724   2.0154   2.3527
     2.6201   2.6913   3.4109   3.4525   3.6071   4.4731   4.5298   4.8500
     5.8070   5.8660   5.8667   6.0480   6.0562   6.1242   6.3706   6.4149
     6.5548   8.0238   8.1243   8.1545   8.6773   8.6802   8.6862  14.1340
    14.8621  14.9445  17.9133  18.3803  18.4545  18.9207  19.4809  19.5947

     occupation numbers 
     1.0000   1.0000   1.0000   1.0000   1.0000   1.0000   1.0000   1.0000
     1.0000   1.0000   1.0000   1.0000   1.0000   1.0000   1.0000   1.0000
     1.0000   1.0000   1.0000   1.0000   1.0000   1.0000   1.0000   1.0000
     1.0000   1.0000   1.0000   1.0000   1.0000   1.0000   1.0000   1.0000
     1.0000   1.0000   1.0000   1.0000   1.0000   1.0000   1.0000   1.0000
     1.0281   1.0460   1.0463   1.0782   1.0756   1.0261   0.4657   0.3536
     0.1091   0.0000   0.0000   0.0000   0.0000   0.0000   0.0000   0.0000
     0.0000   0.0000   0.0000   0.0000   0.0000   0.0000   0.0000   0.0000

          k =-0.2917-0.5052 0.2274 (  6301 PWs)   bands (ev):

   -88.7770 -88.7764 -88.7317 -52.0986 -52.0915 -52.0836 -52.0655 -52.0422
   -52.0400 -51.9064 -51.9054 -51.8673 -43.6085 -15.5922 -15.5243 -15.5238
   -12.0759 -11.7990 -11.7892 -11.0628 -11.0626 -11.0213   0.5802   0.6075
     0.8716   1.4529   1.5107   1.5987   1.8720   1.9712   2.0143   2.4470
     2.6898   2.7575   3.4109   3.4526   3.6063   4.4689   4.5253   4.8218
     5.8035   5.8523   5.8609   6.0465   6.0552   6.1245   6.3641   6.4100
     6.5567   8.0166   8.1260   8.1566   8.6751   8.6792   8.6861  14.1978
    14.8270  14.9080  17.6011  18.1631  18.2481  19.1761  19.4773  19.7218

     occupation numbers 
     1.0000   1.0000   1.0000   1.0000   1.0000   1.0000   1.0000   1.0000
     1.0000   1.0000   1.0000   1.0000   1.0000   1.0000   1.0000   1.0000
     1.0000   1.0000   1.0000   1.0000   1.0000   1.0000   1.0000   1.0000
     1.0000   1.0000   1.0000   1.0000   1.0000   1.0000   1.0000   1.0000
     1.0000   1.0000   1.0000   1.0000   1.0000   1.0000   1.0000   1.0000
     1.0272   1.0415   1.0443   1.0787   1.0759   1.0257   0.4829   0.3654
     0.1069   0.0000   0.0000   0.0000   0.0000   0.0000   0.0000   0.0000
     0.0000   0.0000   0.0000   0.0000   0.0000   0.0000   0.0000   0.0000

          k =-0.2917-0.5052 0.3411 (  6330 PWs)   bands (ev):

   -88.7770 -88.7764 -88.7317 -52.0987 -52.0916 -52.0836 -52.0655 -52.0422
   -52.0400 -51.9065 -51.9055 -51.8675 -43.6085 -15.5953 -15.5241 -15.5238
   -12.0662 -11.7889 -11.7874 -11.0736 -11.0650 -11.0296   0.5632   0.5928
     0.8383   1.4232   1.4886   1.5991   1.8719   1.9705   2.0120   2.5261
     2.7464   2.8116   3.4118   3.4550   3.6070   4.4878   4.5485   4.8126
     5.7966   5.8411   5.8535   6.0456   6.0534   6.1251   6.3703   6.4161
     6.5735   7.9556   8.0798   8.1129   8.6737   8.6761   8.6837  14.3775
    14.9153  15.0058  17.2768  17.9012  17.9976  19.3779  19.4371  19.8474

     occupation numbers 
     1.0000   1.0000   1.0000   1.0000   1.0000   1.0000   1.0000   1.0000
     1.0000   1.0000   1.0000   1.0000   1.0000   1.0000   1.0000   1.0000
     1.0000   1.0000   1.0000   1.0000   1.0000   1.0000   1.0000   1.0000
     1.0000   1.0000   1.0000   1.0000   1.0000   1.0000   1.0000   1.0000
     1.0000   1.0000   1.0000   1.0000   1.0000   1.0000   1.0000   1.0000
     1.0255   1.0380   1.0419   1.0789   1.0765   1.0250   0.4663   0.3507
     0.0899   0.0000   0.0000   0.0000   0.0000   0.0000   0.0000   0.0000
     0.0000   0.0000   0.0000   0.0000   0.0000   0.0000   0.0000   0.0000

          k =-0.2917-0.5533 0.1137 (  6298 PWs)   bands (ev):

   -88.7769 -88.7765 -88.7317 -52.0982 -52.0899 -52.0859 -52.0653 -52.0416
   -52.0404 -51.9062 -51.9056 -51.8673 -43.6085 -15.5893 -15.5246 -15.5242
   -11.9915 -11.8924 -11.8035 -11.0605 -11.0432 -11.0231   0.5971   0.7201
     0.8241   1.4988   1.5548   1.5744   1.9076   1.9409   1.9886   2.3602
     2.5847   2.6622   3.4729   3.5014   3.5583   4.4926   4.6175   4.7542
     5.8043   5.8649   5.8681   6.0317   6.0790   6.1051   6.3804   6.4490
     6.5078   8.0440   8.0984   8.1415   8.6852   8.6876   8.7092  14.3715
    14.6290  14.8734  18.0402  18.2911  18.4024  18.9664  19.5153  19.6045

     occupation numbers 
     1.0000   1.0000   1.0000   1.0000   1.0000   1.0000   1.0000   1.0000
     1.0000   1.0000   1.0000   1.0000   1.0000   1.0000   1.0000   1.0000
     1.0000   1.0000   1.0000   1.0000   1.0000   1.0000   1.0000   1.0000
     1.0000   1.0000   1.0000   1.0000   1.0000   1.0000   1.0000   1.0000
     1.0000   1.0000   1.0000   1.0000   1.0000   1.0000   1.0000   1.0000
     1.0274   1.0457   1.0467   1.0818   1.0647   1.0453   0.4398   0.2774
     0.1708   0.0000   0.0000   0.0000   0.0000   0.0000   0.0000   0.0000
     0.0000   0.0000   0.0000   0.0000   0.0000   0.0000   0.0000   0.0000

          k =-0.2917-0.5533 0.2274 (  6290 PWs)   bands (ev):

   -88.7769 -88.7765 -88.7316 -52.0982 -52.0899 -52.0859 -52.0653 -52.0416
   -52.0404 -51.9061 -51.9056 -51.8673 -43.6085 -15.5921 -15.5242 -15.5239
   -11.9830 -11.8878 -11.8008 -11.0627 -11.0466 -11.0329   0.5762   0.6952
     0.7984   1.4751   1.5299   1.5555   1.9084   1.9411   1.9884   2.4600
     2.6566   2.7302   3.4729   3.5012   3.5582   4.4882   4.6070   4.7331
     5.7992   5.8545   5.8588   6.0319   6.0783   6.1050   6.3754   6.4456
     6.5065   8.0392   8.0976   8.1431   8.6835   8.6872   8.7074  14.3990
    14.6238  14.8388  17.7818  18.0271  18.1856  19.2150  19.5650  19.7883

     occupation numbers 
     1.0000   1.0000   1.0000   1.0000   1.0000   1.0000   1.0000   1.0000
     1.0000   1.0000   1.0000   1.0000   1.0000   1.0000   1.0000   1.0000
     1.0000   1.0000   1.0000   1.0000   1.0000   1.0000   1.0000   1.0000
     1.0000   1.0000   1.0000   1.0000   1.0000   1.0000   1.0000   1.0000
     1.0000   1.0000   1.0000   1.0000   1.0000   1.0000   1.0000   1.0000
     1.0261   1.0422   1.0436   1.0818   1.0651   1.0454   0.4528   0.2845
     0.1727   0.0000   0.0000   0.0000   0.0000   0.0000   0.0000   0.0000
     0.0000   0.0000   0.0000   0.0000   0.0000   0.0000   0.0000   0.0000

          k =-0.2917-0.5533 0.3411 (  6327 PWs)   bands (ev):

   -88.7769 -88.7766 -88.7317 -52.0983 -52.0900 -52.0859 -52.0653 -52.0416
   -52.0404 -51.9063 -51.9057 -51.8675 -43.6085 -15.5952 -15.5241 -15.5238
   -11.9741 -11.8808 -11.7952 -11.0712 -11.0538 -11.0387   0.5596   0.6726
     0.7722   1.4474   1.5099   1.5439   1.9084   1.9413   1.9867   2.5419
     2.7166   2.7858   3.4734   3.5023   3.5602   4.5087   4.6198   4.7366
     5.7914   5.8450   5.8496   6.0321   6.0778   6.1051   6.3832   6.4547
     6.5189   7.9799   8.0461   8.0974   8.6802   8.6846   8.7037  14.5458
    14.7430  14.9407  17.4890  17.7499  17.9268  19.4040  19.5753  19.8762

     occupation numbers 
     1.0000   1.0000   1.0000   1.0000   1.0000   1.0000   1.0000   1.0000
     1.0000   1.0000   1.0000   1.0000   1.0000   1.0000   1.0000   1.0000
     1.0000   1.0000   1.0000   1.0000   1.0000   1.0000   1.0000   1.0000
     1.0000   1.0000   1.0000   1.0000   1.0000   1.0000   1.0000   1.0000
     1.0000   1.0000   1.0000   1.0000   1.0000   1.0000   1.0000   1.0000
     1.0242   1.0392   1.0406   1.0817   1.0654   1.0453   0.4326   0.2656
     0.1544   0.0000   0.0000   0.0000   0.0000   0.0000   0.0000   0.0000
     0.0000   0.0000   0.0000   0.0000   0.0000   0.0000   0.0000   0.0000

          k =-0.3333-0.5774 0.1137 (  6312 PWs)   bands (ev):

   -88.7767 -88.7767 -88.7317 -52.0979 -52.0882 -52.0882 -52.0653 -52.0410
   -52.0410 -51.9059 -51.9059 -51.8674 -43.6085 -15.5894 -15.5245 -15.5245
   -11.9210 -11.8852 -11.8852 -11.0466 -11.0466 -11.0309   0.6870   0.7287
     0.7287   1.5017   1.5623   1.5623   1.9270   1.9270   1.9741   2.3708
     2.6080   2.6080   3.5064   3.5064   3.5521   4.5875   4.5875   4.6900
     5.8067   5.8667   5.8667   6.0663   6.0663   6.0688   6.4007   6.4688
     6.4688   8.0571   8.1090   8.1090   8.7002   8.7002   8.7027  14.5798
    14.5798  14.6805  18.0914  18.3187  18.3187  18.9797  19.5678  19.5678

     occupation numbers 
     1.0000   1.0000   1.0000   1.0000   1.0000   1.0000   1.0000   1.0000
     1.0000   1.0000   1.0000   1.0000   1.0000   1.0000   1.0000   1.0000
     1.0000   1.0000   1.0000   1.0000   1.0000   1.0000   1.0000   1.0000
     1.0000   1.0000   1.0000   1.0000   1.0000   1.0000   1.0000   1.0000
     1.0000   1.0000   1.0000   1.0000   1.0000   1.0000   1.0000   1.0000
     1.0281   1.0463   1.0463   1.0714   1.0714   1.0702   0.3880   0.2377
     0.2377   0.0000   0.0000   0.0000   0.0000   0.0000   0.0000   0.0000
     0.0000   0.0000   0.0000   0.0000   0.0000   0.0000   0.0000   0.0000

          k =-0.3333-0.5774 0.2274 (  6288 PWs)   bands (ev):

   -88.7767 -88.7767 -88.7316 -52.0979 -52.0882 -52.0882 -52.0652 -52.0409
   -52.0409 -51.9058 -51.9058 -51.8673 -43.6085 -15.5920 -15.5241 -15.5241
   -11.9037 -11.8859 -11.8859 -11.0466 -11.0466 -11.0464   0.6515   0.7109
     0.7109   1.4787   1.5383   1.5383   1.9278   1.9278   1.9739   2.4718
     2.6791   2.6791   3.5061   3.5061   3.5524   4.5782   4.5782   4.6727
     5.8005   5.8566   5.8566   6.0665   6.0665   6.0696   6.3965   6.4661
     6.4661   8.0541   8.1086   8.1086   8.6993   8.6993   8.7004  14.5738
    14.5738  14.6778  17.8718  18.0590  18.0590  19.2368  19.7190  19.7190

     occupation numbers 
     1.0000   1.0000   1.0000   1.0000   1.0000   1.0000   1.0000   1.0000
     1.0000   1.0000   1.0000   1.0000   1.0000   1.0000   1.0000   1.0000
     1.0000   1.0000   1.0000   1.0000   1.0000   1.0000   1.0000   1.0000
     1.0000   1.0000   1.0000   1.0000   1.0000   1.0000   1.0000   1.0000
     1.0000   1.0000   1.0000   1.0000   1.0000   1.0000   1.0000   1.0000
     1.0265   1.0429   1.0429   1.0713   1.0713   1.0698   0.3985   0.2430
     0.2430   0.0000   0.0000   0.0000   0.0000   0.0000   0.0000   0.0000
     0.0000   0.0000   0.0000   0.0000   0.0000   0.0000   0.0000   0.0000

          k =-0.3333-0.5774 0.3411 (  6336 PWs)   bands (ev):

   -88.7767 -88.7767 -88.7317 -52.0980 -52.0882 -52.0882 -52.0653 -52.0410
   -52.0410 -51.9060 -51.9060 -51.8675 -43.6085 -15.5952 -15.5240 -15.5240
   -11.8847 -11.8847 -11.8847 -11.0637 -11.0486 -11.0486   0.6252   0.6916
     0.6916   1.4524   1.5203   1.5203   1.9279   1.9279   1.9721   2.5538
     2.7385   2.7385   3.5063   3.5063   3.5557   4.5906   4.5906   4.6860
     5.7920   5.8470   5.8470   6.0668   6.0668   6.0707   6.4069   6.4754
     6.4754   7.9964   8.0580   8.0580   8.6954   8.6962   8.6962  14.6914
    14.6914  14.8119  17.5976  17.7849  17.7849  19.4694  19.7289  19.7289

     occupation numbers 
     1.0000   1.0000   1.0000   1.0000   1.0000   1.0000   1.0000   1.0000
     1.0000   1.0000   1.0000   1.0000   1.0000   1.0000   1.0000   1.0000
     1.0000   1.0000   1.0000   1.0000   1.0000   1.0000   1.0000   1.0000
     1.0000   1.0000   1.0000   1.0000   1.0000   1.0000   1.0000   1.0000
     1.0000   1.0000   1.0000   1.0000   1.0000   1.0000   1.0000   1.0000
     1.0244   1.0398   1.0398   1.0712   1.0712   1.0693   0.3728   0.2254
     0.2254   0.0000   0.0000   0.0000   0.0000   0.0000   0.0000   0.0000
     0.0000   0.0000   0.0000   0.0000   0.0000   0.0000   0.0000   0.0000

     the Fermi energy is     6.3957 ev
     (compare with:     6.3948 eV, computed in scf)

     Writing all to output data dir ../Na_s3_c5.5_d0.00/out/pw.save/ :
     XML data file, pseudopotentials, collected wavefunctions
 
     init_run     :     22.38s CPU      4.48s WALL (       1 calls)
     electrons    :    532.87s CPU    536.74s WALL (       1 calls)

     Called by init_run:
     wfcinit      :      0.00s CPU      0.00s WALL (       1 calls)
     wfcinit:atom :      1.51s CPU      1.51s WALL (     898 calls)
     wfcinit:wfcr :      5.59s CPU      5.65s WALL (     898 calls)
     potinit      :     21.26s CPU      3.24s WALL (       1 calls)
     hinit0       :      0.52s CPU      0.52s WALL (       1 calls)

     Called by electrons:
     c_bands      :    532.81s CPU    536.67s WALL (       1 calls)
     v_of_rho     :      0.02s CPU      0.06s WALL (       1 calls)
     v_h          :      0.01s CPU      0.01s WALL (       1 calls)
     v_xc         :      0.01s CPU      0.05s WALL (       1 calls)
     newd         :      0.05s CPU      0.12s WALL (       1 calls)
                                        0.12s GPU  (       1 calls)
     PAW_pot      :     11.41s CPU      1.47s WALL (       1 calls)

     Called by c_bands:
     init_us_2    :      0.33s CPU      0.52s WALL (     898 calls)
     cegterg      :    523.40s CPU    525.96s WALL (    4931 calls)

     Called by sum_band:

     Called by *egterg:
     cdiaghg      :    233.67s CPU    235.82s WALL (   94273 calls)
                                      234.70s GPU  (   94273 calls)
     cegterg:over :     27.80s CPU     28.29s WALL (   93375 calls)
     cegterg:upda :     41.47s CPU     41.80s WALL (   93375 calls)
     cegterg:last :      6.67s CPU      6.67s WALL (   41903 calls)
     h_psi        :    163.92s CPU    166.12s WALL (   99204 calls)
                                      164.92s GPU  (   99204 calls)
     s_psi        :     29.96s CPU     30.93s WALL (   99204 calls)
     g_psi        :      0.45s CPU      3.43s WALL (   93375 calls)
                                        2.23s GPU  (   93375 calls)

     Called by h_psi:
     h_psi:calbec :      2.62s CPU      7.41s WALL (   99204 calls)
                                        6.22s GPU  (   99204 calls)
     vloc_psi     :    118.60s CPU    119.03s WALL (   99204 calls)
                                      117.82s GPU  (   99204 calls)
     add_vuspsi   :     28.48s CPU     32.88s WALL (   99204 calls)
                                       31.67s GPU  (   99204 calls)

     General routines
     calbec       :      2.38s CPU      2.54s WALL (   99204 calls)
     fft          :      6.69s CPU      1.07s WALL (      23 calls)
                                        0.01s GPU  (      21 calls)
     ffts         :      3.12s CPU      0.63s WALL (       2 calls)
     fftw         :      6.51s CPU     53.80s WALL (  443166 calls)
                                       48.87s GPU  (  443166 calls)
     interpolate  :      9.82s CPU      1.70s WALL (       2 calls)
     davcio       :      5.52s CPU      1.79s WALL (    1796 calls)
 
     Parallel routines

     PAW routines
     PAW_pot      :     11.41s CPU      1.47s WALL (       1 calls)
 
     PWSCF        :   9m24.72s CPU   9m 4.87s WALL

 
   This run was terminated on:   4:16:56  12Jul2026            

=------------------------------------------------------------------------------=
   JOB DONE.
=------------------------------------------------------------------------------=
Warning: ieee_divide_by_zero is signaling
Warning: ieee_inexact is signaling
FORTRAN STOP
