
     Program PWSCF v.7.3.1 starts on 12Jul2026 at  2:20:28 

     This program is part of the open-source Quantum ESPRESSO suite
     for quantum simulation of materials; please cite
         "P. Giannozzi et al., J. Phys.:Condens. Matter 21 395502 (2009);
         "P. Giannozzi et al., J. Phys.:Condens. Matter 29 465901 (2017);
         "P. Giannozzi et al., J. Chem. Phys. 152 154105 (2020);
          URL http://www.quantum-espresso.org", 
     in publications or presentations arising from this work. More details at
     http://www.quantum-espresso.org/quote

     Parallel version (MPI & OpenMP), running on      14 processor cores
     Number of MPI processes:                 1
     Threads/MPI process:                    14

     MPI processes distributed on     1 nodes
     849445 MiB available memory on the printing compute node when the environment starts
 
     Reading input from pw.in

     Current dimensions of program PWSCF are:
     Max number of different atomic species (ntypx) = 10
     Max number of k-points (npk) =  40000
     Max angular momentum in pseudopotentials (lmaxx) =  4
     file Co.pbe-spn-kjpaw_psl.0.3.1.UPF: wavefunction(s)  3P 3D renormalized
     file O.pbe-n-kjpaw_psl.1.0.0.UPF: wavefunction(s)  2S 2P renormalized
 
     Subspace diagonalization in iterative solution of the eigenvalue problem:
     a serial algorithm will be used

 
     G-vector sticks info
     --------------------
     sticks:   dense  smooth     PW     G-vecs:    dense   smooth      PW
     Sum         931     475    139                81725    28863    4749
 
     Using Slab Decomposition
 


     bravais-lattice index     =            4
     lattice parameter (alat)  =       5.3290  a.u.
     unit-cell volume          =     460.1089 (a.u.)^3
     number of atoms/cell      =            4
     number of atomic types    =            3
     number of electrons       =        32.00
     number of Kohn-Sham states=           24
     kinetic-energy cutoff     =      60.0000  Ry
     charge density cutoff     =     480.0000  Ry
     scf convergence threshold =      1.0E-08
     mixing beta               =       0.3000
     number of iterations used =            8  plain     mixing
     Exchange-correlation= SLA  PW   PBX  PBC
                           (   1   4   3   4   0   0   0)

     GPU acceleration is ACTIVE.  1 visible GPUs per MPI rank
     GPU-aware MPI enabled


     GPU used by master process:

        Device Number: 0
        Device name: NVIDIA A100-SXM4-80GB
        Compute capability : 80
        Ratio of single to double precision performance  : 2
        Memory Clock Rate (KHz): 1593000
        Memory Bus Width (bits): 5120
        Peak Memory Bandwidth (GB/s): ******

     celldm(1)=   5.329028  celldm(2)=   0.000000  celldm(3)=   3.510638
     celldm(4)=   0.000000  celldm(5)=   0.000000  celldm(6)=   0.000000

     crystal axes: (cart. coord. in units of alat)
               a(1) = (   1.000000   0.000000   0.000000 )  
               a(2) = (  -0.500000   0.866025   0.000000 )  
               a(3) = (   0.000000   0.000000   3.510638 )  

     reciprocal axes: (cart. coord. in units 2 pi/alat)
               b(1) = (  1.000000  0.577350 -0.000000 )  
               b(2) = (  0.000000  1.154701  0.000000 )  
               b(3) = (  0.000000 -0.000000  0.284848 )  


     PseudoPot. # 1 for Co read from file:
     ../../pseudo/Co.pbe-spn-kjpaw_psl.0.3.1.UPF
     MD5 check sum: 3c0a43779828c046024e4f3be63f8e67
     Pseudo is Projector augmented-wave + core cor, Zval = 17.0
     Generated using &quot;atomic&quot; code by A. Dal Corso  v.6.2.2
     Shape of augmentation charge: PSQ
     Using radial grid of 1193 points,  6 beta functions with: 
                l(1) =   0
                l(2) =   0
                l(3) =   1
                l(4) =   1
                l(5) =   2
                l(6) =   2
     Q(r) pseudized with 0 coefficients 


     PseudoPot. # 2 for O  read from file:
     ../../pseudo/O.pbe-n-kjpaw_psl.1.0.0.UPF
     MD5 check sum: e99d9cef9b487d1ca56f5b95ecd0fd7a
     Pseudo is Projector augmented-wave + core cor, Zval =  6.0
     Generated using &quot;atomic&quot; code by A. Dal Corso  v.6.3
     Shape of augmentation charge: PSQ
     Using radial grid of 1095 points,  4 beta functions with: 
                l(1) =   0
                l(2) =   0
                l(3) =   1
                l(4) =   1
     Q(r) pseudized with 0 coefficients 


     PseudoPot. # 3 for Li read from file:
     ../../pseudo/Li.pbe-s-kjpaw_psl.1.0.0.UPF
     MD5 check sum: 3974953fb0fea6c4f83fb01d64ffc134
     Pseudo is Projector augmented-wave, Zval =  3.0
     Generated using &quot;atomic&quot; code by A. Dal Corso  v.6.3
     Shape of augmentation charge: PSQ
     Using radial grid of 1017 points,  4 beta functions with: 
                l(1) =   0
                l(2) =   0
                l(3) =   1
                l(4) =   1
     Q(r) pseudized with 0 coefficients 


     atomic species   valence    mass     pseudopotential
     Co               17.00    58.93300     Co( 1.00)
     O                 6.00    15.99900     O ( 1.00)
     Li                3.00     6.94100     Li( 1.00)

     Starting magnetic structure 
     atomic species   magnetization
     Co              0.300
     O               0.000
     Li              0.000

      6 Sym. Ops. (no inversion) found


                                    s                        frac. trans.

      isym =  1     identity                                     

 cryst.   s( 1) = (     1          0          0      )
                  (     0          1          0      )
                  (     0          0          1      )

 cart.    s( 1) = (  1.0000000  0.0000000  0.0000000 )
                  (  0.0000000  1.0000000  0.0000000 )
                  (  0.0000000  0.0000000  1.0000000 )


      isym =  2     120 deg rotation - cryst. axis [0,0,1]       

 cryst.   s( 2) = (     0          1          0      )
                  (    -1         -1          0      )
                  (     0          0          1      )

 cart.    s( 2) = ( -0.5000000 -0.8660254  0.0000000 )
                  (  0.8660254 -0.5000000  0.0000000 )
                  (  0.0000000  0.0000000  1.0000000 )


      isym =  3     120 deg rotation - cryst. axis [0,0,-1]      

 cryst.   s( 3) = (    -1         -1          0      )
                  (     1          0          0      )
                  (     0          0          1      )

 cart.    s( 3) = ( -0.5000000  0.8660254  0.0000000 )
                  ( -0.8660254 -0.5000000  0.0000000 )
                  (  0.0000000  0.0000000  1.0000000 )


      isym =  4     inv. 180 deg rotation - cart. axis [1,0,0]   

 cryst.   s( 4) = (    -1          0          0      )
                  (     1          1          0      )
                  (     0          0          1      )

 cart.    s( 4) = ( -1.0000000  0.0000000  0.0000000 )
                  (  0.0000000  1.0000000  0.0000000 )
                  (  0.0000000  0.0000000  1.0000000 )


      isym =  5     inv. 180 deg rotation - cryst. axis [0,1,0]  

 cryst.   s( 5) = (     1          1          0      )
                  (     0         -1          0      )
                  (     0          0          1      )

 cart.    s( 5) = (  0.5000000  0.8660254  0.0000000 )
                  (  0.8660254 -0.5000000  0.0000000 )
                  (  0.0000000  0.0000000  1.0000000 )


      isym =  6     inv. 180 deg rotation - cryst. axis [1,1,0]  

 cryst.   s( 6) = (     0         -1          0      )
                  (    -1          0          0      )
                  (     0          0          1      )

 cart.    s( 6) = (  0.5000000 -0.8660254  0.0000000 )
                  ( -0.8660254 -0.5000000  0.0000000 )
                  (  0.0000000  0.0000000  1.0000000 )


     point group C_3v (3m)  
     there are  3 classes
     the character table:

       E     2C3   3s_v 
A_1    1.00  1.00  1.00
A_2    1.00  1.00 -1.00
E      2.00 -1.00  0.00

     the symmetry operations in each class and the name of the first element:

     E        1
          identity                                               
     2C3      2    3
          120 deg rotation - cryst. axis [0,0,1]                 
     3s_v     4    5    6
          inv. 180 deg rotation - cart. axis [1,0,0]             

   Cartesian axes

     site n.     atom                  positions (alat units)
         1        Co     tau(   1) = (   0.0000000   0.0000000   0.0000000  )
         2        O      tau(   2) = (  -0.0000000   0.5773503   0.3404255  )
         3        O      tau(   3) = (   0.5000000   0.2886751   3.1702128  )
         4        Li     tau(   4) = (  -0.0000000   0.5773503   1.8085106  )

   Crystallographic axes

     site n.     atom                  positions (cryst. coord.)
         1        Co     tau(   1) = (  0.0000000  0.0000000  0.0000000  )
         2        O      tau(   2) = (  0.3333333  0.6666667  0.0969697  )
         3        O      tau(   3) = (  0.6666667  0.3333333  0.9030303  )
         4        Li     tau(   4) = (  0.3333333  0.6666667  0.5151515  )

     number of k points=    25  Marzari-Vanderbilt smearing, width (Ry)=  0.0200
                       cart. coord. in units 2pi/alat
        k(    1) = (   0.0000000   0.0000000   0.0000000), wk =   0.0052083
        k(    2) = (   0.0000000   0.0000000   0.0949495), wk =   0.0104167
        k(    3) = (   0.0000000   0.1443376   0.0000000), wk =   0.0312500
        k(    4) = (   0.0000000   0.1443376   0.0949495), wk =   0.0312500
        k(    5) = (   0.0000000   0.2886751   0.0000000), wk =   0.0312500
        k(    6) = (   0.0000000   0.2886751   0.0949495), wk =   0.0312500
        k(    7) = (   0.0000000   0.4330127   0.0000000), wk =   0.0312500
        k(    8) = (   0.0000000   0.4330127   0.0949495), wk =   0.0312500
        k(    9) = (   0.0000000  -0.5773503   0.0000000), wk =   0.0156250
        k(   10) = (   0.0000000  -0.5773503   0.0949495), wk =   0.0312500
        k(   11) = (   0.1250000   0.2165064   0.0000000), wk =   0.0312500
        k(   12) = (   0.1250000   0.2165064   0.0949495), wk =   0.0625000
        k(   13) = (   0.1250000   0.3608439   0.0000000), wk =   0.0625000
        k(   14) = (   0.1250000   0.3608439   0.0949495), wk =   0.0625000
        k(   15) = (   0.1250000   0.5051815   0.0000000), wk =   0.0625000
        k(   16) = (   0.1250000   0.5051815   0.0949495), wk =   0.0625000
        k(   17) = (   0.2500000   0.4330127   0.0000000), wk =   0.0312500
        k(   18) = (   0.2500000   0.4330127   0.0949495), wk =   0.0625000
        k(   19) = (   0.2500000   0.5773503   0.0000000), wk =   0.0312500
        k(   20) = (   0.2500000   0.5773503   0.0949495), wk =   0.0625000
        k(   21) = (   0.0000000  -0.1443376   0.0949495), wk =   0.0312500
        k(   22) = (   0.0000000  -0.2886751   0.0949495), wk =   0.0312500
        k(   23) = (   0.0000000  -0.4330127   0.0949495), wk =   0.0312500
        k(   24) = (  -0.1250000  -0.3608439   0.0949495), wk =   0.0625000
        k(   25) = (  -0.1250000  -0.5051815   0.0949495), wk =   0.0625000

                       cryst. coord.
        k(    1) = (   0.0000000   0.0000000   0.0000000), wk =   0.0052083
        k(    2) = (   0.0000000   0.0000000   0.3333333), wk =   0.0104167
        k(    3) = (   0.0000000   0.1250000   0.0000000), wk =   0.0312500
        k(    4) = (   0.0000000   0.1250000   0.3333333), wk =   0.0312500
        k(    5) = (   0.0000000   0.2500000   0.0000000), wk =   0.0312500
        k(    6) = (   0.0000000   0.2500000   0.3333333), wk =   0.0312500
        k(    7) = (   0.0000000   0.3750000   0.0000000), wk =   0.0312500
        k(    8) = (   0.0000000   0.3750000   0.3333333), wk =   0.0312500
        k(    9) = (   0.0000000  -0.5000000   0.0000000), wk =   0.0156250
        k(   10) = (   0.0000000  -0.5000000   0.3333333), wk =   0.0312500
        k(   11) = (   0.1250000   0.1250000   0.0000000), wk =   0.0312500
        k(   12) = (   0.1250000   0.1250000   0.3333333), wk =   0.0625000
        k(   13) = (   0.1250000   0.2500000   0.0000000), wk =   0.0625000
        k(   14) = (   0.1250000   0.2500000   0.3333333), wk =   0.0625000
        k(   15) = (   0.1250000   0.3750000   0.0000000), wk =   0.0625000
        k(   16) = (   0.1250000   0.3750000   0.3333333), wk =   0.0625000
        k(   17) = (   0.2500000   0.2500000   0.0000000), wk =   0.0312500
        k(   18) = (   0.2500000   0.2500000   0.3333333), wk =   0.0625000
        k(   19) = (   0.2500000   0.3750000   0.0000000), wk =   0.0312500
        k(   20) = (   0.2500000   0.3750000   0.3333333), wk =   0.0625000
        k(   21) = (   0.0000000  -0.1250000   0.3333333), wk =   0.0312500
        k(   22) = (   0.0000000  -0.2500000   0.3333333), wk =   0.0312500
        k(   23) = (   0.0000000  -0.3750000   0.3333333), wk =   0.0312500
        k(   24) = (  -0.1250000  -0.2500000   0.3333333), wk =   0.0625000
        k(   25) = (  -0.1250000  -0.3750000   0.3333333), wk =   0.0625000

     Dense  grid:    81725 G-vectors     FFT dimensions: (  40,  40, 135)

     Smooth grid:    28863 G-vectors     FFT dimensions: (  27,  27,  96)

     Dynamical RAM for                 wfc:       1.32 MB

     Dynamical RAM for     wfc (w. buffer):      67.44 MB

     Dynamical RAM for           str. fact:       3.74 MB

     Dynamical RAM for           local pot:       0.00 MB

     Dynamical RAM for          nlocal pot:       2.31 MB

     Dynamical RAM for                qrad:       5.27 MB

     Dynamical RAM for          rho,v,vnew:      17.37 MB

     Dynamical RAM for               rhoin:       5.79 MB

     Dynamical RAM for            rho*nmix:      39.90 MB

     Dynamical RAM for           G-vectors:       4.90 MB

     Dynamical RAM for          h,s,v(r/c):       0.11 MB

     Dynamical RAM for          <psi|beta>:       0.02 MB

     Dynamical RAM for                 psi:       2.64 MB

     Dynamical RAM for                hpsi:       2.64 MB

     Dynamical RAM for                spsi:       2.64 MB

     Dynamical RAM for      wfcinit/wfcrot:       2.66 MB

     Dynamical RAM for           addusdens:     235.69 MB

     Dynamical RAM for          addusforce:     238.20 MB

     Estimated static dynamical RAM per process >     121.70 MB

     Estimated max dynamical RAM per process >     399.80 MB

     Check: negative core charge=   -0.000006
     Generating pointlists ...
     new r_m :   0.2765 (alat units)  1.4733 (a.u.) for type    1
     new r_m :   0.2765 (alat units)  1.4733 (a.u.) for type    2
     new r_m :   0.4125 (alat units)  2.1982 (a.u.) for type    3

     Initial potential from superposition of free atoms

     starting charge      31.9951, renormalised to      32.0000
     Starting wfcs are   23 randomized atomic wfcs +    1 random wfcs
     Checking if some PAW data can be deallocated... 

     total cpu time spent up to now is        3.5 secs

     Self-consistent Calculation
[tb_dev] Currently allocated     6.36E-01 Mbytes, locked:    0 /   6
[tb_pin] Currently allocated     0.00E+00 Mbytes, locked:    0 /   0

     iteration #  1     ecut=    60.00 Ry     beta= 0.30
     Davidson diagonalization with overlap

---- Real-time Memory Report at c_bands before calling an iterative solver
           695 MiB given to the printing process from OS
             0 MiB allocation reported by mallinfo(arena+hblkhd)
        849273 MiB available memory on the node where the printing process lives
     GPU memory used/free/total (MiB): 1094 / 80056 / 81151
------------------
     ethr =  1.00E-02,  avg # of iterations =  7.9

     total cpu time spent up to now is        5.4 secs

     total energy              =    -474.18471195 Ry
     estimated scf accuracy    <       1.90681025 Ry

     total magnetization       =     4.49 Bohr mag/cell
     absolute magnetization    =     4.49 Bohr mag/cell
[tb_dev] Currently allocated     3.05E-05 Mbytes, locked:    0 /   2
[tb_pin] Currently allocated     0.00E+00 Mbytes, locked:    0 /   0

     iteration #  2     ecut=    60.00 Ry     beta= 0.30
     Davidson diagonalization with overlap

---- Real-time Memory Report at c_bands before calling an iterative solver
           741 MiB given to the printing process from OS
             0 MiB allocation reported by mallinfo(arena+hblkhd)
        849043 MiB available memory on the node where the printing process lives
     GPU memory used/free/total (MiB): 1114 / 80036 / 81151
------------------
     ethr =  5.96E-03,  avg # of iterations =  2.0

     total cpu time spent up to now is        6.6 secs

     total energy              =    -474.41358929 Ry
     estimated scf accuracy    <       3.89899269 Ry

     total magnetization       =     0.99 Bohr mag/cell
     absolute magnetization    =     1.01 Bohr mag/cell
[tb_dev] Currently allocated     3.05E-05 Mbytes, locked:    0 /   2
[tb_pin] Currently allocated     0.00E+00 Mbytes, locked:    0 /   0

     iteration #  3     ecut=    60.00 Ry     beta= 0.30
     Davidson diagonalization with overlap

---- Real-time Memory Report at c_bands before calling an iterative solver
           744 MiB given to the printing process from OS
             0 MiB allocation reported by mallinfo(arena+hblkhd)
        848983 MiB available memory on the node where the printing process lives
     GPU memory used/free/total (MiB): 1114 / 80036 / 81151
------------------
     ethr =  5.96E-03,  avg # of iterations =  1.0

     total cpu time spent up to now is        7.6 secs

     total energy              =    -474.74460821 Ry
     estimated scf accuracy    <       0.62572952 Ry

     total magnetization       =     2.99 Bohr mag/cell
     absolute magnetization    =     3.00 Bohr mag/cell
[tb_dev] Currently allocated     3.05E-05 Mbytes, locked:    0 /   2
[tb_pin] Currently allocated     0.00E+00 Mbytes, locked:    0 /   0

     iteration #  4     ecut=    60.00 Ry     beta= 0.30
     Davidson diagonalization with overlap

---- Real-time Memory Report at c_bands before calling an iterative solver
           745 MiB given to the printing process from OS
             0 MiB allocation reported by mallinfo(arena+hblkhd)
        848964 MiB available memory on the node where the printing process lives
     GPU memory used/free/total (MiB): 1114 / 80036 / 81151
------------------
     ethr =  1.96E-03,  avg # of iterations =  1.8

     total cpu time spent up to now is        8.7 secs

     total energy              =    -474.84702811 Ry
     estimated scf accuracy    <       0.86551748 Ry

     total magnetization       =     1.73 Bohr mag/cell
     absolute magnetization    =     1.82 Bohr mag/cell
[tb_dev] Currently allocated     3.05E-05 Mbytes, locked:    0 /   2
[tb_pin] Currently allocated     0.00E+00 Mbytes, locked:    0 /   0

     iteration #  5     ecut=    60.00 Ry     beta= 0.30
     Davidson diagonalization with overlap

---- Real-time Memory Report at c_bands before calling an iterative solver
           748 MiB given to the printing process from OS
             0 MiB allocation reported by mallinfo(arena+hblkhd)
        848929 MiB available memory on the node where the printing process lives
     GPU memory used/free/total (MiB): 1114 / 80036 / 81151
------------------
     ethr =  1.96E-03,  avg # of iterations =  1.3

     total cpu time spent up to now is        9.7 secs

     total energy              =    -474.88832980 Ry
     estimated scf accuracy    <       0.37317433 Ry

     total magnetization       =     1.24 Bohr mag/cell
     absolute magnetization    =     1.59 Bohr mag/cell
[tb_dev] Currently allocated     3.05E-05 Mbytes, locked:    0 /   2
[tb_pin] Currently allocated     0.00E+00 Mbytes, locked:    0 /   0

     iteration #  6     ecut=    60.00 Ry     beta= 0.30
     Davidson diagonalization with overlap

---- Real-time Memory Report at c_bands before calling an iterative solver
           750 MiB given to the printing process from OS
             0 MiB allocation reported by mallinfo(arena+hblkhd)
        848932 MiB available memory on the node where the printing process lives
     GPU memory used/free/total (MiB): 1114 / 80036 / 81151
------------------
     ethr =  1.17E-03,  avg # of iterations =  1.5

     total cpu time spent up to now is       10.8 secs

     total energy              =    -474.92377475 Ry
     estimated scf accuracy    <       0.28527625 Ry

     total magnetization       =     1.05 Bohr mag/cell
     absolute magnetization    =     1.51 Bohr mag/cell
[tb_dev] Currently allocated     3.05E-05 Mbytes, locked:    0 /   2
[tb_pin] Currently allocated     0.00E+00 Mbytes, locked:    0 /   0

     iteration #  7     ecut=    60.00 Ry     beta= 0.30
     Davidson diagonalization with overlap

---- Real-time Memory Report at c_bands before calling an iterative solver
           750 MiB given to the printing process from OS
             0 MiB allocation reported by mallinfo(arena+hblkhd)
        848900 MiB available memory on the node where the printing process lives
     GPU memory used/free/total (MiB): 1114 / 80036 / 81151
------------------
     ethr =  8.91E-04,  avg # of iterations =  1.4

     total cpu time spent up to now is       11.9 secs

     total energy              =    -474.95949099 Ry
     estimated scf accuracy    <       0.05714512 Ry

     total magnetization       =     0.80 Bohr mag/cell
     absolute magnetization    =     1.13 Bohr mag/cell
[tb_dev] Currently allocated     3.05E-05 Mbytes, locked:    0 /   2
[tb_pin] Currently allocated     0.00E+00 Mbytes, locked:    0 /   0

     iteration #  8     ecut=    60.00 Ry     beta= 0.30
     Davidson diagonalization with overlap

---- Real-time Memory Report at c_bands before calling an iterative solver
           752 MiB given to the printing process from OS
             0 MiB allocation reported by mallinfo(arena+hblkhd)
        848892 MiB available memory on the node where the printing process lives
     GPU memory used/free/total (MiB): 1114 / 80036 / 81151
------------------
     ethr =  1.79E-04,  avg # of iterations =  5.4

     total cpu time spent up to now is       13.4 secs

     total energy              =    -474.96172349 Ry
     estimated scf accuracy    <       0.04096186 Ry

     total magnetization       =     0.54 Bohr mag/cell
     absolute magnetization    =     0.61 Bohr mag/cell
[tb_dev] Currently allocated     3.05E-05 Mbytes, locked:    0 /   2
[tb_pin] Currently allocated     0.00E+00 Mbytes, locked:    0 /   0

     iteration #  9     ecut=    60.00 Ry     beta= 0.30
     Davidson diagonalization with overlap

---- Real-time Memory Report at c_bands before calling an iterative solver
           755 MiB given to the printing process from OS
             0 MiB allocation reported by mallinfo(arena+hblkhd)
        848969 MiB available memory on the node where the printing process lives
     GPU memory used/free/total (MiB): 1114 / 80036 / 81151
------------------
     ethr =  1.28E-04,  avg # of iterations =  2.9

     total cpu time spent up to now is       14.7 secs

     total energy              =    -474.97227097 Ry
     estimated scf accuracy    <       0.04213334 Ry

     total magnetization       =     1.08 Bohr mag/cell
     absolute magnetization    =     1.10 Bohr mag/cell
[tb_dev] Currently allocated     3.05E-05 Mbytes, locked:    0 /   2
[tb_pin] Currently allocated     0.00E+00 Mbytes, locked:    0 /   0

     iteration # 10     ecut=    60.00 Ry     beta= 0.30
     Davidson diagonalization with overlap

---- Real-time Memory Report at c_bands before calling an iterative solver
           757 MiB given to the printing process from OS
             0 MiB allocation reported by mallinfo(arena+hblkhd)
        849179 MiB available memory on the node where the printing process lives
     GPU memory used/free/total (MiB): 1114 / 80036 / 81151
------------------
     ethr =  1.28E-04,  avg # of iterations =  1.1

     total cpu time spent up to now is       15.7 secs

     total energy              =    -474.97374901 Ry
     estimated scf accuracy    <       0.00523015 Ry

     total magnetization       =     0.92 Bohr mag/cell
     absolute magnetization    =     0.96 Bohr mag/cell
[tb_dev] Currently allocated     3.05E-05 Mbytes, locked:    0 /   2
[tb_pin] Currently allocated     0.00E+00 Mbytes, locked:    0 /   0

     iteration # 11     ecut=    60.00 Ry     beta= 0.30
     Davidson diagonalization with overlap

---- Real-time Memory Report at c_bands before calling an iterative solver
           757 MiB given to the printing process from OS
             0 MiB allocation reported by mallinfo(arena+hblkhd)
        849031 MiB available memory on the node where the printing process lives
     GPU memory used/free/total (MiB): 1114 / 80036 / 81151
------------------
     ethr =  1.63E-05,  avg # of iterations =  5.3

     total cpu time spent up to now is       17.3 secs

     total energy              =    -474.97580880 Ry
     estimated scf accuracy    <       0.00157810 Ry

     total magnetization       =     0.92 Bohr mag/cell
     absolute magnetization    =     0.93 Bohr mag/cell
[tb_dev] Currently allocated     3.05E-05 Mbytes, locked:    0 /   2
[tb_pin] Currently allocated     0.00E+00 Mbytes, locked:    0 /   0

     iteration # 12     ecut=    60.00 Ry     beta= 0.30
     Davidson diagonalization with overlap

---- Real-time Memory Report at c_bands before calling an iterative solver
           757 MiB given to the printing process from OS
             0 MiB allocation reported by mallinfo(arena+hblkhd)
        849012 MiB available memory on the node where the printing process lives
     GPU memory used/free/total (MiB): 1114 / 80036 / 81151
------------------
     ethr =  4.93E-06,  avg # of iterations =  4.5

     total cpu time spent up to now is       18.7 secs

     total energy              =    -474.97631590 Ry
     estimated scf accuracy    <       0.00407021 Ry

     total magnetization       =     0.97 Bohr mag/cell
     absolute magnetization    =     0.98 Bohr mag/cell
[tb_dev] Currently allocated     3.05E-05 Mbytes, locked:    0 /   2
[tb_pin] Currently allocated     0.00E+00 Mbytes, locked:    0 /   0

     iteration # 13     ecut=    60.00 Ry     beta= 0.30
     Davidson diagonalization with overlap

---- Real-time Memory Report at c_bands before calling an iterative solver
           757 MiB given to the printing process from OS
             0 MiB allocation reported by mallinfo(arena+hblkhd)
        848833 MiB available memory on the node where the printing process lives
     GPU memory used/free/total (MiB): 1114 / 80036 / 81151
------------------
     ethr =  4.93E-06,  avg # of iterations =  1.8

     total cpu time spent up to now is       19.8 secs

     total energy              =    -474.97653787 Ry
     estimated scf accuracy    <       0.00188655 Ry

     total magnetization       =     0.95 Bohr mag/cell
     absolute magnetization    =     0.96 Bohr mag/cell
[tb_dev] Currently allocated     3.05E-05 Mbytes, locked:    0 /   2
[tb_pin] Currently allocated     0.00E+00 Mbytes, locked:    0 /   0

     iteration # 14     ecut=    60.00 Ry     beta= 0.30
     Davidson diagonalization with overlap

---- Real-time Memory Report at c_bands before calling an iterative solver
           757 MiB given to the printing process from OS
             0 MiB allocation reported by mallinfo(arena+hblkhd)
        848825 MiB available memory on the node where the printing process lives
     GPU memory used/free/total (MiB): 1114 / 80036 / 81151
------------------
     ethr =  4.93E-06,  avg # of iterations =  1.4

     total cpu time spent up to now is       20.9 secs

     total energy              =    -474.97661451 Ry
     estimated scf accuracy    <       0.00004768 Ry

     total magnetization       =     0.91 Bohr mag/cell
     absolute magnetization    =     0.93 Bohr mag/cell
[tb_dev] Currently allocated     3.05E-05 Mbytes, locked:    0 /   2
[tb_pin] Currently allocated     0.00E+00 Mbytes, locked:    0 /   0

     iteration # 15     ecut=    60.00 Ry     beta= 0.30
     Davidson diagonalization with overlap

---- Real-time Memory Report at c_bands before calling an iterative solver
           757 MiB given to the printing process from OS
             0 MiB allocation reported by mallinfo(arena+hblkhd)
        848804 MiB available memory on the node where the printing process lives
     GPU memory used/free/total (MiB): 1114 / 80036 / 81151
------------------
     ethr =  1.49E-07,  avg # of iterations =  6.3

     total cpu time spent up to now is       22.6 secs

     total energy              =    -474.97666580 Ry
     estimated scf accuracy    <       0.00000943 Ry

     total magnetization       =     0.91 Bohr mag/cell
     absolute magnetization    =     0.93 Bohr mag/cell
[tb_dev] Currently allocated     3.05E-05 Mbytes, locked:    0 /   2
[tb_pin] Currently allocated     0.00E+00 Mbytes, locked:    0 /   0

     iteration # 16     ecut=    60.00 Ry     beta= 0.30
     Davidson diagonalization with overlap

---- Real-time Memory Report at c_bands before calling an iterative solver
           757 MiB given to the printing process from OS
             0 MiB allocation reported by mallinfo(arena+hblkhd)
        848797 MiB available memory on the node where the printing process lives
     GPU memory used/free/total (MiB): 1114 / 80036 / 81151
------------------
     ethr =  2.95E-08,  avg # of iterations =  5.1

     total cpu time spent up to now is       24.2 secs

     total energy              =    -474.97667243 Ry
     estimated scf accuracy    <       0.00000559 Ry

     total magnetization       =     0.90 Bohr mag/cell
     absolute magnetization    =     0.93 Bohr mag/cell
[tb_dev] Currently allocated     3.05E-05 Mbytes, locked:    0 /   2
[tb_pin] Currently allocated     0.00E+00 Mbytes, locked:    0 /   0

     iteration # 17     ecut=    60.00 Ry     beta= 0.30
     Davidson diagonalization with overlap

---- Real-time Memory Report at c_bands before calling an iterative solver
           757 MiB given to the printing process from OS
             0 MiB allocation reported by mallinfo(arena+hblkhd)
        848809 MiB available memory on the node where the printing process lives
     GPU memory used/free/total (MiB): 1114 / 80036 / 81151
------------------
     ethr =  1.75E-08,  avg # of iterations =  1.4

     total cpu time spent up to now is       25.2 secs

     total energy              =    -474.97667355 Ry
     estimated scf accuracy    <       0.00000176 Ry

     total magnetization       =     0.90 Bohr mag/cell
     absolute magnetization    =     0.93 Bohr mag/cell
[tb_dev] Currently allocated     3.05E-05 Mbytes, locked:    0 /   2
[tb_pin] Currently allocated     0.00E+00 Mbytes, locked:    0 /   0

     iteration # 18     ecut=    60.00 Ry     beta= 0.30
     Davidson diagonalization with overlap

---- Real-time Memory Report at c_bands before calling an iterative solver
           757 MiB given to the printing process from OS
             0 MiB allocation reported by mallinfo(arena+hblkhd)
        848794 MiB available memory on the node where the printing process lives
     GPU memory used/free/total (MiB): 1114 / 80036 / 81151
------------------
     ethr =  5.50E-09,  avg # of iterations =  4.8

     total cpu time spent up to now is       26.8 secs

     total energy              =    -474.97667547 Ry
     estimated scf accuracy    <       0.00000104 Ry

     total magnetization       =     0.89 Bohr mag/cell
     absolute magnetization    =     0.93 Bohr mag/cell
[tb_dev] Currently allocated     3.05E-05 Mbytes, locked:    0 /   2
[tb_pin] Currently allocated     0.00E+00 Mbytes, locked:    0 /   0

     iteration # 19     ecut=    60.00 Ry     beta= 0.30
     Davidson diagonalization with overlap

---- Real-time Memory Report at c_bands before calling an iterative solver
           757 MiB given to the printing process from OS
             0 MiB allocation reported by mallinfo(arena+hblkhd)
        848740 MiB available memory on the node where the printing process lives
     GPU memory used/free/total (MiB): 1114 / 80036 / 81151
------------------
     ethr =  3.25E-09,  avg # of iterations =  1.6

     total cpu time spent up to now is       27.9 secs

     total energy              =    -474.97667657 Ry
     estimated scf accuracy    <       0.00000023 Ry

     total magnetization       =     0.89 Bohr mag/cell
     absolute magnetization    =     0.93 Bohr mag/cell
[tb_dev] Currently allocated     3.05E-05 Mbytes, locked:    0 /   2
[tb_pin] Currently allocated     0.00E+00 Mbytes, locked:    0 /   0

     iteration # 20     ecut=    60.00 Ry     beta= 0.30
     Davidson diagonalization with overlap

---- Real-time Memory Report at c_bands before calling an iterative solver
           757 MiB given to the printing process from OS
             0 MiB allocation reported by mallinfo(arena+hblkhd)
        848756 MiB available memory on the node where the printing process lives
     GPU memory used/free/total (MiB): 1114 / 80036 / 81151
------------------
     ethr =  7.31E-10,  avg # of iterations =  4.4

     total cpu time spent up to now is       29.3 secs

     total energy              =    -474.97667825 Ry
     estimated scf accuracy    <       0.00000020 Ry

     total magnetization       =     0.89 Bohr mag/cell
     absolute magnetization    =     0.94 Bohr mag/cell
[tb_dev] Currently allocated     3.05E-05 Mbytes, locked:    0 /   2
[tb_pin] Currently allocated     0.00E+00 Mbytes, locked:    0 /   0

     iteration # 21     ecut=    60.00 Ry     beta= 0.30
     Davidson diagonalization with overlap

---- Real-time Memory Report at c_bands before calling an iterative solver
           757 MiB given to the printing process from OS
             0 MiB allocation reported by mallinfo(arena+hblkhd)
        848781 MiB available memory on the node where the printing process lives
     GPU memory used/free/total (MiB): 1114 / 80036 / 81151
------------------
     ethr =  6.30E-10,  avg # of iterations =  2.1

     total cpu time spent up to now is       30.5 secs

     total energy              =    -474.97667925 Ry
     estimated scf accuracy    <       0.00000012 Ry

     total magnetization       =     0.89 Bohr mag/cell
     absolute magnetization    =     0.94 Bohr mag/cell
[tb_dev] Currently allocated     3.05E-05 Mbytes, locked:    0 /   2
[tb_pin] Currently allocated     0.00E+00 Mbytes, locked:    0 /   0

     iteration # 22     ecut=    60.00 Ry     beta= 0.30
     Davidson diagonalization with overlap

---- Real-time Memory Report at c_bands before calling an iterative solver
           757 MiB given to the printing process from OS
             0 MiB allocation reported by mallinfo(arena+hblkhd)
        848804 MiB available memory on the node where the printing process lives
     GPU memory used/free/total (MiB): 1114 / 80036 / 81151
------------------
     ethr =  3.85E-10,  avg # of iterations =  2.1

     total cpu time spent up to now is       31.7 secs

     total energy              =    -474.97667847 Ry
     estimated scf accuracy    <       0.00000012 Ry

     total magnetization       =     0.89 Bohr mag/cell
     absolute magnetization    =     0.94 Bohr mag/cell
[tb_dev] Currently allocated     3.05E-05 Mbytes, locked:    0 /   2
[tb_pin] Currently allocated     0.00E+00 Mbytes, locked:    0 /   0

     iteration # 23     ecut=    60.00 Ry     beta= 0.30
     Davidson diagonalization with overlap

---- Real-time Memory Report at c_bands before calling an iterative solver
           757 MiB given to the printing process from OS
             0 MiB allocation reported by mallinfo(arena+hblkhd)
        848813 MiB available memory on the node where the printing process lives
     GPU memory used/free/total (MiB): 1114 / 80036 / 81151
------------------
     ethr =  3.85E-10,  avg # of iterations =  1.7

     total cpu time spent up to now is       32.8 secs

     total energy              =    -474.97667659 Ry
     estimated scf accuracy    <       0.00000013 Ry

     total magnetization       =     0.89 Bohr mag/cell
     absolute magnetization    =     0.94 Bohr mag/cell
[tb_dev] Currently allocated     3.05E-05 Mbytes, locked:    0 /   2
[tb_pin] Currently allocated     0.00E+00 Mbytes, locked:    0 /   0

     iteration # 24     ecut=    60.00 Ry     beta= 0.30
     Davidson diagonalization with overlap

---- Real-time Memory Report at c_bands before calling an iterative solver
           757 MiB given to the printing process from OS
             0 MiB allocation reported by mallinfo(arena+hblkhd)
        848833 MiB available memory on the node where the printing process lives
     GPU memory used/free/total (MiB): 1114 / 80036 / 81151
------------------
     ethr =  3.85E-10,  avg # of iterations =  1.7

     total cpu time spent up to now is       33.9 secs

     total energy              =    -474.97666546 Ry
     estimated scf accuracy    <       0.00000012 Ry

     total magnetization       =     0.89 Bohr mag/cell
     absolute magnetization    =     0.94 Bohr mag/cell
[tb_dev] Currently allocated     3.05E-05 Mbytes, locked:    0 /   2
[tb_pin] Currently allocated     0.00E+00 Mbytes, locked:    0 /   0

     iteration # 25     ecut=    60.00 Ry     beta= 0.30
     Davidson diagonalization with overlap

---- Real-time Memory Report at c_bands before calling an iterative solver
           757 MiB given to the printing process from OS
             0 MiB allocation reported by mallinfo(arena+hblkhd)
        848819 MiB available memory on the node where the printing process lives
     GPU memory used/free/total (MiB): 1114 / 80036 / 81151
------------------
     ethr =  3.64E-10,  avg # of iterations =  4.5

     total cpu time spent up to now is       35.3 secs

     total energy              =    -474.97665769 Ry
     estimated scf accuracy    <       0.00000009 Ry

     total magnetization       =     0.90 Bohr mag/cell
     absolute magnetization    =     0.92 Bohr mag/cell
[tb_dev] Currently allocated     3.05E-05 Mbytes, locked:    0 /   2
[tb_pin] Currently allocated     0.00E+00 Mbytes, locked:    0 /   0

     iteration # 26     ecut=    60.00 Ry     beta= 0.30
     Davidson diagonalization with overlap

---- Real-time Memory Report at c_bands before calling an iterative solver
           757 MiB given to the printing process from OS
             0 MiB allocation reported by mallinfo(arena+hblkhd)
        848813 MiB available memory on the node where the printing process lives
     GPU memory used/free/total (MiB): 1114 / 80036 / 81151
------------------
     c_bands:  1 eigenvalues not converged
     ethr =  2.70E-10,  avg # of iterations =  5.1

     total cpu time spent up to now is       36.8 secs

     total energy              =    -474.97665558 Ry
     estimated scf accuracy    <       0.00000018 Ry

     total magnetization       =     0.92 Bohr mag/cell
     absolute magnetization    =     0.93 Bohr mag/cell
[tb_dev] Currently allocated     3.05E-05 Mbytes, locked:    0 /   2
[tb_pin] Currently allocated     0.00E+00 Mbytes, locked:    0 /   0

     iteration # 27     ecut=    60.00 Ry     beta= 0.30
     Davidson diagonalization with overlap

---- Real-time Memory Report at c_bands before calling an iterative solver
           757 MiB given to the printing process from OS
             0 MiB allocation reported by mallinfo(arena+hblkhd)
        848808 MiB available memory on the node where the printing process lives
     GPU memory used/free/total (MiB): 1114 / 80036 / 81151
------------------
     ethr =  2.70E-10,  avg # of iterations =  4.8

     total cpu time spent up to now is       38.3 secs

     total energy              =    -474.97665733 Ry
     estimated scf accuracy    <       0.00000007 Ry

     total magnetization       =     0.93 Bohr mag/cell
     absolute magnetization    =     0.95 Bohr mag/cell
[tb_dev] Currently allocated     3.05E-05 Mbytes, locked:    0 /   2
[tb_pin] Currently allocated     0.00E+00 Mbytes, locked:    0 /   0

     iteration # 28     ecut=    60.00 Ry     beta= 0.30
     Davidson diagonalization with overlap

---- Real-time Memory Report at c_bands before calling an iterative solver
           757 MiB given to the printing process from OS
             0 MiB allocation reported by mallinfo(arena+hblkhd)
        849349 MiB available memory on the node where the printing process lives
     GPU memory used/free/total (MiB): 1114 / 80036 / 81151
------------------
     ethr =  2.29E-10,  avg # of iterations =  4.2

     total cpu time spent up to now is       39.7 secs

     total energy              =    -474.97666162 Ry
     estimated scf accuracy    <       0.00000002 Ry

     total magnetization       =     0.94 Bohr mag/cell
     absolute magnetization    =     0.96 Bohr mag/cell
[tb_dev] Currently allocated     3.05E-05 Mbytes, locked:    0 /   2
[tb_pin] Currently allocated     0.00E+00 Mbytes, locked:    0 /   0

     iteration # 29     ecut=    60.00 Ry     beta= 0.30
     Davidson diagonalization with overlap

---- Real-time Memory Report at c_bands before calling an iterative solver
           757 MiB given to the printing process from OS
             0 MiB allocation reported by mallinfo(arena+hblkhd)
        849096 MiB available memory on the node where the printing process lives
     GPU memory used/free/total (MiB): 1114 / 80036 / 81151
------------------
     ethr =  7.06E-11,  avg # of iterations =  4.2
 
     Magnetic moment per site  (integrated on atomic sphere of radius R)
     atom   1 (R=0.276)  charge= 14.0086  magn=  0.6757
     atom   2 (R=0.276)  charge=  5.1568  magn=  0.0819
     atom   3 (R=0.276)  charge=  5.1594  magn=  0.0796
     atom   4 (R=0.413)  charge=  2.3495  magn=  0.0183

     total cpu time spent up to now is       41.1 secs

     End of self-consistent calculation

 ------ SPIN UP ------------


          k = 0.0000 0.0000 0.0000 (  3635 PWs)   bands (ev):

   -93.2216 -56.4447 -56.4180 -56.4180 -44.2572 -16.7974 -14.7255  -2.9821
    -2.5586  -2.5586   0.7524   1.0010   1.0010   1.0145   1.4594   1.4594
     2.4888   4.3285   5.2894   5.2894   8.9868  11.9363  12.6997  14.6581

     occupation numbers 
     1.0000   1.0000   1.0000   1.0000   1.0000   1.0000   1.0000   1.0000
     1.0000   1.0000   1.0000   1.0000   1.0000   1.0000   1.0000   1.0000
     1.0827   0.0000   0.0000   0.0000   0.0000   0.0000   0.0000   0.0000

          k = 0.0000 0.0000 0.0949 (  3682 PWs)   bands (ev):

   -93.2216 -56.4449 -56.4182 -56.4182 -44.2573 -16.7975 -14.7255  -2.9806
    -2.5586  -2.5586   0.5793   1.0009   1.0009   1.2576   1.4593   1.4593
     2.4374   4.2556   5.2893   5.2893   9.4271  10.8842  13.4155  14.7484

     occupation numbers 
     1.0000   1.0000   1.0000   1.0000   1.0000   1.0000   1.0000   1.0000
     1.0000   1.0000   1.0000   1.0000   1.0000   1.0000   1.0000   1.0000
     1.0724   0.0000   0.0000   0.0000   0.0000   0.0000   0.0000   0.0000

          k = 0.0000 0.1443 0.0000 (  3637 PWs)   bands (ev):

   -93.2205 -56.4432 -56.4287 -56.4206 -44.2529 -16.6061 -14.7319  -2.7761
    -2.7220  -2.4336   0.0710   0.4358   1.0932   1.2671   1.5803   1.9133
     2.5674   4.5704   4.9437   5.1849   9.4225  12.3552  13.1490  15.2859

     occupation numbers 
     1.0000   1.0000   1.0000   1.0000   1.0000   1.0000   1.0000   1.0000
     1.0000   1.0000   1.0000   1.0000   1.0000   1.0000   1.0000   1.0001
     1.0668   0.0000   0.0000   0.0000   0.0000   0.0000   0.0000   0.0000

          k = 0.0000 0.1443 0.0949 (  3638 PWs)   bands (ev):

   -93.2205 -56.4432 -56.4287 -56.4206 -44.2529 -16.6061 -14.7319  -2.7753
    -2.7217  -2.4336   0.0717   0.4357   0.9263   1.4474   1.6294   1.9132
     2.5142   4.6318   4.8260   5.1849   9.7961  11.3887  13.9937  15.1600

     occupation numbers 
     1.0000   1.0000   1.0000   1.0000   1.0000   1.0000   1.0000   1.0000
     1.0000   1.0000   1.0000   1.0000   1.0000   1.0000   1.0000   1.0001
     1.0829   0.0000   0.0000   0.0000   0.0000   0.0000   0.0000   0.0000

          k = 0.0000 0.2887 0.0000 (  3607 PWs)   bands (ev):

   -93.2180 -56.4546 -56.4391 -56.4266 -44.2426 -16.1032 -14.7611  -2.9792
    -2.2563  -2.1435  -1.3134  -0.1121   1.2701   1.7247   1.9824   2.0963
     2.4484   4.1656   5.0620   5.8263  10.3211  12.8856  13.3274  14.6166

     occupation numbers 
     1.0000   1.0000   1.0000   1.0000   1.0000   1.0000   1.0000   1.0000
     1.0000   1.0000   1.0000   1.0000   1.0000   1.0000   1.0003   1.0022
     1.0754   0.0000   0.0000   0.0000   0.0000   0.0000   0.0000   0.0000

          k = 0.0000 0.2887 0.0949 (  3619 PWs)   bands (ev):

   -93.2180 -56.4546 -56.4393 -56.4266 -44.2426 -16.1032 -14.7611  -2.9796
    -2.2556  -2.1435  -1.3128  -0.1121   1.2612   1.6794   2.0841   2.0963
     2.3878   4.2220   5.0621   5.7494  10.5140  12.5516  13.1676  15.2850

     occupation numbers 
     1.0000   1.0000   1.0000   1.0000   1.0000   1.0000   1.0000   1.0000
     1.0000   1.0000   1.0000   1.0000   1.0000   1.0000   1.0018   1.0022
     1.0562   0.0000   0.0000   0.0000   0.0000   0.0000   0.0000   0.0000

          k = 0.0000 0.4330 0.0000 (  3602 PWs)   bands (ev):

   -93.2155 -56.4804 -56.4354 -56.4327 -44.2322 -15.4978 -14.8428  -3.4414
    -2.2686  -1.9396  -1.2583  -0.2088   0.7383   1.5397   1.7714   2.1044
     3.1600   4.3951   5.1077   7.6193   9.3420  12.5439  13.5306  14.7786

     occupation numbers 
     1.0000   1.0000   1.0000   1.0000   1.0000   1.0000   1.0000   1.0000
     1.0000   1.0000   1.0000   1.0000   1.0000   1.0000   1.0000   1.0025
     0.0295   0.0000   0.0000   0.0000   0.0000   0.0000   0.0000   0.0000

          k = 0.0000 0.4330 0.0949 (  3600 PWs)   bands (ev):

   -93.2155 -56.4805 -56.4353 -56.4327 -44.2322 -15.4978 -14.8427  -3.4414
    -2.2687  -1.9396  -1.2578  -0.2087   0.7388   1.5394   1.7714   2.1057
     3.1446   4.4189   5.1078   7.5949   9.3466  12.6461  13.5495  14.3599

     occupation numbers 
     1.0000   1.0000   1.0000   1.0000   1.0000   1.0000   1.0000   1.0000
     1.0000   1.0000   1.0000   1.0000   1.0000   1.0000   1.0000   1.0025
     0.0360   0.0000   0.0000   0.0000   0.0000   0.0000   0.0000   0.0000

          k = 0.0000-0.5774 0.0000 (  3610 PWs)   bands (ev):

   -93.2145 -56.4912 -56.4353 -56.4338 -44.2280 -15.0611 -15.0428  -3.8518
    -2.0422  -1.9104  -1.1242  -0.0625   0.5159   1.2459   1.4776   2.0012
     3.9474   4.6222   5.1612   8.0109   9.6672  10.9349  14.1958  14.5735

     occupation numbers 
     1.0000   1.0000   1.0000   1.0000   1.0000   1.0000   1.0000   1.0000
     1.0000   1.0000   1.0000   1.0000   1.0000   1.0000   1.0000   1.0004
     0.0000   0.0000   0.0000   0.0000   0.0000   0.0000   0.0000   0.0000

          k = 0.0000-0.5774 0.0949 (  3582 PWs)   bands (ev):

   -93.2145 -56.4911 -56.4352 -56.4337 -44.2279 -15.0611 -15.0428  -3.8518
    -2.0422  -1.9104  -1.1240  -0.0624   0.5162   1.2458   1.4776   2.0011
     3.9489   4.6188   5.1613   8.0099   9.6761  10.9762  13.8329  14.7605

     occupation numbers 
     1.0000   1.0000   1.0000   1.0000   1.0000   1.0000   1.0000   1.0000
     1.0000   1.0000   1.0000   1.0000   1.0000   1.0000   1.0000   1.0004
     0.0000   0.0000   0.0000   0.0000   0.0000   0.0000   0.0000   0.0000

          k = 0.1250 0.2165 0.0000 (  3623 PWs)   bands (ev):

   -93.2188 -56.4457 -56.4404 -56.4261 -44.2456 -16.2586 -14.7489  -2.8870
    -2.3945  -2.2662  -0.7831  -0.2891   1.4202   1.5775   1.7522   2.2191
     2.4945   4.3632   4.9141   5.4817  10.1230  12.9955  13.8602  14.1628

     occupation numbers 
     1.0000   1.0000   1.0000   1.0000   1.0000   1.0000   1.0000   1.0000
     1.0000   1.0000   1.0000   1.0000   1.0000   1.0000   1.0000   1.0120
     1.0831   0.0000   0.0000   0.0000   0.0000   0.0000   0.0000   0.0000

          k = 0.1250 0.2165 0.0949 (  3623 PWs)   bands (ev):

   -93.2188 -56.4457 -56.4405 -56.4261 -44.2456 -16.2586 -14.7489  -2.8873
    -2.3935  -2.2661  -0.7825  -0.2890   1.3492   1.5794   1.8392   2.2454
     2.4527   4.4112   4.8801   5.4372  10.3310  12.3237  14.1603  14.6301

     occupation numbers 
     1.0000   1.0000   1.0000   1.0000   1.0000   1.0000   1.0000   1.0000
     1.0000   1.0000   1.0000   1.0000   1.0000   1.0000   1.0000   1.0162
     1.0764   0.0000   0.0000   0.0000   0.0000   0.0000   0.0000   0.0000

          k = 0.1250 0.3608 0.0000 (  3612 PWs)   bands (ev):

   -93.2163 -56.4690 -56.4368 -56.4346 -44.2353 -15.7045 -14.7963  -3.0146
    -2.4629  -1.8478  -1.3531  -0.6842   1.0571   1.6111   1.9856   2.3612
     2.7756   4.3383   4.7996   6.9023  10.4799  11.6801  13.8557  14.3467

     occupation numbers 
     1.0000   1.0000   1.0000   1.0000   1.0000   1.0000   1.0000   1.0000
     1.0000   1.0000   1.0000   1.0000   1.0000   1.0000   1.0003   1.0470
     0.7043   0.0000   0.0000   0.0000   0.0000   0.0000   0.0000   0.0000

          k = 0.1250 0.3608 0.0949 (  3609 PWs)   bands (ev):

   -93.2163 -56.4690 -56.4368 -56.4346 -44.2353 -15.7045 -14.7963  -3.0148
    -2.4630  -1.8476  -1.3525  -0.6842   1.0564   1.6109   1.9899   2.3525
     2.7709   4.3694   4.7894   6.8793  10.4950  11.7413  13.6046  14.4093

     occupation numbers 
     1.0000   1.0000   1.0000   1.0000   1.0000   1.0000   1.0000   1.0000
     1.0000   1.0000   1.0000   1.0000   1.0000   1.0000   1.0004   1.0441
     0.7171   0.0000   0.0000   0.0000   0.0000   0.0000   0.0000   0.0000

          k = 0.1250 0.5052 0.0000 (  3591 PWs)   bands (ev):

   -93.2145 -56.4853 -56.4412 -56.4337 -44.2279 -15.1952 -14.9102  -3.5428
    -2.4786  -1.5712  -1.0772  -0.6493   0.4353   1.3706   1.6602   2.2320
     3.9584   4.5704   4.8949   8.2502   9.0450  12.2831  12.5982  14.2428

     occupation numbers 
     1.0000   1.0000   1.0000   1.0000   1.0000   1.0000   1.0000   1.0000
     1.0000   1.0000   1.0000   1.0000   1.0000   1.0000   1.0000   1.0139
     0.0000   0.0000   0.0000   0.0000   0.0000   0.0000   0.0000   0.0000

          k = 0.1250 0.5052 0.0949 (  3600 PWs)   bands (ev):

   -93.2145 -56.4853 -56.4412 -56.4338 -44.2279 -15.1952 -14.9102  -3.5428
    -2.4787  -1.5713  -1.0770  -0.6493   0.4355   1.3706   1.6603   2.2316
     3.9540   4.5769   4.8930   8.2470   9.0468  12.3076  12.6167  14.2258

     occupation numbers 
     1.0000   1.0000   1.0000   1.0000   1.0000   1.0000   1.0000   1.0000
     1.0000   1.0000   1.0000   1.0000   1.0000   1.0000   1.0000   1.0139
     0.0000   0.0000   0.0000   0.0000   0.0000   0.0000   0.0000   0.0000

          k = 0.2500 0.4330 0.0000 (  3605 PWs)   bands (ev):

   -93.2145 -56.4772 -56.4494 -56.4337 -44.2280 -15.2547 -14.8523  -2.9391
    -2.8443  -1.7407  -1.0670  -0.9829   0.4308   1.4377   1.7922   2.4477
     3.9641   4.5347   4.5985   8.5780   8.7148  11.5602  14.0444  14.4095

     occupation numbers 
     1.0000   1.0000   1.0000   1.0000   1.0000   1.0000   1.0000   1.0000
     1.0000   1.0000   1.0000   1.0000   1.0000   1.0000   1.0000   1.0752
     0.0000   0.0000   0.0000   0.0000   0.0000   0.0000   0.0000   0.0000

          k = 0.2500 0.4330 0.0949 (  3614 PWs)   bands (ev):

   -93.2145 -56.4772 -56.4494 -56.4338 -44.2280 -15.2547 -14.8523  -2.9391
    -2.8444  -1.7407  -1.0671  -0.9826   0.4308   1.4378   1.7925   2.4462
     3.9699   4.5171   4.6092   8.5781   8.7294  11.5358  14.0207  14.4120

     occupation numbers 
     1.0000   1.0000   1.0000   1.0000   1.0000   1.0000   1.0000   1.0000
     1.0000   1.0000   1.0000   1.0000   1.0000   1.0000   1.0000   1.0748
     0.0000   0.0000   0.0000   0.0000   0.0000   0.0000   0.0000   0.0000

          k = 0.2500 0.5774 0.0000 (  3600 PWs)   bands (ev):

   -93.2137 -56.4778 -56.4581 -56.4327 -44.2249 -14.9925 -14.9403  -3.1177
    -2.7513  -1.9016  -0.9050  -0.7318  -0.0312   1.1135   2.0282   2.3193
     4.5651   4.5697   5.1245   6.9696  10.6907  11.5836  12.1056  14.6643

     occupation numbers 
     1.0000   1.0000   1.0000   1.0000   1.0000   1.0000   1.0000   1.0000
     1.0000   1.0000   1.0000   1.0000   1.0000   1.0000   1.0007   1.0337
     0.0000   0.0000   0.0000   0.0000   0.0000   0.0000   0.0000   0.0000

          k = 0.2500 0.5774 0.0949 (  3599 PWs)   bands (ev):

   -93.2137 -56.4777 -56.4581 -56.4326 -44.2249 -14.9924 -14.9404  -3.1177
    -2.7513  -1.9016  -0.9050  -0.7318  -0.0311   1.1135   2.0282   2.3191
     4.5684   4.5709   5.1191   6.9681  10.7061  11.5694  12.1312  14.6773

     occupation numbers 
     1.0000   1.0000   1.0000   1.0000   1.0000   1.0000   1.0000   1.0000
     1.0000   1.0000   1.0000   1.0000   1.0000   1.0000   1.0007   1.0337
     0.0000   0.0000   0.0000   0.0000   0.0000   0.0000   0.0000   0.0000

          k = 0.0000-0.1443 0.0949 (  3638 PWs)   bands (ev):

   -93.2205 -56.4432 -56.4287 -56.4206 -44.2529 -16.6061 -14.7319  -2.7747
    -2.7222  -2.4336   0.0707   0.4357   0.9290   1.4506   1.6227   1.9132
     2.5200   4.5550   4.9049   5.1849   9.7618  11.4330  13.9757  15.1578

     occupation numbers 
     1.0000   1.0000   1.0000   1.0000   1.0000   1.0000   1.0000   1.0000
     1.0000   1.0000   1.0000   1.0000   1.0000   1.0000   1.0000   1.0001
     1.0823   0.0000   0.0000   0.0000   0.0000   0.0000   0.0000   0.0000

          k = 0.0000-0.2887 0.0949 (  3619 PWs)   bands (ev):

   -93.2180 -56.4546 -56.4393 -56.4266 -44.2426 -16.1032 -14.7611  -2.9795
    -2.2559  -2.1435  -1.3126  -0.1121   1.2557   1.6913   2.0480   2.0963
     2.4371   4.1633   5.0620   5.8098  10.4067  12.6972  13.1757  15.2723

     occupation numbers 
     1.0000   1.0000   1.0000   1.0000   1.0000   1.0000   1.0000   1.0000
     1.0000   1.0000   1.0000   1.0000   1.0000   1.0000   1.0010   1.0022
     1.0723   0.0000   0.0000   0.0000   0.0000   0.0000   0.0000   0.0000

          k = 0.0000-0.4330 0.0949 (  3600 PWs)   bands (ev):

   -93.2155 -56.4805 -56.4353 -56.4327 -44.2322 -15.4978 -14.8427  -3.4415
    -2.2687  -1.9396  -1.2577  -0.2087   0.7380   1.5403   1.7715   2.1016
     3.1643   4.3889   5.1077   7.6406   9.3357  12.4035  13.6445  14.7757

     occupation numbers 
     1.0000   1.0000   1.0000   1.0000   1.0000   1.0000   1.0000   1.0000
     1.0000   1.0000   1.0000   1.0000   1.0000   1.0000   1.0000   1.0024
     0.0279   0.0000   0.0000   0.0000   0.0000   0.0000   0.0000   0.0000

          k =-0.1250-0.3608 0.0949 (  3609 PWs)   bands (ev):

   -93.2163 -56.4690 -56.4368 -56.4346 -44.2353 -15.7044 -14.7963  -3.0148
    -2.4630  -1.8477  -1.3523  -0.6843   1.0554   1.6117   1.9911   2.3392
     2.7948   4.3374   4.7989   6.9049  10.4783  11.6713  13.7693  14.3802

     occupation numbers 
     1.0000   1.0000   1.0000   1.0000   1.0000   1.0000   1.0000   1.0000
     1.0000   1.0000   1.0000   1.0000   1.0000   1.0000   1.0004   1.0398
     0.6522   0.0000   0.0000   0.0000   0.0000   0.0000   0.0000   0.0000

          k =-0.1250-0.5052 0.0949 (  3600 PWs)   bands (ev):

   -93.2145 -56.4853 -56.4412 -56.4338 -44.2279 -15.1952 -14.9102  -3.5428
    -2.4787  -1.5713  -1.0771  -0.6493   0.4353   1.3706   1.6603   2.2313
     3.9646   4.5608   4.8950   8.2472   9.0719  12.3051  12.5428  14.0364

     occupation numbers 
     1.0000   1.0000   1.0000   1.0000   1.0000   1.0000   1.0000   1.0000
     1.0000   1.0000   1.0000   1.0000   1.0000   1.0000   1.0000   1.0138
     0.0000   0.0000   0.0000   0.0000   0.0000   0.0000   0.0000   0.0000

 ------ SPIN DOWN ----------


          k = 0.0000 0.0000 0.0000 (  3635 PWs)   bands (ev):

   -92.3861 -55.6588 -55.6588 -55.5207 -44.2456 -16.6655 -14.5812  -2.5993
    -2.2790  -2.2790   0.9449   1.1266   1.5680   1.5680   1.7202   1.7202
     3.4097   4.3998   5.6502   5.6502   9.0597  12.0306  12.8402  14.7402

     occupation numbers 
     1.0000   1.0000   1.0000   1.0000   1.0000   1.0000   1.0000   1.0000
     1.0000   1.0000   1.0000   1.0000   1.0000   1.0000   1.0000   1.0000
     0.0005   0.0000   0.0000   0.0000   0.0000   0.0000   0.0000   0.0000

          k = 0.0000 0.0000 0.0949 (  3682 PWs)   bands (ev):

   -92.3861 -55.6590 -55.6590 -55.5210 -44.2457 -16.6656 -14.5812  -2.5972
    -2.2791  -2.2791   0.7322   1.4059   1.5678   1.5678   1.7202   1.7202
     3.3371   4.3494   5.6500   5.6500   9.5044  10.9834  13.5335  14.8590

     occupation numbers 
     1.0000   1.0000   1.0000   1.0000   1.0000   1.0000   1.0000   1.0000
     1.0000   1.0000   1.0000   1.0000   1.0000   1.0000   1.0000   1.0000
     0.0020   0.0000   0.0000   0.0000   0.0000   0.0000   0.0000   0.0000

          k = 0.0000 0.1443 0.0000 (  3637 PWs)   bands (ev):

   -92.3850 -55.6700 -55.6615 -55.5191 -44.2414 -16.4732 -14.5867  -2.4708
    -2.3799  -2.1626   0.3705   0.8254   1.2816   1.3930   2.1560   2.3753
     3.4383   4.6920   5.2613   5.5362   9.4918  12.4433  13.2884  15.3781

     occupation numbers 
     1.0000   1.0000   1.0000   1.0000   1.0000   1.0000   1.0000   1.0000
     1.0000   1.0000   1.0000   1.0000   1.0000   1.0000   1.0053   1.0519
     0.0003   0.0000   0.0000   0.0000   0.0000   0.0000   0.0000   0.0000

          k = 0.0000 0.1443 0.0949 (  3638 PWs)   bands (ev):

   -92.3850 -55.6699 -55.6615 -55.5192 -44.2414 -16.4732 -14.5867  -2.4712
    -2.3778  -2.1626   0.3723   0.8253   1.0749   1.6426   2.1671   2.3753
     3.3780   4.7171   5.1913   5.5362   9.8719  11.4823  14.1158  15.2738

     occupation numbers 
     1.0000   1.0000   1.0000   1.0000   1.0000   1.0000   1.0000   1.0000
     1.0000   1.0000   1.0000   1.0000   1.0000   1.0000   1.0062   1.0518
     0.0009   0.0000   0.0000   0.0000   0.0000   0.0000   0.0000   0.0000

          k = 0.0000 0.2887 0.0000 (  3607 PWs)   bands (ev):

   -92.3824 -55.6968 -55.6678 -55.5149 -44.2311 -15.9673 -14.6140  -2.7310
    -1.9330  -1.8925  -1.0408   0.2070   1.5401   2.1078   2.3303   2.6833
     3.2807   4.5551   5.3939   5.9104  10.3837  12.9635  13.4050  14.7589

     occupation numbers 
     1.0000   1.0000   1.0000   1.0000   1.0000   1.0000   1.0000   1.0000
     1.0000   1.0000   1.0000   1.0000   1.0000   1.0026   1.0370   0.9234
     0.0051   0.0000   0.0000   0.0000   0.0000   0.0000   0.0000   0.0000

          k = 0.0000 0.2887 0.0949 (  3619 PWs)   bands (ev):

   -92.3824 -55.6968 -55.6678 -55.5150 -44.2311 -15.9673 -14.6140  -2.7314
    -1.9322  -1.8925  -1.0397   0.2070   1.5147   2.1005   2.3773   2.6833
     3.2517   4.6290   5.3939   5.8138  10.5841  12.6280  13.2493  15.4251

     occupation numbers 
     1.0000   1.0000   1.0000   1.0000   1.0000   1.0000   1.0000   1.0000
     1.0000   1.0000   1.0000   1.0000   1.0000   1.0024   1.0525   0.9234
     0.0080   0.0000   0.0000   0.0000   0.0000   0.0000   0.0000   0.0000

          k = 0.0000 0.4330 0.0000 (  3602 PWs)   bands (ev):

   -92.3798 -55.7237 -55.6741 -55.5108 -44.2208 -15.3574 -14.6948  -3.2248
    -2.1099  -1.6938  -0.8684  -0.0008   0.9776   2.2993   2.4919   2.9083
     3.2606   4.8257   5.4384   7.6798   9.4180  12.6062  13.5797  14.8401

     occupation numbers 
     1.0000   1.0000   1.0000   1.0000   1.0000   1.0000   1.0000   1.0000
     1.0000   1.0000   1.0000   1.0000   1.0000   1.0281   1.0829   0.3509
     0.0070   0.0000   0.0000   0.0000   0.0000   0.0000   0.0000   0.0000

          k = 0.0000 0.4330 0.0949 (  3600 PWs)   bands (ev):

   -92.3798 -55.7238 -55.6740 -55.5108 -44.2208 -15.3574 -14.6948  -3.2248
    -2.1101  -1.6938  -0.8677  -0.0008   0.9780   2.2977   2.4919   2.9136
     3.2443   4.8507   5.4384   7.6505   9.4235  12.7093  13.6019  14.4380

     occupation numbers 
     1.0000   1.0000   1.0000   1.0000   1.0000   1.0000   1.0000   1.0000
     1.0000   1.0000   1.0000   1.0000   1.0000   1.0277   1.0829   0.3383
     0.0090   0.0000   0.0000   0.0000   0.0000   0.0000   0.0000   0.0000

          k = 0.0000-0.5774 0.0000 (  3610 PWs)   bands (ev):

   -92.3787 -55.7349 -55.6768 -55.5092 -44.2165 -14.9185 -14.8947  -3.6556
    -1.9239  -1.6580  -0.7314   0.0421   0.7161   2.1585   2.2968   2.7545
     4.0459   5.0616   5.4967   8.0892   9.7084  11.0028  14.2510  14.4820

     occupation numbers 
     1.0000   1.0000   1.0000   1.0000   1.0000   1.0000   1.0000   1.0000
     1.0000   1.0000   1.0000   1.0000   1.0000   1.0055   1.0275   0.7602
     0.0000   0.0000   0.0000   0.0000   0.0000   0.0000   0.0000   0.0000

          k = 0.0000-0.5774 0.0949 (  3582 PWs)   bands (ev):

   -92.3787 -55.7348 -55.6767 -55.5090 -44.2165 -14.9185 -14.8947  -3.6556
    -1.9240  -1.6580  -0.7312   0.0422   0.7165   2.1584   2.2968   2.7544
     4.0462   5.0591   5.4968   8.0885   9.7170  11.0460  13.8840  14.4823

     occupation numbers 
     1.0000   1.0000   1.0000   1.0000   1.0000   1.0000   1.0000   1.0000
     1.0000   1.0000   1.0000   1.0000   1.0000   1.0055   1.0275   0.7605
     0.0000   0.0000   0.0000   0.0000   0.0000   0.0000   0.0000   0.0000

          k = 0.1250 0.2165 0.0000 (  3623 PWs)   bands (ev):

   -92.3832 -55.6877 -55.6672 -55.5162 -44.2341 -16.1238 -14.6023  -2.6368
    -2.0518  -1.9881  -0.5302   0.0307   1.6197   1.8707   2.2862   2.7402
     3.3502   4.7018   5.2594   5.5835  10.1877  13.0716  13.9894  14.2443

     occupation numbers 
     1.0000   1.0000   1.0000   1.0000   1.0000   1.0000   1.0000   1.0000
     1.0000   1.0000   1.0000   1.0000   1.0000   1.0000   1.0248   0.7965
     0.0016   0.0000   0.0000   0.0000   0.0000   0.0000   0.0000   0.0000

          k = 0.1250 0.2165 0.0949 (  3623 PWs)   bands (ev):

   -92.3832 -55.6877 -55.6672 -55.5162 -44.2341 -16.1237 -14.6023  -2.6372
    -2.0512  -1.9873  -0.5291   0.0308   1.5231   1.9811   2.2862   2.7568
     3.3191   4.7717   5.1936   5.5489  10.4016  12.4093  14.2418  14.7336

     occupation numbers 
     1.0000   1.0000   1.0000   1.0000   1.0000   1.0000   1.0000   1.0000
     1.0000   1.0000   1.0000   1.0000   1.0000   1.0003   1.0248   0.7541
     0.0027   0.0000   0.0000   0.0000   0.0000   0.0000   0.0000   0.0000

          k = 0.1250 0.3608 0.0000 (  3612 PWs)   bands (ev):

   -92.3806 -55.7119 -55.6763 -55.5121 -44.2238 -15.5659 -14.6482  -2.7788
    -2.2667  -1.5959  -0.9996  -0.4340   1.2900   2.3559   2.7879   2.8687
     3.0569   4.7308   5.1397   6.9692  10.5531  11.7524  13.9116  14.4179

     occupation numbers 
     1.0000   1.0000   1.0000   1.0000   1.0000   1.0000   1.0000   1.0000
     1.0000   1.0000   1.0000   1.0000   1.0000   1.0452   0.6710   0.4502
     0.0986   0.0000   0.0000   0.0000   0.0000   0.0000   0.0000   0.0000

          k = 0.1250 0.3608 0.0949 (  3609 PWs)   bands (ev):

   -92.3806 -55.7118 -55.6763 -55.5120 -44.2238 -15.5659 -14.6482  -2.7789
    -2.2667  -1.5958  -0.9987  -0.4340   1.2886   2.3550   2.7611   2.9043
     3.0411   4.7666   5.1274   6.9406  10.5701  11.8151  13.6690  14.4732

     occupation numbers 
     1.0000   1.0000   1.0000   1.0000   1.0000   1.0000   1.0000   1.0000
     1.0000   1.0000   1.0000   1.0000   1.0000   1.0450   0.7429   0.3604
     0.1158   0.0000   0.0000   0.0000   0.0000   0.0000   0.0000   0.0000

          k = 0.1250 0.5052 0.0000 (  3591 PWs)   bands (ev):

   -92.3787 -55.7288 -55.6828 -55.5091 -44.2165 -15.0521 -14.7626  -3.3443
    -2.2988  -1.3565  -0.7476  -0.4457   0.6679   2.3371   2.4302   2.8983
     4.0569   4.9860   5.2391   8.3339   9.0961  12.3389  12.6580  14.2976

     occupation numbers 
     1.0000   1.0000   1.0000   1.0000   1.0000   1.0000   1.0000   1.0000
     1.0000   1.0000   1.0000   1.0000   1.0000   1.0391   1.0702   0.3749
     0.0000   0.0000   0.0000   0.0000   0.0000   0.0000   0.0000   0.0000

          k = 0.1250 0.5052 0.0949 (  3600 PWs)   bands (ev):

   -92.3787 -55.7288 -55.6829 -55.5091 -44.2165 -15.0521 -14.7626  -3.3443
    -2.2989  -1.3566  -0.7474  -0.4457   0.6681   2.3369   2.4303   2.8977
     4.0538   4.9915   5.2375   8.3307   9.0975  12.3631  12.6775  14.2784

     occupation numbers 
     1.0000   1.0000   1.0000   1.0000   1.0000   1.0000   1.0000   1.0000
     1.0000   1.0000   1.0000   1.0000   1.0000   1.0391   1.0703   0.3764
     0.0000   0.0000   0.0000   0.0000   0.0000   0.0000   0.0000   0.0000

          k = 0.2500 0.4330 0.0000 (  3605 PWs)   bands (ev):

   -92.3787 -55.7204 -55.6914 -55.5091 -44.2165 -15.1123 -14.7037  -2.7605
    -2.6171  -1.5809  -0.8401  -0.6107   0.6608   2.4434   2.5397   3.0765
     4.0641   4.8964   4.9775   8.6701   8.7690  11.6121  14.0861  14.4615

     occupation numbers 
     1.0000   1.0000   1.0000   1.0000   1.0000   1.0000   1.0000   1.0000
     1.0000   1.0000   1.0000   1.0000   1.0000   1.0740   1.0784   0.0800
     0.0000   0.0000   0.0000   0.0000   0.0000   0.0000   0.0000   0.0000

          k = 0.2500 0.4330 0.0949 (  3614 PWs)   bands (ev):

   -92.3787 -55.7204 -55.6914 -55.5091 -44.2165 -15.1123 -14.7038  -2.7605
    -2.6172  -1.5809  -0.8403  -0.6103   0.6607   2.4434   2.5401   3.0736
     4.0692   4.8824   4.9868   8.6703   8.7837  11.5870  14.0640  14.4601

     occupation numbers 
     1.0000   1.0000   1.0000   1.0000   1.0000   1.0000   1.0000   1.0000
     1.0000   1.0000   1.0000   1.0000   1.0000   1.0740   1.0783   0.0826
     0.0000   0.0000   0.0000   0.0000   0.0000   0.0000   0.0000   0.0000

          k = 0.2500 0.5774 0.0000 (  3600 PWs)   bands (ev):

   -92.3779 -55.7210 -55.7005 -55.5079 -44.2135 -14.8479 -14.7921  -2.9252
    -2.5607  -1.7507  -0.6653  -0.3964   0.1670   2.1984   2.7469   2.9921
     4.9246   4.9508   5.2281   7.0621  10.7262  11.6337  12.1727  14.7207

     occupation numbers 
     1.0000   1.0000   1.0000   1.0000   1.0000   1.0000   1.0000   1.0000
     1.0000   1.0000   1.0000   1.0000   1.0000   1.0093   0.7797   0.1832
     0.0000   0.0000   0.0000   0.0000   0.0000   0.0000   0.0000   0.0000

          k = 0.2500 0.5774 0.0949 (  3599 PWs)   bands (ev):

   -92.3779 -55.7209 -55.7005 -55.5079 -44.2135 -14.8479 -14.7921  -2.9252
    -2.5607  -1.7507  -0.6653  -0.3964   0.1671   2.1984   2.7469   2.9919
     4.9305   4.9543   5.2178   7.0604  10.7422  11.6190  12.2004  14.7357

     occupation numbers 
     1.0000   1.0000   1.0000   1.0000   1.0000   1.0000   1.0000   1.0000
     1.0000   1.0000   1.0000   1.0000   1.0000   1.0093   0.7797   0.1835
     0.0000   0.0000   0.0000   0.0000   0.0000   0.0000   0.0000   0.0000

          k = 0.0000-0.1443 0.0949 (  3638 PWs)   bands (ev):

   -92.3850 -55.6699 -55.6615 -55.5192 -44.2414 -16.4732 -14.5867  -2.4708
    -2.3782  -2.1626   0.3699   0.8253   1.0833   1.6332   2.1712   2.3753
     3.3829   4.6723   5.2372   5.5362   9.8360  11.5287  14.0945  15.2735

     occupation numbers 
     1.0000   1.0000   1.0000   1.0000   1.0000   1.0000   1.0000   1.0000
     1.0000   1.0000   1.0000   1.0000   1.0000   1.0000   1.0065   1.0518
     0.0009   0.0000   0.0000   0.0000   0.0000   0.0000   0.0000   0.0000

          k = 0.0000-0.2887 0.0949 (  3619 PWs)   bands (ev):

   -92.3824 -55.6968 -55.6678 -55.5150 -44.2311 -15.9673 -14.6140  -2.7313
    -1.9325  -1.8925  -1.0394   0.2070   1.5084   2.1090   2.3769   2.6833
     3.2719   4.5520   5.3939   5.8917  10.4725  12.7803  13.2582  15.3917

     occupation numbers 
     1.0000   1.0000   1.0000   1.0000   1.0000   1.0000   1.0000   1.0000
     1.0000   1.0000   1.0000   1.0000   1.0000   1.0027   1.0524   0.9234
     0.0059   0.0000   0.0000   0.0000   0.0000   0.0000   0.0000   0.0000

          k = 0.0000-0.4330 0.0949 (  3600 PWs)   bands (ev):

   -92.3798 -55.7238 -55.6740 -55.5108 -44.2208 -15.3574 -14.6948  -3.2248
    -2.1100  -1.6938  -0.8675  -0.0008   0.9769   2.2986   2.4920   2.9014
     3.2698   4.8200   5.4383   7.7008   9.4117  12.4639  13.6967  14.8404

     occupation numbers 
     1.0000   1.0000   1.0000   1.0000   1.0000   1.0000   1.0000   1.0000
     1.0000   1.0000   1.0000   1.0000   1.0000   1.0280   1.0829   0.3674
     0.0061   0.0000   0.0000   0.0000   0.0000   0.0000   0.0000   0.0000

          k =-0.1250-0.3608 0.0949 (  3609 PWs)   bands (ev):

   -92.3806 -55.7118 -55.6763 -55.5121 -44.2238 -15.5659 -14.6482  -2.7789
    -2.2667  -1.5959  -0.9984  -0.4341   1.2873   2.3566   2.7824   2.8478
     3.0870   4.7303   5.1390   6.9698  10.5521  11.7442  13.8389  14.4431

     occupation numbers 
     1.0000   1.0000   1.0000   1.0000   1.0000   1.0000   1.0000   1.0000
     1.0000   1.0000   1.0000   1.0000   1.0000   1.0455   0.6860   0.5059
     0.0713   0.0000   0.0000   0.0000   0.0000   0.0000   0.0000   0.0000

          k =-0.1250-0.5052 0.0949 (  3600 PWs)   bands (ev):

   -92.3787 -55.7288 -55.6829 -55.5091 -44.2165 -15.0521 -14.7626  -3.3443
    -2.2989  -1.3566  -0.7474  -0.4457   0.6679   2.3371   2.4302   2.8971
     4.0610   4.9786   5.2395   8.3308   9.1236  12.3628  12.6019  14.0882

     occupation numbers 
     1.0000   1.0000   1.0000   1.0000   1.0000   1.0000   1.0000   1.0000
     1.0000   1.0000   1.0000   1.0000   1.0000   1.0391   1.0702   0.3779
     0.0000   0.0000   0.0000   0.0000   0.0000   0.0000   0.0000   0.0000

     the Fermi energy is     2.8879 ev

!    total energy              =    -474.97666239 Ry
     total all-electron energy =     -3102.848800 Ry
     estimated scf accuracy    <          5.6E-09 Ry
     smearing contrib. (-TS)   =       0.00150519 Ry
     internal energy E=F+TS    =    -474.97816758 Ry

     The total energy is F=E-TS. E is the sum of the following terms:
     one-electron contribution =    -808.19772438 Ry
     hartree contribution      =     411.70507098 Ry
     xc contribution           =     -48.89175856 Ry
     ewald contribution        =      77.11761535 Ry
     one-center paw contrib.   =    -106.71137097 Ry
      -> PAW hartree energy AE =     278.00093565 Ry
      -> PAW hartree energy PS =    -276.65523544 Ry
      -> PAW xc energy AE      =    -154.11569692 Ry
      -> PAW xc energy PS      =      46.05862574 Ry
      -> total E_H with PAW    =     413.05077119 Ry
      -> total E_XC with PAW   =    -156.94882974 Ry

     total magnetization       =     0.95 Bohr mag/cell
     absolute magnetization    =     0.96 Bohr mag/cell

     convergence has been achieved in  29 iterations

     Forces acting on atoms (cartesian axes, Ry/au):

     atom    1 type  1   force =     0.00000000    0.00000000    0.00234531
     atom    2 type  2   force =     0.00000000    0.00000000   -0.00922144
     atom    3 type  2   force =     0.00000000    0.00000000    0.00545673
     atom    4 type  3   force =     0.00000000    0.00000000    0.00141940
     The non-local contrib.  to forces
     atom    1 type  1   force =    -0.00000000   -0.00000000    0.00102464
     atom    2 type  2   force =    -0.00000000   -0.00000000   -1.27622761
     atom    3 type  2   force =     0.00000000    0.00000000    1.24722365
     atom    4 type  3   force =    -0.00000000    0.00000000    0.00188230
     The ionic contribution  to forces
     atom    1 type  1   force =    -0.00000000    0.00000000    0.78947675
     atom    2 type  2   force =     0.00000000   -0.00000000   41.12343228
     atom    3 type  2   force =    -0.00000000    0.00000000  -40.56871916
     atom    4 type  3   force =     0.00000000   -0.00000000   -1.34418987
     The local contribution  to forces
     atom    1 type  1   force =    -0.00000000   -0.00000000   -0.78827738
     atom    2 type  2   force =     0.00000001   -0.00000001  -39.86755414
     atom    3 type  2   force =    -0.00000001    0.00000001   39.33778209
     atom    4 type  3   force =     0.00000002   -0.00000001    1.34374826
     The core correction contribution to forces
     atom    1 type  1   force =    -0.00000000    0.00000000   -0.00000053
     atom    2 type  2   force =    -0.00000000    0.00000000    0.01103746
     atom    3 type  2   force =     0.00000000   -0.00000000   -0.01075270
     atom    4 type  3   force =     0.00000000    0.00000000    0.00000000
     The Hubbard contrib.    to forces
     atom    1 type  1   force =     0.00000000    0.00000000    0.00000000
     atom    2 type  2   force =     0.00000000    0.00000000    0.00000000
     atom    3 type  2   force =     0.00000000    0.00000000    0.00000000
     atom    4 type  3   force =     0.00000000    0.00000000    0.00000000
     The SCF correction term to forces
     atom    1 type  1   force =     0.00000000   -0.00000000    0.00013010
     atom    2 type  2   force =     0.00000000   -0.00000000    0.00009885
     atom    3 type  2   force =    -0.00000000    0.00000000   -0.00006887
     atom    4 type  3   force =     0.00000000   -0.00000000   -0.00001300

     Total force =     0.011060     Total SCF correction =     0.000178

     Writing all to output data dir ./out/pw.save/ :
     XML data file, charge density, pseudopotentials, collected wavefunctions
 
     init_run     :     11.37s CPU      3.06s WALL (       1 calls)
     electrons    :    135.45s CPU     37.51s WALL (       1 calls)
     forces       :      0.56s CPU      0.52s WALL (       1 calls)

     Called by init_run:
     wfcinit      :      0.29s CPU      0.36s WALL (       1 calls)
     wfcinit:atom :      0.04s CPU      0.04s WALL (      50 calls)
     wfcinit:wfcr :      0.18s CPU      0.22s WALL (      50 calls)
     potinit      :     10.56s CPU      2.15s WALL (       1 calls)
     hinit0       :      0.42s CPU      0.42s WALL (       1 calls)

     Called by electrons:
     c_bands      :     18.19s CPU     18.02s WALL (      29 calls)
     sum_band     :      3.40s CPU      3.34s WALL (      29 calls)
     v_of_rho     :      0.50s CPU      0.44s WALL (      30 calls)
     v_h          :      0.34s CPU      0.05s WALL (      30 calls)
     v_xc         :      0.17s CPU      0.39s WALL (      31 calls)
     newd         :      0.68s CPU      0.53s WALL (      30 calls)
                                        0.53s GPU  (      30 calls)
     PAW_pot      :    115.06s CPU     15.21s WALL (      30 calls)
     mix_rho      :      0.55s CPU      0.56s WALL (      29 calls)

     Called by c_bands:
     init_us_2    :      1.30s CPU      1.22s WALL (    3000 calls)
     cegterg      :     15.61s CPU     15.59s WALL (    1450 calls)

     Called by sum_band:
     sum_band:wei :      0.03s CPU      0.03s WALL (      29 calls)
                                        0.03s GPU  (      29 calls)
     sum_band:loo :      2.13s CPU      2.06s WALL (      29 calls)
                                        2.06s GPU  (      29 calls)
     sum_band:buf :      0.27s CPU      0.30s WALL (    1450 calls)
                                        0.28s GPU  (    1450 calls)
     sum_band:ini :      0.61s CPU      0.60s WALL (    1450 calls)
                                        0.59s GPU  (    1450 calls)
     sum_band:cal :      0.06s CPU      0.09s WALL (    1450 calls)
                                        0.07s GPU  (    1450 calls)
     sum_band:bec :      0.32s CPU      0.34s WALL (    1450 calls)
                                        0.32s GPU  (    1450 calls)
     addusdens    :      1.01s CPU      1.02s WALL (      29 calls)
                                        1.02s GPU  (      29 calls)
     addusd:skk   :      0.00s CPU      0.01s WALL (      87 calls)
                                        0.01s GPU  (      87 calls)

     Called by *egterg:
     cdiaghg      :      4.73s CPU      4.92s WALL (    6111 calls)
                                        4.84s GPU  (    6111 calls)
     cegterg:over :      1.28s CPU      1.34s WALL (    4661 calls)
     cegterg:upda :      0.88s CPU      0.88s WALL (    4661 calls)
     cegterg:last :      0.18s CPU      0.17s WALL (    2669 calls)
     h_psi        :      5.93s CPU      5.86s WALL (    6161 calls)
                                        5.78s GPU  (    6161 calls)
     s_psi        :      0.94s CPU      1.00s WALL (    6161 calls)
     g_psi        :      0.02s CPU      0.12s WALL (    4661 calls)
                                        0.06s GPU  (    4661 calls)

     Called by h_psi:
     h_psi:calbec :      0.18s CPU      0.35s WALL (    6161 calls)
                                        0.27s GPU  (    6161 calls)
     vloc_psi     :      4.21s CPU      4.03s WALL (    6161 calls)
                                        3.96s GPU  (    6161 calls)
     add_vuspsi   :      0.86s CPU      1.03s WALL (    6161 calls)
                                        0.95s GPU  (    6161 calls)

     General routines
     calbec       :      0.20s CPU      0.24s WALL (    7811 calls)
     fft          :      3.10s CPU      0.61s WALL (     763 calls)
                                        0.03s GPU  (     703 calls)
     ffts         :      4.10s CPU      0.79s WALL (     118 calls)
                                        0.00s GPU  (      58 calls)
     fftw         :      0.41s CPU      1.42s WALL (   21122 calls)
                                        1.17s GPU  (   21122 calls)
     interpolate  :      7.41s CPU      1.39s WALL (      60 calls)
 
     Parallel routines

     PAW routines
     PAW_pot      :    115.06s CPU     15.21s WALL (      30 calls)
     PAW_symme    :      0.03s CPU      0.01s WALL (      59 calls)
 
     PWSCF        :   2m28.25s CPU     41.65s WALL

 
   This run was terminated on:   2:21:10  12Jul2026            

=------------------------------------------------------------------------------=
   JOB DONE.
=------------------------------------------------------------------------------=
Warning: ieee_divide_by_zero is signaling
Warning: ieee_inexact is signaling
FORTRAN STOP
