
     Program PWSCF v.7.3.1 starts on 12Jul2026 at  2:16:32 

     This program is part of the open-source Quantum ESPRESSO suite
     for quantum simulation of materials; please cite
         "P. Giannozzi et al., J. Phys.:Condens. Matter 21 395502 (2009);
         "P. Giannozzi et al., J. Phys.:Condens. Matter 29 465901 (2017);
         "P. Giannozzi et al., J. Chem. Phys. 152 154105 (2020);
          URL http://www.quantum-espresso.org", 
     in publications or presentations arising from this work. More details at
     http://www.quantum-espresso.org/quote

     Parallel version (MPI & OpenMP), running on      14 processor cores
     Number of MPI processes:                 1
     Threads/MPI process:                    14

     MPI processes distributed on     1 nodes
     851394 MiB available memory on the printing compute node when the environment starts
 
     Reading input from pw.in

     Current dimensions of program PWSCF are:
     Max number of different atomic species (ntypx) = 10
     Max number of k-points (npk) =  40000
     Max angular momentum in pseudopotentials (lmaxx) =  4
     file Co.pbe-spn-kjpaw_psl.0.3.1.UPF: wavefunction(s)  3P 3D renormalized
     file O.pbe-n-kjpaw_psl.1.0.0.UPF: wavefunction(s)  2S 2P renormalized
     file Na.pbe-spn-kjpaw_psl.1.0.0.UPF: wavefunction(s)  2P renormalized
 
     Subspace diagonalization in iterative solution of the eigenvalue problem:
     a serial algorithm will be used

 
     G-vector sticks info
     --------------------
     sticks:   dense  smooth     PW     G-vecs:    dense   smooth      PW
     Sum         979     499    151                85601    30351    5001
 
     Using Slab Decomposition
 


     bravais-lattice index     =            4
     lattice parameter (alat)  =       5.4575  a.u.
     unit-cell volume          =     482.5661 (a.u.)^3
     number of atoms/cell      =            4
     number of atomic types    =            3
     number of electrons       =        38.00
     number of Kohn-Sham states=           27
     kinetic-energy cutoff     =      60.0000  Ry
     charge density cutoff     =     480.0000  Ry
     scf convergence threshold =      1.0E-08
     mixing beta               =       0.3000
     number of iterations used =            8  plain     mixing
     Exchange-correlation= SLA  PW   PBX  PBC
                           (   1   4   3   4   0   0   0)

     GPU acceleration is ACTIVE.  1 visible GPUs per MPI rank
     GPU-aware MPI enabled


     GPU used by master process:

        Device Number: 0
        Device name: NVIDIA A100-SXM4-80GB
        Compute capability : 80
        Ratio of single to double precision performance  : 2
        Memory Clock Rate (KHz): 1593000
        Memory Bus Width (bits): 5120
        Peak Memory Bandwidth (GB/s): ******

     celldm(1)=   5.457529  celldm(2)=   0.000000  celldm(3)=   3.427978
     celldm(4)=   0.000000  celldm(5)=   0.000000  celldm(6)=   0.000000

     crystal axes: (cart. coord. in units of alat)
               a(1) = (   1.000000   0.000000   0.000000 )  
               a(2) = (  -0.500000   0.866025   0.000000 )  
               a(3) = (   0.000000   0.000000   3.427978 )  

     reciprocal axes: (cart. coord. in units 2 pi/alat)
               b(1) = (  1.000000  0.577350 -0.000000 )  
               b(2) = (  0.000000  1.154701  0.000000 )  
               b(3) = (  0.000000 -0.000000  0.291717 )  


     PseudoPot. # 1 for Co read from file:
     ../../pseudo/Co.pbe-spn-kjpaw_psl.0.3.1.UPF
     MD5 check sum: 3c0a43779828c046024e4f3be63f8e67
     Pseudo is Projector augmented-wave + core cor, Zval = 17.0
     Generated using &quot;atomic&quot; code by A. Dal Corso  v.6.2.2
     Shape of augmentation charge: PSQ
     Using radial grid of 1193 points,  6 beta functions with: 
                l(1) =   0
                l(2) =   0
                l(3) =   1
                l(4) =   1
                l(5) =   2
                l(6) =   2
     Q(r) pseudized with 0 coefficients 


     PseudoPot. # 2 for O  read from file:
     ../../pseudo/O.pbe-n-kjpaw_psl.1.0.0.UPF
     MD5 check sum: e99d9cef9b487d1ca56f5b95ecd0fd7a
     Pseudo is Projector augmented-wave + core cor, Zval =  6.0
     Generated using &quot;atomic&quot; code by A. Dal Corso  v.6.3
     Shape of augmentation charge: PSQ
     Using radial grid of 1095 points,  4 beta functions with: 
                l(1) =   0
                l(2) =   0
                l(3) =   1
                l(4) =   1
     Q(r) pseudized with 0 coefficients 


     PseudoPot. # 3 for Na read from file:
     ../../pseudo/Na.pbe-spn-kjpaw_psl.1.0.0.UPF
     MD5 check sum: 05b4deb74e3932c23ab016979dc8b5d4
     Pseudo is Projector augmented-wave + core cor, Zval =  9.0
     Generated using &quot;atomic&quot; code by A. Dal Corso  v.6.3
     Shape of augmentation charge: PSQ
     Using radial grid of 1121 points,  4 beta functions with: 
                l(1) =   0
                l(2) =   0
                l(3) =   1
                l(4) =   1
     Q(r) pseudized with 0 coefficients 


     atomic species   valence    mass     pseudopotential
     Co               17.00    58.93300     Co( 1.00)
     O                 6.00    15.99900     O ( 1.00)
     Na                9.00    22.98977     Na( 1.00)

     Starting magnetic structure 
     atomic species   magnetization
     Co              0.300
     O               0.000
     Na              0.000

      6 Sym. Ops. (no inversion) found


                                    s                        frac. trans.

      isym =  1     identity                                     

 cryst.   s( 1) = (     1          0          0      )
                  (     0          1          0      )
                  (     0          0          1      )

 cart.    s( 1) = (  1.0000000  0.0000000  0.0000000 )
                  (  0.0000000  1.0000000  0.0000000 )
                  (  0.0000000  0.0000000  1.0000000 )


      isym =  2     120 deg rotation - cryst. axis [0,0,1]       

 cryst.   s( 2) = (     0          1          0      )
                  (    -1         -1          0      )
                  (     0          0          1      )

 cart.    s( 2) = ( -0.5000000 -0.8660254  0.0000000 )
                  (  0.8660254 -0.5000000  0.0000000 )
                  (  0.0000000  0.0000000  1.0000000 )


      isym =  3     120 deg rotation - cryst. axis [0,0,-1]      

 cryst.   s( 3) = (    -1         -1          0      )
                  (     1          0          0      )
                  (     0          0          1      )

 cart.    s( 3) = ( -0.5000000  0.8660254  0.0000000 )
                  ( -0.8660254 -0.5000000  0.0000000 )
                  (  0.0000000  0.0000000  1.0000000 )


      isym =  4     inv. 180 deg rotation - cart. axis [1,0,0]   

 cryst.   s( 4) = (    -1          0          0      )
                  (     1          1          0      )
                  (     0          0          1      )

 cart.    s( 4) = ( -1.0000000  0.0000000  0.0000000 )
                  (  0.0000000  1.0000000  0.0000000 )
                  (  0.0000000  0.0000000  1.0000000 )


      isym =  5     inv. 180 deg rotation - cryst. axis [0,1,0]  

 cryst.   s( 5) = (     1          1          0      )
                  (     0         -1          0      )
                  (     0          0          1      )

 cart.    s( 5) = (  0.5000000  0.8660254  0.0000000 )
                  (  0.8660254 -0.5000000  0.0000000 )
                  (  0.0000000  0.0000000  1.0000000 )


      isym =  6     inv. 180 deg rotation - cryst. axis [1,1,0]  

 cryst.   s( 6) = (     0         -1          0      )
                  (    -1          0          0      )
                  (     0          0          1      )

 cart.    s( 6) = (  0.5000000 -0.8660254  0.0000000 )
                  ( -0.8660254 -0.5000000  0.0000000 )
                  (  0.0000000  0.0000000  1.0000000 )


     point group C_3v (3m)  
     there are  3 classes
     the character table:

       E     2C3   3s_v 
A_1    1.00  1.00  1.00
A_2    1.00  1.00 -1.00
E      2.00 -1.00  0.00

     the symmetry operations in each class and the name of the first element:

     E        1
          identity                                               
     2C3      2    3
          120 deg rotation - cryst. axis [0,0,1]                 
     3s_v     4    5    6
          inv. 180 deg rotation - cart. axis [1,0,0]             

   Cartesian axes

     site n.     atom                  positions (alat units)
         1        Co     tau(   1) = (   0.0000000   0.0000000   0.0000000  )
         2        O      tau(   2) = (  -0.0000000   0.5773503   0.3324100  )
         3        O      tau(   3) = (   0.5000000   0.2886751   3.0955679  )
         4        Na     tau(   4) = (  -0.0000000   0.5773503   1.8178670  )

   Crystallographic axes

     site n.     atom                  positions (cryst. coord.)
         1        Co     tau(   1) = (  0.0000000  0.0000000  0.0000000  )
         2        O      tau(   2) = (  0.3333333  0.6666667  0.0969697  )
         3        O      tau(   3) = (  0.6666667  0.3333333  0.9030303  )
         4        Na     tau(   4) = (  0.3333333  0.6666667  0.5303030  )

     number of k points=    25  Marzari-Vanderbilt smearing, width (Ry)=  0.0200
                       cart. coord. in units 2pi/alat
        k(    1) = (   0.0000000   0.0000000   0.0000000), wk =   0.0052083
        k(    2) = (   0.0000000   0.0000000   0.0972391), wk =   0.0104167
        k(    3) = (   0.0000000   0.1443376   0.0000000), wk =   0.0312500
        k(    4) = (   0.0000000   0.1443376   0.0972391), wk =   0.0312500
        k(    5) = (   0.0000000   0.2886751   0.0000000), wk =   0.0312500
        k(    6) = (   0.0000000   0.2886751   0.0972391), wk =   0.0312500
        k(    7) = (   0.0000000   0.4330127   0.0000000), wk =   0.0312500
        k(    8) = (   0.0000000   0.4330127   0.0972391), wk =   0.0312500
        k(    9) = (   0.0000000  -0.5773503   0.0000000), wk =   0.0156250
        k(   10) = (   0.0000000  -0.5773503   0.0972391), wk =   0.0312500
        k(   11) = (   0.1250000   0.2165064   0.0000000), wk =   0.0312500
        k(   12) = (   0.1250000   0.2165064   0.0972391), wk =   0.0625000
        k(   13) = (   0.1250000   0.3608439   0.0000000), wk =   0.0625000
        k(   14) = (   0.1250000   0.3608439   0.0972391), wk =   0.0625000
        k(   15) = (   0.1250000   0.5051815   0.0000000), wk =   0.0625000
        k(   16) = (   0.1250000   0.5051815   0.0972391), wk =   0.0625000
        k(   17) = (   0.2500000   0.4330127   0.0000000), wk =   0.0312500
        k(   18) = (   0.2500000   0.4330127   0.0972391), wk =   0.0625000
        k(   19) = (   0.2500000   0.5773503   0.0000000), wk =   0.0312500
        k(   20) = (   0.2500000   0.5773503   0.0972391), wk =   0.0625000
        k(   21) = (   0.0000000  -0.1443376   0.0972391), wk =   0.0312500
        k(   22) = (   0.0000000  -0.2886751   0.0972391), wk =   0.0312500
        k(   23) = (   0.0000000  -0.4330127   0.0972391), wk =   0.0312500
        k(   24) = (  -0.1250000  -0.3608439   0.0972391), wk =   0.0625000
        k(   25) = (  -0.1250000  -0.5051815   0.0972391), wk =   0.0625000

                       cryst. coord.
        k(    1) = (   0.0000000   0.0000000   0.0000000), wk =   0.0052083
        k(    2) = (   0.0000000   0.0000000   0.3333333), wk =   0.0104167
        k(    3) = (   0.0000000   0.1250000   0.0000000), wk =   0.0312500
        k(    4) = (   0.0000000   0.1250000   0.3333333), wk =   0.0312500
        k(    5) = (   0.0000000   0.2500000   0.0000000), wk =   0.0312500
        k(    6) = (   0.0000000   0.2500000   0.3333333), wk =   0.0312500
        k(    7) = (   0.0000000   0.3750000   0.0000000), wk =   0.0312500
        k(    8) = (   0.0000000   0.3750000   0.3333333), wk =   0.0312500
        k(    9) = (   0.0000000  -0.5000000   0.0000000), wk =   0.0156250
        k(   10) = (   0.0000000  -0.5000000   0.3333333), wk =   0.0312500
        k(   11) = (   0.1250000   0.1250000   0.0000000), wk =   0.0312500
        k(   12) = (   0.1250000   0.1250000   0.3333333), wk =   0.0625000
        k(   13) = (   0.1250000   0.2500000   0.0000000), wk =   0.0625000
        k(   14) = (   0.1250000   0.2500000   0.3333333), wk =   0.0625000
        k(   15) = (   0.1250000   0.3750000   0.0000000), wk =   0.0625000
        k(   16) = (   0.1250000   0.3750000   0.3333333), wk =   0.0625000
        k(   17) = (   0.2500000   0.2500000   0.0000000), wk =   0.0312500
        k(   18) = (   0.2500000   0.2500000   0.3333333), wk =   0.0625000
        k(   19) = (   0.2500000   0.3750000   0.0000000), wk =   0.0312500
        k(   20) = (   0.2500000   0.3750000   0.3333333), wk =   0.0625000
        k(   21) = (   0.0000000  -0.1250000   0.3333333), wk =   0.0312500
        k(   22) = (   0.0000000  -0.2500000   0.3333333), wk =   0.0312500
        k(   23) = (   0.0000000  -0.3750000   0.3333333), wk =   0.0312500
        k(   24) = (  -0.1250000  -0.2500000   0.3333333), wk =   0.0625000
        k(   25) = (  -0.1250000  -0.3750000   0.3333333), wk =   0.0625000

     Dense  grid:    85601 G-vectors     FFT dimensions: (  40,  40, 135)

     Smooth grid:    30351 G-vectors     FFT dimensions: (  27,  27,  96)

     Dynamical RAM for                 wfc:       1.56 MB

     Dynamical RAM for     wfc (w. buffer):      79.57 MB

     Dynamical RAM for           str. fact:       3.92 MB

     Dynamical RAM for           local pot:       0.00 MB

     Dynamical RAM for          nlocal pot:       2.43 MB

     Dynamical RAM for                qrad:       5.27 MB

     Dynamical RAM for          rho,v,vnew:      17.72 MB

     Dynamical RAM for               rhoin:       5.91 MB

     Dynamical RAM for            rho*nmix:      41.80 MB

     Dynamical RAM for           G-vectors:       5.13 MB

     Dynamical RAM for          h,s,v(r/c):       0.13 MB

     Dynamical RAM for          <psi|beta>:       0.02 MB

     Dynamical RAM for                 psi:       3.12 MB

     Dynamical RAM for                hpsi:       3.12 MB

     Dynamical RAM for                spsi:       3.12 MB

     Dynamical RAM for      wfcinit/wfcrot:       3.14 MB

     Dynamical RAM for           addusdens:     246.87 MB

     Dynamical RAM for          addusforce:     249.49 MB

     Estimated static dynamical RAM per process >     135.06 MB

     Estimated max dynamical RAM per process >     426.35 MB

     Check: negative core charge=   -0.000006
     Generating pointlists ...
     new r_m :   0.2748 (alat units)  1.4998 (a.u.) for type    1
     new r_m :   0.2748 (alat units)  1.4998 (a.u.) for type    2
     new r_m :   0.4125 (alat units)  2.2512 (a.u.) for type    3

     Initial potential from superposition of free atoms

     starting charge      37.9934, renormalised to      38.0000
     Starting wfcs are   23 randomized atomic wfcs +    4 random wfcs
     Checking if some PAW data can be deallocated... 

     total cpu time spent up to now is        3.5 secs

     Self-consistent Calculation
[tb_dev] Currently allocated     6.54E-01 Mbytes, locked:    0 /   6
[tb_pin] Currently allocated     0.00E+00 Mbytes, locked:    0 /   0

     iteration #  1     ecut=    60.00 Ry     beta= 0.30
     Davidson diagonalization with overlap

---- Real-time Memory Report at c_bands before calling an iterative solver
           712 MiB given to the printing process from OS
             0 MiB allocation reported by mallinfo(arena+hblkhd)
        850773 MiB available memory on the node where the printing process lives
     GPU memory used/free/total (MiB): 1108 / 80042 / 81151
------------------
     ethr =  1.00E-02,  avg # of iterations =  9.8

     total cpu time spent up to now is        5.7 secs

     total energy              =    -568.39698285 Ry
     estimated scf accuracy    <       2.01890374 Ry

     total magnetization       =     4.24 Bohr mag/cell
     absolute magnetization    =     4.24 Bohr mag/cell
[tb_dev] Currently allocated     3.05E-05 Mbytes, locked:    0 /   2
[tb_pin] Currently allocated     0.00E+00 Mbytes, locked:    0 /   0

     iteration #  2     ecut=    60.00 Ry     beta= 0.30
     Davidson diagonalization with overlap

---- Real-time Memory Report at c_bands before calling an iterative solver
           756 MiB given to the printing process from OS
             0 MiB allocation reported by mallinfo(arena+hblkhd)
        850741 MiB available memory on the node where the printing process lives
     GPU memory used/free/total (MiB): 1128 / 80022 / 81151
------------------
     ethr =  5.31E-03,  avg # of iterations =  2.4

     total cpu time spent up to now is        6.9 secs

     total energy              =    -568.63091008 Ry
     estimated scf accuracy    <       3.34358796 Ry

     total magnetization       =     1.29 Bohr mag/cell
     absolute magnetization    =     1.31 Bohr mag/cell
[tb_dev] Currently allocated     3.05E-05 Mbytes, locked:    0 /   2
[tb_pin] Currently allocated     0.00E+00 Mbytes, locked:    0 /   0

     iteration #  3     ecut=    60.00 Ry     beta= 0.30
     Davidson diagonalization with overlap

---- Real-time Memory Report at c_bands before calling an iterative solver
           760 MiB given to the printing process from OS
             0 MiB allocation reported by mallinfo(arena+hblkhd)
        850730 MiB available memory on the node where the printing process lives
     GPU memory used/free/total (MiB): 1128 / 80022 / 81151
------------------
     ethr =  5.31E-03,  avg # of iterations =  1.1

     total cpu time spent up to now is        8.0 secs

     total energy              =    -568.97481842 Ry
     estimated scf accuracy    <       0.47247537 Ry

     total magnetization       =     3.50 Bohr mag/cell
     absolute magnetization    =     3.50 Bohr mag/cell
[tb_dev] Currently allocated     3.05E-05 Mbytes, locked:    0 /   2
[tb_pin] Currently allocated     0.00E+00 Mbytes, locked:    0 /   0

     iteration #  4     ecut=    60.00 Ry     beta= 0.30
     Davidson diagonalization with overlap

---- Real-time Memory Report at c_bands before calling an iterative solver
           762 MiB given to the printing process from OS
             0 MiB allocation reported by mallinfo(arena+hblkhd)
        850732 MiB available memory on the node where the printing process lives
     GPU memory used/free/total (MiB): 1128 / 80022 / 81151
------------------
     ethr =  1.24E-03,  avg # of iterations =  2.1

     total cpu time spent up to now is        9.2 secs

     total energy              =    -569.05982677 Ry
     estimated scf accuracy    <       0.59092985 Ry

     total magnetization       =     1.89 Bohr mag/cell
     absolute magnetization    =     1.98 Bohr mag/cell
[tb_dev] Currently allocated     3.05E-05 Mbytes, locked:    0 /   2
[tb_pin] Currently allocated     0.00E+00 Mbytes, locked:    0 /   0

     iteration #  5     ecut=    60.00 Ry     beta= 0.30
     Davidson diagonalization with overlap

---- Real-time Memory Report at c_bands before calling an iterative solver
           764 MiB given to the printing process from OS
             0 MiB allocation reported by mallinfo(arena+hblkhd)
        850707 MiB available memory on the node where the printing process lives
     GPU memory used/free/total (MiB): 1128 / 80022 / 81151
------------------
     ethr =  1.24E-03,  avg # of iterations =  1.3

     total cpu time spent up to now is       10.3 secs

     total energy              =    -569.09587920 Ry
     estimated scf accuracy    <       0.35598786 Ry

     total magnetization       =     1.59 Bohr mag/cell
     absolute magnetization    =     1.80 Bohr mag/cell
[tb_dev] Currently allocated     3.05E-05 Mbytes, locked:    0 /   2
[tb_pin] Currently allocated     0.00E+00 Mbytes, locked:    0 /   0

     iteration #  6     ecut=    60.00 Ry     beta= 0.30
     Davidson diagonalization with overlap

---- Real-time Memory Report at c_bands before calling an iterative solver
           767 MiB given to the printing process from OS
             0 MiB allocation reported by mallinfo(arena+hblkhd)
        851238 MiB available memory on the node where the printing process lives
     GPU memory used/free/total (MiB): 1128 / 80022 / 81151
------------------
     ethr =  9.37E-04,  avg # of iterations =  1.5

     total cpu time spent up to now is       11.4 secs

     total energy              =    -569.11558667 Ry
     estimated scf accuracy    <       0.35742677 Ry

     total magnetization       =     1.21 Bohr mag/cell
     absolute magnetization    =     1.58 Bohr mag/cell
[tb_dev] Currently allocated     3.05E-05 Mbytes, locked:    0 /   2
[tb_pin] Currently allocated     0.00E+00 Mbytes, locked:    0 /   0

     iteration #  7     ecut=    60.00 Ry     beta= 0.30
     Davidson diagonalization with overlap

---- Real-time Memory Report at c_bands before calling an iterative solver
           770 MiB given to the printing process from OS
             0 MiB allocation reported by mallinfo(arena+hblkhd)
        851027 MiB available memory on the node where the printing process lives
     GPU memory used/free/total (MiB): 1128 / 80022 / 81151
------------------
     ethr =  9.37E-04,  avg # of iterations =  2.1

     total cpu time spent up to now is       12.7 secs

     total energy              =    -569.14719125 Ry
     estimated scf accuracy    <       0.09135811 Ry

     total magnetization       =     0.98 Bohr mag/cell
     absolute magnetization    =     1.31 Bohr mag/cell
[tb_dev] Currently allocated     3.05E-05 Mbytes, locked:    0 /   2
[tb_pin] Currently allocated     0.00E+00 Mbytes, locked:    0 /   0

     iteration #  8     ecut=    60.00 Ry     beta= 0.30
     Davidson diagonalization with overlap

---- Real-time Memory Report at c_bands before calling an iterative solver
           772 MiB given to the printing process from OS
             0 MiB allocation reported by mallinfo(arena+hblkhd)
        850878 MiB available memory on the node where the printing process lives
     GPU memory used/free/total (MiB): 1128 / 80022 / 81151
------------------
     ethr =  2.40E-04,  avg # of iterations =  3.3

     total cpu time spent up to now is       14.0 secs

     total energy              =    -569.15436863 Ry
     estimated scf accuracy    <       0.18830814 Ry

     total magnetization       =     0.59 Bohr mag/cell
     absolute magnetization    =     0.70 Bohr mag/cell
[tb_dev] Currently allocated     3.05E-05 Mbytes, locked:    0 /   2
[tb_pin] Currently allocated     0.00E+00 Mbytes, locked:    0 /   0

     iteration #  9     ecut=    60.00 Ry     beta= 0.30
     Davidson diagonalization with overlap

---- Real-time Memory Report at c_bands before calling an iterative solver
           773 MiB given to the printing process from OS
             0 MiB allocation reported by mallinfo(arena+hblkhd)
        850875 MiB available memory on the node where the printing process lives
     GPU memory used/free/total (MiB): 1128 / 80022 / 81151
------------------
     ethr =  2.40E-04,  avg # of iterations =  2.8

     total cpu time spent up to now is       15.2 secs

     total energy              =    -569.17290503 Ry
     estimated scf accuracy    <       0.02709912 Ry

     total magnetization       =     0.86 Bohr mag/cell
     absolute magnetization    =     1.03 Bohr mag/cell
[tb_dev] Currently allocated     3.05E-05 Mbytes, locked:    0 /   2
[tb_pin] Currently allocated     0.00E+00 Mbytes, locked:    0 /   0

     iteration # 10     ecut=    60.00 Ry     beta= 0.30
     Davidson diagonalization with overlap

---- Real-time Memory Report at c_bands before calling an iterative solver
           774 MiB given to the printing process from OS
             0 MiB allocation reported by mallinfo(arena+hblkhd)
        850647 MiB available memory on the node where the printing process lives
     GPU memory used/free/total (MiB): 1128 / 80022 / 81151
------------------
     ethr =  7.13E-05,  avg # of iterations =  3.7

     total cpu time spent up to now is       16.6 secs

     total energy              =    -569.17464202 Ry
     estimated scf accuracy    <       0.01368249 Ry

     total magnetization       =     0.81 Bohr mag/cell
     absolute magnetization    =     0.91 Bohr mag/cell
[tb_dev] Currently allocated     3.05E-05 Mbytes, locked:    0 /   2
[tb_pin] Currently allocated     0.00E+00 Mbytes, locked:    0 /   0

     iteration # 11     ecut=    60.00 Ry     beta= 0.30
     Davidson diagonalization with overlap

---- Real-time Memory Report at c_bands before calling an iterative solver
           774 MiB given to the printing process from OS
             0 MiB allocation reported by mallinfo(arena+hblkhd)
        850606 MiB available memory on the node where the printing process lives
     GPU memory used/free/total (MiB): 1128 / 80022 / 81151
------------------
     c_bands:  1 eigenvalues not converged
     ethr =  3.60E-05,  avg # of iterations =  3.9

     total cpu time spent up to now is       18.0 secs

     total energy              =    -569.17507814 Ry
     estimated scf accuracy    <       0.00921092 Ry

     total magnetization       =     0.79 Bohr mag/cell
     absolute magnetization    =     0.88 Bohr mag/cell
[tb_dev] Currently allocated     3.05E-05 Mbytes, locked:    0 /   2
[tb_pin] Currently allocated     0.00E+00 Mbytes, locked:    0 /   0

     iteration # 12     ecut=    60.00 Ry     beta= 0.30
     Davidson diagonalization with overlap

---- Real-time Memory Report at c_bands before calling an iterative solver
           774 MiB given to the printing process from OS
             0 MiB allocation reported by mallinfo(arena+hblkhd)
        850633 MiB available memory on the node where the printing process lives
     GPU memory used/free/total (MiB): 1128 / 80022 / 81151
------------------
     c_bands:  1 eigenvalues not converged
     ethr =  2.42E-05,  avg # of iterations =  3.8

     total cpu time spent up to now is       19.4 secs

     total energy              =    -569.17768350 Ry
     estimated scf accuracy    <       0.07675769 Ry

     total magnetization       =     1.00 Bohr mag/cell
     absolute magnetization    =     1.02 Bohr mag/cell
[tb_dev] Currently allocated     3.05E-05 Mbytes, locked:    0 /   2
[tb_pin] Currently allocated     0.00E+00 Mbytes, locked:    0 /   0

     iteration # 13     ecut=    60.00 Ry     beta= 0.30
     Davidson diagonalization with overlap

---- Real-time Memory Report at c_bands before calling an iterative solver
           774 MiB given to the printing process from OS
             0 MiB allocation reported by mallinfo(arena+hblkhd)
        850593 MiB available memory on the node where the printing process lives
     GPU memory used/free/total (MiB): 1128 / 80022 / 81151
------------------
     ethr =  2.42E-05,  avg # of iterations =  1.6

     total cpu time spent up to now is       20.5 secs

     total energy              =    -569.17680181 Ry
     estimated scf accuracy    <       0.02758955 Ry

     total magnetization       =     0.95 Bohr mag/cell
     absolute magnetization    =     0.98 Bohr mag/cell
[tb_dev] Currently allocated     3.05E-05 Mbytes, locked:    0 /   2
[tb_pin] Currently allocated     0.00E+00 Mbytes, locked:    0 /   0

     iteration # 14     ecut=    60.00 Ry     beta= 0.30
     Davidson diagonalization with overlap

---- Real-time Memory Report at c_bands before calling an iterative solver
           774 MiB given to the printing process from OS
             0 MiB allocation reported by mallinfo(arena+hblkhd)
        850603 MiB available memory on the node where the printing process lives
     GPU memory used/free/total (MiB): 1128 / 80022 / 81151
------------------
     ethr =  2.42E-05,  avg # of iterations =  1.4

     total cpu time spent up to now is       21.6 secs

     total energy              =    -569.17771945 Ry
     estimated scf accuracy    <       0.00012984 Ry

     total magnetization       =     0.84 Bohr mag/cell
     absolute magnetization    =     0.88 Bohr mag/cell
[tb_dev] Currently allocated     3.05E-05 Mbytes, locked:    0 /   2
[tb_pin] Currently allocated     0.00E+00 Mbytes, locked:    0 /   0

     iteration # 15     ecut=    60.00 Ry     beta= 0.30
     Davidson diagonalization with overlap

---- Real-time Memory Report at c_bands before calling an iterative solver
           774 MiB given to the printing process from OS
             0 MiB allocation reported by mallinfo(arena+hblkhd)
        850610 MiB available memory on the node where the printing process lives
     GPU memory used/free/total (MiB): 1128 / 80022 / 81151
------------------
     ethr =  3.42E-07,  avg # of iterations =  8.8

     total cpu time spent up to now is       23.7 secs

     total energy              =    -569.17792595 Ry
     estimated scf accuracy    <       0.00042170 Ry

     total magnetization       =     0.85 Bohr mag/cell
     absolute magnetization    =     0.90 Bohr mag/cell
[tb_dev] Currently allocated     3.05E-05 Mbytes, locked:    0 /   2
[tb_pin] Currently allocated     0.00E+00 Mbytes, locked:    0 /   0

     iteration # 16     ecut=    60.00 Ry     beta= 0.30
     Davidson diagonalization with overlap

---- Real-time Memory Report at c_bands before calling an iterative solver
           774 MiB given to the printing process from OS
             0 MiB allocation reported by mallinfo(arena+hblkhd)
        850598 MiB available memory on the node where the printing process lives
     GPU memory used/free/total (MiB): 1128 / 80022 / 81151
------------------
     ethr =  3.42E-07,  avg # of iterations =  1.4

     total cpu time spent up to now is       24.9 secs

     total energy              =    -569.17791765 Ry
     estimated scf accuracy    <       0.00007189 Ry

     total magnetization       =     0.82 Bohr mag/cell
     absolute magnetization    =     0.88 Bohr mag/cell
[tb_dev] Currently allocated     3.05E-05 Mbytes, locked:    0 /   2
[tb_pin] Currently allocated     0.00E+00 Mbytes, locked:    0 /   0

     iteration # 17     ecut=    60.00 Ry     beta= 0.30
     Davidson diagonalization with overlap

---- Real-time Memory Report at c_bands before calling an iterative solver
           774 MiB given to the printing process from OS
             0 MiB allocation reported by mallinfo(arena+hblkhd)
        850586 MiB available memory on the node where the printing process lives
     GPU memory used/free/total (MiB): 1128 / 80022 / 81151
------------------
     ethr =  1.89E-07,  avg # of iterations =  2.2

     total cpu time spent up to now is       26.1 secs

     total energy              =    -569.17793664 Ry
     estimated scf accuracy    <       0.00007123 Ry

     total magnetization       =     0.81 Bohr mag/cell
     absolute magnetization    =     0.88 Bohr mag/cell
[tb_dev] Currently allocated     3.05E-05 Mbytes, locked:    0 /   2
[tb_pin] Currently allocated     0.00E+00 Mbytes, locked:    0 /   0

     iteration # 18     ecut=    60.00 Ry     beta= 0.30
     Davidson diagonalization with overlap

---- Real-time Memory Report at c_bands before calling an iterative solver
           774 MiB given to the printing process from OS
             0 MiB allocation reported by mallinfo(arena+hblkhd)
        850567 MiB available memory on the node where the printing process lives
     GPU memory used/free/total (MiB): 1128 / 80022 / 81151
------------------
     ethr =  1.87E-07,  avg # of iterations =  1.2

     total cpu time spent up to now is       27.2 secs

     total energy              =    -569.17794025 Ry
     estimated scf accuracy    <       0.00001628 Ry

     total magnetization       =     0.81 Bohr mag/cell
     absolute magnetization    =     0.89 Bohr mag/cell
[tb_dev] Currently allocated     3.05E-05 Mbytes, locked:    0 /   2
[tb_pin] Currently allocated     0.00E+00 Mbytes, locked:    0 /   0

     iteration # 19     ecut=    60.00 Ry     beta= 0.30
     Davidson diagonalization with overlap

---- Real-time Memory Report at c_bands before calling an iterative solver
           774 MiB given to the printing process from OS
             0 MiB allocation reported by mallinfo(arena+hblkhd)
        850560 MiB available memory on the node where the printing process lives
     GPU memory used/free/total (MiB): 1128 / 80022 / 81151
------------------
     ethr =  4.28E-08,  avg # of iterations =  3.7

     total cpu time spent up to now is       28.6 secs

     total energy              =    -569.17794497 Ry
     estimated scf accuracy    <       0.00000261 Ry

     total magnetization       =     0.81 Bohr mag/cell
     absolute magnetization    =     0.89 Bohr mag/cell
[tb_dev] Currently allocated     3.05E-05 Mbytes, locked:    0 /   2
[tb_pin] Currently allocated     0.00E+00 Mbytes, locked:    0 /   0

     iteration # 20     ecut=    60.00 Ry     beta= 0.30
     Davidson diagonalization with overlap

---- Real-time Memory Report at c_bands before calling an iterative solver
           774 MiB given to the printing process from OS
             0 MiB allocation reported by mallinfo(arena+hblkhd)
        850569 MiB available memory on the node where the printing process lives
     GPU memory used/free/total (MiB): 1128 / 80022 / 81151
------------------
     ethr =  6.87E-09,  avg # of iterations =  7.5

     total cpu time spent up to now is       30.5 secs

     total energy              =    -569.17794783 Ry
     estimated scf accuracy    <       0.00000040 Ry

     total magnetization       =     0.81 Bohr mag/cell
     absolute magnetization    =     0.90 Bohr mag/cell
[tb_dev] Currently allocated     3.05E-05 Mbytes, locked:    0 /   2
[tb_pin] Currently allocated     0.00E+00 Mbytes, locked:    0 /   0

     iteration # 21     ecut=    60.00 Ry     beta= 0.30
     Davidson diagonalization with overlap

---- Real-time Memory Report at c_bands before calling an iterative solver
           775 MiB given to the printing process from OS
             0 MiB allocation reported by mallinfo(arena+hblkhd)
        850902 MiB available memory on the node where the printing process lives
     GPU memory used/free/total (MiB): 1128 / 80022 / 81151
------------------
     ethr =  1.04E-09,  avg # of iterations =  5.1

     total cpu time spent up to now is       32.1 secs

     total energy              =    -569.17794927 Ry
     estimated scf accuracy    <       0.00000031 Ry

     total magnetization       =     0.80 Bohr mag/cell
     absolute magnetization    =     0.90 Bohr mag/cell
[tb_dev] Currently allocated     3.05E-05 Mbytes, locked:    0 /   2
[tb_pin] Currently allocated     0.00E+00 Mbytes, locked:    0 /   0

     iteration # 22     ecut=    60.00 Ry     beta= 0.30
     Davidson diagonalization with overlap

---- Real-time Memory Report at c_bands before calling an iterative solver
           775 MiB given to the printing process from OS
             0 MiB allocation reported by mallinfo(arena+hblkhd)
        850757 MiB available memory on the node where the printing process lives
     GPU memory used/free/total (MiB): 1128 / 80022 / 81151
------------------
     ethr =  8.28E-10,  avg # of iterations =  2.4

     total cpu time spent up to now is       33.3 secs

     total energy              =    -569.17795050 Ry
     estimated scf accuracy    <       0.00000011 Ry

     total magnetization       =     0.80 Bohr mag/cell
     absolute magnetization    =     0.90 Bohr mag/cell
[tb_dev] Currently allocated     3.05E-05 Mbytes, locked:    0 /   2
[tb_pin] Currently allocated     0.00E+00 Mbytes, locked:    0 /   0

     iteration # 23     ecut=    60.00 Ry     beta= 0.30
     Davidson diagonalization with overlap

---- Real-time Memory Report at c_bands before calling an iterative solver
           775 MiB given to the printing process from OS
             0 MiB allocation reported by mallinfo(arena+hblkhd)
        850629 MiB available memory on the node where the printing process lives
     GPU memory used/free/total (MiB): 1128 / 80022 / 81151
------------------
     ethr =  2.95E-10,  avg # of iterations =  5.1

     total cpu time spent up to now is       34.9 secs

     total energy              =    -569.17795093 Ry
     estimated scf accuracy    <       0.00000007 Ry

     total magnetization       =     0.80 Bohr mag/cell
     absolute magnetization    =     0.90 Bohr mag/cell
[tb_dev] Currently allocated     3.05E-05 Mbytes, locked:    0 /   2
[tb_pin] Currently allocated     0.00E+00 Mbytes, locked:    0 /   0

     iteration # 24     ecut=    60.00 Ry     beta= 0.30
     Davidson diagonalization with overlap

---- Real-time Memory Report at c_bands before calling an iterative solver
           775 MiB given to the printing process from OS
             0 MiB allocation reported by mallinfo(arena+hblkhd)
        850519 MiB available memory on the node where the printing process lives
     GPU memory used/free/total (MiB): 1128 / 80022 / 81151
------------------
     ethr =  1.91E-10,  avg # of iterations =  5.3

     total cpu time spent up to now is       36.5 secs

     total energy              =    -569.17795410 Ry
     estimated scf accuracy    <       0.00000006 Ry

     total magnetization       =     0.79 Bohr mag/cell
     absolute magnetization    =     0.91 Bohr mag/cell
[tb_dev] Currently allocated     3.05E-05 Mbytes, locked:    0 /   2
[tb_pin] Currently allocated     0.00E+00 Mbytes, locked:    0 /   0

     iteration # 25     ecut=    60.00 Ry     beta= 0.30
     Davidson diagonalization with overlap

---- Real-time Memory Report at c_bands before calling an iterative solver
           775 MiB given to the printing process from OS
             0 MiB allocation reported by mallinfo(arena+hblkhd)
        850471 MiB available memory on the node where the printing process lives
     GPU memory used/free/total (MiB): 1128 / 80022 / 81151
------------------
     ethr =  1.57E-10,  avg # of iterations =  2.6

     total cpu time spent up to now is       37.8 secs

     total energy              =    -569.17795462 Ry
     estimated scf accuracy    <       0.00000004 Ry

     total magnetization       =     0.79 Bohr mag/cell
     absolute magnetization    =     0.91 Bohr mag/cell
[tb_dev] Currently allocated     3.05E-05 Mbytes, locked:    0 /   2
[tb_pin] Currently allocated     0.00E+00 Mbytes, locked:    0 /   0

     iteration # 26     ecut=    60.00 Ry     beta= 0.30
     Davidson diagonalization with overlap

---- Real-time Memory Report at c_bands before calling an iterative solver
           775 MiB given to the printing process from OS
             0 MiB allocation reported by mallinfo(arena+hblkhd)
        850450 MiB available memory on the node where the printing process lives
     GPU memory used/free/total (MiB): 1128 / 80022 / 81151
------------------
     ethr =  9.59E-11,  avg # of iterations =  4.8

     total cpu time spent up to now is       39.3 secs

     total energy              =    -569.17795289 Ry
     estimated scf accuracy    <       0.00000002 Ry

     total magnetization       =     0.79 Bohr mag/cell
     absolute magnetization    =     0.92 Bohr mag/cell
[tb_dev] Currently allocated     3.05E-05 Mbytes, locked:    0 /   2
[tb_pin] Currently allocated     0.00E+00 Mbytes, locked:    0 /   0

     iteration # 27     ecut=    60.00 Ry     beta= 0.30
     Davidson diagonalization with overlap

---- Real-time Memory Report at c_bands before calling an iterative solver
           775 MiB given to the printing process from OS
             0 MiB allocation reported by mallinfo(arena+hblkhd)
        850480 MiB available memory on the node where the printing process lives
     GPU memory used/free/total (MiB): 1128 / 80022 / 81151
------------------
     ethr =  5.59E-11,  avg # of iterations =  6.7
 
     Magnetic moment per site  (integrated on atomic sphere of radius R)
     atom   1 (R=0.275)  charge= 14.0885  magn=  0.6462
     atom   2 (R=0.275)  charge=  5.2095  magn=  0.0718
     atom   3 (R=0.275)  charge=  5.2163  magn=  0.0660
     atom   4 (R=0.413)  charge=  8.2563  magn= -0.0253

     total cpu time spent up to now is       41.1 secs

     End of self-consistent calculation

 ------ SPIN UP ------------


          k = 0.0000 0.0000 0.0000 (  3803 PWs)   bands (ev):

   -92.0843 -55.2978 -55.2871 -55.2871 -49.7721 -21.6571 -21.5695 -21.5695
   -15.4318 -13.5114  -1.6751  -1.2895  -1.2895   1.2354   1.8419   2.1478
     2.1478   2.4609   2.4609   3.4743   5.6934   6.1152   6.1152   9.2251
    12.7921  12.9550  15.7525

     occupation numbers 
     1.0000   1.0000   1.0000   1.0000   1.0000   1.0000   1.0000   1.0000
     1.0000   1.0000   1.0000   1.0000   1.0000   1.0000   1.0000   1.0000
     1.0000   1.0000   1.0000   1.0826   0.0000   0.0000   0.0000   0.0000
     0.0000   0.0000   0.0000

          k = 0.0000 0.0000 0.0972 (  3796 PWs)   bands (ev):

   -92.0843 -55.2977 -55.2871 -55.2871 -49.7721 -21.6569 -21.5695 -21.5695
   -15.4317 -13.5114  -1.6695  -1.2895  -1.2895   1.0980   2.0472   2.1478
     2.1478   2.4608   2.4608   3.4333   5.5682   6.1152   6.1152   9.6671
    11.5809  13.8667  15.8207

     occupation numbers 
     1.0000   1.0000   1.0000   1.0000   1.0000   1.0000   1.0000   1.0000
     1.0000   1.0000   1.0000   1.0000   1.0000   1.0000   1.0000   1.0000
     1.0000   1.0000   1.0000   1.0749   0.0000   0.0000   0.0000   0.0000
     0.0000   0.0000   0.0000

          k = 0.0000 0.1443 0.0000 (  3787 PWs)   bands (ev):

   -92.0836 -55.2965 -55.2951 -55.2890 -49.7669 -21.6497 -21.6139 -21.5791
   -15.2602 -13.5188  -1.4897  -1.4318  -1.1736   1.2056   1.5759   1.6366
     2.1613   2.6413   2.9229   3.5447   5.5770   6.0179   6.0975   9.7035
    13.2326  13.4677  16.2790

     occupation numbers 
     1.0000   1.0000   1.0000   1.0000   1.0000   1.0000   1.0000   1.0000
     1.0000   1.0000   1.0000   1.0000   1.0000   1.0000   1.0000   1.0000
     1.0000   1.0000   1.0001   1.0716   0.0000   0.0000   0.0000   0.0000
     0.0000   0.0000   0.0000

          k = 0.0000 0.1443 0.0972 (  3806 PWs)   bands (ev):

   -92.0836 -55.2966 -55.2951 -55.2890 -49.7669 -21.6500 -21.6141 -21.5791
   -15.2602 -13.5188  -1.4874  -1.4307  -1.1736   1.2100   1.5124   1.5759
     2.3216   2.6619   2.9229   3.4984   5.6603   5.9176   6.0178  10.0733
    12.1185  14.4543  16.1437

     occupation numbers 
     1.0000   1.0000   1.0000   1.0000   1.0000   1.0000   1.0000   1.0000
     1.0000   1.0000   1.0000   1.0000   1.0000   1.0000   1.0000   1.0000
     1.0000   1.0000   1.0001   1.0831   0.0000   0.0000   0.0000   0.0000
     0.0000   0.0000   0.0000

          k = 0.0000 0.2887 0.0000 (  3786 PWs)   bands (ev):

   -92.0818 -55.3146 -55.2937 -55.2937 -49.7542 -21.7200 -21.6326 -21.6020
   -14.8097 -13.5506  -1.6699  -1.0289  -0.8974  -0.0709   1.0387   2.3143
     2.7381   2.8511   3.0986   3.4257   5.0186   5.9026   6.9755  10.8680
    13.5856  14.1639  14.7429

     occupation numbers 
     1.0000   1.0000   1.0000   1.0000   1.0000   1.0000   1.0000   1.0000
     1.0000   1.0000   1.0000   1.0000   1.0000   1.0000   1.0000   1.0000
     1.0000   1.0000   1.0028   1.0728   0.0000   0.0000   0.0000   0.0000
     0.0000   0.0000   0.0000

          k = 0.0000 0.2887 0.0972 (  3778 PWs)   bands (ev):

   -92.0818 -55.3146 -55.2937 -55.2936 -49.7542 -21.7200 -21.6326 -21.6019
   -14.8097 -13.5506  -1.6707  -1.0272  -0.8974  -0.0691   1.0387   2.2892
     2.6635   2.9916   3.0986   3.3688   5.0810   5.9026   6.8789  11.0904
    13.3439  13.6680  15.6144

     occupation numbers 
     1.0000   1.0000   1.0000   1.0000   1.0000   1.0000   1.0000   1.0000
     1.0000   1.0000   1.0000   1.0000   1.0000   1.0000   1.0000   1.0000
     1.0000   1.0005   1.0028   1.0542   0.0000   0.0000   0.0000   0.0000
     0.0000   0.0000   0.0000

          k = 0.0000 0.4330 0.0000 (  3780 PWs)   bands (ev):

   -92.0801 -55.3340 -55.2984 -55.2909 -49.7416 -21.8241 -21.6249 -21.6153
   -14.2652 -13.6361  -2.1143  -1.0206  -0.6810  -0.0145   0.8940   1.8445
     2.6162   2.8092   3.1086   4.6251   5.2204   5.9429   8.5254  10.1628
    12.6218  13.9208  15.1708

     occupation numbers 
     1.0000   1.0000   1.0000   1.0000   1.0000   1.0000   1.0000   1.0000
     1.0000   1.0000   1.0000   1.0000   1.0000   1.0000   1.0000   1.0000
     1.0000   1.0000   1.0033   0.0000   0.0000   0.0000   0.0000   0.0000
     0.0000   0.0000   0.0000

          k = 0.0000 0.4330 0.0972 (  3794 PWs)   bands (ev):

   -92.0801 -55.3341 -55.2984 -55.2909 -49.7416 -21.8243 -21.6249 -21.6154
   -14.2652 -13.6361  -2.1145  -1.0209  -0.6810  -0.0136   0.8940   1.8454
     2.6159   2.8092   3.1098   4.5782   5.2794   5.9428   8.4928  10.1598
    12.7240  13.9629  14.7763

     occupation numbers 
     1.0000   1.0000   1.0000   1.0000   1.0000   1.0000   1.0000   1.0000
     1.0000   1.0000   1.0000   1.0000   1.0000   1.0000   1.0000   1.0000
     1.0000   1.0000   1.0033   0.0000   0.0000   0.0000   0.0000   0.0000
     0.0000   0.0000   0.0000

          k = 0.0000-0.5774 0.0000 (  3798 PWs)   bands (ev):

   -92.0794 -55.3422 -55.3003 -55.2897 -49.7364 -21.8670 -21.6345 -21.6081
   -13.8863 -13.8098  -2.4940  -0.8096  -0.6375   0.1262   0.9883   1.6240
     2.3335   2.5547   3.0237   5.3830   5.9917   6.5311   7.8093  10.4087
    11.3427  14.4235  14.8140

     occupation numbers 
     1.0000   1.0000   1.0000   1.0000   1.0000   1.0000   1.0000   1.0000
     1.0000   1.0000   1.0000   1.0000   1.0000   1.0000   1.0000   1.0000
     1.0000   1.0000   1.0008   0.0000   0.0000   0.0000   0.0000   0.0000
     0.0000   0.0000   0.0000

          k = 0.0000-0.5774 0.0972 (  3790 PWs)   bands (ev):

   -92.0794 -55.3422 -55.3003 -55.2897 -49.7363 -21.8669 -21.6343 -21.6082
   -13.8863 -13.8098  -2.4940  -0.8096  -0.6375   0.1262   0.9885   1.6248
     2.3334   2.5547   3.0235   5.3835   5.9917   6.5253   7.8080  10.4374
    11.3600  14.2598  14.6607

     occupation numbers 
     1.0000   1.0000   1.0000   1.0000   1.0000   1.0000   1.0000   1.0000
     1.0000   1.0000   1.0000   1.0000   1.0000   1.0000   1.0000   1.0000
     1.0000   1.0000   1.0008   0.0000   0.0000   0.0000   0.0000   0.0000
     0.0000   0.0000   0.0000

          k = 0.1250 0.2165 0.0000 (  3789 PWs)   bands (ev):

   -92.0824 -55.3080 -55.2947 -55.2931 -49.7579 -21.6843 -21.6376 -21.6003
   -14.9490 -13.5375  -1.5834  -1.1441  -1.0104   0.3908   0.8914   2.3537
     2.5188   2.6505   3.2236   3.4691   5.2175   5.7666   6.6799  10.5230
    13.8839  14.3501  14.8922

     occupation numbers 
     1.0000   1.0000   1.0000   1.0000   1.0000   1.0000   1.0000   1.0000
     1.0000   1.0000   1.0000   1.0000   1.0000   1.0000   1.0000   1.0000
     1.0000   1.0000   1.0147   1.0820   0.0000   0.0000   0.0000   0.0000
     0.0000   0.0000   0.0000

          k = 0.1250 0.2165 0.0972 (  3785 PWs)   bands (ev):

   -92.0823 -55.3080 -55.2947 -55.2931 -49.7579 -21.6842 -21.6377 -21.6003
   -14.9490 -13.5375  -1.5843  -1.1417  -1.0103   0.3927   0.8914   2.2144
     2.6474   2.6792   3.2470   3.4311   5.2634   5.7392   6.6120  10.7380
    13.0763  14.8805  15.3090

     occupation numbers 
     1.0000   1.0000   1.0000   1.0000   1.0000   1.0000   1.0000   1.0000
     1.0000   1.0000   1.0000   1.0000   1.0000   1.0000   1.0000   1.0000
     1.0000   1.0000   1.0191   1.0743   0.0000   0.0000   0.0000   0.0000
     0.0000   0.0000   0.0000

          k = 0.1250 0.3608 0.0000 (  3780 PWs)   bands (ev):

   -92.0806 -55.3254 -55.2999 -55.2917 -49.7453 -21.7780 -21.6343 -21.6204
   -14.4526 -13.5882  -1.7032  -1.2021  -0.6388  -0.1088   0.4931   2.1393
     2.6838   2.9845   3.3600   3.9452   5.1632   5.6568   7.9034  11.6127
    12.1271  14.7529  15.5177

     occupation numbers 
     1.0000   1.0000   1.0000   1.0000   1.0000   1.0000   1.0000   1.0000
     1.0000   1.0000   1.0000   1.0000   1.0000   1.0000   1.0000   1.0000
     1.0000   1.0004   1.0512   0.2425   0.0000   0.0000   0.0000   0.0000
     0.0000   0.0000   0.0000

          k = 0.1250 0.3608 0.0972 (  3782 PWs)   bands (ev):

   -92.0806 -55.3255 -55.2999 -55.2917 -49.7453 -21.7780 -21.6343 -21.6204
   -14.4526 -13.5882  -1.7036  -1.2021  -0.6385  -0.1075   0.4932   2.1382
     2.6836   2.9894   3.3503   3.9315   5.2120   5.6412   7.8726  11.6369
    12.1914  14.3954  15.8069

     occupation numbers 
     1.0000   1.0000   1.0000   1.0000   1.0000   1.0000   1.0000   1.0000
     1.0000   1.0000   1.0000   1.0000   1.0000   1.0000   1.0000   1.0000
     1.0000   1.0005   1.0478   0.2698   0.0000   0.0000   0.0000   0.0000
     0.0000   0.0000   0.0000

          k = 0.1250 0.5052 0.0000 (  3784 PWs)   bands (ev):

   -92.0794 -55.3377 -55.3047 -55.2897 -49.7363 -21.8428 -21.6588 -21.6082
   -13.9920 -13.7044  -2.2056  -1.1901  -0.3504   0.1411   0.4845   1.5588
     2.4283   2.7184   3.2442   5.3354   5.7232   6.0076   8.9076   9.8063
    12.6360  13.5345  15.1279

     occupation numbers 
     1.0000   1.0000   1.0000   1.0000   1.0000   1.0000   1.0000   1.0000
     1.0000   1.0000   1.0000   1.0000   1.0000   1.0000   1.0000   1.0000
     1.0000   1.0000   1.0185   0.0000   0.0000   0.0000   0.0000   0.0000
     0.0000   0.0000   0.0000

          k = 0.1250 0.5052 0.0972 (  3793 PWs)   bands (ev):

   -92.0794 -55.3378 -55.3047 -55.2898 -49.7364 -21.8428 -21.6589 -21.6083
   -13.9921 -13.7044  -2.2056  -1.1902  -0.3504   0.1412   0.4845   1.5593
     2.4283   2.7185   3.2437   5.3252   5.7343   6.0073   8.9022   9.8078
    12.6782  13.5394  15.0290

     occupation numbers 
     1.0000   1.0000   1.0000   1.0000   1.0000   1.0000   1.0000   1.0000
     1.0000   1.0000   1.0000   1.0000   1.0000   1.0000   1.0000   1.0000
     1.0000   1.0000   1.0184   0.0000   0.0000   0.0000   0.0000   0.0000
     0.0000   0.0000   0.0000

          k = 0.2500 0.4330 0.0000 (  3781 PWs)   bands (ev):

   -92.0794 -55.3316 -55.3107 -55.2898 -49.7363 -21.8093 -21.6926 -21.6083
   -14.0481 -13.6487  -1.6416  -1.5232  -0.5669   0.1459   0.2307   1.5589
     2.4809   2.8415   3.4447   5.3222   5.3963   5.7311   9.5086  10.1346
    12.5374  14.4791  14.7898

     occupation numbers 
     1.0000   1.0000   1.0000   1.0000   1.0000   1.0000   1.0000   1.0000
     1.0000   1.0000   1.0000   1.0000   1.0000   1.0000   1.0000   1.0000
     1.0000   1.0000   1.0777   0.0000   0.0000   0.0000   0.0000   0.0000
     0.0000   0.0000   0.0000

          k = 0.2500 0.4330 0.0972 (  3790 PWs)   bands (ev):

   -92.0794 -55.3316 -55.3107 -55.2898 -49.7364 -21.8094 -21.6927 -21.6083
   -14.0481 -13.6487  -1.6416  -1.5233  -0.5669   0.1458   0.2312   1.5588
     2.4810   2.8418   3.4431   5.3405   5.3875   5.7187   9.5271  10.1337
    12.5103  14.4225  14.8297

     occupation numbers 
     1.0000   1.0000   1.0000   1.0000   1.0000   1.0000   1.0000   1.0000
     1.0000   1.0000   1.0000   1.0000   1.0000   1.0000   1.0000   1.0000
     1.0000   1.0000   1.0773   0.0000   0.0000   0.0000   0.0000   0.0000
     0.0000   0.0000   0.0000

          k = 0.2500 0.5774 0.0000 (  3794 PWs)   bands (ev):

   -92.0789 -55.3322 -55.3173 -55.2889 -49.7327 -21.8107 -21.7286 -21.6031
   -13.8125 -13.7330  -1.7990  -1.4338  -0.7124   0.2832   0.4658   1.1198
     2.1946   3.0497   3.3254   5.3846   5.4196   7.4075   8.4289  11.5205
    12.0643  12.2459  14.7247

     occupation numbers 
     1.0000   1.0000   1.0000   1.0000   1.0000   1.0000   1.0000   1.0000
     1.0000   1.0000   1.0000   1.0000   1.0000   1.0000   1.0000   1.0000
     1.0000   1.0013   1.0396   0.0000   0.0000   0.0000   0.0000   0.0000
     0.0000   0.0000   0.0000

          k = 0.2500 0.5774 0.0972 (  3783 PWs)   bands (ev):

   -92.0789 -55.3321 -55.3173 -55.2889 -49.7326 -21.8106 -21.7285 -21.6031
   -13.8125 -13.7330  -1.7989  -1.4338  -0.7123   0.2832   0.4658   1.1199
     2.1946   3.0498   3.3251   5.3853   5.4210   7.4041   8.4254  11.5377
    12.0494  12.2718  14.7280

     occupation numbers 
     1.0000   1.0000   1.0000   1.0000   1.0000   1.0000   1.0000   1.0000
     1.0000   1.0000   1.0000   1.0000   1.0000   1.0000   1.0000   1.0000
     1.0000   1.0013   1.0396   0.0000   0.0000   0.0000   0.0000   0.0000
     0.0000   0.0000   0.0000

          k = 0.0000-0.1443 0.0972 (  3806 PWs)   bands (ev):

   -92.0836 -55.2966 -55.2951 -55.2890 -49.7669 -21.6500 -21.6141 -21.5791
   -15.2602 -13.5188  -1.4861  -1.4320  -1.1736   1.2019   1.5248   1.5759
     2.3166   2.6611   2.9229   3.5038   5.5810   6.0021   6.0179  10.0417
    12.1538  14.4440  16.1420

     occupation numbers 
     1.0000   1.0000   1.0000   1.0000   1.0000   1.0000   1.0000   1.0000
     1.0000   1.0000   1.0000   1.0000   1.0000   1.0000   1.0000   1.0000
     1.0000   1.0000   1.0001   1.0826   0.0000   0.0000   0.0000   0.0000
     0.0000   0.0000   0.0000

          k = 0.0000-0.2887 0.0972 (  3778 PWs)   bands (ev):

   -92.0818 -55.3146 -55.2937 -55.2936 -49.7542 -21.7200 -21.6326 -21.6019
   -14.8097 -13.5506  -1.6704  -1.0278  -0.8974  -0.0687   1.0387   2.2786
     2.6825   2.9591   3.0986   3.4179   5.0149   5.9026   6.9503  10.9732
    13.4670  13.6961  15.6249

     occupation numbers 
     1.0000   1.0000   1.0000   1.0000   1.0000   1.0000   1.0000   1.0000
     1.0000   1.0000   1.0000   1.0000   1.0000   1.0000   1.0000   1.0000
     1.0000   1.0003   1.0028   1.0705   0.0000   0.0000   0.0000   0.0000
     0.0000   0.0000   0.0000

          k = 0.0000-0.4330 0.0972 (  3794 PWs)   bands (ev):

   -92.0801 -55.3341 -55.2984 -55.2909 -49.7416 -21.8243 -21.6249 -21.6154
   -14.2652 -13.6361  -2.1145  -1.0209  -0.6810  -0.0133   0.8940   1.8440
     2.6168   2.8092   3.1056   4.6346   5.2058   5.9429   8.5556  10.1622
    12.5093  13.9119  15.1989

     occupation numbers 
     1.0000   1.0000   1.0000   1.0000   1.0000   1.0000   1.0000   1.0000
     1.0000   1.0000   1.0000   1.0000   1.0000   1.0000   1.0000   1.0000
     1.0000   1.0000   1.0031   0.0000   0.0000   0.0000   0.0000   0.0000
     0.0000   0.0000   0.0000

          k =-0.1250-0.3608 0.0972 (  3782 PWs)   bands (ev):

   -92.0806 -55.3255 -55.2999 -55.2917 -49.7453 -21.7780 -21.6343 -21.6204
   -14.4526 -13.5882  -1.7036  -1.2022  -0.6387  -0.1070   0.4931   2.1365
     2.6845   2.9906   3.3374   3.9651   5.1642   5.6536   7.9068  11.6139
    12.1234  14.5221  15.7972

     occupation numbers 
     1.0000   1.0000   1.0000   1.0000   1.0000   1.0000   1.0000   1.0000
     1.0000   1.0000   1.0000   1.0000   1.0000   1.0000   1.0000   1.0000
     1.0000   1.0005   1.0435   0.2060   0.0000   0.0000   0.0000   0.0000
     0.0000   0.0000   0.0000

          k =-0.1250-0.5052 0.0972 (  3793 PWs)   bands (ev):

   -92.0794 -55.3378 -55.3047 -55.2898 -49.7364 -21.8428 -21.6589 -21.6083
   -13.9921 -13.7044  -2.2056  -1.1902  -0.3504   0.1413   0.4845   1.5589
     2.4284   2.7185   3.2433   5.3443   5.7238   5.9908   8.9063   9.8451
    12.6407  13.4165  14.9916

     occupation numbers 
     1.0000   1.0000   1.0000   1.0000   1.0000   1.0000   1.0000   1.0000
     1.0000   1.0000   1.0000   1.0000   1.0000   1.0000   1.0000   1.0000
     1.0000   1.0000   1.0183   0.0000   0.0000   0.0000   0.0000   0.0000
     0.0000   0.0000   0.0000

 ------ SPIN DOWN ----------


          k = 0.0000 0.0000 0.0000 (  3803 PWs)   bands (ev):

   -91.2917 -54.5713 -54.5713 -54.4111 -49.7831 -21.6659 -21.5820 -21.5820
   -15.3192 -13.3892  -1.3275  -1.0357  -1.0357   1.1204   2.0073   2.5452
     2.5452   2.8169   2.8169   4.3720   5.6143   6.4552   6.4552   9.2338
    12.8688  13.0379  15.8066

     occupation numbers 
     1.0000   1.0000   1.0000   1.0000   1.0000   1.0000   1.0000   1.0000
     1.0000   1.0000   1.0000   1.0000   1.0000   1.0000   1.0000   1.0000
     1.0000   1.0000   1.0000   0.0008   0.0000   0.0000   0.0000   0.0000
     0.0000   0.0000   0.0000

          k = 0.0000 0.0000 0.0972 (  3796 PWs)   bands (ev):

   -91.2917 -54.5713 -54.5713 -54.4110 -49.7831 -21.6657 -21.5820 -21.5820
   -15.3192 -13.3892  -1.3188  -1.0357  -1.0357   1.0048   2.1891   2.5451
     2.5451   2.8169   2.8169   4.3134   5.5061   6.4552   6.4552   9.6675
    11.6595  13.9497  15.8987

     occupation numbers 
     1.0000   1.0000   1.0000   1.0000   1.0000   1.0000   1.0000   1.0000
     1.0000   1.0000   1.0000   1.0000   1.0000   1.0000   1.0000   1.0000
     1.0000   1.0000   1.0000   0.0024   0.0000   0.0000   0.0000   0.0000
     0.0000   0.0000   0.0000

          k = 0.0000 0.1443 0.0000 (  3787 PWs)   bands (ev):

   -91.2909 -54.5796 -54.5733 -54.4097 -49.7778 -21.6585 -21.6268 -21.5917
   -15.1470 -13.3958  -1.2133  -1.1214  -0.9274   1.4143   1.5681   1.9037
     2.3325   3.1905   3.3707   4.3943   5.7511   6.1913   6.3487   9.7053
    13.3031  13.5544  16.3429

     occupation numbers 
     1.0000   1.0000   1.0000   1.0000   1.0000   1.0000   1.0000   1.0000
     1.0000   1.0000   1.0000   1.0000   1.0000   1.0000   1.0000   1.0000
     1.0000   1.0099   1.0549   0.0005   0.0000   0.0000   0.0000   0.0000
     0.0000   0.0000   0.0000

          k = 0.0000 0.1443 0.0972 (  3806 PWs)   bands (ev):

   -91.2910 -54.5797 -54.5734 -54.4099 -49.7779 -21.6587 -21.6270 -21.5917
   -15.1469 -13.3958  -1.2144  -1.1148  -0.9274   1.4069   1.4756   1.9037
     2.4800   3.1984   3.3707   4.3407   5.8261   6.0289   6.3486  10.0707
    12.1946  14.5383  16.2270

     occupation numbers 
     1.0000   1.0000   1.0000   1.0000   1.0000   1.0000   1.0000   1.0000
     1.0000   1.0000   1.0000   1.0000   1.0000   1.0000   1.0000   1.0000
     1.0000   1.0110   1.0549   0.0015   0.0000   0.0000   0.0000   0.0000
     0.0000   0.0000   0.0000

          k = 0.0000 0.2887 0.0000 (  3786 PWs)   bands (ev):

   -91.2891 -54.5999 -54.5782 -54.4068 -49.7651 -21.7338 -21.6412 -21.6148
   -14.6943 -13.4260  -1.4476  -0.7445  -0.6694   0.1773   1.3085   2.5332
     2.7080   3.3709   3.6556   4.2315   5.3840   6.2135   6.9116  10.8575
    13.4537  14.2030  14.8352

     occupation numbers 
     1.0000   1.0000   1.0000   1.0000   1.0000   1.0000   1.0000   1.0000
     1.0000   1.0000   1.0000   1.0000   1.0000   1.0000   1.0000   1.0000
     1.0000   1.0550   0.9500   0.0089   0.0000   0.0000   0.0000   0.0000
     0.0000   0.0000   0.0000

          k = 0.0000 0.2887 0.0972 (  3778 PWs)   bands (ev):

   -91.2891 -54.5999 -54.5781 -54.4068 -49.7651 -21.7338 -21.6411 -21.6147
   -14.6943 -13.4260  -1.4487  -0.7425  -0.6694   0.1808   1.3085   2.4335
     2.7946   3.3956   3.6557   4.2031   5.4658   6.2135   6.7919  11.0797
    13.3790  13.5494  15.7029

     occupation numbers 
     1.0000   1.0000   1.0000   1.0000   1.0000   1.0000   1.0000   1.0000
     1.0000   1.0000   1.0000   1.0000   1.0000   1.0000   1.0000   1.0000
     1.0000   1.0634   0.9499   0.0136   0.0000   0.0000   0.0000   0.0000
     0.0000   0.0000   0.0000

          k = 0.0000 0.4330 0.0000 (  3780 PWs)   bands (ev):

   -91.2873 -54.6201 -54.5830 -54.4037 -49.7524 -21.8387 -21.6377 -21.6237
   -14.1467 -13.5106  -1.9258  -0.8804  -0.4583   0.3417   1.0645   2.0587
     3.3550   3.4886   3.8647   4.5028   5.6155   6.2500   8.4339  10.0253
    12.6031  13.8444  15.2096

     occupation numbers 
     1.0000   1.0000   1.0000   1.0000   1.0000   1.0000   1.0000   1.0000
     1.0000   1.0000   1.0000   1.0000   1.0000   1.0000   1.0000   1.0000
     1.0495   1.0833   0.4258   0.0001   0.0000   0.0000   0.0000   0.0000
     0.0000   0.0000   0.0000

          k = 0.0000 0.4330 0.0972 (  3794 PWs)   bands (ev):

   -91.2873 -54.6202 -54.5831 -54.4038 -49.7524 -21.8389 -21.6378 -21.6238
   -14.1467 -13.5106  -1.9259  -0.8807  -0.4583   0.3429   1.0644   2.0598
     3.3530   3.4886   3.8688   4.4716   5.6618   6.2499   8.3953  10.0227
    12.7037  13.8826  14.8302

     occupation numbers 
     1.0000   1.0000   1.0000   1.0000   1.0000   1.0000   1.0000   1.0000
     1.0000   1.0000   1.0000   1.0000   1.0000   1.0000   1.0000   1.0000
     1.0488   1.0833   0.4153   0.0001   0.0000   0.0000   0.0000   0.0000
     0.0000   0.0000   0.0000

          k = 0.0000-0.5774 0.0000 (  3798 PWs)   bands (ev):

   -91.2866 -54.6286 -54.5851 -54.4025 -49.7472 -21.8819 -21.6474 -21.6165
   -13.7684 -13.6819  -2.3235  -0.7083  -0.4082   0.4882   1.0706   1.7994
     3.2321   3.3183   3.7162   5.7934   6.3022   6.3786   7.6913  10.2843
    11.2842  14.4074  14.8041

     occupation numbers 
     1.0000   1.0000   1.0000   1.0000   1.0000   1.0000   1.0000   1.0000
     1.0000   1.0000   1.0000   1.0000   1.0000   1.0000   1.0000   1.0000
     1.0162   1.0374   0.8225   0.0000   0.0000   0.0000   0.0000   0.0000
     0.0000   0.0000   0.0000

          k = 0.0000-0.5774 0.0972 (  3790 PWs)   bands (ev):

   -91.2866 -54.6286 -54.5850 -54.4025 -49.7471 -21.8818 -21.6472 -21.6165
   -13.7684 -13.6819  -2.3235  -0.7083  -0.4082   0.4882   1.0708   1.8004
     3.2319   3.3183   3.7160   5.7952   6.3022   6.3705   7.6912  10.3124
    11.3002  14.2543  14.6533

     occupation numbers 
     1.0000   1.0000   1.0000   1.0000   1.0000   1.0000   1.0000   1.0000
     1.0000   1.0000   1.0000   1.0000   1.0000   1.0000   1.0000   1.0000
     1.0162   1.0374   0.8230   0.0000   0.0000   0.0000   0.0000   0.0000
     0.0000   0.0000   0.0000

          k = 0.1250 0.2165 0.0000 (  3789 PWs)   bands (ev):

   -91.2897 -54.5931 -54.5777 -54.4076 -49.7689 -21.6978 -21.6462 -21.6131
   -14.8344 -13.4133  -1.3584  -0.8369  -0.7577   0.6091   1.1690   2.2887
     2.6512   3.3130   3.7154   4.3030   5.5337   6.0917   6.6320  10.5165
    13.9402  14.4439  14.7285

     occupation numbers 
     1.0000   1.0000   1.0000   1.0000   1.0000   1.0000   1.0000   1.0000
     1.0000   1.0000   1.0000   1.0000   1.0000   1.0000   1.0000   1.0000
     1.0000   1.0358   0.8243   0.0028   0.0000   0.0000   0.0000   0.0000
     0.0000   0.0000   0.0000

          k = 0.1250 0.2165 0.0972 (  3785 PWs)   bands (ev):

   -91.2897 -54.5930 -54.5777 -54.4077 -49.7689 -21.6977 -21.6463 -21.6130
   -14.8344 -13.4133  -1.3596  -0.8350  -0.7561   0.6130   1.1690   2.1768
     2.7762   3.3130   3.7317   4.2732   5.6018   6.0402   6.5652  10.7302
    13.1479  14.7193  15.3827

     occupation numbers 
     1.0000   1.0000   1.0000   1.0000   1.0000   1.0000   1.0000   1.0000
     1.0000   1.0000   1.0000   1.0000   1.0000   1.0000   1.0000   1.0000
     1.0000   1.0358   0.7844   0.0046   0.0000   0.0000   0.0000   0.0000
     0.0000   0.0000   0.0000

          k = 0.1250 0.3608 0.0000 (  3780 PWs)   bands (ev):

   -91.2878 -54.6112 -54.5846 -54.4046 -49.7561 -21.7922 -21.6472 -21.6289
   -14.3354 -13.4627  -1.4955  -1.0279  -0.4165   0.2143   0.7102   2.3466
     3.3817   3.7292   3.8364   4.0237   5.5299   5.9744   7.8199  11.5143
    12.0535  14.7777  15.5916

     occupation numbers 
     1.0000   1.0000   1.0000   1.0000   1.0000   1.0000   1.0000   1.0000
     1.0000   1.0000   1.0000   1.0000   1.0000   1.0000   1.0000   1.0000
     1.0587   0.7907   0.5006   0.1205   0.0000   0.0000   0.0000   0.0000
     0.0000   0.0000   0.0000

          k = 0.1250 0.3608 0.0972 (  3782 PWs)   bands (ev):

   -91.2878 -54.6112 -54.5846 -54.4046 -49.7561 -21.7922 -21.6472 -21.6288
   -14.3354 -13.4627  -1.4959  -1.0280  -0.4164   0.2166   0.7102   2.3441
     3.3800   3.6971   3.8738   4.0072   5.5813   5.9563   7.7821  11.5298
    12.1256  14.4457  15.7851

     occupation numbers 
     1.0000   1.0000   1.0000   1.0000   1.0000   1.0000   1.0000   1.0000
     1.0000   1.0000   1.0000   1.0000   1.0000   1.0000   1.0000   1.0000
     1.0581   0.8667   0.4027   0.1414   0.0000   0.0000   0.0000   0.0000
     0.0000   0.0000   0.0000

          k = 0.1250 0.5052 0.0000 (  3784 PWs)   bands (ev):

   -91.2866 -54.6240 -54.5896 -54.4025 -49.7471 -21.8575 -21.6719 -21.6165
   -13.8720 -13.5786  -2.0338  -1.0338  -0.1572   0.4170   0.6866   1.7635
     3.3785   3.4355   3.8610   5.6691   5.8895   6.0750   8.7702   9.7040
    12.5544  13.4948  15.1003

     occupation numbers 
     1.0000   1.0000   1.0000   1.0000   1.0000   1.0000   1.0000   1.0000
     1.0000   1.0000   1.0000   1.0000   1.0000   1.0000   1.0000   1.0000
     1.0576   1.0755   0.4354   0.0000   0.0000   0.0000   0.0000   0.0000
     0.0000   0.0000   0.0000

          k = 0.1250 0.5052 0.0972 (  3793 PWs)   bands (ev):

   -91.2866 -54.6240 -54.5896 -54.4025 -49.7472 -21.8576 -21.6720 -21.6166
   -13.8720 -13.5786  -2.0339  -1.0339  -0.1573   0.4172   0.6867   1.7641
     3.3783   3.4357   3.8603   5.6380   5.9385   6.0584   8.7649   9.7049
    12.5944  13.4978  15.0071

     occupation numbers 
     1.0000   1.0000   1.0000   1.0000   1.0000   1.0000   1.0000   1.0000
     1.0000   1.0000   1.0000   1.0000   1.0000   1.0000   1.0000   1.0000
     1.0575   1.0755   0.4370   0.0000   0.0000   0.0000   0.0000   0.0000
     0.0000   0.0000   0.0000

          k = 0.2500 0.4330 0.0000 (  3781 PWs)   bands (ev):

   -91.2866 -54.6176 -54.5958 -54.4025 -49.7471 -21.8238 -21.7060 -21.6166
   -13.9282 -13.5227  -1.4870  -1.3250  -0.4281   0.3530   0.5652   1.7638
     3.4504   3.5496   4.0332   5.4429   5.7523   5.8079   9.4100   9.9701
    12.4894  14.4649  14.6826

     occupation numbers 
     1.0000   1.0000   1.0000   1.0000   1.0000   1.0000   1.0000   1.0000
     1.0000   1.0000   1.0000   1.0000   1.0000   1.0000   1.0000   1.0000
     1.0789   1.0692   0.1096   0.0000   0.0000   0.0000   0.0000   0.0000
     0.0000   0.0000   0.0000

          k = 0.2500 0.4330 0.0972 (  3790 PWs)   bands (ev):

   -91.2866 -54.6177 -54.5959 -54.4025 -49.7472 -21.8238 -21.7061 -21.6167
   -13.9282 -13.5227  -1.4871  -1.3252  -0.4281   0.3528   0.5660   1.7637
     3.4504   3.5501   4.0303   5.4587   5.7316   5.8113   9.4280   9.9690
    12.4624  14.4016  14.7230

     occupation numbers 
     1.0000   1.0000   1.0000   1.0000   1.0000   1.0000   1.0000   1.0000
     1.0000   1.0000   1.0000   1.0000   1.0000   1.0000   1.0000   1.0000
     1.0789   1.0690   0.1128   0.0000   0.0000   0.0000   0.0000   0.0000
     0.0000   0.0000   0.0000

          k = 0.2500 0.5774 0.0000 (  3794 PWs)   bands (ev):

   -91.2860 -54.6182 -54.6028 -54.4016 -49.7434 -21.8252 -21.7423 -21.6115
   -13.6925 -13.6057  -1.6344  -1.2675  -0.5846   0.5018   0.7761   1.2915
     3.2465   3.7224   3.9540   5.7454   5.7581   7.2458   8.2813  11.3958
    12.0061  12.1725  14.6532

     occupation numbers 
     1.0000   1.0000   1.0000   1.0000   1.0000   1.0000   1.0000   1.0000
     1.0000   1.0000   1.0000   1.0000   1.0000   1.0000   1.0000   1.0000
     1.0190   0.8076   0.2259   0.0000   0.0000   0.0000   0.0000   0.0000
     0.0000   0.0000   0.0000

          k = 0.2500 0.5774 0.0972 (  3783 PWs)   bands (ev):

   -91.2860 -54.6181 -54.6027 -54.4016 -49.7434 -21.8250 -21.7422 -21.6115
   -13.6925 -13.6057  -1.6344  -1.2675  -0.5846   0.5018   0.7761   1.2916
     3.2465   3.7224   3.9537   5.7467   5.7599   7.2414   8.2776  11.4133
    11.9908  12.1984  14.6586

     occupation numbers 
     1.0000   1.0000   1.0000   1.0000   1.0000   1.0000   1.0000   1.0000
     1.0000   1.0000   1.0000   1.0000   1.0000   1.0000   1.0000   1.0000
     1.0190   0.8074   0.2265   0.0000   0.0000   0.0000   0.0000   0.0000
     0.0000   0.0000   0.0000

          k = 0.0000-0.1443 0.0972 (  3806 PWs)   bands (ev):

   -91.2910 -54.5797 -54.5734 -54.4099 -49.7779 -21.6587 -21.6270 -21.5917
   -15.1470 -13.3958  -1.2136  -1.1156  -0.9275   1.3681   1.5212   1.9037
     2.4697   3.2031   3.3706   4.3454   5.7290   6.1303   6.3486  10.0384
    12.2313  14.5248  16.2275

     occupation numbers 
     1.0000   1.0000   1.0000   1.0000   1.0000   1.0000   1.0000   1.0000
     1.0000   1.0000   1.0000   1.0000   1.0000   1.0000   1.0000   1.0000
     1.0000   1.0116   1.0549   0.0013   0.0000   0.0000   0.0000   0.0000
     0.0000   0.0000   0.0000

          k = 0.0000-0.2887 0.0972 (  3778 PWs)   bands (ev):

   -91.2891 -54.5999 -54.5781 -54.4067 -49.7651 -21.7338 -21.6411 -21.6147
   -14.6943 -13.4260  -1.4483  -0.7431  -0.6694   0.1812   1.3085   2.4193
     2.8107   3.3991   3.6556   4.2239   5.3794   6.2135   6.8834  10.9619
    13.4285  13.6613  15.6852

     occupation numbers 
     1.0000   1.0000   1.0000   1.0000   1.0000   1.0000   1.0000   1.0000
     1.0000   1.0000   1.0000   1.0000   1.0000   1.0000   1.0000   1.0000
     1.0000   1.0646   0.9500   0.0100   0.0000   0.0000   0.0000   0.0000
     0.0000   0.0000   0.0000

          k = 0.0000-0.4330 0.0972 (  3794 PWs)   bands (ev):

   -91.2873 -54.6202 -54.5831 -54.4038 -49.7524 -21.8389 -21.6378 -21.6238
   -14.1467 -13.5106  -1.9259  -0.8807  -0.4583   0.3435   1.0645   2.0576
     3.3536   3.4886   3.8594   4.5117   5.6062   6.2499   8.4625  10.0249
    12.4929  13.8370  15.2713

     occupation numbers 
     1.0000   1.0000   1.0000   1.0000   1.0000   1.0000   1.0000   1.0000
     1.0000   1.0000   1.0000   1.0000   1.0000   1.0000   1.0000   1.0000
     1.0490   1.0833   0.4396   0.0000   0.0000   0.0000   0.0000   0.0000
     0.0000   0.0000   0.0000

          k =-0.1250-0.3608 0.0972 (  3782 PWs)   bands (ev):

   -91.2878 -54.6112 -54.5846 -54.4046 -49.7561 -21.7922 -21.6472 -21.6288
   -14.3354 -13.4627  -1.4959  -1.0280  -0.4165   0.2172   0.7101   2.3414
     3.3822   3.7080   3.8259   4.0614   5.5321   5.9707   7.8203  11.5158
    12.0499  14.5763  15.7830

     occupation numbers 
     1.0000   1.0000   1.0000   1.0000   1.0000   1.0000   1.0000   1.0000
     1.0000   1.0000   1.0000   1.0000   1.0000   1.0000   1.0000   1.0000
     1.0589   0.8420   0.5293   0.0816   0.0000   0.0000   0.0000   0.0000
     0.0000   0.0000   0.0000

          k =-0.1250-0.5052 0.0972 (  3793 PWs)   bands (ev):

   -91.2866 -54.6240 -54.5896 -54.4025 -49.7472 -21.8576 -21.6720 -21.6166
   -13.8720 -13.5786  -2.0339  -1.0339  -0.1573   0.4172   0.6869   1.7637
     3.3785   3.4356   3.8597   5.7047   5.8499   6.0719   8.7688   9.7419
    12.5597  13.3825  14.9611

     occupation numbers 
     1.0000   1.0000   1.0000   1.0000   1.0000   1.0000   1.0000   1.0000
     1.0000   1.0000   1.0000   1.0000   1.0000   1.0000   1.0000   1.0000
     1.0576   1.0755   0.4387   0.0000   0.0000   0.0000   0.0000   0.0000
     0.0000   0.0000   0.0000

     the Fermi energy is     3.8746 ev

!    total energy              =    -569.17795646 Ry
     total all-electron energy =     -3412.668512 Ry
     estimated scf accuracy    <          8.7E-09 Ry
     smearing contrib. (-TS)   =       0.00236847 Ry
     internal energy E=F+TS    =    -569.18032492 Ry

     The total energy is F=E-TS. E is the sum of the following terms:
     one-electron contribution =    -680.64331707 Ry
     hartree contribution      =     352.77328201 Ry
     xc contribution           =     -59.96362849 Ry
     ewald contribution        =     -59.38800377 Ry
     one-center paw contrib.   =    -121.95865760 Ry
      -> PAW hartree energy AE =     342.19560458 Ry
      -> PAW hartree energy PS =    -342.20160305 Ry
      -> PAW xc energy AE      =    -178.88087531 Ry
      -> PAW xc energy PS      =      56.92821618 Ry
      -> total E_H with PAW    =     352.76728354 Ry
      -> total E_XC with PAW   =    -181.91628762 Ry

     total magnetization       =     0.78 Bohr mag/cell
     absolute magnetization    =     0.92 Bohr mag/cell

     convergence has been achieved in  27 iterations

     Forces acting on atoms (cartesian axes, Ry/au):

     atom    1 type  1   force =     0.00000000    0.00000000    0.00558697
     atom    2 type  2   force =     0.00000000    0.00000000   -0.02613812
     atom    3 type  2   force =     0.00000000    0.00000000    0.01604859
     atom    4 type  3   force =    -0.00000000   -0.00000000    0.00450257
     The non-local contrib.  to forces
     atom    1 type  1   force =     0.00000000    0.00000000    0.00284460
     atom    2 type  2   force =     0.00000000    0.00000000   -1.19530236
     atom    3 type  2   force =    -0.00000000   -0.00000000    1.11806080
     atom    4 type  3   force =     0.00000000    0.00000000    0.02173569
     The ionic contribution  to forces
     atom    1 type  1   force =    -0.00000000    0.00000000    4.51599317
     atom    2 type  2   force =     0.00000000   -0.00000000   36.60776096
     atom    3 type  2   force =    -0.00000000    0.00000000  -33.42954530
     atom    4 type  3   force =     0.00000000   -0.00000000   -7.69420883
     The local contribution  to forces
     atom    1 type  1   force =    -0.00000000   -0.00000000   -4.51333237
     atom    2 type  2   force =     0.00000001   -0.00000001  -35.44908126
     atom    3 type  2   force =    -0.00000001    0.00000001   32.33720537
     atom    4 type  3   force =     0.00000006   -0.00000004    7.67697477
     The core correction contribution to forces
     atom    1 type  1   force =     0.00000000   -0.00000000   -0.00001050
     atom    2 type  2   force =    -0.00000000    0.00000000    0.01055109
     atom    3 type  2   force =     0.00000000   -0.00000000   -0.00977770
     atom    4 type  3   force =     0.00000000   -0.00000000   -0.00001971
     The Hubbard contrib.    to forces
     atom    1 type  1   force =     0.00000000    0.00000000    0.00000000
     atom    2 type  2   force =     0.00000000    0.00000000    0.00000000
     atom    3 type  2   force =     0.00000000    0.00000000    0.00000000
     atom    4 type  3   force =     0.00000000    0.00000000    0.00000000
     The SCF correction term to forces
     atom    1 type  1   force =    -0.00000000    0.00000000    0.00009539
     atom    2 type  2   force =    -0.00000000    0.00000000   -0.00006323
     atom    3 type  2   force =     0.00000000   -0.00000000    0.00010874
     atom    4 type  3   force =    -0.00000000    0.00000000    0.00002397

     Total force =     0.031500     Total SCF correction =     0.000160

     Writing all to output data dir ./out/pw.save/ :
     XML data file, charge density, pseudopotentials, collected wavefunctions
 
     init_run     :     13.39s CPU      3.04s WALL (       1 calls)
     electrons    :    142.06s CPU     37.63s WALL (       1 calls)
     forces       :      0.81s CPU      0.55s WALL (       1 calls)

     Called by init_run:
     wfcinit      :      0.27s CPU      0.34s WALL (       1 calls)
     wfcinit:atom :      0.04s CPU      0.04s WALL (      50 calls)
     wfcinit:wfcr :      0.17s CPU      0.20s WALL (      50 calls)
     potinit      :     12.57s CPU      2.12s WALL (       1 calls)
     hinit0       :      0.45s CPU      0.44s WALL (       1 calls)

     Called by electrons:
     c_bands      :     18.40s CPU     18.34s WALL (      27 calls)
     sum_band     :      3.22s CPU      3.14s WALL (      27 calls)
     v_of_rho     :      0.50s CPU      0.26s WALL (      28 calls)
     v_h          :      0.34s CPU      0.05s WALL (      28 calls)
     v_xc         :      0.16s CPU      0.21s WALL (      29 calls)
     newd         :      0.63s CPU      0.49s WALL (      28 calls)
                                        0.49s GPU  (      28 calls)
     PAW_pot      :    122.31s CPU     15.32s WALL (      28 calls)
     mix_rho      :      0.52s CPU      0.51s WALL (      27 calls)

     Called by c_bands:
     init_us_2    :      1.18s CPU      1.11s WALL (    2800 calls)
     cegterg      :     15.95s CPU     16.00s WALL (    1350 calls)

     Called by sum_band:
     sum_band:wei :      0.03s CPU      0.03s WALL (      27 calls)
                                        0.03s GPU  (      27 calls)
     sum_band:loo :      2.03s CPU      1.94s WALL (      27 calls)
                                        1.94s GPU  (      27 calls)
     sum_band:buf :      0.28s CPU      0.31s WALL (    1350 calls)
                                        0.29s GPU  (    1350 calls)
     sum_band:ini :      0.56s CPU      0.55s WALL (    1350 calls)
                                        0.53s GPU  (    1350 calls)
     sum_band:cal :      0.05s CPU      0.08s WALL (    1350 calls)
                                        0.07s GPU  (    1350 calls)
     sum_band:bec :      0.30s CPU      0.32s WALL (    1350 calls)
                                        0.30s GPU  (    1350 calls)
     addusdens    :      0.93s CPU      0.94s WALL (      27 calls)
                                        0.94s GPU  (      27 calls)
     addusd:skk   :      0.00s CPU      0.01s WALL (      81 calls)
                                        0.00s GPU  (      81 calls)

     Called by *egterg:
     cdiaghg      :      5.36s CPU      5.54s WALL (    6234 calls)
                                        5.47s GPU  (    6234 calls)
     cegterg:over :      1.42s CPU      1.48s WALL (    4884 calls)
     cegterg:upda :      0.94s CPU      0.94s WALL (    4884 calls)
     cegterg:last :      0.18s CPU      0.18s WALL (    2603 calls)
     h_psi        :      5.81s CPU      5.82s WALL (    6284 calls)
                                        5.74s GPU  (    6284 calls)
     s_psi        :      0.95s CPU      1.00s WALL (    6284 calls)
     g_psi        :      0.02s CPU      0.12s WALL (    4884 calls)
                                        0.06s GPU  (    4884 calls)

     Called by h_psi:
     h_psi:calbec :      0.19s CPU      0.36s WALL (    6284 calls)
                                        0.28s GPU  (    6284 calls)
     vloc_psi     :      4.08s CPU      3.98s WALL (    6284 calls)
                                        3.90s GPU  (    6284 calls)
     add_vuspsi   :      0.86s CPU      1.03s WALL (    6284 calls)
                                        0.95s GPU  (    6284 calls)

     General routines
     calbec       :      0.20s CPU      0.24s WALL (    7834 calls)
     fft          :      3.90s CPU      0.68s WALL (     713 calls)
                                        0.02s GPU  (     657 calls)
     ffts         :      4.71s CPU      0.84s WALL (     110 calls)
                                        0.00s GPU  (      54 calls)
     fftw         :      0.39s CPU      1.44s WALL (   20842 calls)
                                        1.21s GPU  (   20842 calls)
     interpolate  :      8.85s CPU      1.54s WALL (      56 calls)
 
     Parallel routines

     PAW routines
     PAW_pot      :    122.31s CPU     15.32s WALL (      28 calls)
     PAW_symme    :      0.03s CPU      0.01s WALL (      55 calls)
 
     PWSCF        :   2m37.16s CPU     41.75s WALL

 
   This run was terminated on:   2:17:14  12Jul2026            

=------------------------------------------------------------------------------=
   JOB DONE.
=------------------------------------------------------------------------------=
Warning: ieee_divide_by_zero is signaling
Warning: ieee_inexact is signaling
FORTRAN STOP
