
     Program PWSCF v.7.3.1 starts on 12Jul2026 at  2:52:10 

     This program is part of the open-source Quantum ESPRESSO suite
     for quantum simulation of materials; please cite
         "P. Giannozzi et al., J. Phys.:Condens. Matter 21 395502 (2009);
         "P. Giannozzi et al., J. Phys.:Condens. Matter 29 465901 (2017);
         "P. Giannozzi et al., J. Chem. Phys. 152 154105 (2020);
          URL http://www.quantum-espresso.org", 
     in publications or presentations arising from this work. More details at
     http://www.quantum-espresso.org/quote

     Parallel version (MPI & OpenMP), running on      14 processor cores
     Number of MPI processes:                 1
     Threads/MPI process:                    14

     MPI processes distributed on     1 nodes
     837608 MiB available memory on the printing compute node when the environment starts
 
     Reading input from pw.in

     Current dimensions of program PWSCF are:
     Max number of different atomic species (ntypx) = 10
     Max number of k-points (npk) =  40000
     Max angular momentum in pseudopotentials (lmaxx) =  4
     file Co.pbe-spn-kjpaw_psl.0.3.1.UPF: wavefunction(s)  3P 3D renormalized
     file O.pbe-n-kjpaw_psl.1.0.0.UPF: wavefunction(s)  2S 2P renormalized
     file Na.pbe-spn-kjpaw_psl.1.0.0.UPF: wavefunction(s)  2P renormalized

     Atomic positions and unit cell read from directory:
     ../Na_1x1_c6.9_d0.75/out/pw.save/
 
 
     Subspace diagonalization in iterative solution of the eigenvalue problem:
     a serial algorithm will be used

 
     G-vector sticks info
     --------------------
     sticks:   dense  smooth     PW     G-vecs:    dense   smooth      PW
     Sum         979     499    151                59641    21167    3581
 
     Using Slab Decomposition
 


     bravais-lattice index     =            4
     lattice parameter (alat)  =       5.4575  a.u.
     unit-cell volume          =     336.3339 (a.u.)^3
     number of atoms/cell      =            4
     number of atomic types    =            3
     number of electrons       =        38.00
     number of Kohn-Sham states=           27
     kinetic-energy cutoff     =      60.0000  Ry
     charge density cutoff     =     480.0000  Ry
     Exchange-correlation= SLA  PW   PBX  PBC
                           (   1   4   3   4   0   0   0)

     GPU acceleration is ACTIVE.  1 visible GPUs per MPI rank
     GPU-aware MPI enabled


     GPU used by master process:

        Device Number: 0
        Device name: NVIDIA A100-SXM4-80GB
        Compute capability : 80
        Ratio of single to double precision performance  : 2
        Memory Clock Rate (KHz): 1593000
        Memory Bus Width (bits): 5120
        Peak Memory Bandwidth (GB/s): ******

     celldm(1)=   5.457529  celldm(2)=   0.000000  celldm(3)=   2.389197
     celldm(4)=   0.000000  celldm(5)=   0.000000  celldm(6)=   0.000000

     crystal axes: (cart. coord. in units of alat)
               a(1) = (   1.000000   0.000000   0.000000 )  
               a(2) = (  -0.500000   0.866025   0.000000 )  
               a(3) = (   0.000000   0.000000   2.389197 )  

     reciprocal axes: (cart. coord. in units 2 pi/alat)
               b(1) = (  1.000000  0.577350 -0.000000 )  
               b(2) = (  0.000000  1.154701  0.000000 )  
               b(3) = (  0.000000 -0.000000  0.418551 )  


     PseudoPot. # 1 for Co read from file:
     ../../pseudo/Co.pbe-spn-kjpaw_psl.0.3.1.UPF
     MD5 check sum: 3c0a43779828c046024e4f3be63f8e67
     Pseudo is Projector augmented-wave + core cor, Zval = 17.0
     Generated using &quot;atomic&quot; code by A. Dal Corso  v.6.2.2
     Shape of augmentation charge: PSQ
     Using radial grid of 1193 points,  6 beta functions with: 
                l(1) =   0
                l(2) =   0
                l(3) =   1
                l(4) =   1
                l(5) =   2
                l(6) =   2
     Q(r) pseudized with 0 coefficients 


     PseudoPot. # 2 for O  read from file:
     ../../pseudo/O.pbe-n-kjpaw_psl.1.0.0.UPF
     MD5 check sum: e99d9cef9b487d1ca56f5b95ecd0fd7a
     Pseudo is Projector augmented-wave + core cor, Zval =  6.0
     Generated using &quot;atomic&quot; code by A. Dal Corso  v.6.3
     Shape of augmentation charge: PSQ
     Using radial grid of 1095 points,  4 beta functions with: 
                l(1) =   0
                l(2) =   0
                l(3) =   1
                l(4) =   1
     Q(r) pseudized with 0 coefficients 


     PseudoPot. # 3 for Na read from file:
     ../../pseudo/Na.pbe-spn-kjpaw_psl.1.0.0.UPF
     MD5 check sum: 05b4deb74e3932c23ab016979dc8b5d4
     Pseudo is Projector augmented-wave + core cor, Zval =  9.0
     Generated using &quot;atomic&quot; code by A. Dal Corso  v.6.3
     Shape of augmentation charge: PSQ
     Using radial grid of 1121 points,  4 beta functions with: 
                l(1) =   0
                l(2) =   0
                l(3) =   1
                l(4) =   1
     Q(r) pseudized with 0 coefficients 


     atomic species   valence    mass     pseudopotential
     Co               17.00    58.93300     Co( 1.00)
     O                 6.00    15.99900     O ( 1.00)
     Na                9.00    22.98977     Na( 1.00)

     Starting magnetic structure 
     atomic species   magnetization
     Co              0.300
     O               0.000
     Na              0.000

      6 Sym. Ops. (no inversion) found


                                    s                        frac. trans.

      isym =  1     identity                                     

 cryst.   s( 1) = (     1          0          0      )
                  (     0          1          0      )
                  (     0          0          1      )

 cart.    s( 1) = (  1.0000000  0.0000000  0.0000000 )
                  (  0.0000000  1.0000000  0.0000000 )
                  (  0.0000000  0.0000000  1.0000000 )


      isym =  2     120 deg rotation - cryst. axis [0,0,1]       

 cryst.   s( 2) = (     0          1          0      )
                  (    -1         -1          0      )
                  (     0          0          1      )

 cart.    s( 2) = ( -0.5000000 -0.8660254  0.0000000 )
                  (  0.8660254 -0.5000000  0.0000000 )
                  (  0.0000000  0.0000000  1.0000000 )


      isym =  3     120 deg rotation - cryst. axis [0,0,-1]      

 cryst.   s( 3) = (    -1         -1          0      )
                  (     1          0          0      )
                  (     0          0          1      )

 cart.    s( 3) = ( -0.5000000  0.8660254  0.0000000 )
                  ( -0.8660254 -0.5000000  0.0000000 )
                  (  0.0000000  0.0000000  1.0000000 )


      isym =  4     inv. 180 deg rotation - cart. axis [1,0,0]   

 cryst.   s( 4) = (    -1          0          0      )
                  (     1          1          0      )
                  (     0          0          1      )

 cart.    s( 4) = ( -1.0000000  0.0000000  0.0000000 )
                  (  0.0000000  1.0000000  0.0000000 )
                  (  0.0000000  0.0000000  1.0000000 )


      isym =  5     inv. 180 deg rotation - cryst. axis [0,1,0]  

 cryst.   s( 5) = (     1          1          0      )
                  (     0         -1          0      )
                  (     0          0          1      )

 cart.    s( 5) = (  0.5000000  0.8660254  0.0000000 )
                  (  0.8660254 -0.5000000  0.0000000 )
                  (  0.0000000  0.0000000  1.0000000 )


      isym =  6     inv. 180 deg rotation - cryst. axis [1,1,0]  

 cryst.   s( 6) = (     0         -1          0      )
                  (    -1          0          0      )
                  (     0          0          1      )

 cart.    s( 6) = (  0.5000000 -0.8660254  0.0000000 )
                  ( -0.8660254 -0.5000000  0.0000000 )
                  (  0.0000000  0.0000000  1.0000000 )


     point group C_3v (3m)  
     there are  3 classes
     the character table:

       E     2C3   3s_v 
A_1    1.00  1.00  1.00
A_2    1.00  1.00 -1.00
E      2.00 -1.00  0.00

     the symmetry operations in each class and the name of the first element:

     E        1
          identity                                               
     2C3      2    3
          120 deg rotation - cryst. axis [0,0,1]                 
     3s_v     4    5    6
          inv. 180 deg rotation - cart. axis [1,0,0]             

   Cartesian axes

     site n.     atom                  positions (alat units)
         1        Co     tau(   1) = (   0.0000000   0.0000000   0.0000000  )
         2        O      tau(   2) = (  -0.0000000   0.5773503   0.3324100  )
         3        O      tau(   3) = (   0.5000000   0.2886751   2.0567867  )
         4        Na     tau(   4) = (   0.0000000   0.0000000   1.4542936  )

   Crystallographic axes

     site n.     atom                  positions (cryst. coord.)
         1        Co     tau(   1) = (  0.0000000  0.0000000  0.0000000  )
         2        O      tau(   2) = (  0.3333333  0.6666667  0.1391304  )
         3        O      tau(   3) = (  0.6666667  0.3333333  0.8608696  )
         4        Na     tau(   4) = (  0.0000000  0.0000000  0.6086957  )

     number of k points=   449  Marzari-Vanderbilt smearing, width (Ry)=  0.0200
                       cart. coord. in units 2pi/alat
        k(    1) = (   0.0000000   0.0000000   0.0000000), wk =   0.0002170
        k(    2) = (   0.0000000   0.0000000   0.0523188), wk =   0.0004340
        k(    3) = (   0.0000000   0.0000000   0.1046377), wk =   0.0004340
        k(    4) = (   0.0000000   0.0000000   0.1569565), wk =   0.0004340
        k(    5) = (   0.0000000   0.0000000  -0.2092754), wk =   0.0002170
        k(    6) = (   0.0000000   0.0481125   0.0000000), wk =   0.0013021
        k(    7) = (   0.0000000   0.0481125   0.0523188), wk =   0.0013021
        k(    8) = (   0.0000000   0.0481125   0.1046377), wk =   0.0013021
        k(    9) = (   0.0000000   0.0481125   0.1569565), wk =   0.0013021
        k(   10) = (   0.0000000   0.0481125  -0.2092754), wk =   0.0013021
        k(   11) = (   0.0000000   0.0962250   0.0000000), wk =   0.0013021
        k(   12) = (   0.0000000   0.0962250   0.0523188), wk =   0.0013021
        k(   13) = (   0.0000000   0.0962250   0.1046377), wk =   0.0013021
        k(   14) = (   0.0000000   0.0962250   0.1569565), wk =   0.0013021
        k(   15) = (   0.0000000   0.0962250  -0.2092754), wk =   0.0013021
        k(   16) = (   0.0000000   0.1443376   0.0000000), wk =   0.0013021
        k(   17) = (   0.0000000   0.1443376   0.0523188), wk =   0.0013021
        k(   18) = (   0.0000000   0.1443376   0.1046377), wk =   0.0013021
        k(   19) = (   0.0000000   0.1443376   0.1569565), wk =   0.0013021
        k(   20) = (   0.0000000   0.1443376  -0.2092754), wk =   0.0013021
        k(   21) = (   0.0000000   0.1924501   0.0000000), wk =   0.0013021
        k(   22) = (   0.0000000   0.1924501   0.0523188), wk =   0.0013021
        k(   23) = (   0.0000000   0.1924501   0.1046377), wk =   0.0013021
        k(   24) = (   0.0000000   0.1924501   0.1569565), wk =   0.0013021
        k(   25) = (   0.0000000   0.1924501  -0.2092754), wk =   0.0013021
        k(   26) = (   0.0000000   0.2405626   0.0000000), wk =   0.0013021
        k(   27) = (   0.0000000   0.2405626   0.0523188), wk =   0.0013021
        k(   28) = (   0.0000000   0.2405626   0.1046377), wk =   0.0013021
        k(   29) = (   0.0000000   0.2405626   0.1569565), wk =   0.0013021
        k(   30) = (   0.0000000   0.2405626  -0.2092754), wk =   0.0013021
        k(   31) = (   0.0000000   0.2886751   0.0000000), wk =   0.0013021
        k(   32) = (   0.0000000   0.2886751   0.0523188), wk =   0.0013021
        k(   33) = (   0.0000000   0.2886751   0.1046377), wk =   0.0013021
        k(   34) = (   0.0000000   0.2886751   0.1569565), wk =   0.0013021
        k(   35) = (   0.0000000   0.2886751  -0.2092754), wk =   0.0013021
        k(   36) = (   0.0000000   0.3367877   0.0000000), wk =   0.0013021
        k(   37) = (   0.0000000   0.3367877   0.0523188), wk =   0.0013021
        k(   38) = (   0.0000000   0.3367877   0.1046377), wk =   0.0013021
        k(   39) = (   0.0000000   0.3367877   0.1569565), wk =   0.0013021
        k(   40) = (   0.0000000   0.3367877  -0.2092754), wk =   0.0013021
        k(   41) = (   0.0000000   0.3849002   0.0000000), wk =   0.0013021
        k(   42) = (   0.0000000   0.3849002   0.0523188), wk =   0.0013021
        k(   43) = (   0.0000000   0.3849002   0.1046377), wk =   0.0013021
        k(   44) = (   0.0000000   0.3849002   0.1569565), wk =   0.0013021
        k(   45) = (   0.0000000   0.3849002  -0.2092754), wk =   0.0013021
        k(   46) = (   0.0000000   0.4330127   0.0000000), wk =   0.0013021
        k(   47) = (   0.0000000   0.4330127   0.0523188), wk =   0.0013021
        k(   48) = (   0.0000000   0.4330127   0.1046377), wk =   0.0013021
        k(   49) = (   0.0000000   0.4330127   0.1569565), wk =   0.0013021
        k(   50) = (   0.0000000   0.4330127  -0.2092754), wk =   0.0013021
        k(   51) = (   0.0000000   0.4811252   0.0000000), wk =   0.0013021
        k(   52) = (   0.0000000   0.4811252   0.0523188), wk =   0.0013021
        k(   53) = (   0.0000000   0.4811252   0.1046377), wk =   0.0013021
        k(   54) = (   0.0000000   0.4811252   0.1569565), wk =   0.0013021
        k(   55) = (   0.0000000   0.4811252  -0.2092754), wk =   0.0013021
        k(   56) = (   0.0000000   0.5292377   0.0000000), wk =   0.0013021
        k(   57) = (   0.0000000   0.5292377   0.0523188), wk =   0.0013021
        k(   58) = (   0.0000000   0.5292377   0.1046377), wk =   0.0013021
        k(   59) = (   0.0000000   0.5292377   0.1569565), wk =   0.0013021
        k(   60) = (   0.0000000   0.5292377  -0.2092754), wk =   0.0013021
        k(   61) = (   0.0000000  -0.5773503   0.0000000), wk =   0.0006510
        k(   62) = (   0.0000000  -0.5773503   0.0523188), wk =   0.0013021
        k(   63) = (   0.0000000  -0.5773503   0.1046377), wk =   0.0013021
        k(   64) = (   0.0000000  -0.5773503   0.1569565), wk =   0.0013021
        k(   65) = (   0.0000000  -0.5773503  -0.2092754), wk =   0.0006510
        k(   66) = (   0.0416667   0.0721688   0.0000000), wk =   0.0013021
        k(   67) = (   0.0416667   0.0721688   0.0523188), wk =   0.0026042
        k(   68) = (   0.0416667   0.0721688   0.1046377), wk =   0.0026042
        k(   69) = (   0.0416667   0.0721688   0.1569565), wk =   0.0026042
        k(   70) = (   0.0416667   0.0721688  -0.2092754), wk =   0.0013021
        k(   71) = (   0.0416667   0.1202813   0.0000000), wk =   0.0026042
        k(   72) = (   0.0416667   0.1202813   0.0523188), wk =   0.0026042
        k(   73) = (   0.0416667   0.1202813   0.1046377), wk =   0.0026042
        k(   74) = (   0.0416667   0.1202813   0.1569565), wk =   0.0026042
        k(   75) = (   0.0416667   0.1202813  -0.2092754), wk =   0.0026042
        k(   76) = (   0.0416667   0.1683938   0.0000000), wk =   0.0026042
        k(   77) = (   0.0416667   0.1683938   0.0523188), wk =   0.0026042
        k(   78) = (   0.0416667   0.1683938   0.1046377), wk =   0.0026042
        k(   79) = (   0.0416667   0.1683938   0.1569565), wk =   0.0026042
        k(   80) = (   0.0416667   0.1683938  -0.2092754), wk =   0.0026042
        k(   81) = (   0.0416667   0.2165064   0.0000000), wk =   0.0026042
        k(   82) = (   0.0416667   0.2165064   0.0523188), wk =   0.0026042
        k(   83) = (   0.0416667   0.2165064   0.1046377), wk =   0.0026042
        k(   84) = (   0.0416667   0.2165064   0.1569565), wk =   0.0026042
        k(   85) = (   0.0416667   0.2165064  -0.2092754), wk =   0.0026042
        k(   86) = (   0.0416667   0.2646189   0.0000000), wk =   0.0026042
        k(   87) = (   0.0416667   0.2646189   0.0523188), wk =   0.0026042
        k(   88) = (   0.0416667   0.2646189   0.1046377), wk =   0.0026042
        k(   89) = (   0.0416667   0.2646189   0.1569565), wk =   0.0026042
        k(   90) = (   0.0416667   0.2646189  -0.2092754), wk =   0.0026042
        k(   91) = (   0.0416667   0.3127314   0.0000000), wk =   0.0026042
        k(   92) = (   0.0416667   0.3127314   0.0523188), wk =   0.0026042
        k(   93) = (   0.0416667   0.3127314   0.1046377), wk =   0.0026042
        k(   94) = (   0.0416667   0.3127314   0.1569565), wk =   0.0026042
        k(   95) = (   0.0416667   0.3127314  -0.2092754), wk =   0.0026042
        k(   96) = (   0.0416667   0.3608439   0.0000000), wk =   0.0026042
        k(   97) = (   0.0416667   0.3608439   0.0523188), wk =   0.0026042
        k(   98) = (   0.0416667   0.3608439   0.1046377), wk =   0.0026042
        k(   99) = (   0.0416667   0.3608439   0.1569565), wk =   0.0026042
        k(  100) = (   0.0416667   0.3608439  -0.2092754), wk =   0.0026042
        k(  101) = (   0.0416667   0.4089564   0.0000000), wk =   0.0026042
        k(  102) = (   0.0416667   0.4089564   0.0523188), wk =   0.0026042
        k(  103) = (   0.0416667   0.4089564   0.1046377), wk =   0.0026042
        k(  104) = (   0.0416667   0.4089564   0.1569565), wk =   0.0026042
        k(  105) = (   0.0416667   0.4089564  -0.2092754), wk =   0.0026042
        k(  106) = (   0.0416667   0.4570690   0.0000000), wk =   0.0026042
        k(  107) = (   0.0416667   0.4570690   0.0523188), wk =   0.0026042
        k(  108) = (   0.0416667   0.4570690   0.1046377), wk =   0.0026042
        k(  109) = (   0.0416667   0.4570690   0.1569565), wk =   0.0026042
        k(  110) = (   0.0416667   0.4570690  -0.2092754), wk =   0.0026042
        k(  111) = (   0.0416667   0.5051815   0.0000000), wk =   0.0026042
        k(  112) = (   0.0416667   0.5051815   0.0523188), wk =   0.0026042
        k(  113) = (   0.0416667   0.5051815   0.1046377), wk =   0.0026042
        k(  114) = (   0.0416667   0.5051815   0.1569565), wk =   0.0026042
        k(  115) = (   0.0416667   0.5051815  -0.2092754), wk =   0.0026042
        k(  116) = (   0.0416667   0.5532940   0.0000000), wk =   0.0026042
        k(  117) = (   0.0416667   0.5532940   0.0523188), wk =   0.0026042
        k(  118) = (   0.0416667   0.5532940   0.1046377), wk =   0.0026042
        k(  119) = (   0.0416667   0.5532940   0.1569565), wk =   0.0026042
        k(  120) = (   0.0416667   0.5532940  -0.2092754), wk =   0.0026042
        k(  121) = (   0.0833333   0.1443376   0.0000000), wk =   0.0013021
        k(  122) = (   0.0833333   0.1443376   0.0523188), wk =   0.0026042
        k(  123) = (   0.0833333   0.1443376   0.1046377), wk =   0.0026042
        k(  124) = (   0.0833333   0.1443376   0.1569565), wk =   0.0026042
        k(  125) = (   0.0833333   0.1443376  -0.2092754), wk =   0.0013021
        k(  126) = (   0.0833333   0.1924501   0.0000000), wk =   0.0026042
        k(  127) = (   0.0833333   0.1924501   0.0523188), wk =   0.0026042
        k(  128) = (   0.0833333   0.1924501   0.1046377), wk =   0.0026042
        k(  129) = (   0.0833333   0.1924501   0.1569565), wk =   0.0026042
        k(  130) = (   0.0833333   0.1924501  -0.2092754), wk =   0.0026042
        k(  131) = (   0.0833333   0.2405626   0.0000000), wk =   0.0026042
        k(  132) = (   0.0833333   0.2405626   0.0523188), wk =   0.0026042
        k(  133) = (   0.0833333   0.2405626   0.1046377), wk =   0.0026042
        k(  134) = (   0.0833333   0.2405626   0.1569565), wk =   0.0026042
        k(  135) = (   0.0833333   0.2405626  -0.2092754), wk =   0.0026042
        k(  136) = (   0.0833333   0.2886751   0.0000000), wk =   0.0026042
        k(  137) = (   0.0833333   0.2886751   0.0523188), wk =   0.0026042
        k(  138) = (   0.0833333   0.2886751   0.1046377), wk =   0.0026042
        k(  139) = (   0.0833333   0.2886751   0.1569565), wk =   0.0026042
        k(  140) = (   0.0833333   0.2886751  -0.2092754), wk =   0.0026042
        k(  141) = (   0.0833333   0.3367877   0.0000000), wk =   0.0026042
        k(  142) = (   0.0833333   0.3367877   0.0523188), wk =   0.0026042
        k(  143) = (   0.0833333   0.3367877   0.1046377), wk =   0.0026042
        k(  144) = (   0.0833333   0.3367877   0.1569565), wk =   0.0026042
        k(  145) = (   0.0833333   0.3367877  -0.2092754), wk =   0.0026042
        k(  146) = (   0.0833333   0.3849002   0.0000000), wk =   0.0026042
        k(  147) = (   0.0833333   0.3849002   0.0523188), wk =   0.0026042
        k(  148) = (   0.0833333   0.3849002   0.1046377), wk =   0.0026042
        k(  149) = (   0.0833333   0.3849002   0.1569565), wk =   0.0026042
        k(  150) = (   0.0833333   0.3849002  -0.2092754), wk =   0.0026042
        k(  151) = (   0.0833333   0.4330127   0.0000000), wk =   0.0026042
        k(  152) = (   0.0833333   0.4330127   0.0523188), wk =   0.0026042
        k(  153) = (   0.0833333   0.4330127   0.1046377), wk =   0.0026042
        k(  154) = (   0.0833333   0.4330127   0.1569565), wk =   0.0026042
        k(  155) = (   0.0833333   0.4330127  -0.2092754), wk =   0.0026042
        k(  156) = (   0.0833333   0.4811252   0.0000000), wk =   0.0026042
        k(  157) = (   0.0833333   0.4811252   0.0523188), wk =   0.0026042
        k(  158) = (   0.0833333   0.4811252   0.1046377), wk =   0.0026042
        k(  159) = (   0.0833333   0.4811252   0.1569565), wk =   0.0026042
        k(  160) = (   0.0833333   0.4811252  -0.2092754), wk =   0.0026042
        k(  161) = (   0.0833333   0.5292377   0.0000000), wk =   0.0026042
        k(  162) = (   0.0833333   0.5292377   0.0523188), wk =   0.0026042
        k(  163) = (   0.0833333   0.5292377   0.1046377), wk =   0.0026042
        k(  164) = (   0.0833333   0.5292377   0.1569565), wk =   0.0026042
        k(  165) = (   0.0833333   0.5292377  -0.2092754), wk =   0.0026042
        k(  166) = (   0.0833333   0.5773503   0.0000000), wk =   0.0013021
        k(  167) = (   0.0833333   0.5773503   0.0523188), wk =   0.0026042
        k(  168) = (   0.0833333   0.5773503   0.1046377), wk =   0.0026042
        k(  169) = (   0.0833333   0.5773503   0.1569565), wk =   0.0026042
        k(  170) = (   0.0833333   0.5773503  -0.2092754), wk =   0.0013021
        k(  171) = (   0.1250000   0.2165064   0.0000000), wk =   0.0013021
        k(  172) = (   0.1250000   0.2165064   0.0523188), wk =   0.0026042
        k(  173) = (   0.1250000   0.2165064   0.1046377), wk =   0.0026042
        k(  174) = (   0.1250000   0.2165064   0.1569565), wk =   0.0026042
        k(  175) = (   0.1250000   0.2165064  -0.2092754), wk =   0.0013021
        k(  176) = (   0.1250000   0.2646189   0.0000000), wk =   0.0026042
        k(  177) = (   0.1250000   0.2646189   0.0523188), wk =   0.0026042
        k(  178) = (   0.1250000   0.2646189   0.1046377), wk =   0.0026042
        k(  179) = (   0.1250000   0.2646189   0.1569565), wk =   0.0026042
        k(  180) = (   0.1250000   0.2646189  -0.2092754), wk =   0.0026042
        k(  181) = (   0.1250000   0.3127314   0.0000000), wk =   0.0026042
        k(  182) = (   0.1250000   0.3127314   0.0523188), wk =   0.0026042
        k(  183) = (   0.1250000   0.3127314   0.1046377), wk =   0.0026042
        k(  184) = (   0.1250000   0.3127314   0.1569565), wk =   0.0026042
        k(  185) = (   0.1250000   0.3127314  -0.2092754), wk =   0.0026042
        k(  186) = (   0.1250000   0.3608439   0.0000000), wk =   0.0026042
        k(  187) = (   0.1250000   0.3608439   0.0523188), wk =   0.0026042
        k(  188) = (   0.1250000   0.3608439   0.1046377), wk =   0.0026042
        k(  189) = (   0.1250000   0.3608439   0.1569565), wk =   0.0026042
        k(  190) = (   0.1250000   0.3608439  -0.2092754), wk =   0.0026042
        k(  191) = (   0.1250000   0.4089564   0.0000000), wk =   0.0026042
        k(  192) = (   0.1250000   0.4089564   0.0523188), wk =   0.0026042
        k(  193) = (   0.1250000   0.4089564   0.1046377), wk =   0.0026042
        k(  194) = (   0.1250000   0.4089564   0.1569565), wk =   0.0026042
        k(  195) = (   0.1250000   0.4089564  -0.2092754), wk =   0.0026042
        k(  196) = (   0.1250000   0.4570690   0.0000000), wk =   0.0026042
        k(  197) = (   0.1250000   0.4570690   0.0523188), wk =   0.0026042
        k(  198) = (   0.1250000   0.4570690   0.1046377), wk =   0.0026042
        k(  199) = (   0.1250000   0.4570690   0.1569565), wk =   0.0026042
        k(  200) = (   0.1250000   0.4570690  -0.2092754), wk =   0.0026042
        k(  201) = (   0.1250000   0.5051815   0.0000000), wk =   0.0026042
        k(  202) = (   0.1250000   0.5051815   0.0523188), wk =   0.0026042
        k(  203) = (   0.1250000   0.5051815   0.1046377), wk =   0.0026042
        k(  204) = (   0.1250000   0.5051815   0.1569565), wk =   0.0026042
        k(  205) = (   0.1250000   0.5051815  -0.2092754), wk =   0.0026042
        k(  206) = (   0.1250000   0.5532940   0.0000000), wk =   0.0026042
        k(  207) = (   0.1250000   0.5532940   0.0523188), wk =   0.0026042
        k(  208) = (   0.1250000   0.5532940   0.1046377), wk =   0.0026042
        k(  209) = (   0.1250000   0.5532940   0.1569565), wk =   0.0026042
        k(  210) = (   0.1250000   0.5532940  -0.2092754), wk =   0.0026042
        k(  211) = (   0.1666667   0.2886751   0.0000000), wk =   0.0013021
        k(  212) = (   0.1666667   0.2886751   0.0523188), wk =   0.0026042
        k(  213) = (   0.1666667   0.2886751   0.1046377), wk =   0.0026042
        k(  214) = (   0.1666667   0.2886751   0.1569565), wk =   0.0026042
        k(  215) = (   0.1666667   0.2886751  -0.2092754), wk =   0.0013021
        k(  216) = (   0.1666667   0.3367877   0.0000000), wk =   0.0026042
        k(  217) = (   0.1666667   0.3367877   0.0523188), wk =   0.0026042
        k(  218) = (   0.1666667   0.3367877   0.1046377), wk =   0.0026042
        k(  219) = (   0.1666667   0.3367877   0.1569565), wk =   0.0026042
        k(  220) = (   0.1666667   0.3367877  -0.2092754), wk =   0.0026042
        k(  221) = (   0.1666667   0.3849002   0.0000000), wk =   0.0026042
        k(  222) = (   0.1666667   0.3849002   0.0523188), wk =   0.0026042
        k(  223) = (   0.1666667   0.3849002   0.1046377), wk =   0.0026042
        k(  224) = (   0.1666667   0.3849002   0.1569565), wk =   0.0026042
        k(  225) = (   0.1666667   0.3849002  -0.2092754), wk =   0.0026042
        k(  226) = (   0.1666667   0.4330127   0.0000000), wk =   0.0026042
        k(  227) = (   0.1666667   0.4330127   0.0523188), wk =   0.0026042
        k(  228) = (   0.1666667   0.4330127   0.1046377), wk =   0.0026042
        k(  229) = (   0.1666667   0.4330127   0.1569565), wk =   0.0026042
        k(  230) = (   0.1666667   0.4330127  -0.2092754), wk =   0.0026042
        k(  231) = (   0.1666667   0.4811252   0.0000000), wk =   0.0026042
        k(  232) = (   0.1666667   0.4811252   0.0523188), wk =   0.0026042
        k(  233) = (   0.1666667   0.4811252   0.1046377), wk =   0.0026042
        k(  234) = (   0.1666667   0.4811252   0.1569565), wk =   0.0026042
        k(  235) = (   0.1666667   0.4811252  -0.2092754), wk =   0.0026042
        k(  236) = (   0.1666667   0.5292377   0.0000000), wk =   0.0026042
        k(  237) = (   0.1666667   0.5292377   0.0523188), wk =   0.0026042
        k(  238) = (   0.1666667   0.5292377   0.1046377), wk =   0.0026042
        k(  239) = (   0.1666667   0.5292377   0.1569565), wk =   0.0026042
        k(  240) = (   0.1666667   0.5292377  -0.2092754), wk =   0.0026042
        k(  241) = (   0.1666667   0.5773503   0.0000000), wk =   0.0013021
        k(  242) = (   0.1666667   0.5773503   0.0523188), wk =   0.0026042
        k(  243) = (   0.1666667   0.5773503   0.1046377), wk =   0.0026042
        k(  244) = (   0.1666667   0.5773503   0.1569565), wk =   0.0026042
        k(  245) = (   0.1666667   0.5773503  -0.2092754), wk =   0.0013021
        k(  246) = (   0.2083333   0.3608439   0.0000000), wk =   0.0013021
        k(  247) = (   0.2083333   0.3608439   0.0523188), wk =   0.0026042
        k(  248) = (   0.2083333   0.3608439   0.1046377), wk =   0.0026042
        k(  249) = (   0.2083333   0.3608439   0.1569565), wk =   0.0026042
        k(  250) = (   0.2083333   0.3608439  -0.2092754), wk =   0.0013021
        k(  251) = (   0.2083333   0.4089564   0.0000000), wk =   0.0026042
        k(  252) = (   0.2083333   0.4089564   0.0523188), wk =   0.0026042
        k(  253) = (   0.2083333   0.4089564   0.1046377), wk =   0.0026042
        k(  254) = (   0.2083333   0.4089564   0.1569565), wk =   0.0026042
        k(  255) = (   0.2083333   0.4089564  -0.2092754), wk =   0.0026042
        k(  256) = (   0.2083333   0.4570690   0.0000000), wk =   0.0026042
        k(  257) = (   0.2083333   0.4570690   0.0523188), wk =   0.0026042
        k(  258) = (   0.2083333   0.4570690   0.1046377), wk =   0.0026042
        k(  259) = (   0.2083333   0.4570690   0.1569565), wk =   0.0026042
        k(  260) = (   0.2083333   0.4570690  -0.2092754), wk =   0.0026042
        k(  261) = (   0.2083333   0.5051815   0.0000000), wk =   0.0026042
        k(  262) = (   0.2083333   0.5051815   0.0523188), wk =   0.0026042
        k(  263) = (   0.2083333   0.5051815   0.1046377), wk =   0.0026042
        k(  264) = (   0.2083333   0.5051815   0.1569565), wk =   0.0026042
        k(  265) = (   0.2083333   0.5051815  -0.2092754), wk =   0.0026042
        k(  266) = (   0.2083333   0.5532940   0.0000000), wk =   0.0026042
        k(  267) = (   0.2083333   0.5532940   0.0523188), wk =   0.0026042
        k(  268) = (   0.2083333   0.5532940   0.1046377), wk =   0.0026042
        k(  269) = (   0.2083333   0.5532940   0.1569565), wk =   0.0026042
        k(  270) = (   0.2083333   0.5532940  -0.2092754), wk =   0.0026042
        k(  271) = (   0.2500000   0.4330127   0.0000000), wk =   0.0013021
        k(  272) = (   0.2500000   0.4330127   0.0523188), wk =   0.0026042
        k(  273) = (   0.2500000   0.4330127   0.1046377), wk =   0.0026042
        k(  274) = (   0.2500000   0.4330127   0.1569565), wk =   0.0026042
        k(  275) = (   0.2500000   0.4330127  -0.2092754), wk =   0.0013021
        k(  276) = (   0.2500000   0.4811252   0.0000000), wk =   0.0026042
        k(  277) = (   0.2500000   0.4811252   0.0523188), wk =   0.0026042
        k(  278) = (   0.2500000   0.4811252   0.1046377), wk =   0.0026042
        k(  279) = (   0.2500000   0.4811252   0.1569565), wk =   0.0026042
        k(  280) = (   0.2500000   0.4811252  -0.2092754), wk =   0.0026042
        k(  281) = (   0.2500000   0.5292377   0.0000000), wk =   0.0026042
        k(  282) = (   0.2500000   0.5292377   0.0523188), wk =   0.0026042
        k(  283) = (   0.2500000   0.5292377   0.1046377), wk =   0.0026042
        k(  284) = (   0.2500000   0.5292377   0.1569565), wk =   0.0026042
        k(  285) = (   0.2500000   0.5292377  -0.2092754), wk =   0.0026042
        k(  286) = (   0.2500000   0.5773503   0.0000000), wk =   0.0013021
        k(  287) = (   0.2500000   0.5773503   0.0523188), wk =   0.0026042
        k(  288) = (   0.2500000   0.5773503   0.1046377), wk =   0.0026042
        k(  289) = (   0.2500000   0.5773503   0.1569565), wk =   0.0026042
        k(  290) = (   0.2500000   0.5773503  -0.2092754), wk =   0.0013021
        k(  291) = (   0.2916667   0.5051815   0.0000000), wk =   0.0013021
        k(  292) = (   0.2916667   0.5051815   0.0523188), wk =   0.0026042
        k(  293) = (   0.2916667   0.5051815   0.1046377), wk =   0.0026042
        k(  294) = (   0.2916667   0.5051815   0.1569565), wk =   0.0026042
        k(  295) = (   0.2916667   0.5051815  -0.2092754), wk =   0.0013021
        k(  296) = (   0.2916667   0.5532940   0.0000000), wk =   0.0026042
        k(  297) = (   0.2916667   0.5532940   0.0523188), wk =   0.0026042
        k(  298) = (   0.2916667   0.5532940   0.1046377), wk =   0.0026042
        k(  299) = (   0.2916667   0.5532940   0.1569565), wk =   0.0026042
        k(  300) = (   0.2916667   0.5532940  -0.2092754), wk =   0.0026042
        k(  301) = (   0.3333333   0.5773503   0.0000000), wk =   0.0004340
        k(  302) = (   0.3333333   0.5773503   0.0523188), wk =   0.0008681
        k(  303) = (   0.3333333   0.5773503   0.1046377), wk =   0.0008681
        k(  304) = (   0.3333333   0.5773503   0.1569565), wk =   0.0008681
        k(  305) = (   0.3333333   0.5773503  -0.2092754), wk =   0.0004340
        k(  306) = (   0.0000000  -0.0481125   0.0523188), wk =   0.0013021
        k(  307) = (   0.0000000  -0.0481125   0.1046377), wk =   0.0013021
        k(  308) = (   0.0000000  -0.0481125   0.1569565), wk =   0.0013021
        k(  309) = (   0.0000000  -0.0962250   0.0523188), wk =   0.0013021
        k(  310) = (   0.0000000  -0.0962250   0.1046377), wk =   0.0013021
        k(  311) = (   0.0000000  -0.0962250   0.1569565), wk =   0.0013021
        k(  312) = (   0.0000000  -0.1443376   0.0523188), wk =   0.0013021
        k(  313) = (   0.0000000  -0.1443376   0.1046377), wk =   0.0013021
        k(  314) = (   0.0000000  -0.1443376   0.1569565), wk =   0.0013021
        k(  315) = (   0.0000000  -0.1924501   0.0523188), wk =   0.0013021
        k(  316) = (   0.0000000  -0.1924501   0.1046377), wk =   0.0013021
        k(  317) = (   0.0000000  -0.1924501   0.1569565), wk =   0.0013021
        k(  318) = (   0.0000000  -0.2405626   0.0523188), wk =   0.0013021
        k(  319) = (   0.0000000  -0.2405626   0.1046377), wk =   0.0013021
        k(  320) = (   0.0000000  -0.2405626   0.1569565), wk =   0.0013021
        k(  321) = (   0.0000000  -0.2886751   0.0523188), wk =   0.0013021
        k(  322) = (   0.0000000  -0.2886751   0.1046377), wk =   0.0013021
        k(  323) = (   0.0000000  -0.2886751   0.1569565), wk =   0.0013021
        k(  324) = (   0.0000000  -0.3367877   0.0523188), wk =   0.0013021
        k(  325) = (   0.0000000  -0.3367877   0.1046377), wk =   0.0013021
        k(  326) = (   0.0000000  -0.3367877   0.1569565), wk =   0.0013021
        k(  327) = (   0.0000000  -0.3849002   0.0523188), wk =   0.0013021
        k(  328) = (   0.0000000  -0.3849002   0.1046377), wk =   0.0013021
        k(  329) = (   0.0000000  -0.3849002   0.1569565), wk =   0.0013021
        k(  330) = (   0.0000000  -0.4330127   0.0523188), wk =   0.0013021
        k(  331) = (   0.0000000  -0.4330127   0.1046377), wk =   0.0013021
        k(  332) = (   0.0000000  -0.4330127   0.1569565), wk =   0.0013021
        k(  333) = (   0.0000000  -0.4811252   0.0523188), wk =   0.0013021
        k(  334) = (   0.0000000  -0.4811252   0.1046377), wk =   0.0013021
        k(  335) = (   0.0000000  -0.4811252   0.1569565), wk =   0.0013021
        k(  336) = (   0.0000000  -0.5292377   0.0523188), wk =   0.0013021
        k(  337) = (   0.0000000  -0.5292377   0.1046377), wk =   0.0013021
        k(  338) = (   0.0000000  -0.5292377   0.1569565), wk =   0.0013021
        k(  339) = (  -0.0416667  -0.1202813   0.0523188), wk =   0.0026042
        k(  340) = (  -0.0416667  -0.1202813   0.1046377), wk =   0.0026042
        k(  341) = (  -0.0416667  -0.1202813   0.1569565), wk =   0.0026042
        k(  342) = (  -0.0416667  -0.1683938   0.0523188), wk =   0.0026042
        k(  343) = (  -0.0416667  -0.1683938   0.1046377), wk =   0.0026042
        k(  344) = (  -0.0416667  -0.1683938   0.1569565), wk =   0.0026042
        k(  345) = (  -0.0416667  -0.2165064   0.0523188), wk =   0.0026042
        k(  346) = (  -0.0416667  -0.2165064   0.1046377), wk =   0.0026042
        k(  347) = (  -0.0416667  -0.2165064   0.1569565), wk =   0.0026042
        k(  348) = (  -0.0416667  -0.2646189   0.0523188), wk =   0.0026042
        k(  349) = (  -0.0416667  -0.2646189   0.1046377), wk =   0.0026042
        k(  350) = (  -0.0416667  -0.2646189   0.1569565), wk =   0.0026042
        k(  351) = (  -0.0416667  -0.3127314   0.0523188), wk =   0.0026042
        k(  352) = (  -0.0416667  -0.3127314   0.1046377), wk =   0.0026042
        k(  353) = (  -0.0416667  -0.3127314   0.1569565), wk =   0.0026042
        k(  354) = (  -0.0416667  -0.3608439   0.0523188), wk =   0.0026042
        k(  355) = (  -0.0416667  -0.3608439   0.1046377), wk =   0.0026042
        k(  356) = (  -0.0416667  -0.3608439   0.1569565), wk =   0.0026042
        k(  357) = (  -0.0416667  -0.4089564   0.0523188), wk =   0.0026042
        k(  358) = (  -0.0416667  -0.4089564   0.1046377), wk =   0.0026042
        k(  359) = (  -0.0416667  -0.4089564   0.1569565), wk =   0.0026042
        k(  360) = (  -0.0416667  -0.4570690   0.0523188), wk =   0.0026042
        k(  361) = (  -0.0416667  -0.4570690   0.1046377), wk =   0.0026042
        k(  362) = (  -0.0416667  -0.4570690   0.1569565), wk =   0.0026042
        k(  363) = (  -0.0416667  -0.5051815   0.0523188), wk =   0.0026042
        k(  364) = (  -0.0416667  -0.5051815   0.1046377), wk =   0.0026042
        k(  365) = (  -0.0416667  -0.5051815   0.1569565), wk =   0.0026042
        k(  366) = (  -0.0416667  -0.5532940   0.0523188), wk =   0.0026042
        k(  367) = (  -0.0416667  -0.5532940   0.1046377), wk =   0.0026042
        k(  368) = (  -0.0416667  -0.5532940   0.1569565), wk =   0.0026042
        k(  369) = (  -0.0833333  -0.1924501   0.0523188), wk =   0.0026042
        k(  370) = (  -0.0833333  -0.1924501   0.1046377), wk =   0.0026042
        k(  371) = (  -0.0833333  -0.1924501   0.1569565), wk =   0.0026042
        k(  372) = (  -0.0833333  -0.2405626   0.0523188), wk =   0.0026042
        k(  373) = (  -0.0833333  -0.2405626   0.1046377), wk =   0.0026042
        k(  374) = (  -0.0833333  -0.2405626   0.1569565), wk =   0.0026042
        k(  375) = (  -0.0833333  -0.2886751   0.0523188), wk =   0.0026042
        k(  376) = (  -0.0833333  -0.2886751   0.1046377), wk =   0.0026042
        k(  377) = (  -0.0833333  -0.2886751   0.1569565), wk =   0.0026042
        k(  378) = (  -0.0833333  -0.3367877   0.0523188), wk =   0.0026042
        k(  379) = (  -0.0833333  -0.3367877   0.1046377), wk =   0.0026042
        k(  380) = (  -0.0833333  -0.3367877   0.1569565), wk =   0.0026042
        k(  381) = (  -0.0833333  -0.3849002   0.0523188), wk =   0.0026042
        k(  382) = (  -0.0833333  -0.3849002   0.1046377), wk =   0.0026042
        k(  383) = (  -0.0833333  -0.3849002   0.1569565), wk =   0.0026042
        k(  384) = (  -0.0833333  -0.4330127   0.0523188), wk =   0.0026042
        k(  385) = (  -0.0833333  -0.4330127   0.1046377), wk =   0.0026042
        k(  386) = (  -0.0833333  -0.4330127   0.1569565), wk =   0.0026042
        k(  387) = (  -0.0833333  -0.4811252   0.0523188), wk =   0.0026042
        k(  388) = (  -0.0833333  -0.4811252   0.1046377), wk =   0.0026042
        k(  389) = (  -0.0833333  -0.4811252   0.1569565), wk =   0.0026042
        k(  390) = (  -0.0833333  -0.5292377   0.0523188), wk =   0.0026042
        k(  391) = (  -0.0833333  -0.5292377   0.1046377), wk =   0.0026042
        k(  392) = (  -0.0833333  -0.5292377   0.1569565), wk =   0.0026042
        k(  393) = (  -0.1250000  -0.2646189   0.0523188), wk =   0.0026042
        k(  394) = (  -0.1250000  -0.2646189   0.1046377), wk =   0.0026042
        k(  395) = (  -0.1250000  -0.2646189   0.1569565), wk =   0.0026042
        k(  396) = (  -0.1250000  -0.3127314   0.0523188), wk =   0.0026042
        k(  397) = (  -0.1250000  -0.3127314   0.1046377), wk =   0.0026042
        k(  398) = (  -0.1250000  -0.3127314   0.1569565), wk =   0.0026042
        k(  399) = (  -0.1250000  -0.3608439   0.0523188), wk =   0.0026042
        k(  400) = (  -0.1250000  -0.3608439   0.1046377), wk =   0.0026042
        k(  401) = (  -0.1250000  -0.3608439   0.1569565), wk =   0.0026042
        k(  402) = (  -0.1250000  -0.4089564   0.0523188), wk =   0.0026042
        k(  403) = (  -0.1250000  -0.4089564   0.1046377), wk =   0.0026042
        k(  404) = (  -0.1250000  -0.4089564   0.1569565), wk =   0.0026042
        k(  405) = (  -0.1250000  -0.4570690   0.0523188), wk =   0.0026042
        k(  406) = (  -0.1250000  -0.4570690   0.1046377), wk =   0.0026042
        k(  407) = (  -0.1250000  -0.4570690   0.1569565), wk =   0.0026042
        k(  408) = (  -0.1250000  -0.5051815   0.0523188), wk =   0.0026042
        k(  409) = (  -0.1250000  -0.5051815   0.1046377), wk =   0.0026042
        k(  410) = (  -0.1250000  -0.5051815   0.1569565), wk =   0.0026042
        k(  411) = (  -0.1250000  -0.5532940   0.0523188), wk =   0.0026042
        k(  412) = (  -0.1250000  -0.5532940   0.1046377), wk =   0.0026042
        k(  413) = (  -0.1250000  -0.5532940   0.1569565), wk =   0.0026042
        k(  414) = (  -0.1666667  -0.3367877   0.0523188), wk =   0.0026042
        k(  415) = (  -0.1666667  -0.3367877   0.1046377), wk =   0.0026042
        k(  416) = (  -0.1666667  -0.3367877   0.1569565), wk =   0.0026042
        k(  417) = (  -0.1666667  -0.3849002   0.0523188), wk =   0.0026042
        k(  418) = (  -0.1666667  -0.3849002   0.1046377), wk =   0.0026042
        k(  419) = (  -0.1666667  -0.3849002   0.1569565), wk =   0.0026042
        k(  420) = (  -0.1666667  -0.4330127   0.0523188), wk =   0.0026042
        k(  421) = (  -0.1666667  -0.4330127   0.1046377), wk =   0.0026042
        k(  422) = (  -0.1666667  -0.4330127   0.1569565), wk =   0.0026042
        k(  423) = (  -0.1666667  -0.4811252   0.0523188), wk =   0.0026042
        k(  424) = (  -0.1666667  -0.4811252   0.1046377), wk =   0.0026042
        k(  425) = (  -0.1666667  -0.4811252   0.1569565), wk =   0.0026042
        k(  426) = (  -0.1666667  -0.5292377   0.0523188), wk =   0.0026042
        k(  427) = (  -0.1666667  -0.5292377   0.1046377), wk =   0.0026042
        k(  428) = (  -0.1666667  -0.5292377   0.1569565), wk =   0.0026042
        k(  429) = (  -0.2083333  -0.4089564   0.0523188), wk =   0.0026042
        k(  430) = (  -0.2083333  -0.4089564   0.1046377), wk =   0.0026042
        k(  431) = (  -0.2083333  -0.4089564   0.1569565), wk =   0.0026042
        k(  432) = (  -0.2083333  -0.4570690   0.0523188), wk =   0.0026042
        k(  433) = (  -0.2083333  -0.4570690   0.1046377), wk =   0.0026042
        k(  434) = (  -0.2083333  -0.4570690   0.1569565), wk =   0.0026042
        k(  435) = (  -0.2083333  -0.5051815   0.0523188), wk =   0.0026042
        k(  436) = (  -0.2083333  -0.5051815   0.1046377), wk =   0.0026042
        k(  437) = (  -0.2083333  -0.5051815   0.1569565), wk =   0.0026042
        k(  438) = (  -0.2083333  -0.5532940   0.0523188), wk =   0.0026042
        k(  439) = (  -0.2083333  -0.5532940   0.1046377), wk =   0.0026042
        k(  440) = (  -0.2083333  -0.5532940   0.1569565), wk =   0.0026042
        k(  441) = (  -0.2500000  -0.4811252   0.0523188), wk =   0.0026042
        k(  442) = (  -0.2500000  -0.4811252   0.1046377), wk =   0.0026042
        k(  443) = (  -0.2500000  -0.4811252   0.1569565), wk =   0.0026042
        k(  444) = (  -0.2500000  -0.5292377   0.0523188), wk =   0.0026042
        k(  445) = (  -0.2500000  -0.5292377   0.1046377), wk =   0.0026042
        k(  446) = (  -0.2500000  -0.5292377   0.1569565), wk =   0.0026042
        k(  447) = (  -0.2916667  -0.5532940   0.0523188), wk =   0.0026042
        k(  448) = (  -0.2916667  -0.5532940   0.1046377), wk =   0.0026042
        k(  449) = (  -0.2916667  -0.5532940   0.1569565), wk =   0.0026042

                       cryst. coord.
        k(    1) = (   0.0000000   0.0000000   0.0000000), wk =   0.0002170
        k(    2) = (   0.0000000   0.0000000   0.1250000), wk =   0.0004340
        k(    3) = (   0.0000000   0.0000000   0.2500000), wk =   0.0004340
        k(    4) = (   0.0000000   0.0000000   0.3750000), wk =   0.0004340
        k(    5) = (   0.0000000   0.0000000  -0.5000000), wk =   0.0002170
        k(    6) = (   0.0000000   0.0416667   0.0000000), wk =   0.0013021
        k(    7) = (   0.0000000   0.0416667   0.1250000), wk =   0.0013021
        k(    8) = (   0.0000000   0.0416667   0.2500000), wk =   0.0013021
        k(    9) = (   0.0000000   0.0416667   0.3750000), wk =   0.0013021
        k(   10) = (   0.0000000   0.0416667  -0.5000000), wk =   0.0013021
        k(   11) = (   0.0000000   0.0833333   0.0000000), wk =   0.0013021
        k(   12) = (   0.0000000   0.0833333   0.1250000), wk =   0.0013021
        k(   13) = (   0.0000000   0.0833333   0.2500000), wk =   0.0013021
        k(   14) = (   0.0000000   0.0833333   0.3750000), wk =   0.0013021
        k(   15) = (   0.0000000   0.0833333  -0.5000000), wk =   0.0013021
        k(   16) = (   0.0000000   0.1250000   0.0000000), wk =   0.0013021
        k(   17) = (   0.0000000   0.1250000   0.1250000), wk =   0.0013021
        k(   18) = (   0.0000000   0.1250000   0.2500000), wk =   0.0013021
        k(   19) = (   0.0000000   0.1250000   0.3750000), wk =   0.0013021
        k(   20) = (   0.0000000   0.1250000  -0.5000000), wk =   0.0013021
        k(   21) = (   0.0000000   0.1666667   0.0000000), wk =   0.0013021
        k(   22) = (   0.0000000   0.1666667   0.1250000), wk =   0.0013021
        k(   23) = (   0.0000000   0.1666667   0.2500000), wk =   0.0013021
        k(   24) = (   0.0000000   0.1666667   0.3750000), wk =   0.0013021
        k(   25) = (   0.0000000   0.1666667  -0.5000000), wk =   0.0013021
        k(   26) = (   0.0000000   0.2083333   0.0000000), wk =   0.0013021
        k(   27) = (   0.0000000   0.2083333   0.1250000), wk =   0.0013021
        k(   28) = (   0.0000000   0.2083333   0.2500000), wk =   0.0013021
        k(   29) = (   0.0000000   0.2083333   0.3750000), wk =   0.0013021
        k(   30) = (   0.0000000   0.2083333  -0.5000000), wk =   0.0013021
        k(   31) = (   0.0000000   0.2500000   0.0000000), wk =   0.0013021
        k(   32) = (   0.0000000   0.2500000   0.1250000), wk =   0.0013021
        k(   33) = (   0.0000000   0.2500000   0.2500000), wk =   0.0013021
        k(   34) = (   0.0000000   0.2500000   0.3750000), wk =   0.0013021
        k(   35) = (   0.0000000   0.2500000  -0.5000000), wk =   0.0013021
        k(   36) = (   0.0000000   0.2916667   0.0000000), wk =   0.0013021
        k(   37) = (   0.0000000   0.2916667   0.1250000), wk =   0.0013021
        k(   38) = (   0.0000000   0.2916667   0.2500000), wk =   0.0013021
        k(   39) = (   0.0000000   0.2916667   0.3750000), wk =   0.0013021
        k(   40) = (   0.0000000   0.2916667  -0.5000000), wk =   0.0013021
        k(   41) = (   0.0000000   0.3333333   0.0000000), wk =   0.0013021
        k(   42) = (   0.0000000   0.3333333   0.1250000), wk =   0.0013021
        k(   43) = (   0.0000000   0.3333333   0.2500000), wk =   0.0013021
        k(   44) = (   0.0000000   0.3333333   0.3750000), wk =   0.0013021
        k(   45) = (   0.0000000   0.3333333  -0.5000000), wk =   0.0013021
        k(   46) = (   0.0000000   0.3750000   0.0000000), wk =   0.0013021
        k(   47) = (   0.0000000   0.3750000   0.1250000), wk =   0.0013021
        k(   48) = (   0.0000000   0.3750000   0.2500000), wk =   0.0013021
        k(   49) = (   0.0000000   0.3750000   0.3750000), wk =   0.0013021
        k(   50) = (   0.0000000   0.3750000  -0.5000000), wk =   0.0013021
        k(   51) = (   0.0000000   0.4166667   0.0000000), wk =   0.0013021
        k(   52) = (   0.0000000   0.4166667   0.1250000), wk =   0.0013021
        k(   53) = (   0.0000000   0.4166667   0.2500000), wk =   0.0013021
        k(   54) = (   0.0000000   0.4166667   0.3750000), wk =   0.0013021
        k(   55) = (   0.0000000   0.4166667  -0.5000000), wk =   0.0013021
        k(   56) = (   0.0000000   0.4583333   0.0000000), wk =   0.0013021
        k(   57) = (   0.0000000   0.4583333   0.1250000), wk =   0.0013021
        k(   58) = (   0.0000000   0.4583333   0.2500000), wk =   0.0013021
        k(   59) = (   0.0000000   0.4583333   0.3750000), wk =   0.0013021
        k(   60) = (   0.0000000   0.4583333  -0.5000000), wk =   0.0013021
        k(   61) = (   0.0000000  -0.5000000   0.0000000), wk =   0.0006510
        k(   62) = (   0.0000000  -0.5000000   0.1250000), wk =   0.0013021
        k(   63) = (   0.0000000  -0.5000000   0.2500000), wk =   0.0013021
        k(   64) = (   0.0000000  -0.5000000   0.3750000), wk =   0.0013021
        k(   65) = (   0.0000000  -0.5000000  -0.5000000), wk =   0.0006510
        k(   66) = (   0.0416667   0.0416667   0.0000000), wk =   0.0013021
        k(   67) = (   0.0416667   0.0416667   0.1250000), wk =   0.0026042
        k(   68) = (   0.0416667   0.0416667   0.2500000), wk =   0.0026042
        k(   69) = (   0.0416667   0.0416667   0.3750000), wk =   0.0026042
        k(   70) = (   0.0416667   0.0416667  -0.5000000), wk =   0.0013021
        k(   71) = (   0.0416667   0.0833333   0.0000000), wk =   0.0026042
        k(   72) = (   0.0416667   0.0833333   0.1250000), wk =   0.0026042
        k(   73) = (   0.0416667   0.0833333   0.2500000), wk =   0.0026042
        k(   74) = (   0.0416667   0.0833333   0.3750000), wk =   0.0026042
        k(   75) = (   0.0416667   0.0833333  -0.5000000), wk =   0.0026042
        k(   76) = (   0.0416667   0.1250000   0.0000000), wk =   0.0026042
        k(   77) = (   0.0416667   0.1250000   0.1250000), wk =   0.0026042
        k(   78) = (   0.0416667   0.1250000   0.2500000), wk =   0.0026042
        k(   79) = (   0.0416667   0.1250000   0.3750000), wk =   0.0026042
        k(   80) = (   0.0416667   0.1250000  -0.5000000), wk =   0.0026042
        k(   81) = (   0.0416667   0.1666667   0.0000000), wk =   0.0026042
        k(   82) = (   0.0416667   0.1666667   0.1250000), wk =   0.0026042
        k(   83) = (   0.0416667   0.1666667   0.2500000), wk =   0.0026042
        k(   84) = (   0.0416667   0.1666667   0.3750000), wk =   0.0026042
        k(   85) = (   0.0416667   0.1666667  -0.5000000), wk =   0.0026042
        k(   86) = (   0.0416667   0.2083333   0.0000000), wk =   0.0026042
        k(   87) = (   0.0416667   0.2083333   0.1250000), wk =   0.0026042
        k(   88) = (   0.0416667   0.2083333   0.2500000), wk =   0.0026042
        k(   89) = (   0.0416667   0.2083333   0.3750000), wk =   0.0026042
        k(   90) = (   0.0416667   0.2083333  -0.5000000), wk =   0.0026042
        k(   91) = (   0.0416667   0.2500000   0.0000000), wk =   0.0026042
        k(   92) = (   0.0416667   0.2500000   0.1250000), wk =   0.0026042
        k(   93) = (   0.0416667   0.2500000   0.2500000), wk =   0.0026042
        k(   94) = (   0.0416667   0.2500000   0.3750000), wk =   0.0026042
        k(   95) = (   0.0416667   0.2500000  -0.5000000), wk =   0.0026042
        k(   96) = (   0.0416667   0.2916667   0.0000000), wk =   0.0026042
        k(   97) = (   0.0416667   0.2916667   0.1250000), wk =   0.0026042
        k(   98) = (   0.0416667   0.2916667   0.2500000), wk =   0.0026042
        k(   99) = (   0.0416667   0.2916667   0.3750000), wk =   0.0026042
        k(  100) = (   0.0416667   0.2916667  -0.5000000), wk =   0.0026042
        k(  101) = (   0.0416667   0.3333333   0.0000000), wk =   0.0026042
        k(  102) = (   0.0416667   0.3333333   0.1250000), wk =   0.0026042
        k(  103) = (   0.0416667   0.3333333   0.2500000), wk =   0.0026042
        k(  104) = (   0.0416667   0.3333333   0.3750000), wk =   0.0026042
        k(  105) = (   0.0416667   0.3333333  -0.5000000), wk =   0.0026042
        k(  106) = (   0.0416667   0.3750000   0.0000000), wk =   0.0026042
        k(  107) = (   0.0416667   0.3750000   0.1250000), wk =   0.0026042
        k(  108) = (   0.0416667   0.3750000   0.2500000), wk =   0.0026042
        k(  109) = (   0.0416667   0.3750000   0.3750000), wk =   0.0026042
        k(  110) = (   0.0416667   0.3750000  -0.5000000), wk =   0.0026042
        k(  111) = (   0.0416667   0.4166667   0.0000000), wk =   0.0026042
        k(  112) = (   0.0416667   0.4166667   0.1250000), wk =   0.0026042
        k(  113) = (   0.0416667   0.4166667   0.2500000), wk =   0.0026042
        k(  114) = (   0.0416667   0.4166667   0.3750000), wk =   0.0026042
        k(  115) = (   0.0416667   0.4166667  -0.5000000), wk =   0.0026042
        k(  116) = (   0.0416667   0.4583333   0.0000000), wk =   0.0026042
        k(  117) = (   0.0416667   0.4583333   0.1250000), wk =   0.0026042
        k(  118) = (   0.0416667   0.4583333   0.2500000), wk =   0.0026042
        k(  119) = (   0.0416667   0.4583333   0.3750000), wk =   0.0026042
        k(  120) = (   0.0416667   0.4583333  -0.5000000), wk =   0.0026042
        k(  121) = (   0.0833333   0.0833333   0.0000000), wk =   0.0013021
        k(  122) = (   0.0833333   0.0833333   0.1250000), wk =   0.0026042
        k(  123) = (   0.0833333   0.0833333   0.2500000), wk =   0.0026042
        k(  124) = (   0.0833333   0.0833333   0.3750000), wk =   0.0026042
        k(  125) = (   0.0833333   0.0833333  -0.5000000), wk =   0.0013021
        k(  126) = (   0.0833333   0.1250000   0.0000000), wk =   0.0026042
        k(  127) = (   0.0833333   0.1250000   0.1250000), wk =   0.0026042
        k(  128) = (   0.0833333   0.1250000   0.2500000), wk =   0.0026042
        k(  129) = (   0.0833333   0.1250000   0.3750000), wk =   0.0026042
        k(  130) = (   0.0833333   0.1250000  -0.5000000), wk =   0.0026042
        k(  131) = (   0.0833333   0.1666667   0.0000000), wk =   0.0026042
        k(  132) = (   0.0833333   0.1666667   0.1250000), wk =   0.0026042
        k(  133) = (   0.0833333   0.1666667   0.2500000), wk =   0.0026042
        k(  134) = (   0.0833333   0.1666667   0.3750000), wk =   0.0026042
        k(  135) = (   0.0833333   0.1666667  -0.5000000), wk =   0.0026042
        k(  136) = (   0.0833333   0.2083333   0.0000000), wk =   0.0026042
        k(  137) = (   0.0833333   0.2083333   0.1250000), wk =   0.0026042
        k(  138) = (   0.0833333   0.2083333   0.2500000), wk =   0.0026042
        k(  139) = (   0.0833333   0.2083333   0.3750000), wk =   0.0026042
        k(  140) = (   0.0833333   0.2083333  -0.5000000), wk =   0.0026042
        k(  141) = (   0.0833333   0.2500000   0.0000000), wk =   0.0026042
        k(  142) = (   0.0833333   0.2500000   0.1250000), wk =   0.0026042
        k(  143) = (   0.0833333   0.2500000   0.2500000), wk =   0.0026042
        k(  144) = (   0.0833333   0.2500000   0.3750000), wk =   0.0026042
        k(  145) = (   0.0833333   0.2500000  -0.5000000), wk =   0.0026042
        k(  146) = (   0.0833333   0.2916667   0.0000000), wk =   0.0026042
        k(  147) = (   0.0833333   0.2916667   0.1250000), wk =   0.0026042
        k(  148) = (   0.0833333   0.2916667   0.2500000), wk =   0.0026042
        k(  149) = (   0.0833333   0.2916667   0.3750000), wk =   0.0026042
        k(  150) = (   0.0833333   0.2916667  -0.5000000), wk =   0.0026042
        k(  151) = (   0.0833333   0.3333333   0.0000000), wk =   0.0026042
        k(  152) = (   0.0833333   0.3333333   0.1250000), wk =   0.0026042
        k(  153) = (   0.0833333   0.3333333   0.2500000), wk =   0.0026042
        k(  154) = (   0.0833333   0.3333333   0.3750000), wk =   0.0026042
        k(  155) = (   0.0833333   0.3333333  -0.5000000), wk =   0.0026042
        k(  156) = (   0.0833333   0.3750000   0.0000000), wk =   0.0026042
        k(  157) = (   0.0833333   0.3750000   0.1250000), wk =   0.0026042
        k(  158) = (   0.0833333   0.3750000   0.2500000), wk =   0.0026042
        k(  159) = (   0.0833333   0.3750000   0.3750000), wk =   0.0026042
        k(  160) = (   0.0833333   0.3750000  -0.5000000), wk =   0.0026042
        k(  161) = (   0.0833333   0.4166667   0.0000000), wk =   0.0026042
        k(  162) = (   0.0833333   0.4166667   0.1250000), wk =   0.0026042
        k(  163) = (   0.0833333   0.4166667   0.2500000), wk =   0.0026042
        k(  164) = (   0.0833333   0.4166667   0.3750000), wk =   0.0026042
        k(  165) = (   0.0833333   0.4166667  -0.5000000), wk =   0.0026042
        k(  166) = (   0.0833333   0.4583333   0.0000000), wk =   0.0013021
        k(  167) = (   0.0833333   0.4583333   0.1250000), wk =   0.0026042
        k(  168) = (   0.0833333   0.4583333   0.2500000), wk =   0.0026042
        k(  169) = (   0.0833333   0.4583333   0.3750000), wk =   0.0026042
        k(  170) = (   0.0833333   0.4583333  -0.5000000), wk =   0.0013021
        k(  171) = (   0.1250000   0.1250000   0.0000000), wk =   0.0013021
        k(  172) = (   0.1250000   0.1250000   0.1250000), wk =   0.0026042
        k(  173) = (   0.1250000   0.1250000   0.2500000), wk =   0.0026042
        k(  174) = (   0.1250000   0.1250000   0.3750000), wk =   0.0026042
        k(  175) = (   0.1250000   0.1250000  -0.5000000), wk =   0.0013021
        k(  176) = (   0.1250000   0.1666667   0.0000000), wk =   0.0026042
        k(  177) = (   0.1250000   0.1666667   0.1250000), wk =   0.0026042
        k(  178) = (   0.1250000   0.1666667   0.2500000), wk =   0.0026042
        k(  179) = (   0.1250000   0.1666667   0.3750000), wk =   0.0026042
        k(  180) = (   0.1250000   0.1666667  -0.5000000), wk =   0.0026042
        k(  181) = (   0.1250000   0.2083333   0.0000000), wk =   0.0026042
        k(  182) = (   0.1250000   0.2083333   0.1250000), wk =   0.0026042
        k(  183) = (   0.1250000   0.2083333   0.2500000), wk =   0.0026042
        k(  184) = (   0.1250000   0.2083333   0.3750000), wk =   0.0026042
        k(  185) = (   0.1250000   0.2083333  -0.5000000), wk =   0.0026042
        k(  186) = (   0.1250000   0.2500000   0.0000000), wk =   0.0026042
        k(  187) = (   0.1250000   0.2500000   0.1250000), wk =   0.0026042
        k(  188) = (   0.1250000   0.2500000   0.2500000), wk =   0.0026042
        k(  189) = (   0.1250000   0.2500000   0.3750000), wk =   0.0026042
        k(  190) = (   0.1250000   0.2500000  -0.5000000), wk =   0.0026042
        k(  191) = (   0.1250000   0.2916667   0.0000000), wk =   0.0026042
        k(  192) = (   0.1250000   0.2916667   0.1250000), wk =   0.0026042
        k(  193) = (   0.1250000   0.2916667   0.2500000), wk =   0.0026042
        k(  194) = (   0.1250000   0.2916667   0.3750000), wk =   0.0026042
        k(  195) = (   0.1250000   0.2916667  -0.5000000), wk =   0.0026042
        k(  196) = (   0.1250000   0.3333333   0.0000000), wk =   0.0026042
        k(  197) = (   0.1250000   0.3333333   0.1250000), wk =   0.0026042
        k(  198) = (   0.1250000   0.3333333   0.2500000), wk =   0.0026042
        k(  199) = (   0.1250000   0.3333333   0.3750000), wk =   0.0026042
        k(  200) = (   0.1250000   0.3333333  -0.5000000), wk =   0.0026042
        k(  201) = (   0.1250000   0.3750000   0.0000000), wk =   0.0026042
        k(  202) = (   0.1250000   0.3750000   0.1250000), wk =   0.0026042
        k(  203) = (   0.1250000   0.3750000   0.2500000), wk =   0.0026042
        k(  204) = (   0.1250000   0.3750000   0.3750000), wk =   0.0026042
        k(  205) = (   0.1250000   0.3750000  -0.5000000), wk =   0.0026042
        k(  206) = (   0.1250000   0.4166667   0.0000000), wk =   0.0026042
        k(  207) = (   0.1250000   0.4166667   0.1250000), wk =   0.0026042
        k(  208) = (   0.1250000   0.4166667   0.2500000), wk =   0.0026042
        k(  209) = (   0.1250000   0.4166667   0.3750000), wk =   0.0026042
        k(  210) = (   0.1250000   0.4166667  -0.5000000), wk =   0.0026042
        k(  211) = (   0.1666667   0.1666667   0.0000000), wk =   0.0013021
        k(  212) = (   0.1666667   0.1666667   0.1250000), wk =   0.0026042
        k(  213) = (   0.1666667   0.1666667   0.2500000), wk =   0.0026042
        k(  214) = (   0.1666667   0.1666667   0.3750000), wk =   0.0026042
        k(  215) = (   0.1666667   0.1666667  -0.5000000), wk =   0.0013021
        k(  216) = (   0.1666667   0.2083333   0.0000000), wk =   0.0026042
        k(  217) = (   0.1666667   0.2083333   0.1250000), wk =   0.0026042
        k(  218) = (   0.1666667   0.2083333   0.2500000), wk =   0.0026042
        k(  219) = (   0.1666667   0.2083333   0.3750000), wk =   0.0026042
        k(  220) = (   0.1666667   0.2083333  -0.5000000), wk =   0.0026042
        k(  221) = (   0.1666667   0.2500000   0.0000000), wk =   0.0026042
        k(  222) = (   0.1666667   0.2500000   0.1250000), wk =   0.0026042
        k(  223) = (   0.1666667   0.2500000   0.2500000), wk =   0.0026042
        k(  224) = (   0.1666667   0.2500000   0.3750000), wk =   0.0026042
        k(  225) = (   0.1666667   0.2500000  -0.5000000), wk =   0.0026042
        k(  226) = (   0.1666667   0.2916667   0.0000000), wk =   0.0026042
        k(  227) = (   0.1666667   0.2916667   0.1250000), wk =   0.0026042
        k(  228) = (   0.1666667   0.2916667   0.2500000), wk =   0.0026042
        k(  229) = (   0.1666667   0.2916667   0.3750000), wk =   0.0026042
        k(  230) = (   0.1666667   0.2916667  -0.5000000), wk =   0.0026042
        k(  231) = (   0.1666667   0.3333333   0.0000000), wk =   0.0026042
        k(  232) = (   0.1666667   0.3333333   0.1250000), wk =   0.0026042
        k(  233) = (   0.1666667   0.3333333   0.2500000), wk =   0.0026042
        k(  234) = (   0.1666667   0.3333333   0.3750000), wk =   0.0026042
        k(  235) = (   0.1666667   0.3333333  -0.5000000), wk =   0.0026042
        k(  236) = (   0.1666667   0.3750000   0.0000000), wk =   0.0026042
        k(  237) = (   0.1666667   0.3750000   0.1250000), wk =   0.0026042
        k(  238) = (   0.1666667   0.3750000   0.2500000), wk =   0.0026042
        k(  239) = (   0.1666667   0.3750000   0.3750000), wk =   0.0026042
        k(  240) = (   0.1666667   0.3750000  -0.5000000), wk =   0.0026042
        k(  241) = (   0.1666667   0.4166667   0.0000000), wk =   0.0013021
        k(  242) = (   0.1666667   0.4166667   0.1250000), wk =   0.0026042
        k(  243) = (   0.1666667   0.4166667   0.2500000), wk =   0.0026042
        k(  244) = (   0.1666667   0.4166667   0.3750000), wk =   0.0026042
        k(  245) = (   0.1666667   0.4166667  -0.5000000), wk =   0.0013021
        k(  246) = (   0.2083333   0.2083333   0.0000000), wk =   0.0013021
        k(  247) = (   0.2083333   0.2083333   0.1250000), wk =   0.0026042
        k(  248) = (   0.2083333   0.2083333   0.2500000), wk =   0.0026042
        k(  249) = (   0.2083333   0.2083333   0.3750000), wk =   0.0026042
        k(  250) = (   0.2083333   0.2083333  -0.5000000), wk =   0.0013021
        k(  251) = (   0.2083333   0.2500000   0.0000000), wk =   0.0026042
        k(  252) = (   0.2083333   0.2500000   0.1250000), wk =   0.0026042
        k(  253) = (   0.2083333   0.2500000   0.2500000), wk =   0.0026042
        k(  254) = (   0.2083333   0.2500000   0.3750000), wk =   0.0026042
        k(  255) = (   0.2083333   0.2500000  -0.5000000), wk =   0.0026042
        k(  256) = (   0.2083333   0.2916667   0.0000000), wk =   0.0026042
        k(  257) = (   0.2083333   0.2916667   0.1250000), wk =   0.0026042
        k(  258) = (   0.2083333   0.2916667   0.2500000), wk =   0.0026042
        k(  259) = (   0.2083333   0.2916667   0.3750000), wk =   0.0026042
        k(  260) = (   0.2083333   0.2916667  -0.5000000), wk =   0.0026042
        k(  261) = (   0.2083333   0.3333333   0.0000000), wk =   0.0026042
        k(  262) = (   0.2083333   0.3333333   0.1250000), wk =   0.0026042
        k(  263) = (   0.2083333   0.3333333   0.2500000), wk =   0.0026042
        k(  264) = (   0.2083333   0.3333333   0.3750000), wk =   0.0026042
        k(  265) = (   0.2083333   0.3333333  -0.5000000), wk =   0.0026042
        k(  266) = (   0.2083333   0.3750000   0.0000000), wk =   0.0026042
        k(  267) = (   0.2083333   0.3750000   0.1250000), wk =   0.0026042
        k(  268) = (   0.2083333   0.3750000   0.2500000), wk =   0.0026042
        k(  269) = (   0.2083333   0.3750000   0.3750000), wk =   0.0026042
        k(  270) = (   0.2083333   0.3750000  -0.5000000), wk =   0.0026042
        k(  271) = (   0.2500000   0.2500000   0.0000000), wk =   0.0013021
        k(  272) = (   0.2500000   0.2500000   0.1250000), wk =   0.0026042
        k(  273) = (   0.2500000   0.2500000   0.2500000), wk =   0.0026042
        k(  274) = (   0.2500000   0.2500000   0.3750000), wk =   0.0026042
        k(  275) = (   0.2500000   0.2500000  -0.5000000), wk =   0.0013021
        k(  276) = (   0.2500000   0.2916667   0.0000000), wk =   0.0026042
        k(  277) = (   0.2500000   0.2916667   0.1250000), wk =   0.0026042
        k(  278) = (   0.2500000   0.2916667   0.2500000), wk =   0.0026042
        k(  279) = (   0.2500000   0.2916667   0.3750000), wk =   0.0026042
        k(  280) = (   0.2500000   0.2916667  -0.5000000), wk =   0.0026042
        k(  281) = (   0.2500000   0.3333333   0.0000000), wk =   0.0026042
        k(  282) = (   0.2500000   0.3333333   0.1250000), wk =   0.0026042
        k(  283) = (   0.2500000   0.3333333   0.2500000), wk =   0.0026042
        k(  284) = (   0.2500000   0.3333333   0.3750000), wk =   0.0026042
        k(  285) = (   0.2500000   0.3333333  -0.5000000), wk =   0.0026042
        k(  286) = (   0.2500000   0.3750000   0.0000000), wk =   0.0013021
        k(  287) = (   0.2500000   0.3750000   0.1250000), wk =   0.0026042
        k(  288) = (   0.2500000   0.3750000   0.2500000), wk =   0.0026042
        k(  289) = (   0.2500000   0.3750000   0.3750000), wk =   0.0026042
        k(  290) = (   0.2500000   0.3750000  -0.5000000), wk =   0.0013021
        k(  291) = (   0.2916667   0.2916667   0.0000000), wk =   0.0013021
        k(  292) = (   0.2916667   0.2916667   0.1250000), wk =   0.0026042
        k(  293) = (   0.2916667   0.2916667   0.2500000), wk =   0.0026042
        k(  294) = (   0.2916667   0.2916667   0.3750000), wk =   0.0026042
        k(  295) = (   0.2916667   0.2916667  -0.5000000), wk =   0.0013021
        k(  296) = (   0.2916667   0.3333333   0.0000000), wk =   0.0026042
        k(  297) = (   0.2916667   0.3333333   0.1250000), wk =   0.0026042
        k(  298) = (   0.2916667   0.3333333   0.2500000), wk =   0.0026042
        k(  299) = (   0.2916667   0.3333333   0.3750000), wk =   0.0026042
        k(  300) = (   0.2916667   0.3333333  -0.5000000), wk =   0.0026042
        k(  301) = (   0.3333333   0.3333333   0.0000000), wk =   0.0004340
        k(  302) = (   0.3333333   0.3333333   0.1250000), wk =   0.0008681
        k(  303) = (   0.3333333   0.3333333   0.2500000), wk =   0.0008681
        k(  304) = (   0.3333333   0.3333333   0.3750000), wk =   0.0008681
        k(  305) = (   0.3333333   0.3333333  -0.5000000), wk =   0.0004340
        k(  306) = (   0.0000000  -0.0416667   0.1250000), wk =   0.0013021
        k(  307) = (   0.0000000  -0.0416667   0.2500000), wk =   0.0013021
        k(  308) = (   0.0000000  -0.0416667   0.3750000), wk =   0.0013021
        k(  309) = (   0.0000000  -0.0833333   0.1250000), wk =   0.0013021
        k(  310) = (   0.0000000  -0.0833333   0.2500000), wk =   0.0013021
        k(  311) = (   0.0000000  -0.0833333   0.3750000), wk =   0.0013021
        k(  312) = (   0.0000000  -0.1250000   0.1250000), wk =   0.0013021
        k(  313) = (   0.0000000  -0.1250000   0.2500000), wk =   0.0013021
        k(  314) = (   0.0000000  -0.1250000   0.3750000), wk =   0.0013021
        k(  315) = (   0.0000000  -0.1666667   0.1250000), wk =   0.0013021
        k(  316) = (   0.0000000  -0.1666667   0.2500000), wk =   0.0013021
        k(  317) = (   0.0000000  -0.1666667   0.3750000), wk =   0.0013021
        k(  318) = (   0.0000000  -0.2083333   0.1250000), wk =   0.0013021
        k(  319) = (   0.0000000  -0.2083333   0.2500000), wk =   0.0013021
        k(  320) = (   0.0000000  -0.2083333   0.3750000), wk =   0.0013021
        k(  321) = (   0.0000000  -0.2500000   0.1250000), wk =   0.0013021
        k(  322) = (   0.0000000  -0.2500000   0.2500000), wk =   0.0013021
        k(  323) = (   0.0000000  -0.2500000   0.3750000), wk =   0.0013021
        k(  324) = (   0.0000000  -0.2916667   0.1250000), wk =   0.0013021
        k(  325) = (   0.0000000  -0.2916667   0.2500000), wk =   0.0013021
        k(  326) = (   0.0000000  -0.2916667   0.3750000), wk =   0.0013021
        k(  327) = (   0.0000000  -0.3333333   0.1250000), wk =   0.0013021
        k(  328) = (   0.0000000  -0.3333333   0.2500000), wk =   0.0013021
        k(  329) = (   0.0000000  -0.3333333   0.3750000), wk =   0.0013021
        k(  330) = (   0.0000000  -0.3750000   0.1250000), wk =   0.0013021
        k(  331) = (   0.0000000  -0.3750000   0.2500000), wk =   0.0013021
        k(  332) = (   0.0000000  -0.3750000   0.3750000), wk =   0.0013021
        k(  333) = (   0.0000000  -0.4166667   0.1250000), wk =   0.0013021
        k(  334) = (   0.0000000  -0.4166667   0.2500000), wk =   0.0013021
        k(  335) = (   0.0000000  -0.4166667   0.3750000), wk =   0.0013021
        k(  336) = (   0.0000000  -0.4583333   0.1250000), wk =   0.0013021
        k(  337) = (   0.0000000  -0.4583333   0.2500000), wk =   0.0013021
        k(  338) = (   0.0000000  -0.4583333   0.3750000), wk =   0.0013021
        k(  339) = (  -0.0416667  -0.0833333   0.1250000), wk =   0.0026042
        k(  340) = (  -0.0416667  -0.0833333   0.2500000), wk =   0.0026042
        k(  341) = (  -0.0416667  -0.0833333   0.3750000), wk =   0.0026042
        k(  342) = (  -0.0416667  -0.1250000   0.1250000), wk =   0.0026042
        k(  343) = (  -0.0416667  -0.1250000   0.2500000), wk =   0.0026042
        k(  344) = (  -0.0416667  -0.1250000   0.3750000), wk =   0.0026042
        k(  345) = (  -0.0416667  -0.1666667   0.1250000), wk =   0.0026042
        k(  346) = (  -0.0416667  -0.1666667   0.2500000), wk =   0.0026042
        k(  347) = (  -0.0416667  -0.1666667   0.3750000), wk =   0.0026042
        k(  348) = (  -0.0416667  -0.2083333   0.1250000), wk =   0.0026042
        k(  349) = (  -0.0416667  -0.2083333   0.2500000), wk =   0.0026042
        k(  350) = (  -0.0416667  -0.2083333   0.3750000), wk =   0.0026042
        k(  351) = (  -0.0416667  -0.2500000   0.1250000), wk =   0.0026042
        k(  352) = (  -0.0416667  -0.2500000   0.2500000), wk =   0.0026042
        k(  353) = (  -0.0416667  -0.2500000   0.3750000), wk =   0.0026042
        k(  354) = (  -0.0416667  -0.2916667   0.1250000), wk =   0.0026042
        k(  355) = (  -0.0416667  -0.2916667   0.2500000), wk =   0.0026042
        k(  356) = (  -0.0416667  -0.2916667   0.3750000), wk =   0.0026042
        k(  357) = (  -0.0416667  -0.3333333   0.1250000), wk =   0.0026042
        k(  358) = (  -0.0416667  -0.3333333   0.2500000), wk =   0.0026042
        k(  359) = (  -0.0416667  -0.3333333   0.3750000), wk =   0.0026042
        k(  360) = (  -0.0416667  -0.3750000   0.1250000), wk =   0.0026042
        k(  361) = (  -0.0416667  -0.3750000   0.2500000), wk =   0.0026042
        k(  362) = (  -0.0416667  -0.3750000   0.3750000), wk =   0.0026042
        k(  363) = (  -0.0416667  -0.4166667   0.1250000), wk =   0.0026042
        k(  364) = (  -0.0416667  -0.4166667   0.2500000), wk =   0.0026042
        k(  365) = (  -0.0416667  -0.4166667   0.3750000), wk =   0.0026042
        k(  366) = (  -0.0416667  -0.4583333   0.1250000), wk =   0.0026042
        k(  367) = (  -0.0416667  -0.4583333   0.2500000), wk =   0.0026042
        k(  368) = (  -0.0416667  -0.4583333   0.3750000), wk =   0.0026042
        k(  369) = (  -0.0833333  -0.1250000   0.1250000), wk =   0.0026042
        k(  370) = (  -0.0833333  -0.1250000   0.2500000), wk =   0.0026042
        k(  371) = (  -0.0833333  -0.1250000   0.3750000), wk =   0.0026042
        k(  372) = (  -0.0833333  -0.1666667   0.1250000), wk =   0.0026042
        k(  373) = (  -0.0833333  -0.1666667   0.2500000), wk =   0.0026042
        k(  374) = (  -0.0833333  -0.1666667   0.3750000), wk =   0.0026042
        k(  375) = (  -0.0833333  -0.2083333   0.1250000), wk =   0.0026042
        k(  376) = (  -0.0833333  -0.2083333   0.2500000), wk =   0.0026042
        k(  377) = (  -0.0833333  -0.2083333   0.3750000), wk =   0.0026042
        k(  378) = (  -0.0833333  -0.2500000   0.1250000), wk =   0.0026042
        k(  379) = (  -0.0833333  -0.2500000   0.2500000), wk =   0.0026042
        k(  380) = (  -0.0833333  -0.2500000   0.3750000), wk =   0.0026042
        k(  381) = (  -0.0833333  -0.2916667   0.1250000), wk =   0.0026042
        k(  382) = (  -0.0833333  -0.2916667   0.2500000), wk =   0.0026042
        k(  383) = (  -0.0833333  -0.2916667   0.3750000), wk =   0.0026042
        k(  384) = (  -0.0833333  -0.3333333   0.1250000), wk =   0.0026042
        k(  385) = (  -0.0833333  -0.3333333   0.2500000), wk =   0.0026042
        k(  386) = (  -0.0833333  -0.3333333   0.3750000), wk =   0.0026042
        k(  387) = (  -0.0833333  -0.3750000   0.1250000), wk =   0.0026042
        k(  388) = (  -0.0833333  -0.3750000   0.2500000), wk =   0.0026042
        k(  389) = (  -0.0833333  -0.3750000   0.3750000), wk =   0.0026042
        k(  390) = (  -0.0833333  -0.4166667   0.1250000), wk =   0.0026042
        k(  391) = (  -0.0833333  -0.4166667   0.2500000), wk =   0.0026042
        k(  392) = (  -0.0833333  -0.4166667   0.3750000), wk =   0.0026042
        k(  393) = (  -0.1250000  -0.1666667   0.1250000), wk =   0.0026042
        k(  394) = (  -0.1250000  -0.1666667   0.2500000), wk =   0.0026042
        k(  395) = (  -0.1250000  -0.1666667   0.3750000), wk =   0.0026042
        k(  396) = (  -0.1250000  -0.2083333   0.1250000), wk =   0.0026042
        k(  397) = (  -0.1250000  -0.2083333   0.2500000), wk =   0.0026042
        k(  398) = (  -0.1250000  -0.2083333   0.3750000), wk =   0.0026042
        k(  399) = (  -0.1250000  -0.2500000   0.1250000), wk =   0.0026042
        k(  400) = (  -0.1250000  -0.2500000   0.2500000), wk =   0.0026042
        k(  401) = (  -0.1250000  -0.2500000   0.3750000), wk =   0.0026042
        k(  402) = (  -0.1250000  -0.2916667   0.1250000), wk =   0.0026042
        k(  403) = (  -0.1250000  -0.2916667   0.2500000), wk =   0.0026042
        k(  404) = (  -0.1250000  -0.2916667   0.3750000), wk =   0.0026042
        k(  405) = (  -0.1250000  -0.3333333   0.1250000), wk =   0.0026042
        k(  406) = (  -0.1250000  -0.3333333   0.2500000), wk =   0.0026042
        k(  407) = (  -0.1250000  -0.3333333   0.3750000), wk =   0.0026042
        k(  408) = (  -0.1250000  -0.3750000   0.1250000), wk =   0.0026042
        k(  409) = (  -0.1250000  -0.3750000   0.2500000), wk =   0.0026042
        k(  410) = (  -0.1250000  -0.3750000   0.3750000), wk =   0.0026042
        k(  411) = (  -0.1250000  -0.4166667   0.1250000), wk =   0.0026042
        k(  412) = (  -0.1250000  -0.4166667   0.2500000), wk =   0.0026042
        k(  413) = (  -0.1250000  -0.4166667   0.3750000), wk =   0.0026042
        k(  414) = (  -0.1666667  -0.2083333   0.1250000), wk =   0.0026042
        k(  415) = (  -0.1666667  -0.2083333   0.2500000), wk =   0.0026042
        k(  416) = (  -0.1666667  -0.2083333   0.3750000), wk =   0.0026042
        k(  417) = (  -0.1666667  -0.2500000   0.1250000), wk =   0.0026042
        k(  418) = (  -0.1666667  -0.2500000   0.2500000), wk =   0.0026042
        k(  419) = (  -0.1666667  -0.2500000   0.3750000), wk =   0.0026042
        k(  420) = (  -0.1666667  -0.2916667   0.1250000), wk =   0.0026042
        k(  421) = (  -0.1666667  -0.2916667   0.2500000), wk =   0.0026042
        k(  422) = (  -0.1666667  -0.2916667   0.3750000), wk =   0.0026042
        k(  423) = (  -0.1666667  -0.3333333   0.1250000), wk =   0.0026042
        k(  424) = (  -0.1666667  -0.3333333   0.2500000), wk =   0.0026042
        k(  425) = (  -0.1666667  -0.3333333   0.3750000), wk =   0.0026042
        k(  426) = (  -0.1666667  -0.3750000   0.1250000), wk =   0.0026042
        k(  427) = (  -0.1666667  -0.3750000   0.2500000), wk =   0.0026042
        k(  428) = (  -0.1666667  -0.3750000   0.3750000), wk =   0.0026042
        k(  429) = (  -0.2083333  -0.2500000   0.1250000), wk =   0.0026042
        k(  430) = (  -0.2083333  -0.2500000   0.2500000), wk =   0.0026042
        k(  431) = (  -0.2083333  -0.2500000   0.3750000), wk =   0.0026042
        k(  432) = (  -0.2083333  -0.2916667   0.1250000), wk =   0.0026042
        k(  433) = (  -0.2083333  -0.2916667   0.2500000), wk =   0.0026042
        k(  434) = (  -0.2083333  -0.2916667   0.3750000), wk =   0.0026042
        k(  435) = (  -0.2083333  -0.3333333   0.1250000), wk =   0.0026042
        k(  436) = (  -0.2083333  -0.3333333   0.2500000), wk =   0.0026042
        k(  437) = (  -0.2083333  -0.3333333   0.3750000), wk =   0.0026042
        k(  438) = (  -0.2083333  -0.3750000   0.1250000), wk =   0.0026042
        k(  439) = (  -0.2083333  -0.3750000   0.2500000), wk =   0.0026042
        k(  440) = (  -0.2083333  -0.3750000   0.3750000), wk =   0.0026042
        k(  441) = (  -0.2500000  -0.2916667   0.1250000), wk =   0.0026042
        k(  442) = (  -0.2500000  -0.2916667   0.2500000), wk =   0.0026042
        k(  443) = (  -0.2500000  -0.2916667   0.3750000), wk =   0.0026042
        k(  444) = (  -0.2500000  -0.3333333   0.1250000), wk =   0.0026042
        k(  445) = (  -0.2500000  -0.3333333   0.2500000), wk =   0.0026042
        k(  446) = (  -0.2500000  -0.3333333   0.3750000), wk =   0.0026042
        k(  447) = (  -0.2916667  -0.3333333   0.1250000), wk =   0.0026042
        k(  448) = (  -0.2916667  -0.3333333   0.2500000), wk =   0.0026042
        k(  449) = (  -0.2916667  -0.3333333   0.3750000), wk =   0.0026042

     Dense  grid:    59641 G-vectors     FFT dimensions: (  40,  40,  96)

     Smooth grid:    21167 G-vectors     FFT dimensions: (  27,  27,  72)

     Dynamical RAM for                 wfc:       1.09 MB

     Dynamical RAM for     wfc (w. buffer):       1.09 MB

     Dynamical RAM for           str. fact:       2.73 MB

     Dynamical RAM for           local pot:       0.00 MB

     Dynamical RAM for          nlocal pot:       1.69 MB

     Dynamical RAM for                qrad:       5.27 MB

     Dynamical RAM for          rho,v,vnew:      12.49 MB

     Dynamical RAM for           G-vectors:       3.57 MB

     Dynamical RAM for          h,s,v(r/c):       0.13 MB

     Dynamical RAM for          <psi|beta>:       0.02 MB

     Dynamical RAM for                 psi:       2.18 MB

     Dynamical RAM for                hpsi:       2.18 MB

     Dynamical RAM for                spsi:       2.18 MB

     Dynamical RAM for      wfcinit/wfcrot:       2.19 MB

     Dynamical RAM for           addusdens:     172.00 MB

     Estimated static dynamical RAM per process >      37.52 MB

     Estimated max dynamical RAM per process >     209.52 MB

     Check: negative core charge=   -0.000008
     Generating pointlists ...
     new r_m :   0.2748 (alat units)  1.4998 (a.u.) for type    1
     new r_m :   0.2748 (alat units)  1.4998 (a.u.) for type    2
     new r_m :   0.3442 (alat units)  1.8786 (a.u.) for type    3

     The potential is recalculated from file :
     ../Na_1x1_c6.9_d0.75/out/pw.save/charge-density

     Starting wfcs are   23 randomized atomic wfcs +    4 random wfcs
     Checking if some PAW data can be deallocated... 

     Band Structure Calculation
     Davidson diagonalization with overlap

     Computing kpt #:     1  of   898
     total cpu time spent up to now is        3.9 secs

     Computing kpt #:     2  of   898
     total cpu time spent up to now is        4.1 secs

     Computing kpt #:     3  of   898
     total cpu time spent up to now is        4.2 secs

     Computing kpt #:     4  of   898
     total cpu time spent up to now is        4.4 secs

     Computing kpt #:     5  of   898
     total cpu time spent up to now is        4.6 secs

     Computing kpt #:     6  of   898
     total cpu time spent up to now is        4.9 secs

     Computing kpt #:     7  of   898
[...]
     1.0118   1.0659   0.8629   0.0000   0.0000   0.0000   0.0000   0.0000
     0.0000   0.0000   0.0000

          k =-0.1667-0.4811 0.0523 (  2635 PWs)   bands (ev):

   -87.3448 -50.6686 -50.6390 -50.5458 -45.7762 -17.8920 -17.7323 -17.6106
   -10.9414 -10.0959   1.2051   2.0452   2.8093   3.5578   3.8795   4.8117
     6.9822   7.2631   7.5934   9.3035   9.4851  11.0911  14.2253  16.6536
    18.1601  19.3570  20.1324

     occupation numbers 
     1.0000   1.0000   1.0000   1.0000   1.0000   1.0000   1.0000   1.0000
     1.0000   1.0000   1.0000   1.0000   1.0000   1.0000   1.0000   1.0000
     1.0037   1.0640   0.7944   0.0000   0.0000   0.0000   0.0000   0.0000
     0.0000   0.0000   0.0000

          k =-0.1667-0.4811 0.1046 (  2642 PWs)   bands (ev):

   -87.3448 -50.6686 -50.6391 -50.5458 -45.7763 -17.8920 -17.7324 -17.6107
   -10.9413 -10.0959   1.2033   2.0405   2.8104   3.5679   3.8807   4.8135
     6.9827   7.2640   7.5817   9.3475   9.4729  11.0287  14.2224  16.6926
    18.1139  19.4869  20.1572

     occupation numbers 
     1.0000   1.0000   1.0000   1.0000   1.0000   1.0000   1.0000   1.0000
     1.0000   1.0000   1.0000   1.0000   1.0000   1.0000   1.0000   1.0000
     1.0037   1.0643   0.8231   0.0000   0.0000   0.0000   0.0000   0.0000
     0.0000   0.0000   0.0000

          k =-0.1667-0.4811 0.1570 (  2642 PWs)   bands (ev):

   -87.3448 -50.6686 -50.6391 -50.5459 -45.7763 -17.8919 -17.7324 -17.6108
   -10.9413 -10.0959   1.2025   2.0352   2.8109   3.5774   3.8801   4.8198
     6.9814   7.2653   7.5733   9.3392   9.4914  11.0035  14.2048  16.6501
    18.1360  19.5904  20.1938

     occupation numbers 
     1.0000   1.0000   1.0000   1.0000   1.0000   1.0000   1.0000   1.0000
     1.0000   1.0000   1.0000   1.0000   1.0000   1.0000   1.0000   1.0000
     1.0036   1.0647   0.8430   0.0000   0.0000   0.0000   0.0000   0.0000
     0.0000   0.0000   0.0000

          k =-0.1667-0.5292 0.0523 (  2640 PWs)   bands (ev):

   -87.3446 -50.6705 -50.6403 -50.5454 -45.7747 -17.9015 -17.7384 -17.6076
   -10.8845 -10.0871   1.0955   2.0718   2.8160   3.6389   3.8705   4.6803
     6.9057   7.2836   7.5794   9.3686   9.5079  11.6569  13.5549  16.8835
    17.9843  19.0589  20.2482

     occupation numbers 
     1.0000   1.0000   1.0000   1.0000   1.0000   1.0000   1.0000   1.0000
     1.0000   1.0000   1.0000   1.0000   1.0000   1.0000   1.0000   1.0000
     1.0011   1.0705   0.8286   0.0000   0.0000   0.0000   0.0000   0.0000
     0.0000   0.0000   0.0000

          k =-0.1667-0.5292 0.1046 (  2647 PWs)   bands (ev):

   -87.3446 -50.6705 -50.6404 -50.5454 -45.7747 -17.9016 -17.7386 -17.6076
   -10.8845 -10.0871   1.0947   2.0677   2.8169   3.6423   3.8722   4.6858
     6.9051   7.2846   7.5722   9.3903   9.5142  11.5971  13.5318  16.9122
    18.0094  19.1527  20.2064

     occupation numbers 
     1.0000   1.0000   1.0000   1.0000   1.0000   1.0000   1.0000   1.0000
     1.0000   1.0000   1.0000   1.0000   1.0000   1.0000   1.0000   1.0000
     1.0011   1.0708   0.8455   0.0000   0.0000   0.0000   0.0000   0.0000
     0.0000   0.0000   0.0000

          k =-0.1667-0.5292 0.1570 (  2647 PWs)   bands (ev):

   -87.3446 -50.6705 -50.6403 -50.5455 -45.7747 -17.9016 -17.7385 -17.6077
   -10.8845 -10.0871   1.0946   2.0633   2.8172   3.6462   3.8719   4.6941
     6.9036   7.2859   7.5664   9.3911   9.5312  11.5640  13.4930  16.8826
    18.0802  19.2450  20.1782

     occupation numbers 
     1.0000   1.0000   1.0000   1.0000   1.0000   1.0000   1.0000   1.0000
     1.0000   1.0000   1.0000   1.0000   1.0000   1.0000   1.0000   1.0000
     1.0011   1.0712   0.8589   0.0000   0.0000   0.0000   0.0000   0.0000
     0.0000   0.0000   0.0000

          k =-0.2083-0.4090 0.0523 (  2632 PWs)   bands (ev):

   -87.3452 -50.6636 -50.6387 -50.5464 -45.7789 -17.8667 -17.7311 -17.6157
   -11.0421 -10.1044   1.4962   1.9740   2.7763   3.3425   3.8834   5.0455
     7.0970   7.2767   7.6323   9.1389   9.3620  10.5650  15.0840  16.4712
    18.2506  19.7547  20.0757

     occupation numbers 
     1.0000   1.0000   1.0000   1.0000   1.0000   1.0000   1.0000   1.0000
     1.0000   1.0000   1.0000   1.0000   1.0000   1.0000   1.0000   1.0000
     1.0161   1.0684   0.6929   0.0000   0.0000   0.0000   0.0000   0.0000
     0.0000   0.0000   0.0000

          k =-0.2083-0.4090 0.1046 (  2632 PWs)   bands (ev):

   -87.3452 -50.6636 -50.6387 -50.5465 -45.7789 -17.8668 -17.7310 -17.6157
   -11.0420 -10.1045   1.4919   1.9692   2.7772   3.3606   3.8845   5.0431
     7.1013   7.2767   7.6101   9.1934   9.3324  10.5262  15.1305  16.4315
    18.1566  19.9719  20.1049

     occupation numbers 
     1.0000   1.0000   1.0000   1.0000   1.0000   1.0000   1.0000   1.0000
     1.0000   1.0000   1.0000   1.0000   1.0000   1.0000   1.0000   1.0000
     1.0168   1.0684   0.7518   0.0000   0.0000   0.0000   0.0000   0.0000
     0.0000   0.0000   0.0000

          k =-0.2083-0.4090 0.1570 (  2642 PWs)   bands (ev):

   -87.3452 -50.6636 -50.6387 -50.5466 -45.7789 -17.8669 -17.7310 -17.6160
   -11.0418 -10.1046   1.4881   1.9641   2.7780   3.3779   3.8854   5.0422
     7.1047   7.2767   7.5905   9.2223   9.3170  10.5023  15.1705  16.3726
    18.0833  20.0981  20.2340

     occupation numbers 
     1.0000   1.0000   1.0000   1.0000   1.0000   1.0000   1.0000   1.0000
     1.0000   1.0000   1.0000   1.0000   1.0000   1.0000   1.0000   1.0000
     1.0175   1.0684   0.8018   0.0000   0.0000   0.0000   0.0000   0.0000
     0.0000   0.0000   0.0000

          k =-0.2083-0.4571 0.0523 (  2638 PWs)   bands (ev):

   -87.3448 -50.6660 -50.6416 -50.5458 -45.7763 -17.8786 -17.7460 -17.6106
   -10.9490 -10.0887   1.3768   1.9901   2.7087   3.4540   3.8830   4.8470
     7.0156   7.2798   7.6395   9.2249   9.4153  11.0488  14.6081  16.5649
    18.0103  19.6006  20.1478

     occupation numbers 
     1.0000   1.0000   1.0000   1.0000   1.0000   1.0000   1.0000   1.0000
     1.0000   1.0000   1.0000   1.0000   1.0000   1.0000   1.0000   1.0000
     1.0059   1.0694   0.6732   0.0000   0.0000   0.0000   0.0000   0.0000
     0.0000   0.0000   0.0000

          k =-0.2083-0.4571 0.1046 (  2638 PWs)   bands (ev):

   -87.3448 -50.6660 -50.6416 -50.5458 -45.7763 -17.8785 -17.7459 -17.6107
   -10.9489 -10.0887   1.3745   1.9858   2.7100   3.4641   3.8850   4.8469
     7.0168   7.2811   7.6251   9.2811   9.3926  10.9880  14.6174  16.5849
    17.9413  19.7341  20.2041

     occupation numbers 
     1.0000   1.0000   1.0000   1.0000   1.0000   1.0000   1.0000   1.0000
     1.0000   1.0000   1.0000   1.0000   1.0000   1.0000   1.0000   1.0000
     1.0060   1.0698   0.7123   0.0000   0.0000   0.0000   0.0000   0.0000
     0.0000   0.0000   0.0000

          k =-0.2083-0.4571 0.1570 (  2638 PWs)   bands (ev):

   -87.3448 -50.6660 -50.6416 -50.5459 -45.7763 -17.8785 -17.7459 -17.6108
   -10.9489 -10.0887   1.3732   1.9809   2.7107   3.4743   3.8858   4.8494
     7.0170   7.2826   7.6131   9.3215   9.3733  10.9475  14.6172  16.5639
    17.9029  19.8306  20.2536

     occupation numbers 
     1.0000   1.0000   1.0000   1.0000   1.0000   1.0000   1.0000   1.0000
     1.0000   1.0000   1.0000   1.0000   1.0000   1.0000   1.0000   1.0000
     1.0060   1.0702   0.7442   0.0000   0.0000   0.0000   0.0000   0.0000
     0.0000   0.0000   0.0000

          k =-0.2083-0.5052 0.0523 (  2642 PWs)   bands (ev):

   -87.3446 -50.6677 -50.6438 -50.5454 -45.7744 -17.8863 -17.7570 -17.6070
   -10.8840 -10.0751   1.2731   2.0184   2.6707   3.5264   3.9146   4.6784
     6.9242   7.3201   7.6287   9.2911   9.4358  11.6042  13.9904  16.7077
    17.9381  19.1790  20.3199

     occupation numbers 
     1.0000   1.0000   1.0000   1.0000   1.0000   1.0000   1.0000   1.0000
     1.0000   1.0000   1.0000   1.0000   1.0000   1.0000   1.0000   1.0000
     1.0015   1.0797   0.7025   0.0000   0.0000   0.0000   0.0000   0.0000
     0.0000   0.0000   0.0000

          k =-0.2083-0.5052 0.1046 (  2643 PWs)   bands (ev):

   -87.3446 -50.6677 -50.6437 -50.5454 -45.7744 -17.8863 -17.7570 -17.6071
   -10.8840 -10.0751   1.2720   2.0151   2.6717   3.5310   3.9162   4.6805
     6.9244   7.3214   7.6197   9.3275   9.4330  11.5384  13.9744  16.7354
    17.9134  19.3033  20.2618

     occupation numbers 
     1.0000   1.0000   1.0000   1.0000   1.0000   1.0000   1.0000   1.0000
     1.0000   1.0000   1.0000   1.0000   1.0000   1.0000   1.0000   1.0000
     1.0015   1.0800   0.7266   0.0000   0.0000   0.0000   0.0000   0.0000
     0.0000   0.0000   0.0000

          k =-0.2083-0.5052 0.1570 (  2642 PWs)   bands (ev):

   -87.3446 -50.6676 -50.6438 -50.5454 -45.7744 -17.8862 -17.7570 -17.6072
   -10.8840 -10.0751   1.2717   2.0114   2.6721   3.5363   3.9158   4.6850
     6.9239   7.3229   7.6121   9.3491   9.4368  11.4918  13.9475  16.7220
    17.9140  19.4259  20.2279

     occupation numbers 
     1.0000   1.0000   1.0000   1.0000   1.0000   1.0000   1.0000   1.0000
     1.0000   1.0000   1.0000   1.0000   1.0000   1.0000   1.0000   1.0000
     1.0015   1.0802   0.7467   0.0000   0.0000   0.0000   0.0000   0.0000
     0.0000   0.0000   0.0000

          k =-0.2083-0.5533 0.0523 (  2636 PWs)   bands (ev):

   -87.3444 -50.6684 -50.6449 -50.5451 -45.7734 -17.8900 -17.7629 -17.6051
   -10.8508 -10.0671   1.2149   2.0354   2.6590   3.5561   3.9464   4.5797
     6.8700   7.3534   7.6142   9.3382   9.4280  12.1189  13.4344  16.7573
    18.0366  18.8464  20.3648

     occupation numbers 
     1.0000   1.0000   1.0000   1.0000   1.0000   1.0000   1.0000   1.0000
     1.0000   1.0000   1.0000   1.0000   1.0000   1.0000   1.0000   1.0000
     1.0006   1.0833   0.7413   0.0000   0.0000   0.0000   0.0000   0.0000
     0.0000   0.0000   0.0000

          k =-0.2083-0.5533 0.1046 (  2645 PWs)   bands (ev):

   -87.3444 -50.6685 -50.6449 -50.5451 -45.7735 -17.8900 -17.7630 -17.6052
   -10.8508 -10.0671   1.2146   2.0328   2.6597   3.5585   3.9459   4.5840
     6.8699   7.3542   7.6081   9.3582   9.4382  12.0598  13.4015  16.7630
    18.0466  18.9758  20.2804

     occupation numbers 
     1.0000   1.0000   1.0000   1.0000   1.0000   1.0000   1.0000   1.0000
     1.0000   1.0000   1.0000   1.0000   1.0000   1.0000   1.0000   1.0000
     1.0006   1.0833   0.7570   0.0000   0.0000   0.0000   0.0000   0.0000
     0.0000   0.0000   0.0000

          k =-0.2083-0.5533 0.1570 (  2648 PWs)   bands (ev):

   -87.3444 -50.6685 -50.6449 -50.5452 -45.7735 -17.8900 -17.7630 -17.6054
   -10.8508 -10.0671   1.2144   2.0300   2.6602   3.5613   3.9445   4.5894
     6.8696   7.3551   7.6025   9.3729   9.4513  12.0126  13.3600  16.7561
    18.0612  19.1102  20.2246

     occupation numbers 
     1.0000   1.0000   1.0000   1.0000   1.0000   1.0000   1.0000   1.0000
     1.0000   1.0000   1.0000   1.0000   1.0000   1.0000   1.0000   1.0000
     1.0006   1.0833   0.7714   0.0000   0.0000   0.0000   0.0000   0.0000
     0.0000   0.0000   0.0000

          k =-0.2500-0.4811 0.0523 (  2637 PWs)   bands (ev):

   -87.3445 -50.6655 -50.6462 -50.5453 -45.7742 -17.8750 -17.7700 -17.6067
   -10.8843 -10.0683   1.4133   1.9767   2.5451   3.4780   3.9422   4.6787
     6.9332   7.3411   7.6589   9.2219   9.4138  11.5832  14.3000  16.5133
    17.8012  19.5064  20.3477

     occupation numbers 
     1.0000   1.0000   1.0000   1.0000   1.0000   1.0000   1.0000   1.0000
     1.0000   1.0000   1.0000   1.0000   1.0000   1.0000   1.0000   1.0000
     1.0017   1.0827   0.6197   0.0000   0.0000   0.0000   0.0000   0.0000
     0.0000   0.0000   0.0000

          k =-0.2500-0.4811 0.1046 (  2643 PWs)   bands (ev):

   -87.3445 -50.6656 -50.6462 -50.5454 -45.7743 -17.8750 -17.7700 -17.6069
   -10.8843 -10.0683   1.4121   1.9737   2.5463   3.4835   3.9434   4.6791
     6.9336   7.3425   7.6491   9.2575   9.4124  11.5182  14.2900  16.5187
    17.7859  19.5957  20.2782

     occupation numbers 
     1.0000   1.0000   1.0000   1.0000   1.0000   1.0000   1.0000   1.0000
     1.0000   1.0000   1.0000   1.0000   1.0000   1.0000   1.0000   1.0000
     1.0017   1.0828   0.6469   0.0000   0.0000   0.0000   0.0000   0.0000
     0.0000   0.0000   0.0000

          k =-0.2500-0.4811 0.1570 (  2638 PWs)   bands (ev):

   -87.3445 -50.6655 -50.6461 -50.5454 -45.7742 -17.8749 -17.7699 -17.6069
   -10.8843 -10.0683   1.4113   1.9704   2.5471   3.4893   3.9439   4.6806
     6.9338   7.3441   7.6399   9.2931   9.4082  11.4609  14.2745  16.5119
    17.7775  19.6791  20.2334

     occupation numbers 
     1.0000   1.0000   1.0000   1.0000   1.0000   1.0000   1.0000   1.0000
     1.0000   1.0000   1.0000   1.0000   1.0000   1.0000   1.0000   1.0000
     1.0017   1.0829   0.6721   0.0000   0.0000   0.0000   0.0000   0.0000
     0.0000   0.0000   0.0000

          k =-0.2500-0.5292 0.0523 (  2637 PWs)   bands (ev):

   -87.3444 -50.6656 -50.6487 -50.5450 -45.7730 -17.8744 -17.7833 -17.6042
   -10.8432 -10.0551   1.3788   1.9987   2.4684   3.5180   4.0063   4.5332
     6.8646   7.3981   7.6431   9.2635   9.4031  12.1350  13.7739  16.4352
    17.9858  19.1362  20.2508

     occupation numbers 
     1.0000   1.0000   1.0000   1.0000   1.0000   1.0000   1.0000   1.0000
     1.0000   1.0000   1.0000   1.0000   1.0000   1.0000   1.0000   1.0000
     1.0005   1.0765   0.6633   0.0000   0.0000   0.0000   0.0000   0.0000
     0.0000   0.0000   0.0000

          k =-0.2500-0.5292 0.1046 (  2645 PWs)   bands (ev):

   -87.3444 -50.6656 -50.6487 -50.5451 -45.7730 -17.8745 -17.7833 -17.6044
   -10.8432 -10.0551   1.3782   1.9969   2.4692   3.5215   4.0055   4.5345
     6.8650   7.3987   7.6367   9.2889   9.4113  12.0709  13.7455  16.4309
    17.9996  19.2462  20.1858

     occupation numbers 
     1.0000   1.0000   1.0000   1.0000   1.0000   1.0000   1.0000   1.0000
     1.0000   1.0000   1.0000   1.0000   1.0000   1.0000   1.0000   1.0000
     1.0005   1.0763   0.6807   0.0000   0.0000   0.0000   0.0000   0.0000
     0.0000   0.0000   0.0000

          k =-0.2500-0.5292 0.1570 (  2645 PWs)   bands (ev):

   -87.3444 -50.6656 -50.6487 -50.5451 -45.7730 -17.8745 -17.7833 -17.6045
   -10.8432 -10.0551   1.3779   1.9949   2.4697   3.5254   4.0036   4.5369
     6.8654   7.3994   7.6308   9.3121   9.4198  12.0155  13.7110  16.4183
    18.0114  19.3600  20.1585

     occupation numbers 
     1.0000   1.0000   1.0000   1.0000   1.0000   1.0000   1.0000   1.0000
     1.0000   1.0000   1.0000   1.0000   1.0000   1.0000   1.0000   1.0000
     1.0005   1.0761   0.6969   0.0000   0.0000   0.0000   0.0000   0.0000
     0.0000   0.0000   0.0000

          k =-0.2917-0.5533 0.0523 (  2639 PWs)   bands (ev):

   -87.3442 -50.6624 -50.6537 -50.5448 -45.7721 -17.8574 -17.8095 -17.6026
   -10.8191 -10.0405   1.4953   2.0031   2.2556   3.5379   4.1052   4.3926
     6.8227   7.4718   7.6353   9.2455   9.3772  12.6280  13.5530  16.0686
    18.1982  19.2206  19.8965

     occupation numbers 
     1.0000   1.0000   1.0000   1.0000   1.0000   1.0000   1.0000   1.0000
     1.0000   1.0000   1.0000   1.0000   1.0000   1.0000   1.0000   1.0000
     1.0002   1.0227   0.6847   0.0000   0.0000   0.0000   0.0000   0.0000
     0.0000   0.0000   0.0000

          k =-0.2917-0.5533 0.1046 (  2638 PWs)   bands (ev):

   -87.3442 -50.6624 -50.6537 -50.5448 -45.7721 -17.8573 -17.8095 -17.6027
   -10.8191 -10.0405   1.4946   2.0032   2.2556   3.5417   4.1017   4.3934
     6.8237   7.4710   7.6313   9.2659   9.3904  12.5697  13.5126  16.0538
    18.2168  19.3211  19.9060

     occupation numbers 
     1.0000   1.0000   1.0000   1.0000   1.0000   1.0000   1.0000   1.0000
     1.0000   1.0000   1.0000   1.0000   1.0000   1.0000   1.0000   1.0000
     1.0003   1.0236   0.6955   0.0000   0.0000   0.0000   0.0000   0.0000
     0.0000   0.0000   0.0000

          k =-0.2917-0.5533 0.1570 (  2640 PWs)   bands (ev):

   -87.3442 -50.6624 -50.6537 -50.5449 -45.7721 -17.8574 -17.8094 -17.6028
   -10.8191 -10.0405   1.4940   2.0031   2.2557   3.5456   4.0980   4.3945
     6.8246   7.4703   7.6274   9.2865   9.4036  12.5137  13.4704  16.0387
    18.2331  19.4171  19.9313

     occupation numbers 
     1.0000   1.0000   1.0000   1.0000   1.0000   1.0000   1.0000   1.0000
     1.0000   1.0000   1.0000   1.0000   1.0000   1.0000   1.0000   1.0000
     1.0003   1.0245   0.7060   0.0000   0.0000   0.0000   0.0000   0.0000
     0.0000   0.0000   0.0000

     the Fermi energy is     7.7403 ev
     (compare with:     7.7333 eV, computed in scf)

     Writing all to output data dir ../Na_1x1_c6.9_d0.75/out/pw.save/ :
     XML data file, pseudopotentials, collected wavefunctions
 
     init_run     :     14.02s CPU      3.07s WALL (       1 calls)
     electrons    :    180.50s CPU    182.85s WALL (       1 calls)

     Called by init_run:
     wfcinit      :      0.00s CPU      0.00s WALL (       1 calls)
     wfcinit:atom :      0.68s CPU      0.74s WALL (     898 calls)
     wfcinit:wfcr :      2.26s CPU      2.35s WALL (     898 calls)
     potinit      :     13.30s CPU      2.33s WALL (       1 calls)
     hinit0       :      0.45s CPU      0.43s WALL (       1 calls)

     Called by electrons:
     c_bands      :    180.46s CPU    182.81s WALL (       1 calls)
     v_of_rho     :      0.02s CPU      0.07s WALL (       1 calls)
     v_h          :      0.01s CPU      0.00s WALL (       1 calls)
     v_xc         :      0.01s CPU      0.07s WALL (       1 calls)
     newd         :      0.06s CPU      0.07s WALL (       1 calls)
                                        0.07s GPU  (       1 calls)
     PAW_pot      :      4.71s CPU      0.57s WALL (       1 calls)

     Called by c_bands:
     init_us_2    :      0.29s CPU      0.36s WALL (     898 calls)
     cegterg      :    176.35s CPU    178.43s WALL (    3464 calls)

     Called by sum_band:

     Called by *egterg:
     cdiaghg      :     63.33s CPU     65.33s WALL (   62619 calls)
                                       64.57s GPU  (   62619 calls)
     cegterg:over :     11.10s CPU     11.60s WALL (   61721 calls)
     cegterg:upda :     16.12s CPU     16.33s WALL (   61721 calls)
     cegterg:last :      3.07s CPU      3.09s WALL (   35946 calls)
     h_psi        :     59.01s CPU     60.20s WALL (   66083 calls)
                                       59.39s GPU  (   66083 calls)
     s_psi        :     10.09s CPU     10.64s WALL (   66083 calls)
     g_psi        :      0.31s CPU      1.54s WALL (   61721 calls)
                                        0.77s GPU  (   61721 calls)

     Called by h_psi:
     h_psi:calbec :      1.68s CPU      3.27s WALL (   66083 calls)
                                        2.44s GPU  (   66083 calls)
     vloc_psi     :     41.23s CPU     41.53s WALL (   66083 calls)
                                       40.65s GPU  (   66083 calls)
     add_vuspsi   :      9.10s CPU     10.76s WALL (   66083 calls)
                                        9.93s GPU  (   66083 calls)

     General routines
     calbec       :      1.51s CPU      1.65s WALL (   66083 calls)
     fft          :      3.59s CPU      0.87s WALL (      23 calls)
                                        0.00s GPU  (      21 calls)
     ffts         :      4.97s CPU      0.82s WALL (       2 calls)
     fftw         :      3.43s CPU     11.83s WALL (  201424 calls)
                                        9.56s GPU  (  201424 calls)
     interpolate  :      8.57s CPU      1.69s WALL (       2 calls)
     davcio       :      1.23s CPU      0.28s WALL (    1796 calls)
 
     Parallel routines

     PAW routines
     PAW_pot      :      4.71s CPU      0.57s WALL (       1 calls)
 
     PWSCF        :   3m22.43s CPU   3m 7.18s WALL

 
   This run was terminated on:   2:55:17  12Jul2026            

=------------------------------------------------------------------------------=
   JOB DONE.
=------------------------------------------------------------------------------=
Warning: ieee_divide_by_zero is signaling
Warning: ieee_inexact is signaling
FORTRAN STOP
