
     Program PWSCF v.7.3.1 starts on 12Jul2026 at  4: 5:25 

     This program is part of the open-source Quantum ESPRESSO suite
     for quantum simulation of materials; please cite
         "P. Giannozzi et al., J. Phys.:Condens. Matter 21 395502 (2009);
         "P. Giannozzi et al., J. Phys.:Condens. Matter 29 465901 (2017);
         "P. Giannozzi et al., J. Chem. Phys. 152 154105 (2020);
          URL http://www.quantum-espresso.org", 
     in publications or presentations arising from this work. More details at
     http://www.quantum-espresso.org/quote

     Parallel version (MPI & OpenMP), running on      14 processor cores
     Number of MPI processes:                 1
     Threads/MPI process:                    14

     MPI processes distributed on     1 nodes
     832234 MiB available memory on the printing compute node when the environment starts
 
     Reading input from pw.in

     Current dimensions of program PWSCF are:
     Max number of different atomic species (ntypx) = 10
     Max number of k-points (npk) =  40000
     Max angular momentum in pseudopotentials (lmaxx) =  4
     file Co.pbe-spn-kjpaw_psl.0.3.1.UPF: wavefunction(s)  3P 3D renormalized
     file O.pbe-n-kjpaw_psl.1.0.0.UPF: wavefunction(s)  2S 2P renormalized
     file Na.pbe-spn-kjpaw_psl.1.0.0.UPF: wavefunction(s)  2P renormalized

     Atomic positions and unit cell read from directory:
     ../Na_1x1_c8.4_d1.00/out/pw.save/
 
 
     Subspace diagonalization in iterative solution of the eigenvalue problem:
     a serial algorithm will be used

 
     G-vector sticks info
     --------------------
     sticks:   dense  smooth     PW     G-vecs:    dense   smooth      PW
     Sum         979     499    151                72573    25753    4321
 
     Using Slab Decomposition
 


     bravais-lattice index     =            4
     lattice parameter (alat)  =       5.4575  a.u.
     unit-cell volume          =     409.4500 (a.u.)^3
     number of atoms/cell      =            4
     number of atomic types    =            3
     number of electrons       =        38.00
     number of Kohn-Sham states=           27
     kinetic-energy cutoff     =      60.0000  Ry
     charge density cutoff     =     480.0000  Ry
     Exchange-correlation= SLA  PW   PBX  PBC
                           (   1   4   3   4   0   0   0)

     GPU acceleration is ACTIVE.  1 visible GPUs per MPI rank
     GPU-aware MPI enabled


     GPU used by master process:

        Device Number: 0
        Device name: NVIDIA A100-SXM4-80GB
        Compute capability : 80
        Ratio of single to double precision performance  : 2
        Memory Clock Rate (KHz): 1593000
        Memory Bus Width (bits): 5120
        Peak Memory Bandwidth (GB/s): ******

     celldm(1)=   5.457529  celldm(2)=   0.000000  celldm(3)=   2.908587
     celldm(4)=   0.000000  celldm(5)=   0.000000  celldm(6)=   0.000000

     crystal axes: (cart. coord. in units of alat)
               a(1) = (   1.000000   0.000000   0.000000 )  
               a(2) = (  -0.500000   0.866025   0.000000 )  
               a(3) = (   0.000000   0.000000   2.908587 )  

     reciprocal axes: (cart. coord. in units 2 pi/alat)
               b(1) = (  1.000000  0.577350 -0.000000 )  
               b(2) = (  0.000000  1.154701  0.000000 )  
               b(3) = (  0.000000 -0.000000  0.343810 )  


     PseudoPot. # 1 for Co read from file:
     ../../pseudo/Co.pbe-spn-kjpaw_psl.0.3.1.UPF
     MD5 check sum: 3c0a43779828c046024e4f3be63f8e67
     Pseudo is Projector augmented-wave + core cor, Zval = 17.0
     Generated using &quot;atomic&quot; code by A. Dal Corso  v.6.2.2
     Shape of augmentation charge: PSQ
     Using radial grid of 1193 points,  6 beta functions with: 
                l(1) =   0
                l(2) =   0
                l(3) =   1
                l(4) =   1
                l(5) =   2
                l(6) =   2
     Q(r) pseudized with 0 coefficients 


     PseudoPot. # 2 for O  read from file:
     ../../pseudo/O.pbe-n-kjpaw_psl.1.0.0.UPF
     MD5 check sum: e99d9cef9b487d1ca56f5b95ecd0fd7a
     Pseudo is Projector augmented-wave + core cor, Zval =  6.0
     Generated using &quot;atomic&quot; code by A. Dal Corso  v.6.3
     Shape of augmentation charge: PSQ
     Using radial grid of 1095 points,  4 beta functions with: 
                l(1) =   0
                l(2) =   0
                l(3) =   1
                l(4) =   1
     Q(r) pseudized with 0 coefficients 


     PseudoPot. # 3 for Na read from file:
     ../../pseudo/Na.pbe-spn-kjpaw_psl.1.0.0.UPF
     MD5 check sum: 05b4deb74e3932c23ab016979dc8b5d4
     Pseudo is Projector augmented-wave + core cor, Zval =  9.0
     Generated using &quot;atomic&quot; code by A. Dal Corso  v.6.3
     Shape of augmentation charge: PSQ
     Using radial grid of 1121 points,  4 beta functions with: 
                l(1) =   0
                l(2) =   0
                l(3) =   1
                l(4) =   1
     Q(r) pseudized with 0 coefficients 


     atomic species   valence    mass     pseudopotential
     Co               17.00    58.93300     Co( 1.00)
     O                 6.00    15.99900     O ( 1.00)
     Na                9.00    22.98977     Na( 1.00)

     Starting magnetic structure 
     atomic species   magnetization
     Co              0.300
     O               0.000
     Na              0.000

      6 Sym. Ops. (no inversion) found


                                    s                        frac. trans.

      isym =  1     identity                                     

 cryst.   s( 1) = (     1          0          0      )
                  (     0          1          0      )
                  (     0          0          1      )

 cart.    s( 1) = (  1.0000000  0.0000000  0.0000000 )
                  (  0.0000000  1.0000000  0.0000000 )
                  (  0.0000000  0.0000000  1.0000000 )


      isym =  2     120 deg rotation - cryst. axis [0,0,1]       

 cryst.   s( 2) = (     0          1          0      )
                  (    -1         -1          0      )
                  (     0          0          1      )

 cart.    s( 2) = ( -0.5000000 -0.8660254  0.0000000 )
                  (  0.8660254 -0.5000000  0.0000000 )
                  (  0.0000000  0.0000000  1.0000000 )


      isym =  3     120 deg rotation - cryst. axis [0,0,-1]      

 cryst.   s( 3) = (    -1         -1          0      )
                  (     1          0          0      )
                  (     0          0          1      )

 cart.    s( 3) = ( -0.5000000  0.8660254  0.0000000 )
                  ( -0.8660254 -0.5000000  0.0000000 )
                  (  0.0000000  0.0000000  1.0000000 )


      isym =  4     inv. 180 deg rotation - cart. axis [1,0,0]   

 cryst.   s( 4) = (    -1          0          0      )
                  (     1          1          0      )
                  (     0          0          1      )

 cart.    s( 4) = ( -1.0000000  0.0000000  0.0000000 )
                  (  0.0000000  1.0000000  0.0000000 )
                  (  0.0000000  0.0000000  1.0000000 )


      isym =  5     inv. 180 deg rotation - cryst. axis [0,1,0]  

 cryst.   s( 5) = (     1          1          0      )
                  (     0         -1          0      )
                  (     0          0          1      )

 cart.    s( 5) = (  0.5000000  0.8660254  0.0000000 )
                  (  0.8660254 -0.5000000  0.0000000 )
                  (  0.0000000  0.0000000  1.0000000 )


      isym =  6     inv. 180 deg rotation - cryst. axis [1,1,0]  

 cryst.   s( 6) = (     0         -1          0      )
                  (    -1          0          0      )
                  (     0          0          1      )

 cart.    s( 6) = (  0.5000000 -0.8660254  0.0000000 )
                  ( -0.8660254 -0.5000000  0.0000000 )
                  (  0.0000000  0.0000000  1.0000000 )


     point group C_3v (3m)  
     there are  3 classes
     the character table:

       E     2C3   3s_v 
A_1    1.00  1.00  1.00
A_2    1.00  1.00 -1.00
E      2.00 -1.00  0.00

     the symmetry operations in each class and the name of the first element:

     E        1
          identity                                               
     2C3      2    3
          120 deg rotation - cryst. axis [0,0,1]                 
     3s_v     4    5    6
          inv. 180 deg rotation - cart. axis [1,0,0]             

   Cartesian axes

     site n.     atom                  positions (alat units)
         1        Co     tau(   1) = (   0.0000000   0.0000000   0.0000000  )
         2        O      tau(   2) = (  -0.0000000   0.5773503   0.3324100  )
         3        O      tau(   3) = (   0.5000000   0.2886751   2.5761773  )
         4        Na     tau(   4) = (   0.0000000   0.0000000   1.8005540  )

   Crystallographic axes

     site n.     atom                  positions (cryst. coord.)
         1        Co     tau(   1) = (  0.0000000  0.0000000  0.0000000  )
         2        O      tau(   2) = (  0.3333333  0.6666667  0.1142857  )
         3        O      tau(   3) = (  0.6666667  0.3333333  0.8857143  )
         4        Na     tau(   4) = (  0.0000000  0.0000000  0.6190476  )

     number of k points=   449  Marzari-Vanderbilt smearing, width (Ry)=  0.0200
                       cart. coord. in units 2pi/alat
        k(    1) = (   0.0000000   0.0000000   0.0000000), wk =   0.0002170
        k(    2) = (   0.0000000   0.0000000   0.0429762), wk =   0.0004340
        k(    3) = (   0.0000000   0.0000000   0.0859524), wk =   0.0004340
        k(    4) = (   0.0000000   0.0000000   0.1289286), wk =   0.0004340
        k(    5) = (   0.0000000   0.0000000  -0.1719048), wk =   0.0002170
        k(    6) = (   0.0000000   0.0481125   0.0000000), wk =   0.0013021
        k(    7) = (   0.0000000   0.0481125   0.0429762), wk =   0.0013021
        k(    8) = (   0.0000000   0.0481125   0.0859524), wk =   0.0013021
        k(    9) = (   0.0000000   0.0481125   0.1289286), wk =   0.0013021
        k(   10) = (   0.0000000   0.0481125  -0.1719048), wk =   0.0013021
        k(   11) = (   0.0000000   0.0962250   0.0000000), wk =   0.0013021
        k(   12) = (   0.0000000   0.0962250   0.0429762), wk =   0.0013021
        k(   13) = (   0.0000000   0.0962250   0.0859524), wk =   0.0013021
        k(   14) = (   0.0000000   0.0962250   0.1289286), wk =   0.0013021
        k(   15) = (   0.0000000   0.0962250  -0.1719048), wk =   0.0013021
        k(   16) = (   0.0000000   0.1443376   0.0000000), wk =   0.0013021
        k(   17) = (   0.0000000   0.1443376   0.0429762), wk =   0.0013021
        k(   18) = (   0.0000000   0.1443376   0.0859524), wk =   0.0013021
        k(   19) = (   0.0000000   0.1443376   0.1289286), wk =   0.0013021
        k(   20) = (   0.0000000   0.1443376  -0.1719048), wk =   0.0013021
        k(   21) = (   0.0000000   0.1924501   0.0000000), wk =   0.0013021
        k(   22) = (   0.0000000   0.1924501   0.0429762), wk =   0.0013021
        k(   23) = (   0.0000000   0.1924501   0.0859524), wk =   0.0013021
        k(   24) = (   0.0000000   0.1924501   0.1289286), wk =   0.0013021
        k(   25) = (   0.0000000   0.1924501  -0.1719048), wk =   0.0013021
        k(   26) = (   0.0000000   0.2405626   0.0000000), wk =   0.0013021
        k(   27) = (   0.0000000   0.2405626   0.0429762), wk =   0.0013021
        k(   28) = (   0.0000000   0.2405626   0.0859524), wk =   0.0013021
        k(   29) = (   0.0000000   0.2405626   0.1289286), wk =   0.0013021
        k(   30) = (   0.0000000   0.2405626  -0.1719048), wk =   0.0013021
        k(   31) = (   0.0000000   0.2886751   0.0000000), wk =   0.0013021
        k(   32) = (   0.0000000   0.2886751   0.0429762), wk =   0.0013021
        k(   33) = (   0.0000000   0.2886751   0.0859524), wk =   0.0013021
        k(   34) = (   0.0000000   0.2886751   0.1289286), wk =   0.0013021
        k(   35) = (   0.0000000   0.2886751  -0.1719048), wk =   0.0013021
        k(   36) = (   0.0000000   0.3367877   0.0000000), wk =   0.0013021
        k(   37) = (   0.0000000   0.3367877   0.0429762), wk =   0.0013021
        k(   38) = (   0.0000000   0.3367877   0.0859524), wk =   0.0013021
        k(   39) = (   0.0000000   0.3367877   0.1289286), wk =   0.0013021
        k(   40) = (   0.0000000   0.3367877  -0.1719048), wk =   0.0013021
        k(   41) = (   0.0000000   0.3849002   0.0000000), wk =   0.0013021
        k(   42) = (   0.0000000   0.3849002   0.0429762), wk =   0.0013021
        k(   43) = (   0.0000000   0.3849002   0.0859524), wk =   0.0013021
        k(   44) = (   0.0000000   0.3849002   0.1289286), wk =   0.0013021
        k(   45) = (   0.0000000   0.3849002  -0.1719048), wk =   0.0013021
        k(   46) = (   0.0000000   0.4330127   0.0000000), wk =   0.0013021
        k(   47) = (   0.0000000   0.4330127   0.0429762), wk =   0.0013021
        k(   48) = (   0.0000000   0.4330127   0.0859524), wk =   0.0013021
        k(   49) = (   0.0000000   0.4330127   0.1289286), wk =   0.0013021
        k(   50) = (   0.0000000   0.4330127  -0.1719048), wk =   0.0013021
        k(   51) = (   0.0000000   0.4811252   0.0000000), wk =   0.0013021
        k(   52) = (   0.0000000   0.4811252   0.0429762), wk =   0.0013021
        k(   53) = (   0.0000000   0.4811252   0.0859524), wk =   0.0013021
        k(   54) = (   0.0000000   0.4811252   0.1289286), wk =   0.0013021
        k(   55) = (   0.0000000   0.4811252  -0.1719048), wk =   0.0013021
        k(   56) = (   0.0000000   0.5292377   0.0000000), wk =   0.0013021
        k(   57) = (   0.0000000   0.5292377   0.0429762), wk =   0.0013021
        k(   58) = (   0.0000000   0.5292377   0.0859524), wk =   0.0013021
        k(   59) = (   0.0000000   0.5292377   0.1289286), wk =   0.0013021
        k(   60) = (   0.0000000   0.5292377  -0.1719048), wk =   0.0013021
        k(   61) = (   0.0000000  -0.5773503   0.0000000), wk =   0.0006510
        k(   62) = (   0.0000000  -0.5773503   0.0429762), wk =   0.0013021
        k(   63) = (   0.0000000  -0.5773503   0.0859524), wk =   0.0013021
        k(   64) = (   0.0000000  -0.5773503   0.1289286), wk =   0.0013021
        k(   65) = (   0.0000000  -0.5773503  -0.1719048), wk =   0.0006510
        k(   66) = (   0.0416667   0.0721688   0.0000000), wk =   0.0013021
        k(   67) = (   0.0416667   0.0721688   0.0429762), wk =   0.0026042
        k(   68) = (   0.0416667   0.0721688   0.0859524), wk =   0.0026042
        k(   69) = (   0.0416667   0.0721688   0.1289286), wk =   0.0026042
        k(   70) = (   0.0416667   0.0721688  -0.1719048), wk =   0.0013021
        k(   71) = (   0.0416667   0.1202813   0.0000000), wk =   0.0026042
        k(   72) = (   0.0416667   0.1202813   0.0429762), wk =   0.0026042
        k(   73) = (   0.0416667   0.1202813   0.0859524), wk =   0.0026042
        k(   74) = (   0.0416667   0.1202813   0.1289286), wk =   0.0026042
        k(   75) = (   0.0416667   0.1202813  -0.1719048), wk =   0.0026042
        k(   76) = (   0.0416667   0.1683938   0.0000000), wk =   0.0026042
        k(   77) = (   0.0416667   0.1683938   0.0429762), wk =   0.0026042
        k(   78) = (   0.0416667   0.1683938   0.0859524), wk =   0.0026042
        k(   79) = (   0.0416667   0.1683938   0.1289286), wk =   0.0026042
        k(   80) = (   0.0416667   0.1683938  -0.1719048), wk =   0.0026042
        k(   81) = (   0.0416667   0.2165064   0.0000000), wk =   0.0026042
        k(   82) = (   0.0416667   0.2165064   0.0429762), wk =   0.0026042
        k(   83) = (   0.0416667   0.2165064   0.0859524), wk =   0.0026042
        k(   84) = (   0.0416667   0.2165064   0.1289286), wk =   0.0026042
        k(   85) = (   0.0416667   0.2165064  -0.1719048), wk =   0.0026042
        k(   86) = (   0.0416667   0.2646189   0.0000000), wk =   0.0026042
        k(   87) = (   0.0416667   0.2646189   0.0429762), wk =   0.0026042
        k(   88) = (   0.0416667   0.2646189   0.0859524), wk =   0.0026042
        k(   89) = (   0.0416667   0.2646189   0.1289286), wk =   0.0026042
        k(   90) = (   0.0416667   0.2646189  -0.1719048), wk =   0.0026042
        k(   91) = (   0.0416667   0.3127314   0.0000000), wk =   0.0026042
        k(   92) = (   0.0416667   0.3127314   0.0429762), wk =   0.0026042
        k(   93) = (   0.0416667   0.3127314   0.0859524), wk =   0.0026042
        k(   94) = (   0.0416667   0.3127314   0.1289286), wk =   0.0026042
        k(   95) = (   0.0416667   0.3127314  -0.1719048), wk =   0.0026042
        k(   96) = (   0.0416667   0.3608439   0.0000000), wk =   0.0026042
        k(   97) = (   0.0416667   0.3608439   0.0429762), wk =   0.0026042
        k(   98) = (   0.0416667   0.3608439   0.0859524), wk =   0.0026042
        k(   99) = (   0.0416667   0.3608439   0.1289286), wk =   0.0026042
        k(  100) = (   0.0416667   0.3608439  -0.1719048), wk =   0.0026042
        k(  101) = (   0.0416667   0.4089564   0.0000000), wk =   0.0026042
        k(  102) = (   0.0416667   0.4089564   0.0429762), wk =   0.0026042
        k(  103) = (   0.0416667   0.4089564   0.0859524), wk =   0.0026042
        k(  104) = (   0.0416667   0.4089564   0.1289286), wk =   0.0026042
        k(  105) = (   0.0416667   0.4089564  -0.1719048), wk =   0.0026042
        k(  106) = (   0.0416667   0.4570690   0.0000000), wk =   0.0026042
        k(  107) = (   0.0416667   0.4570690   0.0429762), wk =   0.0026042
        k(  108) = (   0.0416667   0.4570690   0.0859524), wk =   0.0026042
        k(  109) = (   0.0416667   0.4570690   0.1289286), wk =   0.0026042
        k(  110) = (   0.0416667   0.4570690  -0.1719048), wk =   0.0026042
        k(  111) = (   0.0416667   0.5051815   0.0000000), wk =   0.0026042
        k(  112) = (   0.0416667   0.5051815   0.0429762), wk =   0.0026042
        k(  113) = (   0.0416667   0.5051815   0.0859524), wk =   0.0026042
        k(  114) = (   0.0416667   0.5051815   0.1289286), wk =   0.0026042
        k(  115) = (   0.0416667   0.5051815  -0.1719048), wk =   0.0026042
        k(  116) = (   0.0416667   0.5532940   0.0000000), wk =   0.0026042
        k(  117) = (   0.0416667   0.5532940   0.0429762), wk =   0.0026042
        k(  118) = (   0.0416667   0.5532940   0.0859524), wk =   0.0026042
        k(  119) = (   0.0416667   0.5532940   0.1289286), wk =   0.0026042
        k(  120) = (   0.0416667   0.5532940  -0.1719048), wk =   0.0026042
        k(  121) = (   0.0833333   0.1443376   0.0000000), wk =   0.0013021
        k(  122) = (   0.0833333   0.1443376   0.0429762), wk =   0.0026042
        k(  123) = (   0.0833333   0.1443376   0.0859524), wk =   0.0026042
        k(  124) = (   0.0833333   0.1443376   0.1289286), wk =   0.0026042
        k(  125) = (   0.0833333   0.1443376  -0.1719048), wk =   0.0013021
        k(  126) = (   0.0833333   0.1924501   0.0000000), wk =   0.0026042
        k(  127) = (   0.0833333   0.1924501   0.0429762), wk =   0.0026042
        k(  128) = (   0.0833333   0.1924501   0.0859524), wk =   0.0026042
        k(  129) = (   0.0833333   0.1924501   0.1289286), wk =   0.0026042
        k(  130) = (   0.0833333   0.1924501  -0.1719048), wk =   0.0026042
        k(  131) = (   0.0833333   0.2405626   0.0000000), wk =   0.0026042
        k(  132) = (   0.0833333   0.2405626   0.0429762), wk =   0.0026042
        k(  133) = (   0.0833333   0.2405626   0.0859524), wk =   0.0026042
        k(  134) = (   0.0833333   0.2405626   0.1289286), wk =   0.0026042
        k(  135) = (   0.0833333   0.2405626  -0.1719048), wk =   0.0026042
        k(  136) = (   0.0833333   0.2886751   0.0000000), wk =   0.0026042
        k(  137) = (   0.0833333   0.2886751   0.0429762), wk =   0.0026042
        k(  138) = (   0.0833333   0.2886751   0.0859524), wk =   0.0026042
        k(  139) = (   0.0833333   0.2886751   0.1289286), wk =   0.0026042
        k(  140) = (   0.0833333   0.2886751  -0.1719048), wk =   0.0026042
        k(  141) = (   0.0833333   0.3367877   0.0000000), wk =   0.0026042
        k(  142) = (   0.0833333   0.3367877   0.0429762), wk =   0.0026042
        k(  143) = (   0.0833333   0.3367877   0.0859524), wk =   0.0026042
        k(  144) = (   0.0833333   0.3367877   0.1289286), wk =   0.0026042
        k(  145) = (   0.0833333   0.3367877  -0.1719048), wk =   0.0026042
        k(  146) = (   0.0833333   0.3849002   0.0000000), wk =   0.0026042
        k(  147) = (   0.0833333   0.3849002   0.0429762), wk =   0.0026042
        k(  148) = (   0.0833333   0.3849002   0.0859524), wk =   0.0026042
        k(  149) = (   0.0833333   0.3849002   0.1289286), wk =   0.0026042
        k(  150) = (   0.0833333   0.3849002  -0.1719048), wk =   0.0026042
        k(  151) = (   0.0833333   0.4330127   0.0000000), wk =   0.0026042
        k(  152) = (   0.0833333   0.4330127   0.0429762), wk =   0.0026042
        k(  153) = (   0.0833333   0.4330127   0.0859524), wk =   0.0026042
        k(  154) = (   0.0833333   0.4330127   0.1289286), wk =   0.0026042
        k(  155) = (   0.0833333   0.4330127  -0.1719048), wk =   0.0026042
        k(  156) = (   0.0833333   0.4811252   0.0000000), wk =   0.0026042
        k(  157) = (   0.0833333   0.4811252   0.0429762), wk =   0.0026042
        k(  158) = (   0.0833333   0.4811252   0.0859524), wk =   0.0026042
        k(  159) = (   0.0833333   0.4811252   0.1289286), wk =   0.0026042
        k(  160) = (   0.0833333   0.4811252  -0.1719048), wk =   0.0026042
        k(  161) = (   0.0833333   0.5292377   0.0000000), wk =   0.0026042
        k(  162) = (   0.0833333   0.5292377   0.0429762), wk =   0.0026042
        k(  163) = (   0.0833333   0.5292377   0.0859524), wk =   0.0026042
        k(  164) = (   0.0833333   0.5292377   0.1289286), wk =   0.0026042
        k(  165) = (   0.0833333   0.5292377  -0.1719048), wk =   0.0026042
        k(  166) = (   0.0833333   0.5773503   0.0000000), wk =   0.0013021
        k(  167) = (   0.0833333   0.5773503   0.0429762), wk =   0.0026042
        k(  168) = (   0.0833333   0.5773503   0.0859524), wk =   0.0026042
        k(  169) = (   0.0833333   0.5773503   0.1289286), wk =   0.0026042
        k(  170) = (   0.0833333   0.5773503  -0.1719048), wk =   0.0013021
        k(  171) = (   0.1250000   0.2165064   0.0000000), wk =   0.0013021
        k(  172) = (   0.1250000   0.2165064   0.0429762), wk =   0.0026042
        k(  173) = (   0.1250000   0.2165064   0.0859524), wk =   0.0026042
        k(  174) = (   0.1250000   0.2165064   0.1289286), wk =   0.0026042
        k(  175) = (   0.1250000   0.2165064  -0.1719048), wk =   0.0013021
        k(  176) = (   0.1250000   0.2646189   0.0000000), wk =   0.0026042
        k(  177) = (   0.1250000   0.2646189   0.0429762), wk =   0.0026042
        k(  178) = (   0.1250000   0.2646189   0.0859524), wk =   0.0026042
        k(  179) = (   0.1250000   0.2646189   0.1289286), wk =   0.0026042
        k(  180) = (   0.1250000   0.2646189  -0.1719048), wk =   0.0026042
        k(  181) = (   0.1250000   0.3127314   0.0000000), wk =   0.0026042
        k(  182) = (   0.1250000   0.3127314   0.0429762), wk =   0.0026042
        k(  183) = (   0.1250000   0.3127314   0.0859524), wk =   0.0026042
        k(  184) = (   0.1250000   0.3127314   0.1289286), wk =   0.0026042
        k(  185) = (   0.1250000   0.3127314  -0.1719048), wk =   0.0026042
        k(  186) = (   0.1250000   0.3608439   0.0000000), wk =   0.0026042
        k(  187) = (   0.1250000   0.3608439   0.0429762), wk =   0.0026042
        k(  188) = (   0.1250000   0.3608439   0.0859524), wk =   0.0026042
        k(  189) = (   0.1250000   0.3608439   0.1289286), wk =   0.0026042
        k(  190) = (   0.1250000   0.3608439  -0.1719048), wk =   0.0026042
        k(  191) = (   0.1250000   0.4089564   0.0000000), wk =   0.0026042
        k(  192) = (   0.1250000   0.4089564   0.0429762), wk =   0.0026042
        k(  193) = (   0.1250000   0.4089564   0.0859524), wk =   0.0026042
        k(  194) = (   0.1250000   0.4089564   0.1289286), wk =   0.0026042
        k(  195) = (   0.1250000   0.4089564  -0.1719048), wk =   0.0026042
        k(  196) = (   0.1250000   0.4570690   0.0000000), wk =   0.0026042
        k(  197) = (   0.1250000   0.4570690   0.0429762), wk =   0.0026042
        k(  198) = (   0.1250000   0.4570690   0.0859524), wk =   0.0026042
        k(  199) = (   0.1250000   0.4570690   0.1289286), wk =   0.0026042
        k(  200) = (   0.1250000   0.4570690  -0.1719048), wk =   0.0026042
        k(  201) = (   0.1250000   0.5051815   0.0000000), wk =   0.0026042
        k(  202) = (   0.1250000   0.5051815   0.0429762), wk =   0.0026042
        k(  203) = (   0.1250000   0.5051815   0.0859524), wk =   0.0026042
        k(  204) = (   0.1250000   0.5051815   0.1289286), wk =   0.0026042
        k(  205) = (   0.1250000   0.5051815  -0.1719048), wk =   0.0026042
        k(  206) = (   0.1250000   0.5532940   0.0000000), wk =   0.0026042
        k(  207) = (   0.1250000   0.5532940   0.0429762), wk =   0.0026042
        k(  208) = (   0.1250000   0.5532940   0.0859524), wk =   0.0026042
        k(  209) = (   0.1250000   0.5532940   0.1289286), wk =   0.0026042
        k(  210) = (   0.1250000   0.5532940  -0.1719048), wk =   0.0026042
        k(  211) = (   0.1666667   0.2886751   0.0000000), wk =   0.0013021
        k(  212) = (   0.1666667   0.2886751   0.0429762), wk =   0.0026042
        k(  213) = (   0.1666667   0.2886751   0.0859524), wk =   0.0026042
        k(  214) = (   0.1666667   0.2886751   0.1289286), wk =   0.0026042
        k(  215) = (   0.1666667   0.2886751  -0.1719048), wk =   0.0013021
        k(  216) = (   0.1666667   0.3367877   0.0000000), wk =   0.0026042
        k(  217) = (   0.1666667   0.3367877   0.0429762), wk =   0.0026042
        k(  218) = (   0.1666667   0.3367877   0.0859524), wk =   0.0026042
        k(  219) = (   0.1666667   0.3367877   0.1289286), wk =   0.0026042
        k(  220) = (   0.1666667   0.3367877  -0.1719048), wk =   0.0026042
        k(  221) = (   0.1666667   0.3849002   0.0000000), wk =   0.0026042
        k(  222) = (   0.1666667   0.3849002   0.0429762), wk =   0.0026042
        k(  223) = (   0.1666667   0.3849002   0.0859524), wk =   0.0026042
        k(  224) = (   0.1666667   0.3849002   0.1289286), wk =   0.0026042
        k(  225) = (   0.1666667   0.3849002  -0.1719048), wk =   0.0026042
        k(  226) = (   0.1666667   0.4330127   0.0000000), wk =   0.0026042
        k(  227) = (   0.1666667   0.4330127   0.0429762), wk =   0.0026042
        k(  228) = (   0.1666667   0.4330127   0.0859524), wk =   0.0026042
        k(  229) = (   0.1666667   0.4330127   0.1289286), wk =   0.0026042
        k(  230) = (   0.1666667   0.4330127  -0.1719048), wk =   0.0026042
        k(  231) = (   0.1666667   0.4811252   0.0000000), wk =   0.0026042
        k(  232) = (   0.1666667   0.4811252   0.0429762), wk =   0.0026042
        k(  233) = (   0.1666667   0.4811252   0.0859524), wk =   0.0026042
        k(  234) = (   0.1666667   0.4811252   0.1289286), wk =   0.0026042
        k(  235) = (   0.1666667   0.4811252  -0.1719048), wk =   0.0026042
        k(  236) = (   0.1666667   0.5292377   0.0000000), wk =   0.0026042
        k(  237) = (   0.1666667   0.5292377   0.0429762), wk =   0.0026042
        k(  238) = (   0.1666667   0.5292377   0.0859524), wk =   0.0026042
        k(  239) = (   0.1666667   0.5292377   0.1289286), wk =   0.0026042
        k(  240) = (   0.1666667   0.5292377  -0.1719048), wk =   0.0026042
        k(  241) = (   0.1666667   0.5773503   0.0000000), wk =   0.0013021
        k(  242) = (   0.1666667   0.5773503   0.0429762), wk =   0.0026042
        k(  243) = (   0.1666667   0.5773503   0.0859524), wk =   0.0026042
        k(  244) = (   0.1666667   0.5773503   0.1289286), wk =   0.0026042
        k(  245) = (   0.1666667   0.5773503  -0.1719048), wk =   0.0013021
        k(  246) = (   0.2083333   0.3608439   0.0000000), wk =   0.0013021
        k(  247) = (   0.2083333   0.3608439   0.0429762), wk =   0.0026042
        k(  248) = (   0.2083333   0.3608439   0.0859524), wk =   0.0026042
        k(  249) = (   0.2083333   0.3608439   0.1289286), wk =   0.0026042
        k(  250) = (   0.2083333   0.3608439  -0.1719048), wk =   0.0013021
        k(  251) = (   0.2083333   0.4089564   0.0000000), wk =   0.0026042
        k(  252) = (   0.2083333   0.4089564   0.0429762), wk =   0.0026042
        k(  253) = (   0.2083333   0.4089564   0.0859524), wk =   0.0026042
        k(  254) = (   0.2083333   0.4089564   0.1289286), wk =   0.0026042
        k(  255) = (   0.2083333   0.4089564  -0.1719048), wk =   0.0026042
        k(  256) = (   0.2083333   0.4570690   0.0000000), wk =   0.0026042
        k(  257) = (   0.2083333   0.4570690   0.0429762), wk =   0.0026042
        k(  258) = (   0.2083333   0.4570690   0.0859524), wk =   0.0026042
        k(  259) = (   0.2083333   0.4570690   0.1289286), wk =   0.0026042
        k(  260) = (   0.2083333   0.4570690  -0.1719048), wk =   0.0026042
        k(  261) = (   0.2083333   0.5051815   0.0000000), wk =   0.0026042
        k(  262) = (   0.2083333   0.5051815   0.0429762), wk =   0.0026042
        k(  263) = (   0.2083333   0.5051815   0.0859524), wk =   0.0026042
        k(  264) = (   0.2083333   0.5051815   0.1289286), wk =   0.0026042
        k(  265) = (   0.2083333   0.5051815  -0.1719048), wk =   0.0026042
        k(  266) = (   0.2083333   0.5532940   0.0000000), wk =   0.0026042
        k(  267) = (   0.2083333   0.5532940   0.0429762), wk =   0.0026042
        k(  268) = (   0.2083333   0.5532940   0.0859524), wk =   0.0026042
        k(  269) = (   0.2083333   0.5532940   0.1289286), wk =   0.0026042
        k(  270) = (   0.2083333   0.5532940  -0.1719048), wk =   0.0026042
        k(  271) = (   0.2500000   0.4330127   0.0000000), wk =   0.0013021
        k(  272) = (   0.2500000   0.4330127   0.0429762), wk =   0.0026042
        k(  273) = (   0.2500000   0.4330127   0.0859524), wk =   0.0026042
        k(  274) = (   0.2500000   0.4330127   0.1289286), wk =   0.0026042
        k(  275) = (   0.2500000   0.4330127  -0.1719048), wk =   0.0013021
        k(  276) = (   0.2500000   0.4811252   0.0000000), wk =   0.0026042
        k(  277) = (   0.2500000   0.4811252   0.0429762), wk =   0.0026042
        k(  278) = (   0.2500000   0.4811252   0.0859524), wk =   0.0026042
        k(  279) = (   0.2500000   0.4811252   0.1289286), wk =   0.0026042
        k(  280) = (   0.2500000   0.4811252  -0.1719048), wk =   0.0026042
        k(  281) = (   0.2500000   0.5292377   0.0000000), wk =   0.0026042
        k(  282) = (   0.2500000   0.5292377   0.0429762), wk =   0.0026042
        k(  283) = (   0.2500000   0.5292377   0.0859524), wk =   0.0026042
        k(  284) = (   0.2500000   0.5292377   0.1289286), wk =   0.0026042
        k(  285) = (   0.2500000   0.5292377  -0.1719048), wk =   0.0026042
        k(  286) = (   0.2500000   0.5773503   0.0000000), wk =   0.0013021
        k(  287) = (   0.2500000   0.5773503   0.0429762), wk =   0.0026042
        k(  288) = (   0.2500000   0.5773503   0.0859524), wk =   0.0026042
        k(  289) = (   0.2500000   0.5773503   0.1289286), wk =   0.0026042
        k(  290) = (   0.2500000   0.5773503  -0.1719048), wk =   0.0013021
        k(  291) = (   0.2916667   0.5051815   0.0000000), wk =   0.0013021
        k(  292) = (   0.2916667   0.5051815   0.0429762), wk =   0.0026042
        k(  293) = (   0.2916667   0.5051815   0.0859524), wk =   0.0026042
        k(  294) = (   0.2916667   0.5051815   0.1289286), wk =   0.0026042
        k(  295) = (   0.2916667   0.5051815  -0.1719048), wk =   0.0013021
        k(  296) = (   0.2916667   0.5532940   0.0000000), wk =   0.0026042
        k(  297) = (   0.2916667   0.5532940   0.0429762), wk =   0.0026042
        k(  298) = (   0.2916667   0.5532940   0.0859524), wk =   0.0026042
        k(  299) = (   0.2916667   0.5532940   0.1289286), wk =   0.0026042
        k(  300) = (   0.2916667   0.5532940  -0.1719048), wk =   0.0026042
        k(  301) = (   0.3333333   0.5773503   0.0000000), wk =   0.0004340
        k(  302) = (   0.3333333   0.5773503   0.0429762), wk =   0.0008681
        k(  303) = (   0.3333333   0.5773503   0.0859524), wk =   0.0008681
        k(  304) = (   0.3333333   0.5773503   0.1289286), wk =   0.0008681
        k(  305) = (   0.3333333   0.5773503  -0.1719048), wk =   0.0004340
        k(  306) = (   0.0000000  -0.0481125   0.0429762), wk =   0.0013021
        k(  307) = (   0.0000000  -0.0481125   0.0859524), wk =   0.0013021
        k(  308) = (   0.0000000  -0.0481125   0.1289286), wk =   0.0013021
        k(  309) = (   0.0000000  -0.0962250   0.0429762), wk =   0.0013021
        k(  310) = (   0.0000000  -0.0962250   0.0859524), wk =   0.0013021
        k(  311) = (   0.0000000  -0.0962250   0.1289286), wk =   0.0013021
        k(  312) = (   0.0000000  -0.1443376   0.0429762), wk =   0.0013021
        k(  313) = (   0.0000000  -0.1443376   0.0859524), wk =   0.0013021
        k(  314) = (   0.0000000  -0.1443376   0.1289286), wk =   0.0013021
        k(  315) = (   0.0000000  -0.1924501   0.0429762), wk =   0.0013021
        k(  316) = (   0.0000000  -0.1924501   0.0859524), wk =   0.0013021
        k(  317) = (   0.0000000  -0.1924501   0.1289286), wk =   0.0013021
        k(  318) = (   0.0000000  -0.2405626   0.0429762), wk =   0.0013021
        k(  319) = (   0.0000000  -0.2405626   0.0859524), wk =   0.0013021
        k(  320) = (   0.0000000  -0.2405626   0.1289286), wk =   0.0013021
        k(  321) = (   0.0000000  -0.2886751   0.0429762), wk =   0.0013021
        k(  322) = (   0.0000000  -0.2886751   0.0859524), wk =   0.0013021
        k(  323) = (   0.0000000  -0.2886751   0.1289286), wk =   0.0013021
        k(  324) = (   0.0000000  -0.3367877   0.0429762), wk =   0.0013021
        k(  325) = (   0.0000000  -0.3367877   0.0859524), wk =   0.0013021
        k(  326) = (   0.0000000  -0.3367877   0.1289286), wk =   0.0013021
        k(  327) = (   0.0000000  -0.3849002   0.0429762), wk =   0.0013021
        k(  328) = (   0.0000000  -0.3849002   0.0859524), wk =   0.0013021
        k(  329) = (   0.0000000  -0.3849002   0.1289286), wk =   0.0013021
        k(  330) = (   0.0000000  -0.4330127   0.0429762), wk =   0.0013021
        k(  331) = (   0.0000000  -0.4330127   0.0859524), wk =   0.0013021
        k(  332) = (   0.0000000  -0.4330127   0.1289286), wk =   0.0013021
        k(  333) = (   0.0000000  -0.4811252   0.0429762), wk =   0.0013021
        k(  334) = (   0.0000000  -0.4811252   0.0859524), wk =   0.0013021
        k(  335) = (   0.0000000  -0.4811252   0.1289286), wk =   0.0013021
        k(  336) = (   0.0000000  -0.5292377   0.0429762), wk =   0.0013021
        k(  337) = (   0.0000000  -0.5292377   0.0859524), wk =   0.0013021
        k(  338) = (   0.0000000  -0.5292377   0.1289286), wk =   0.0013021
        k(  339) = (  -0.0416667  -0.1202813   0.0429762), wk =   0.0026042
        k(  340) = (  -0.0416667  -0.1202813   0.0859524), wk =   0.0026042
        k(  341) = (  -0.0416667  -0.1202813   0.1289286), wk =   0.0026042
        k(  342) = (  -0.0416667  -0.1683938   0.0429762), wk =   0.0026042
        k(  343) = (  -0.0416667  -0.1683938   0.0859524), wk =   0.0026042
        k(  344) = (  -0.0416667  -0.1683938   0.1289286), wk =   0.0026042
        k(  345) = (  -0.0416667  -0.2165064   0.0429762), wk =   0.0026042
        k(  346) = (  -0.0416667  -0.2165064   0.0859524), wk =   0.0026042
        k(  347) = (  -0.0416667  -0.2165064   0.1289286), wk =   0.0026042
        k(  348) = (  -0.0416667  -0.2646189   0.0429762), wk =   0.0026042
        k(  349) = (  -0.0416667  -0.2646189   0.0859524), wk =   0.0026042
        k(  350) = (  -0.0416667  -0.2646189   0.1289286), wk =   0.0026042
        k(  351) = (  -0.0416667  -0.3127314   0.0429762), wk =   0.0026042
        k(  352) = (  -0.0416667  -0.3127314   0.0859524), wk =   0.0026042
        k(  353) = (  -0.0416667  -0.3127314   0.1289286), wk =   0.0026042
        k(  354) = (  -0.0416667  -0.3608439   0.0429762), wk =   0.0026042
        k(  355) = (  -0.0416667  -0.3608439   0.0859524), wk =   0.0026042
        k(  356) = (  -0.0416667  -0.3608439   0.1289286), wk =   0.0026042
        k(  357) = (  -0.0416667  -0.4089564   0.0429762), wk =   0.0026042
        k(  358) = (  -0.0416667  -0.4089564   0.0859524), wk =   0.0026042
        k(  359) = (  -0.0416667  -0.4089564   0.1289286), wk =   0.0026042
        k(  360) = (  -0.0416667  -0.4570690   0.0429762), wk =   0.0026042
        k(  361) = (  -0.0416667  -0.4570690   0.0859524), wk =   0.0026042
        k(  362) = (  -0.0416667  -0.4570690   0.1289286), wk =   0.0026042
        k(  363) = (  -0.0416667  -0.5051815   0.0429762), wk =   0.0026042
        k(  364) = (  -0.0416667  -0.5051815   0.0859524), wk =   0.0026042
        k(  365) = (  -0.0416667  -0.5051815   0.1289286), wk =   0.0026042
        k(  366) = (  -0.0416667  -0.5532940   0.0429762), wk =   0.0026042
        k(  367) = (  -0.0416667  -0.5532940   0.0859524), wk =   0.0026042
        k(  368) = (  -0.0416667  -0.5532940   0.1289286), wk =   0.0026042
        k(  369) = (  -0.0833333  -0.1924501   0.0429762), wk =   0.0026042
        k(  370) = (  -0.0833333  -0.1924501   0.0859524), wk =   0.0026042
        k(  371) = (  -0.0833333  -0.1924501   0.1289286), wk =   0.0026042
        k(  372) = (  -0.0833333  -0.2405626   0.0429762), wk =   0.0026042
        k(  373) = (  -0.0833333  -0.2405626   0.0859524), wk =   0.0026042
        k(  374) = (  -0.0833333  -0.2405626   0.1289286), wk =   0.0026042
        k(  375) = (  -0.0833333  -0.2886751   0.0429762), wk =   0.0026042
        k(  376) = (  -0.0833333  -0.2886751   0.0859524), wk =   0.0026042
        k(  377) = (  -0.0833333  -0.2886751   0.1289286), wk =   0.0026042
        k(  378) = (  -0.0833333  -0.3367877   0.0429762), wk =   0.0026042
        k(  379) = (  -0.0833333  -0.3367877   0.0859524), wk =   0.0026042
        k(  380) = (  -0.0833333  -0.3367877   0.1289286), wk =   0.0026042
        k(  381) = (  -0.0833333  -0.3849002   0.0429762), wk =   0.0026042
        k(  382) = (  -0.0833333  -0.3849002   0.0859524), wk =   0.0026042
        k(  383) = (  -0.0833333  -0.3849002   0.1289286), wk =   0.0026042
        k(  384) = (  -0.0833333  -0.4330127   0.0429762), wk =   0.0026042
        k(  385) = (  -0.0833333  -0.4330127   0.0859524), wk =   0.0026042
        k(  386) = (  -0.0833333  -0.4330127   0.1289286), wk =   0.0026042
        k(  387) = (  -0.0833333  -0.4811252   0.0429762), wk =   0.0026042
        k(  388) = (  -0.0833333  -0.4811252   0.0859524), wk =   0.0026042
        k(  389) = (  -0.0833333  -0.4811252   0.1289286), wk =   0.0026042
        k(  390) = (  -0.0833333  -0.5292377   0.0429762), wk =   0.0026042
        k(  391) = (  -0.0833333  -0.5292377   0.0859524), wk =   0.0026042
        k(  392) = (  -0.0833333  -0.5292377   0.1289286), wk =   0.0026042
        k(  393) = (  -0.1250000  -0.2646189   0.0429762), wk =   0.0026042
        k(  394) = (  -0.1250000  -0.2646189   0.0859524), wk =   0.0026042
        k(  395) = (  -0.1250000  -0.2646189   0.1289286), wk =   0.0026042
        k(  396) = (  -0.1250000  -0.3127314   0.0429762), wk =   0.0026042
        k(  397) = (  -0.1250000  -0.3127314   0.0859524), wk =   0.0026042
        k(  398) = (  -0.1250000  -0.3127314   0.1289286), wk =   0.0026042
        k(  399) = (  -0.1250000  -0.3608439   0.0429762), wk =   0.0026042
        k(  400) = (  -0.1250000  -0.3608439   0.0859524), wk =   0.0026042
        k(  401) = (  -0.1250000  -0.3608439   0.1289286), wk =   0.0026042
        k(  402) = (  -0.1250000  -0.4089564   0.0429762), wk =   0.0026042
        k(  403) = (  -0.1250000  -0.4089564   0.0859524), wk =   0.0026042
        k(  404) = (  -0.1250000  -0.4089564   0.1289286), wk =   0.0026042
        k(  405) = (  -0.1250000  -0.4570690   0.0429762), wk =   0.0026042
        k(  406) = (  -0.1250000  -0.4570690   0.0859524), wk =   0.0026042
        k(  407) = (  -0.1250000  -0.4570690   0.1289286), wk =   0.0026042
        k(  408) = (  -0.1250000  -0.5051815   0.0429762), wk =   0.0026042
        k(  409) = (  -0.1250000  -0.5051815   0.0859524), wk =   0.0026042
        k(  410) = (  -0.1250000  -0.5051815   0.1289286), wk =   0.0026042
        k(  411) = (  -0.1250000  -0.5532940   0.0429762), wk =   0.0026042
        k(  412) = (  -0.1250000  -0.5532940   0.0859524), wk =   0.0026042
        k(  413) = (  -0.1250000  -0.5532940   0.1289286), wk =   0.0026042
        k(  414) = (  -0.1666667  -0.3367877   0.0429762), wk =   0.0026042
        k(  415) = (  -0.1666667  -0.3367877   0.0859524), wk =   0.0026042
        k(  416) = (  -0.1666667  -0.3367877   0.1289286), wk =   0.0026042
        k(  417) = (  -0.1666667  -0.3849002   0.0429762), wk =   0.0026042
        k(  418) = (  -0.1666667  -0.3849002   0.0859524), wk =   0.0026042
        k(  419) = (  -0.1666667  -0.3849002   0.1289286), wk =   0.0026042
        k(  420) = (  -0.1666667  -0.4330127   0.0429762), wk =   0.0026042
        k(  421) = (  -0.1666667  -0.4330127   0.0859524), wk =   0.0026042
        k(  422) = (  -0.1666667  -0.4330127   0.1289286), wk =   0.0026042
        k(  423) = (  -0.1666667  -0.4811252   0.0429762), wk =   0.0026042
        k(  424) = (  -0.1666667  -0.4811252   0.0859524), wk =   0.0026042
        k(  425) = (  -0.1666667  -0.4811252   0.1289286), wk =   0.0026042
        k(  426) = (  -0.1666667  -0.5292377   0.0429762), wk =   0.0026042
        k(  427) = (  -0.1666667  -0.5292377   0.0859524), wk =   0.0026042
        k(  428) = (  -0.1666667  -0.5292377   0.1289286), wk =   0.0026042
        k(  429) = (  -0.2083333  -0.4089564   0.0429762), wk =   0.0026042
        k(  430) = (  -0.2083333  -0.4089564   0.0859524), wk =   0.0026042
        k(  431) = (  -0.2083333  -0.4089564   0.1289286), wk =   0.0026042
        k(  432) = (  -0.2083333  -0.4570690   0.0429762), wk =   0.0026042
        k(  433) = (  -0.2083333  -0.4570690   0.0859524), wk =   0.0026042
        k(  434) = (  -0.2083333  -0.4570690   0.1289286), wk =   0.0026042
        k(  435) = (  -0.2083333  -0.5051815   0.0429762), wk =   0.0026042
        k(  436) = (  -0.2083333  -0.5051815   0.0859524), wk =   0.0026042
        k(  437) = (  -0.2083333  -0.5051815   0.1289286), wk =   0.0026042
        k(  438) = (  -0.2083333  -0.5532940   0.0429762), wk =   0.0026042
        k(  439) = (  -0.2083333  -0.5532940   0.0859524), wk =   0.0026042
        k(  440) = (  -0.2083333  -0.5532940   0.1289286), wk =   0.0026042
        k(  441) = (  -0.2500000  -0.4811252   0.0429762), wk =   0.0026042
        k(  442) = (  -0.2500000  -0.4811252   0.0859524), wk =   0.0026042
        k(  443) = (  -0.2500000  -0.4811252   0.1289286), wk =   0.0026042
        k(  444) = (  -0.2500000  -0.5292377   0.0429762), wk =   0.0026042
        k(  445) = (  -0.2500000  -0.5292377   0.0859524), wk =   0.0026042
        k(  446) = (  -0.2500000  -0.5292377   0.1289286), wk =   0.0026042
        k(  447) = (  -0.2916667  -0.5532940   0.0429762), wk =   0.0026042
        k(  448) = (  -0.2916667  -0.5532940   0.0859524), wk =   0.0026042
        k(  449) = (  -0.2916667  -0.5532940   0.1289286), wk =   0.0026042

                       cryst. coord.
        k(    1) = (   0.0000000   0.0000000   0.0000000), wk =   0.0002170
        k(    2) = (   0.0000000   0.0000000   0.1250000), wk =   0.0004340
        k(    3) = (   0.0000000   0.0000000   0.2500000), wk =   0.0004340
        k(    4) = (   0.0000000   0.0000000   0.3750000), wk =   0.0004340
        k(    5) = (   0.0000000   0.0000000  -0.5000000), wk =   0.0002170
        k(    6) = (   0.0000000   0.0416667   0.0000000), wk =   0.0013021
        k(    7) = (   0.0000000   0.0416667   0.1250000), wk =   0.0013021
        k(    8) = (   0.0000000   0.0416667   0.2500000), wk =   0.0013021
        k(    9) = (   0.0000000   0.0416667   0.3750000), wk =   0.0013021
        k(   10) = (   0.0000000   0.0416667  -0.5000000), wk =   0.0013021
        k(   11) = (   0.0000000   0.0833333   0.0000000), wk =   0.0013021
        k(   12) = (   0.0000000   0.0833333   0.1250000), wk =   0.0013021
        k(   13) = (   0.0000000   0.0833333   0.2500000), wk =   0.0013021
        k(   14) = (   0.0000000   0.0833333   0.3750000), wk =   0.0013021
        k(   15) = (   0.0000000   0.0833333  -0.5000000), wk =   0.0013021
        k(   16) = (   0.0000000   0.1250000   0.0000000), wk =   0.0013021
        k(   17) = (   0.0000000   0.1250000   0.1250000), wk =   0.0013021
        k(   18) = (   0.0000000   0.1250000   0.2500000), wk =   0.0013021
        k(   19) = (   0.0000000   0.1250000   0.3750000), wk =   0.0013021
        k(   20) = (   0.0000000   0.1250000  -0.5000000), wk =   0.0013021
        k(   21) = (   0.0000000   0.1666667   0.0000000), wk =   0.0013021
        k(   22) = (   0.0000000   0.1666667   0.1250000), wk =   0.0013021
        k(   23) = (   0.0000000   0.1666667   0.2500000), wk =   0.0013021
        k(   24) = (   0.0000000   0.1666667   0.3750000), wk =   0.0013021
        k(   25) = (   0.0000000   0.1666667  -0.5000000), wk =   0.0013021
        k(   26) = (   0.0000000   0.2083333   0.0000000), wk =   0.0013021
        k(   27) = (   0.0000000   0.2083333   0.1250000), wk =   0.0013021
        k(   28) = (   0.0000000   0.2083333   0.2500000), wk =   0.0013021
        k(   29) = (   0.0000000   0.2083333   0.3750000), wk =   0.0013021
        k(   30) = (   0.0000000   0.2083333  -0.5000000), wk =   0.0013021
        k(   31) = (   0.0000000   0.2500000   0.0000000), wk =   0.0013021
        k(   32) = (   0.0000000   0.2500000   0.1250000), wk =   0.0013021
        k(   33) = (   0.0000000   0.2500000   0.2500000), wk =   0.0013021
        k(   34) = (   0.0000000   0.2500000   0.3750000), wk =   0.0013021
        k(   35) = (   0.0000000   0.2500000  -0.5000000), wk =   0.0013021
        k(   36) = (   0.0000000   0.2916667   0.0000000), wk =   0.0013021
        k(   37) = (   0.0000000   0.2916667   0.1250000), wk =   0.0013021
        k(   38) = (   0.0000000   0.2916667   0.2500000), wk =   0.0013021
        k(   39) = (   0.0000000   0.2916667   0.3750000), wk =   0.0013021
        k(   40) = (   0.0000000   0.2916667  -0.5000000), wk =   0.0013021
        k(   41) = (   0.0000000   0.3333333   0.0000000), wk =   0.0013021
        k(   42) = (   0.0000000   0.3333333   0.1250000), wk =   0.0013021
        k(   43) = (   0.0000000   0.3333333   0.2500000), wk =   0.0013021
        k(   44) = (   0.0000000   0.3333333   0.3750000), wk =   0.0013021
        k(   45) = (   0.0000000   0.3333333  -0.5000000), wk =   0.0013021
        k(   46) = (   0.0000000   0.3750000   0.0000000), wk =   0.0013021
        k(   47) = (   0.0000000   0.3750000   0.1250000), wk =   0.0013021
        k(   48) = (   0.0000000   0.3750000   0.2500000), wk =   0.0013021
        k(   49) = (   0.0000000   0.3750000   0.3750000), wk =   0.0013021
        k(   50) = (   0.0000000   0.3750000  -0.5000000), wk =   0.0013021
        k(   51) = (   0.0000000   0.4166667   0.0000000), wk =   0.0013021
        k(   52) = (   0.0000000   0.4166667   0.1250000), wk =   0.0013021
        k(   53) = (   0.0000000   0.4166667   0.2500000), wk =   0.0013021
        k(   54) = (   0.0000000   0.4166667   0.3750000), wk =   0.0013021
        k(   55) = (   0.0000000   0.4166667  -0.5000000), wk =   0.0013021
        k(   56) = (   0.0000000   0.4583333   0.0000000), wk =   0.0013021
        k(   57) = (   0.0000000   0.4583333   0.1250000), wk =   0.0013021
        k(   58) = (   0.0000000   0.4583333   0.2500000), wk =   0.0013021
        k(   59) = (   0.0000000   0.4583333   0.3750000), wk =   0.0013021
        k(   60) = (   0.0000000   0.4583333  -0.5000000), wk =   0.0013021
        k(   61) = (   0.0000000  -0.5000000   0.0000000), wk =   0.0006510
        k(   62) = (   0.0000000  -0.5000000   0.1250000), wk =   0.0013021
        k(   63) = (   0.0000000  -0.5000000   0.2500000), wk =   0.0013021
        k(   64) = (   0.0000000  -0.5000000   0.3750000), wk =   0.0013021
        k(   65) = (   0.0000000  -0.5000000  -0.5000000), wk =   0.0006510
        k(   66) = (   0.0416667   0.0416667   0.0000000), wk =   0.0013021
        k(   67) = (   0.0416667   0.0416667   0.1250000), wk =   0.0026042
        k(   68) = (   0.0416667   0.0416667   0.2500000), wk =   0.0026042
        k(   69) = (   0.0416667   0.0416667   0.3750000), wk =   0.0026042
        k(   70) = (   0.0416667   0.0416667  -0.5000000), wk =   0.0013021
        k(   71) = (   0.0416667   0.0833333   0.0000000), wk =   0.0026042
        k(   72) = (   0.0416667   0.0833333   0.1250000), wk =   0.0026042
        k(   73) = (   0.0416667   0.0833333   0.2500000), wk =   0.0026042
        k(   74) = (   0.0416667   0.0833333   0.3750000), wk =   0.0026042
        k(   75) = (   0.0416667   0.0833333  -0.5000000), wk =   0.0026042
        k(   76) = (   0.0416667   0.1250000   0.0000000), wk =   0.0026042
        k(   77) = (   0.0416667   0.1250000   0.1250000), wk =   0.0026042
        k(   78) = (   0.0416667   0.1250000   0.2500000), wk =   0.0026042
        k(   79) = (   0.0416667   0.1250000   0.3750000), wk =   0.0026042
        k(   80) = (   0.0416667   0.1250000  -0.5000000), wk =   0.0026042
        k(   81) = (   0.0416667   0.1666667   0.0000000), wk =   0.0026042
        k(   82) = (   0.0416667   0.1666667   0.1250000), wk =   0.0026042
        k(   83) = (   0.0416667   0.1666667   0.2500000), wk =   0.0026042
        k(   84) = (   0.0416667   0.1666667   0.3750000), wk =   0.0026042
        k(   85) = (   0.0416667   0.1666667  -0.5000000), wk =   0.0026042
        k(   86) = (   0.0416667   0.2083333   0.0000000), wk =   0.0026042
        k(   87) = (   0.0416667   0.2083333   0.1250000), wk =   0.0026042
        k(   88) = (   0.0416667   0.2083333   0.2500000), wk =   0.0026042
        k(   89) = (   0.0416667   0.2083333   0.3750000), wk =   0.0026042
        k(   90) = (   0.0416667   0.2083333  -0.5000000), wk =   0.0026042
        k(   91) = (   0.0416667   0.2500000   0.0000000), wk =   0.0026042
        k(   92) = (   0.0416667   0.2500000   0.1250000), wk =   0.0026042
        k(   93) = (   0.0416667   0.2500000   0.2500000), wk =   0.0026042
        k(   94) = (   0.0416667   0.2500000   0.3750000), wk =   0.0026042
        k(   95) = (   0.0416667   0.2500000  -0.5000000), wk =   0.0026042
        k(   96) = (   0.0416667   0.2916667   0.0000000), wk =   0.0026042
        k(   97) = (   0.0416667   0.2916667   0.1250000), wk =   0.0026042
        k(   98) = (   0.0416667   0.2916667   0.2500000), wk =   0.0026042
        k(   99) = (   0.0416667   0.2916667   0.3750000), wk =   0.0026042
        k(  100) = (   0.0416667   0.2916667  -0.5000000), wk =   0.0026042
        k(  101) = (   0.0416667   0.3333333   0.0000000), wk =   0.0026042
        k(  102) = (   0.0416667   0.3333333   0.1250000), wk =   0.0026042
        k(  103) = (   0.0416667   0.3333333   0.2500000), wk =   0.0026042
        k(  104) = (   0.0416667   0.3333333   0.3750000), wk =   0.0026042
        k(  105) = (   0.0416667   0.3333333  -0.5000000), wk =   0.0026042
        k(  106) = (   0.0416667   0.3750000   0.0000000), wk =   0.0026042
        k(  107) = (   0.0416667   0.3750000   0.1250000), wk =   0.0026042
        k(  108) = (   0.0416667   0.3750000   0.2500000), wk =   0.0026042
        k(  109) = (   0.0416667   0.3750000   0.3750000), wk =   0.0026042
        k(  110) = (   0.0416667   0.3750000  -0.5000000), wk =   0.0026042
        k(  111) = (   0.0416667   0.4166667   0.0000000), wk =   0.0026042
        k(  112) = (   0.0416667   0.4166667   0.1250000), wk =   0.0026042
        k(  113) = (   0.0416667   0.4166667   0.2500000), wk =   0.0026042
        k(  114) = (   0.0416667   0.4166667   0.3750000), wk =   0.0026042
        k(  115) = (   0.0416667   0.4166667  -0.5000000), wk =   0.0026042
        k(  116) = (   0.0416667   0.4583333   0.0000000), wk =   0.0026042
        k(  117) = (   0.0416667   0.4583333   0.1250000), wk =   0.0026042
        k(  118) = (   0.0416667   0.4583333   0.2500000), wk =   0.0026042
        k(  119) = (   0.0416667   0.4583333   0.3750000), wk =   0.0026042
        k(  120) = (   0.0416667   0.4583333  -0.5000000), wk =   0.0026042
        k(  121) = (   0.0833333   0.0833333   0.0000000), wk =   0.0013021
        k(  122) = (   0.0833333   0.0833333   0.1250000), wk =   0.0026042
        k(  123) = (   0.0833333   0.0833333   0.2500000), wk =   0.0026042
        k(  124) = (   0.0833333   0.0833333   0.3750000), wk =   0.0026042
        k(  125) = (   0.0833333   0.0833333  -0.5000000), wk =   0.0013021
        k(  126) = (   0.0833333   0.1250000   0.0000000), wk =   0.0026042
        k(  127) = (   0.0833333   0.1250000   0.1250000), wk =   0.0026042
        k(  128) = (   0.0833333   0.1250000   0.2500000), wk =   0.0026042
        k(  129) = (   0.0833333   0.1250000   0.3750000), wk =   0.0026042
        k(  130) = (   0.0833333   0.1250000  -0.5000000), wk =   0.0026042
        k(  131) = (   0.0833333   0.1666667   0.0000000), wk =   0.0026042
        k(  132) = (   0.0833333   0.1666667   0.1250000), wk =   0.0026042
        k(  133) = (   0.0833333   0.1666667   0.2500000), wk =   0.0026042
        k(  134) = (   0.0833333   0.1666667   0.3750000), wk =   0.0026042
        k(  135) = (   0.0833333   0.1666667  -0.5000000), wk =   0.0026042
        k(  136) = (   0.0833333   0.2083333   0.0000000), wk =   0.0026042
        k(  137) = (   0.0833333   0.2083333   0.1250000), wk =   0.0026042
        k(  138) = (   0.0833333   0.2083333   0.2500000), wk =   0.0026042
        k(  139) = (   0.0833333   0.2083333   0.3750000), wk =   0.0026042
        k(  140) = (   0.0833333   0.2083333  -0.5000000), wk =   0.0026042
        k(  141) = (   0.0833333   0.2500000   0.0000000), wk =   0.0026042
        k(  142) = (   0.0833333   0.2500000   0.1250000), wk =   0.0026042
        k(  143) = (   0.0833333   0.2500000   0.2500000), wk =   0.0026042
        k(  144) = (   0.0833333   0.2500000   0.3750000), wk =   0.0026042
        k(  145) = (   0.0833333   0.2500000  -0.5000000), wk =   0.0026042
        k(  146) = (   0.0833333   0.2916667   0.0000000), wk =   0.0026042
        k(  147) = (   0.0833333   0.2916667   0.1250000), wk =   0.0026042
        k(  148) = (   0.0833333   0.2916667   0.2500000), wk =   0.0026042
        k(  149) = (   0.0833333   0.2916667   0.3750000), wk =   0.0026042
        k(  150) = (   0.0833333   0.2916667  -0.5000000), wk =   0.0026042
        k(  151) = (   0.0833333   0.3333333   0.0000000), wk =   0.0026042
        k(  152) = (   0.0833333   0.3333333   0.1250000), wk =   0.0026042
        k(  153) = (   0.0833333   0.3333333   0.2500000), wk =   0.0026042
        k(  154) = (   0.0833333   0.3333333   0.3750000), wk =   0.0026042
        k(  155) = (   0.0833333   0.3333333  -0.5000000), wk =   0.0026042
        k(  156) = (   0.0833333   0.3750000   0.0000000), wk =   0.0026042
        k(  157) = (   0.0833333   0.3750000   0.1250000), wk =   0.0026042
        k(  158) = (   0.0833333   0.3750000   0.2500000), wk =   0.0026042
        k(  159) = (   0.0833333   0.3750000   0.3750000), wk =   0.0026042
        k(  160) = (   0.0833333   0.3750000  -0.5000000), wk =   0.0026042
        k(  161) = (   0.0833333   0.4166667   0.0000000), wk =   0.0026042
        k(  162) = (   0.0833333   0.4166667   0.1250000), wk =   0.0026042
        k(  163) = (   0.0833333   0.4166667   0.2500000), wk =   0.0026042
        k(  164) = (   0.0833333   0.4166667   0.3750000), wk =   0.0026042
        k(  165) = (   0.0833333   0.4166667  -0.5000000), wk =   0.0026042
        k(  166) = (   0.0833333   0.4583333   0.0000000), wk =   0.0013021
        k(  167) = (   0.0833333   0.4583333   0.1250000), wk =   0.0026042
        k(  168) = (   0.0833333   0.4583333   0.2500000), wk =   0.0026042
        k(  169) = (   0.0833333   0.4583333   0.3750000), wk =   0.0026042
        k(  170) = (   0.0833333   0.4583333  -0.5000000), wk =   0.0013021
        k(  171) = (   0.1250000   0.1250000   0.0000000), wk =   0.0013021
        k(  172) = (   0.1250000   0.1250000   0.1250000), wk =   0.0026042
        k(  173) = (   0.1250000   0.1250000   0.2500000), wk =   0.0026042
        k(  174) = (   0.1250000   0.1250000   0.3750000), wk =   0.0026042
        k(  175) = (   0.1250000   0.1250000  -0.5000000), wk =   0.0013021
        k(  176) = (   0.1250000   0.1666667   0.0000000), wk =   0.0026042
        k(  177) = (   0.1250000   0.1666667   0.1250000), wk =   0.0026042
        k(  178) = (   0.1250000   0.1666667   0.2500000), wk =   0.0026042
        k(  179) = (   0.1250000   0.1666667   0.3750000), wk =   0.0026042
        k(  180) = (   0.1250000   0.1666667  -0.5000000), wk =   0.0026042
        k(  181) = (   0.1250000   0.2083333   0.0000000), wk =   0.0026042
        k(  182) = (   0.1250000   0.2083333   0.1250000), wk =   0.0026042
        k(  183) = (   0.1250000   0.2083333   0.2500000), wk =   0.0026042
        k(  184) = (   0.1250000   0.2083333   0.3750000), wk =   0.0026042
        k(  185) = (   0.1250000   0.2083333  -0.5000000), wk =   0.0026042
        k(  186) = (   0.1250000   0.2500000   0.0000000), wk =   0.0026042
        k(  187) = (   0.1250000   0.2500000   0.1250000), wk =   0.0026042
        k(  188) = (   0.1250000   0.2500000   0.2500000), wk =   0.0026042
        k(  189) = (   0.1250000   0.2500000   0.3750000), wk =   0.0026042
        k(  190) = (   0.1250000   0.2500000  -0.5000000), wk =   0.0026042
        k(  191) = (   0.1250000   0.2916667   0.0000000), wk =   0.0026042
        k(  192) = (   0.1250000   0.2916667   0.1250000), wk =   0.0026042
        k(  193) = (   0.1250000   0.2916667   0.2500000), wk =   0.0026042
        k(  194) = (   0.1250000   0.2916667   0.3750000), wk =   0.0026042
        k(  195) = (   0.1250000   0.2916667  -0.5000000), wk =   0.0026042
        k(  196) = (   0.1250000   0.3333333   0.0000000), wk =   0.0026042
        k(  197) = (   0.1250000   0.3333333   0.1250000), wk =   0.0026042
        k(  198) = (   0.1250000   0.3333333   0.2500000), wk =   0.0026042
        k(  199) = (   0.1250000   0.3333333   0.3750000), wk =   0.0026042
        k(  200) = (   0.1250000   0.3333333  -0.5000000), wk =   0.0026042
        k(  201) = (   0.1250000   0.3750000   0.0000000), wk =   0.0026042
        k(  202) = (   0.1250000   0.3750000   0.1250000), wk =   0.0026042
        k(  203) = (   0.1250000   0.3750000   0.2500000), wk =   0.0026042
        k(  204) = (   0.1250000   0.3750000   0.3750000), wk =   0.0026042
        k(  205) = (   0.1250000   0.3750000  -0.5000000), wk =   0.0026042
        k(  206) = (   0.1250000   0.4166667   0.0000000), wk =   0.0026042
        k(  207) = (   0.1250000   0.4166667   0.1250000), wk =   0.0026042
        k(  208) = (   0.1250000   0.4166667   0.2500000), wk =   0.0026042
        k(  209) = (   0.1250000   0.4166667   0.3750000), wk =   0.0026042
        k(  210) = (   0.1250000   0.4166667  -0.5000000), wk =   0.0026042
        k(  211) = (   0.1666667   0.1666667   0.0000000), wk =   0.0013021
        k(  212) = (   0.1666667   0.1666667   0.1250000), wk =   0.0026042
        k(  213) = (   0.1666667   0.1666667   0.2500000), wk =   0.0026042
        k(  214) = (   0.1666667   0.1666667   0.3750000), wk =   0.0026042
        k(  215) = (   0.1666667   0.1666667  -0.5000000), wk =   0.0013021
        k(  216) = (   0.1666667   0.2083333   0.0000000), wk =   0.0026042
        k(  217) = (   0.1666667   0.2083333   0.1250000), wk =   0.0026042
        k(  218) = (   0.1666667   0.2083333   0.2500000), wk =   0.0026042
        k(  219) = (   0.1666667   0.2083333   0.3750000), wk =   0.0026042
        k(  220) = (   0.1666667   0.2083333  -0.5000000), wk =   0.0026042
        k(  221) = (   0.1666667   0.2500000   0.0000000), wk =   0.0026042
        k(  222) = (   0.1666667   0.2500000   0.1250000), wk =   0.0026042
        k(  223) = (   0.1666667   0.2500000   0.2500000), wk =   0.0026042
        k(  224) = (   0.1666667   0.2500000   0.3750000), wk =   0.0026042
        k(  225) = (   0.1666667   0.2500000  -0.5000000), wk =   0.0026042
        k(  226) = (   0.1666667   0.2916667   0.0000000), wk =   0.0026042
        k(  227) = (   0.1666667   0.2916667   0.1250000), wk =   0.0026042
        k(  228) = (   0.1666667   0.2916667   0.2500000), wk =   0.0026042
        k(  229) = (   0.1666667   0.2916667   0.3750000), wk =   0.0026042
        k(  230) = (   0.1666667   0.2916667  -0.5000000), wk =   0.0026042
        k(  231) = (   0.1666667   0.3333333   0.0000000), wk =   0.0026042
        k(  232) = (   0.1666667   0.3333333   0.1250000), wk =   0.0026042
        k(  233) = (   0.1666667   0.3333333   0.2500000), wk =   0.0026042
        k(  234) = (   0.1666667   0.3333333   0.3750000), wk =   0.0026042
        k(  235) = (   0.1666667   0.3333333  -0.5000000), wk =   0.0026042
        k(  236) = (   0.1666667   0.3750000   0.0000000), wk =   0.0026042
        k(  237) = (   0.1666667   0.3750000   0.1250000), wk =   0.0026042
        k(  238) = (   0.1666667   0.3750000   0.2500000), wk =   0.0026042
        k(  239) = (   0.1666667   0.3750000   0.3750000), wk =   0.0026042
        k(  240) = (   0.1666667   0.3750000  -0.5000000), wk =   0.0026042
        k(  241) = (   0.1666667   0.4166667   0.0000000), wk =   0.0013021
        k(  242) = (   0.1666667   0.4166667   0.1250000), wk =   0.0026042
        k(  243) = (   0.1666667   0.4166667   0.2500000), wk =   0.0026042
        k(  244) = (   0.1666667   0.4166667   0.3750000), wk =   0.0026042
        k(  245) = (   0.1666667   0.4166667  -0.5000000), wk =   0.0013021
        k(  246) = (   0.2083333   0.2083333   0.0000000), wk =   0.0013021
        k(  247) = (   0.2083333   0.2083333   0.1250000), wk =   0.0026042
        k(  248) = (   0.2083333   0.2083333   0.2500000), wk =   0.0026042
        k(  249) = (   0.2083333   0.2083333   0.3750000), wk =   0.0026042
        k(  250) = (   0.2083333   0.2083333  -0.5000000), wk =   0.0013021
        k(  251) = (   0.2083333   0.2500000   0.0000000), wk =   0.0026042
        k(  252) = (   0.2083333   0.2500000   0.1250000), wk =   0.0026042
        k(  253) = (   0.2083333   0.2500000   0.2500000), wk =   0.0026042
        k(  254) = (   0.2083333   0.2500000   0.3750000), wk =   0.0026042
        k(  255) = (   0.2083333   0.2500000  -0.5000000), wk =   0.0026042
        k(  256) = (   0.2083333   0.2916667   0.0000000), wk =   0.0026042
        k(  257) = (   0.2083333   0.2916667   0.1250000), wk =   0.0026042
        k(  258) = (   0.2083333   0.2916667   0.2500000), wk =   0.0026042
        k(  259) = (   0.2083333   0.2916667   0.3750000), wk =   0.0026042
        k(  260) = (   0.2083333   0.2916667  -0.5000000), wk =   0.0026042
        k(  261) = (   0.2083333   0.3333333   0.0000000), wk =   0.0026042
        k(  262) = (   0.2083333   0.3333333   0.1250000), wk =   0.0026042
        k(  263) = (   0.2083333   0.3333333   0.2500000), wk =   0.0026042
        k(  264) = (   0.2083333   0.3333333   0.3750000), wk =   0.0026042
        k(  265) = (   0.2083333   0.3333333  -0.5000000), wk =   0.0026042
        k(  266) = (   0.2083333   0.3750000   0.0000000), wk =   0.0026042
        k(  267) = (   0.2083333   0.3750000   0.1250000), wk =   0.0026042
        k(  268) = (   0.2083333   0.3750000   0.2500000), wk =   0.0026042
        k(  269) = (   0.2083333   0.3750000   0.3750000), wk =   0.0026042
        k(  270) = (   0.2083333   0.3750000  -0.5000000), wk =   0.0026042
        k(  271) = (   0.2500000   0.2500000   0.0000000), wk =   0.0013021
        k(  272) = (   0.2500000   0.2500000   0.1250000), wk =   0.0026042
        k(  273) = (   0.2500000   0.2500000   0.2500000), wk =   0.0026042
        k(  274) = (   0.2500000   0.2500000   0.3750000), wk =   0.0026042
        k(  275) = (   0.2500000   0.2500000  -0.5000000), wk =   0.0013021
        k(  276) = (   0.2500000   0.2916667   0.0000000), wk =   0.0026042
        k(  277) = (   0.2500000   0.2916667   0.1250000), wk =   0.0026042
        k(  278) = (   0.2500000   0.2916667   0.2500000), wk =   0.0026042
        k(  279) = (   0.2500000   0.2916667   0.3750000), wk =   0.0026042
        k(  280) = (   0.2500000   0.2916667  -0.5000000), wk =   0.0026042
        k(  281) = (   0.2500000   0.3333333   0.0000000), wk =   0.0026042
        k(  282) = (   0.2500000   0.3333333   0.1250000), wk =   0.0026042
        k(  283) = (   0.2500000   0.3333333   0.2500000), wk =   0.0026042
        k(  284) = (   0.2500000   0.3333333   0.3750000), wk =   0.0026042
        k(  285) = (   0.2500000   0.3333333  -0.5000000), wk =   0.0026042
        k(  286) = (   0.2500000   0.3750000   0.0000000), wk =   0.0013021
        k(  287) = (   0.2500000   0.3750000   0.1250000), wk =   0.0026042
        k(  288) = (   0.2500000   0.3750000   0.2500000), wk =   0.0026042
        k(  289) = (   0.2500000   0.3750000   0.3750000), wk =   0.0026042
        k(  290) = (   0.2500000   0.3750000  -0.5000000), wk =   0.0013021
        k(  291) = (   0.2916667   0.2916667   0.0000000), wk =   0.0013021
        k(  292) = (   0.2916667   0.2916667   0.1250000), wk =   0.0026042
        k(  293) = (   0.2916667   0.2916667   0.2500000), wk =   0.0026042
        k(  294) = (   0.2916667   0.2916667   0.3750000), wk =   0.0026042
        k(  295) = (   0.2916667   0.2916667  -0.5000000), wk =   0.0013021
        k(  296) = (   0.2916667   0.3333333   0.0000000), wk =   0.0026042
        k(  297) = (   0.2916667   0.3333333   0.1250000), wk =   0.0026042
        k(  298) = (   0.2916667   0.3333333   0.2500000), wk =   0.0026042
        k(  299) = (   0.2916667   0.3333333   0.3750000), wk =   0.0026042
        k(  300) = (   0.2916667   0.3333333  -0.5000000), wk =   0.0026042
        k(  301) = (   0.3333333   0.3333333   0.0000000), wk =   0.0004340
        k(  302) = (   0.3333333   0.3333333   0.1250000), wk =   0.0008681
        k(  303) = (   0.3333333   0.3333333   0.2500000), wk =   0.0008681
        k(  304) = (   0.3333333   0.3333333   0.3750000), wk =   0.0008681
        k(  305) = (   0.3333333   0.3333333  -0.5000000), wk =   0.0004340
        k(  306) = (   0.0000000  -0.0416667   0.1250000), wk =   0.0013021
        k(  307) = (   0.0000000  -0.0416667   0.2500000), wk =   0.0013021
        k(  308) = (   0.0000000  -0.0416667   0.3750000), wk =   0.0013021
        k(  309) = (   0.0000000  -0.0833333   0.1250000), wk =   0.0013021
        k(  310) = (   0.0000000  -0.0833333   0.2500000), wk =   0.0013021
        k(  311) = (   0.0000000  -0.0833333   0.3750000), wk =   0.0013021
        k(  312) = (   0.0000000  -0.1250000   0.1250000), wk =   0.0013021
        k(  313) = (   0.0000000  -0.1250000   0.2500000), wk =   0.0013021
        k(  314) = (   0.0000000  -0.1250000   0.3750000), wk =   0.0013021
        k(  315) = (   0.0000000  -0.1666667   0.1250000), wk =   0.0013021
        k(  316) = (   0.0000000  -0.1666667   0.2500000), wk =   0.0013021
        k(  317) = (   0.0000000  -0.1666667   0.3750000), wk =   0.0013021
        k(  318) = (   0.0000000  -0.2083333   0.1250000), wk =   0.0013021
        k(  319) = (   0.0000000  -0.2083333   0.2500000), wk =   0.0013021
        k(  320) = (   0.0000000  -0.2083333   0.3750000), wk =   0.0013021
        k(  321) = (   0.0000000  -0.2500000   0.1250000), wk =   0.0013021
        k(  322) = (   0.0000000  -0.2500000   0.2500000), wk =   0.0013021
        k(  323) = (   0.0000000  -0.2500000   0.3750000), wk =   0.0013021
        k(  324) = (   0.0000000  -0.2916667   0.1250000), wk =   0.0013021
        k(  325) = (   0.0000000  -0.2916667   0.2500000), wk =   0.0013021
        k(  326) = (   0.0000000  -0.2916667   0.3750000), wk =   0.0013021
        k(  327) = (   0.0000000  -0.3333333   0.1250000), wk =   0.0013021
        k(  328) = (   0.0000000  -0.3333333   0.2500000), wk =   0.0013021
        k(  329) = (   0.0000000  -0.3333333   0.3750000), wk =   0.0013021
        k(  330) = (   0.0000000  -0.3750000   0.1250000), wk =   0.0013021
        k(  331) = (   0.0000000  -0.3750000   0.2500000), wk =   0.0013021
        k(  332) = (   0.0000000  -0.3750000   0.3750000), wk =   0.0013021
        k(  333) = (   0.0000000  -0.4166667   0.1250000), wk =   0.0013021
        k(  334) = (   0.0000000  -0.4166667   0.2500000), wk =   0.0013021
        k(  335) = (   0.0000000  -0.4166667   0.3750000), wk =   0.0013021
        k(  336) = (   0.0000000  -0.4583333   0.1250000), wk =   0.0013021
        k(  337) = (   0.0000000  -0.4583333   0.2500000), wk =   0.0013021
        k(  338) = (   0.0000000  -0.4583333   0.3750000), wk =   0.0013021
        k(  339) = (  -0.0416667  -0.0833333   0.1250000), wk =   0.0026042
        k(  340) = (  -0.0416667  -0.0833333   0.2500000), wk =   0.0026042
        k(  341) = (  -0.0416667  -0.0833333   0.3750000), wk =   0.0026042
        k(  342) = (  -0.0416667  -0.1250000   0.1250000), wk =   0.0026042
        k(  343) = (  -0.0416667  -0.1250000   0.2500000), wk =   0.0026042
        k(  344) = (  -0.0416667  -0.1250000   0.3750000), wk =   0.0026042
        k(  345) = (  -0.0416667  -0.1666667   0.1250000), wk =   0.0026042
        k(  346) = (  -0.0416667  -0.1666667   0.2500000), wk =   0.0026042
        k(  347) = (  -0.0416667  -0.1666667   0.3750000), wk =   0.0026042
        k(  348) = (  -0.0416667  -0.2083333   0.1250000), wk =   0.0026042
        k(  349) = (  -0.0416667  -0.2083333   0.2500000), wk =   0.0026042
        k(  350) = (  -0.0416667  -0.2083333   0.3750000), wk =   0.0026042
        k(  351) = (  -0.0416667  -0.2500000   0.1250000), wk =   0.0026042
        k(  352) = (  -0.0416667  -0.2500000   0.2500000), wk =   0.0026042
        k(  353) = (  -0.0416667  -0.2500000   0.3750000), wk =   0.0026042
        k(  354) = (  -0.0416667  -0.2916667   0.1250000), wk =   0.0026042
        k(  355) = (  -0.0416667  -0.2916667   0.2500000), wk =   0.0026042
        k(  356) = (  -0.0416667  -0.2916667   0.3750000), wk =   0.0026042
        k(  357) = (  -0.0416667  -0.3333333   0.1250000), wk =   0.0026042
        k(  358) = (  -0.0416667  -0.3333333   0.2500000), wk =   0.0026042
        k(  359) = (  -0.0416667  -0.3333333   0.3750000), wk =   0.0026042
        k(  360) = (  -0.0416667  -0.3750000   0.1250000), wk =   0.0026042
        k(  361) = (  -0.0416667  -0.3750000   0.2500000), wk =   0.0026042
        k(  362) = (  -0.0416667  -0.3750000   0.3750000), wk =   0.0026042
        k(  363) = (  -0.0416667  -0.4166667   0.1250000), wk =   0.0026042
        k(  364) = (  -0.0416667  -0.4166667   0.2500000), wk =   0.0026042
        k(  365) = (  -0.0416667  -0.4166667   0.3750000), wk =   0.0026042
        k(  366) = (  -0.0416667  -0.4583333   0.1250000), wk =   0.0026042
        k(  367) = (  -0.0416667  -0.4583333   0.2500000), wk =   0.0026042
        k(  368) = (  -0.0416667  -0.4583333   0.3750000), wk =   0.0026042
        k(  369) = (  -0.0833333  -0.1250000   0.1250000), wk =   0.0026042
        k(  370) = (  -0.0833333  -0.1250000   0.2500000), wk =   0.0026042
        k(  371) = (  -0.0833333  -0.1250000   0.3750000), wk =   0.0026042
        k(  372) = (  -0.0833333  -0.1666667   0.1250000), wk =   0.0026042
        k(  373) = (  -0.0833333  -0.1666667   0.2500000), wk =   0.0026042
        k(  374) = (  -0.0833333  -0.1666667   0.3750000), wk =   0.0026042
        k(  375) = (  -0.0833333  -0.2083333   0.1250000), wk =   0.0026042
        k(  376) = (  -0.0833333  -0.2083333   0.2500000), wk =   0.0026042
        k(  377) = (  -0.0833333  -0.2083333   0.3750000), wk =   0.0026042
        k(  378) = (  -0.0833333  -0.2500000   0.1250000), wk =   0.0026042
        k(  379) = (  -0.0833333  -0.2500000   0.2500000), wk =   0.0026042
        k(  380) = (  -0.0833333  -0.2500000   0.3750000), wk =   0.0026042
        k(  381) = (  -0.0833333  -0.2916667   0.1250000), wk =   0.0026042
        k(  382) = (  -0.0833333  -0.2916667   0.2500000), wk =   0.0026042
        k(  383) = (  -0.0833333  -0.2916667   0.3750000), wk =   0.0026042
        k(  384) = (  -0.0833333  -0.3333333   0.1250000), wk =   0.0026042
        k(  385) = (  -0.0833333  -0.3333333   0.2500000), wk =   0.0026042
        k(  386) = (  -0.0833333  -0.3333333   0.3750000), wk =   0.0026042
        k(  387) = (  -0.0833333  -0.3750000   0.1250000), wk =   0.0026042
        k(  388) = (  -0.0833333  -0.3750000   0.2500000), wk =   0.0026042
        k(  389) = (  -0.0833333  -0.3750000   0.3750000), wk =   0.0026042
        k(  390) = (  -0.0833333  -0.4166667   0.1250000), wk =   0.0026042
        k(  391) = (  -0.0833333  -0.4166667   0.2500000), wk =   0.0026042
        k(  392) = (  -0.0833333  -0.4166667   0.3750000), wk =   0.0026042
        k(  393) = (  -0.1250000  -0.1666667   0.1250000), wk =   0.0026042
        k(  394) = (  -0.1250000  -0.1666667   0.2500000), wk =   0.0026042
        k(  395) = (  -0.1250000  -0.1666667   0.3750000), wk =   0.0026042
        k(  396) = (  -0.1250000  -0.2083333   0.1250000), wk =   0.0026042
        k(  397) = (  -0.1250000  -0.2083333   0.2500000), wk =   0.0026042
        k(  398) = (  -0.1250000  -0.2083333   0.3750000), wk =   0.0026042
        k(  399) = (  -0.1250000  -0.2500000   0.1250000), wk =   0.0026042
        k(  400) = (  -0.1250000  -0.2500000   0.2500000), wk =   0.0026042
        k(  401) = (  -0.1250000  -0.2500000   0.3750000), wk =   0.0026042
        k(  402) = (  -0.1250000  -0.2916667   0.1250000), wk =   0.0026042
        k(  403) = (  -0.1250000  -0.2916667   0.2500000), wk =   0.0026042
        k(  404) = (  -0.1250000  -0.2916667   0.3750000), wk =   0.0026042
        k(  405) = (  -0.1250000  -0.3333333   0.1250000), wk =   0.0026042
        k(  406) = (  -0.1250000  -0.3333333   0.2500000), wk =   0.0026042
        k(  407) = (  -0.1250000  -0.3333333   0.3750000), wk =   0.0026042
        k(  408) = (  -0.1250000  -0.3750000   0.1250000), wk =   0.0026042
        k(  409) = (  -0.1250000  -0.3750000   0.2500000), wk =   0.0026042
        k(  410) = (  -0.1250000  -0.3750000   0.3750000), wk =   0.0026042
        k(  411) = (  -0.1250000  -0.4166667   0.1250000), wk =   0.0026042
        k(  412) = (  -0.1250000  -0.4166667   0.2500000), wk =   0.0026042
        k(  413) = (  -0.1250000  -0.4166667   0.3750000), wk =   0.0026042
        k(  414) = (  -0.1666667  -0.2083333   0.1250000), wk =   0.0026042
        k(  415) = (  -0.1666667  -0.2083333   0.2500000), wk =   0.0026042
        k(  416) = (  -0.1666667  -0.2083333   0.3750000), wk =   0.0026042
        k(  417) = (  -0.1666667  -0.2500000   0.1250000), wk =   0.0026042
        k(  418) = (  -0.1666667  -0.2500000   0.2500000), wk =   0.0026042
        k(  419) = (  -0.1666667  -0.2500000   0.3750000), wk =   0.0026042
        k(  420) = (  -0.1666667  -0.2916667   0.1250000), wk =   0.0026042
        k(  421) = (  -0.1666667  -0.2916667   0.2500000), wk =   0.0026042
        k(  422) = (  -0.1666667  -0.2916667   0.3750000), wk =   0.0026042
        k(  423) = (  -0.1666667  -0.3333333   0.1250000), wk =   0.0026042
        k(  424) = (  -0.1666667  -0.3333333   0.2500000), wk =   0.0026042
        k(  425) = (  -0.1666667  -0.3333333   0.3750000), wk =   0.0026042
        k(  426) = (  -0.1666667  -0.3750000   0.1250000), wk =   0.0026042
        k(  427) = (  -0.1666667  -0.3750000   0.2500000), wk =   0.0026042
        k(  428) = (  -0.1666667  -0.3750000   0.3750000), wk =   0.0026042
        k(  429) = (  -0.2083333  -0.2500000   0.1250000), wk =   0.0026042
        k(  430) = (  -0.2083333  -0.2500000   0.2500000), wk =   0.0026042
        k(  431) = (  -0.2083333  -0.2500000   0.3750000), wk =   0.0026042
        k(  432) = (  -0.2083333  -0.2916667   0.1250000), wk =   0.0026042
        k(  433) = (  -0.2083333  -0.2916667   0.2500000), wk =   0.0026042
        k(  434) = (  -0.2083333  -0.2916667   0.3750000), wk =   0.0026042
        k(  435) = (  -0.2083333  -0.3333333   0.1250000), wk =   0.0026042
        k(  436) = (  -0.2083333  -0.3333333   0.2500000), wk =   0.0026042
        k(  437) = (  -0.2083333  -0.3333333   0.3750000), wk =   0.0026042
        k(  438) = (  -0.2083333  -0.3750000   0.1250000), wk =   0.0026042
        k(  439) = (  -0.2083333  -0.3750000   0.2500000), wk =   0.0026042
        k(  440) = (  -0.2083333  -0.3750000   0.3750000), wk =   0.0026042
        k(  441) = (  -0.2500000  -0.2916667   0.1250000), wk =   0.0026042
        k(  442) = (  -0.2500000  -0.2916667   0.2500000), wk =   0.0026042
        k(  443) = (  -0.2500000  -0.2916667   0.3750000), wk =   0.0026042
        k(  444) = (  -0.2500000  -0.3333333   0.1250000), wk =   0.0026042
        k(  445) = (  -0.2500000  -0.3333333   0.2500000), wk =   0.0026042
        k(  446) = (  -0.2500000  -0.3333333   0.3750000), wk =   0.0026042
        k(  447) = (  -0.2916667  -0.3333333   0.1250000), wk =   0.0026042
        k(  448) = (  -0.2916667  -0.3333333   0.2500000), wk =   0.0026042
        k(  449) = (  -0.2916667  -0.3333333   0.3750000), wk =   0.0026042

     Dense  grid:    72573 G-vectors     FFT dimensions: (  40,  40, 120)

     Smooth grid:    25753 G-vectors     FFT dimensions: (  27,  27,  80)

     Dynamical RAM for                 wfc:       1.32 MB

     Dynamical RAM for     wfc (w. buffer):       1.32 MB

     Dynamical RAM for           str. fact:       3.32 MB

     Dynamical RAM for           local pot:       0.00 MB

     Dynamical RAM for          nlocal pot:       2.06 MB

     Dynamical RAM for                qrad:       5.27 MB

     Dynamical RAM for          rho,v,vnew:      15.43 MB

     Dynamical RAM for           G-vectors:       4.35 MB

     Dynamical RAM for          h,s,v(r/c):       0.13 MB

     Dynamical RAM for          <psi|beta>:       0.02 MB

     Dynamical RAM for                 psi:       2.65 MB

     Dynamical RAM for                hpsi:       2.65 MB

     Dynamical RAM for                spsi:       2.65 MB

     Dynamical RAM for      wfcinit/wfcrot:       2.66 MB

     Dynamical RAM for           addusdens:     209.29 MB

     Estimated static dynamical RAM per process >      44.98 MB

     Estimated max dynamical RAM per process >     254.27 MB

     Check: negative core charge=   -0.000007
     Generating pointlists ...
     new r_m :   0.2748 (alat units)  1.4998 (a.u.) for type    1
     new r_m :   0.2748 (alat units)  1.4998 (a.u.) for type    2
     new r_m :   0.3989 (alat units)  2.1767 (a.u.) for type    3

     The potential is recalculated from file :
     ../Na_1x1_c8.4_d1.00/out/pw.save/charge-density

     Starting wfcs are   23 randomized atomic wfcs +    4 random wfcs
     Checking if some PAW data can be deallocated... 

     Band Structure Calculation
     Davidson diagonalization with overlap

     Computing kpt #:     1  of   898
     total cpu time spent up to now is        4.1 secs

     Computing kpt #:     2  of   898
     total cpu time spent up to now is        4.3 secs

     Computing kpt #:     3  of   898
     total cpu time spent up to now is        4.4 secs

     Computing kpt #:     4  of   898
     total cpu time spent up to now is        4.6 secs

     Computing kpt #:     5  of   898
     total cpu time spent up to now is        4.8 secs

     Computing kpt #:     6  of   898
     total cpu time spent up to now is        4.9 secs

     Computing kpt #:     7  of   898
[...]
     1.0483   1.0753   0.5064   0.0000   0.0000   0.0000   0.0000   0.0000
     0.0000   0.0000   0.0000

          k =-0.1667-0.4811 0.0430 (  3211 PWs)   bands (ev):

   -89.8261 -53.1443 -53.1152 -52.9984 -48.0811 -20.1881 -20.0349 -19.9090
   -12.8602 -12.2417  -0.7390   0.0187   0.8544   1.5217   1.7914   2.8586
     4.7094   4.8762   5.2808   6.9855   7.2025   8.0386  11.3813  12.6717
    15.2235  15.9297  16.8668

     occupation numbers 
     1.0000   1.0000   1.0000   1.0000   1.0000   1.0000   1.0000   1.0000
     1.0000   1.0000   1.0000   1.0000   1.0000   1.0000   1.0000   1.0000
     1.0215   1.0727   0.5185   0.0000   0.0000   0.0000   0.0000   0.0000
     0.0000   0.0000   0.0000

          k =-0.1667-0.4811 0.0860 (  3212 PWs)   bands (ev):

   -89.8261 -53.1443 -53.1152 -52.9984 -48.0811 -20.1881 -20.0349 -19.9091
   -12.8602 -12.2417  -0.7391   0.0183   0.8544   1.5225   1.7921   2.8588
     4.7095   4.8765   5.2780   6.9982   7.2011   8.0187  11.3804  12.7080
    15.1917  15.9411  16.9083

     occupation numbers 
     1.0000   1.0000   1.0000   1.0000   1.0000   1.0000   1.0000   1.0000
     1.0000   1.0000   1.0000   1.0000   1.0000   1.0000   1.0000   1.0000
     1.0215   1.0728   0.5263   0.0000   0.0000   0.0000   0.0000   0.0000
     0.0000   0.0000   0.0000

          k =-0.1667-0.4811 0.1289 (  3211 PWs)   bands (ev):

   -89.8261 -53.1443 -53.1152 -52.9984 -48.0811 -20.1881 -20.0349 -19.9090
   -12.8602 -12.2417  -0.7392   0.0179   0.8543   1.5234   1.7924   2.8596
     4.7093   4.8768   5.2760   6.9917   7.2108   8.0117  11.3787  12.7139
    15.1847  15.9587  17.0177

     occupation numbers 
     1.0000   1.0000   1.0000   1.0000   1.0000   1.0000   1.0000   1.0000
     1.0000   1.0000   1.0000   1.0000   1.0000   1.0000   1.0000   1.0000
     1.0215   1.0729   0.5317   0.0000   0.0000   0.0000   0.0000   0.0000
     0.0000   0.0000   0.0000

          k =-0.1667-0.5292 0.0430 (  3212 PWs)   bands (ev):

   -89.8259 -53.1462 -53.1164 -52.9980 -48.0796 -20.1975 -20.0409 -19.9068
   -12.7914 -12.2456  -0.8529   0.0457   0.9002   1.5263   1.8398   2.7246
     4.6176   4.9047   5.2578   7.0678   7.2337   8.6343  10.6427  13.2406
    14.7119  15.6316  17.1795

     occupation numbers 
     1.0000   1.0000   1.0000   1.0000   1.0000   1.0000   1.0000   1.0000
     1.0000   1.0000   1.0000   1.0000   1.0000   1.0000   1.0000   1.0000
     1.0073   1.0796   0.5817   0.0000   0.0000   0.0000   0.0000   0.0000
     0.0000   0.0000   0.0000

          k =-0.1667-0.5292 0.0860 (  3217 PWs)   bands (ev):

   -89.8259 -53.1462 -53.1164 -52.9980 -48.0796 -20.1976 -20.0409 -19.9068
   -12.7914 -12.2456  -0.8530   0.0454   0.9002   1.5264   1.8402   2.7253
     4.6175   4.9050   5.2564   7.0725   7.2365   8.6178  10.6347  13.2832
    14.7298  15.6177  17.1822

     occupation numbers 
     1.0000   1.0000   1.0000   1.0000   1.0000   1.0000   1.0000   1.0000
     1.0000   1.0000   1.0000   1.0000   1.0000   1.0000   1.0000   1.0000
     1.0073   1.0797   0.5858   0.0000   0.0000   0.0000   0.0000   0.0000
     0.0000   0.0000   0.0000

          k =-0.1667-0.5292 0.1289 (  3221 PWs)   bands (ev):

   -89.8259 -53.1462 -53.1165 -52.9981 -48.0796 -20.1976 -20.0409 -19.9068
   -12.7914 -12.2456  -0.8530   0.0451   0.9001   1.5266   1.8403   2.7264
     4.6173   4.9053   5.2552   7.0707   7.2425   8.6091  10.6247  13.2957
    14.7745  15.6087  17.2535

     occupation numbers 
     1.0000   1.0000   1.0000   1.0000   1.0000   1.0000   1.0000   1.0000
     1.0000   1.0000   1.0000   1.0000   1.0000   1.0000   1.0000   1.0000
     1.0073   1.0797   0.5890   0.0000   0.0000   0.0000   0.0000   0.0000
     0.0000   0.0000   0.0000

          k =-0.2083-0.4090 0.0430 (  3210 PWs)   bands (ev):

   -89.8265 -53.1394 -53.1148 -52.9991 -48.0837 -20.1636 -20.0336 -19.9128
   -12.9789 -12.2309  -0.4209  -0.0811   0.7869   1.3588   1.7539   3.0895
     4.8301   4.8997   5.3338   6.7583   7.0572   7.5240  11.8534  12.7614
    15.1277  16.4883  17.2620

     occupation numbers 
     1.0000   1.0000   1.0000   1.0000   1.0000   1.0000   1.0000   1.0000
     1.0000   1.0000   1.0000   1.0000   1.0000   1.0000   1.0000   1.0000
     1.0578   1.0786   0.3800   0.0000   0.0000   0.0000   0.0000   0.0000
     0.0000   0.0000   0.0000

          k =-0.2083-0.4090 0.0860 (  3205 PWs)   bands (ev):

   -89.8265 -53.1394 -53.1148 -52.9990 -48.0837 -20.1636 -20.0335 -19.9128
   -12.9789 -12.2309  -0.4213  -0.0816   0.7870   1.3608   1.7547   3.0889
     4.8313   4.8998   5.3268   6.7749   7.0513   7.5113  11.8838  12.7487
    15.0856  16.5411  17.3298

     occupation numbers 
     1.0000   1.0000   1.0000   1.0000   1.0000   1.0000   1.0000   1.0000
     1.0000   1.0000   1.0000   1.0000   1.0000   1.0000   1.0000   1.0000
     1.0582   1.0786   0.3973   0.0000   0.0000   0.0000   0.0000   0.0000
     0.0000   0.0000   0.0000

          k =-0.2083-0.4090 0.1289 (  3203 PWs)   bands (ev):

   -89.8265 -53.1394 -53.1148 -52.9990 -48.0837 -20.1635 -20.0335 -19.9127
   -12.9789 -12.2309  -0.4217  -0.0821   0.7870   1.3628   1.7553   3.0885
     4.8323   4.8999   5.3207   6.7770   7.0578   7.5020  11.9089  12.7328
    15.0523  16.5875  17.4179

     occupation numbers 
     1.0000   1.0000   1.0000   1.0000   1.0000   1.0000   1.0000   1.0000
     1.0000   1.0000   1.0000   1.0000   1.0000   1.0000   1.0000   1.0000
     1.0586   1.0786   0.4128   0.0000   0.0000   0.0000   0.0000   0.0000
     0.0000   0.0000   0.0000

          k =-0.2083-0.4571 0.0430 (  3212 PWs)   bands (ev):

   -89.8261 -53.1418 -53.1177 -52.9984 -48.0811 -20.1751 -20.0481 -19.9091
   -12.8712 -12.2310  -0.5490  -0.0594   0.7500   1.4309   1.7967   2.8785
     4.7422   4.8996   5.3348   6.9378   7.1075   7.9694  11.7875  12.6128
    14.9523  16.4171  16.7994

     occupation numbers 
     1.0000   1.0000   1.0000   1.0000   1.0000   1.0000   1.0000   1.0000
     1.0000   1.0000   1.0000   1.0000   1.0000   1.0000   1.0000   1.0000
     1.0296   1.0786   0.3775   0.0000   0.0000   0.0000   0.0000   0.0000
     0.0000   0.0000   0.0000

          k =-0.2083-0.4571 0.0860 (  3212 PWs)   bands (ev):

   -89.8261 -53.1418 -53.1177 -52.9984 -48.0811 -20.1751 -20.0481 -19.9090
   -12.8712 -12.2310  -0.5492  -0.0598   0.7501   1.4316   1.7976   2.8784
     4.7424   4.9001   5.3312   6.9582   7.0992   7.9496  11.7949  12.6364
    14.9193  16.4470  16.8220

     occupation numbers 
     1.0000   1.0000   1.0000   1.0000   1.0000   1.0000   1.0000   1.0000
     1.0000   1.0000   1.0000   1.0000   1.0000   1.0000   1.0000   1.0000
     1.0296   1.0787   0.3865   0.0000   0.0000   0.0000   0.0000   0.0000
     0.0000   0.0000   0.0000

          k =-0.2083-0.4571 0.1289 (  3212 PWs)   bands (ev):

   -89.8261 -53.1418 -53.1177 -52.9984 -48.0811 -20.1751 -20.0481 -19.9090
   -12.8712 -12.2310  -0.5493  -0.0602   0.7501   1.4325   1.7982   2.8786
     4.7424   4.9005   5.3282   6.9643   7.1005   7.9367  11.8019  12.6444
    14.8958  16.4328  16.9432

     occupation numbers 
     1.0000   1.0000   1.0000   1.0000   1.0000   1.0000   1.0000   1.0000
     1.0000   1.0000   1.0000   1.0000   1.0000   1.0000   1.0000   1.0000
     1.0296   1.0788   0.3940   0.0000   0.0000   0.0000   0.0000   0.0000
     0.0000   0.0000   0.0000

          k =-0.2083-0.5052 0.0430 (  3210 PWs)   bands (ev):

   -89.8259 -53.1434 -53.1198 -52.9980 -48.0793 -20.1827 -20.0588 -19.9063
   -12.7940 -12.2304  -0.6616  -0.0276   0.7398   1.4697   1.8633   2.6999
     4.6329   4.9521   5.3156   7.0208   7.1357   8.5550  11.1078  13.1273
    14.7175  15.6923  17.1237

     occupation numbers 
     1.0000   1.0000   1.0000   1.0000   1.0000   1.0000   1.0000   1.0000
     1.0000   1.0000   1.0000   1.0000   1.0000   1.0000   1.0000   1.0000
     1.0089   1.0829   0.4259   0.0000   0.0000   0.0000   0.0000   0.0000
     0.0000   0.0000   0.0000

          k =-0.2083-0.5052 0.0860 (  3220 PWs)   bands (ev):

   -89.8259 -53.1434 -53.1199 -52.9980 -48.0793 -20.1828 -20.0589 -19.9064
   -12.7940 -12.2304  -0.6617  -0.0279   0.7398   1.4698   1.8638   2.7001
     4.6329   4.9524   5.3137   7.0317   7.1341   8.5359  11.1026  13.1672
    14.6994  15.7291  17.0960

     occupation numbers 
     1.0000   1.0000   1.0000   1.0000   1.0000   1.0000   1.0000   1.0000
     1.0000   1.0000   1.0000   1.0000   1.0000   1.0000   1.0000   1.0000
     1.0089   1.0829   0.4308   0.0000   0.0000   0.0000   0.0000   0.0000
     0.0000   0.0000   0.0000

          k =-0.2083-0.5052 0.1289 (  3216 PWs)   bands (ev):

   -89.8259 -53.1434 -53.1198 -52.9980 -48.0793 -20.1828 -20.0589 -19.9064
   -12.7940 -12.2304  -0.6617  -0.0282   0.7398   1.4702   1.8640   2.7007
     4.6329   4.9528   5.3121   7.0355   7.1369   8.5226  11.0968  13.1871
    14.6932  15.7658  17.1381

     occupation numbers 
     1.0000   1.0000   1.0000   1.0000   1.0000   1.0000   1.0000   1.0000
     1.0000   1.0000   1.0000   1.0000   1.0000   1.0000   1.0000   1.0000
     1.0089   1.0828   0.4349   0.0000   0.0000   0.0000   0.0000   0.0000
     0.0000   0.0000   0.0000

          k =-0.2083-0.5533 0.0430 (  3215 PWs)   bands (ev):

   -89.8257 -53.1442 -53.1210 -52.9977 -48.0783 -20.1865 -20.0647 -19.9050
   -12.7539 -12.2298  -0.7245  -0.0104   0.7473   1.4817   1.9112   2.5953
     4.5720   4.9899   5.2945   7.0728   7.1315   9.1072  10.4932  13.6775
    14.4145  15.2187  17.3653

     occupation numbers 
     1.0000   1.0000   1.0000   1.0000   1.0000   1.0000   1.0000   1.0000
     1.0000   1.0000   1.0000   1.0000   1.0000   1.0000   1.0000   1.0000
     1.0039   1.0741   0.4813   0.0000   0.0000   0.0000   0.0000   0.0000
     0.0000   0.0000   0.0000

          k =-0.2083-0.5533 0.0860 (  3220 PWs)   bands (ev):

   -89.8257 -53.1442 -53.1210 -52.9978 -48.0783 -20.1865 -20.0647 -19.9051
   -12.7539 -12.2298  -0.7245  -0.0106   0.7473   1.4817   1.9112   2.5959
     4.5720   4.9901   5.2934   7.0769   7.1343   9.0921  10.4835  13.7102
    14.4232  15.2478  17.3422

     occupation numbers 
     1.0000   1.0000   1.0000   1.0000   1.0000   1.0000   1.0000   1.0000
     1.0000   1.0000   1.0000   1.0000   1.0000   1.0000   1.0000   1.0000
     1.0039   1.0740   0.4843   0.0000   0.0000   0.0000   0.0000   0.0000
     0.0000   0.0000   0.0000

          k =-0.2083-0.5533 0.1289 (  3224 PWs)   bands (ev):

   -89.8257 -53.1442 -53.1210 -52.9978 -48.0783 -20.1866 -20.0647 -19.9051
   -12.7539 -12.2298  -0.7245  -0.0108   0.7474   1.4817   1.9111   2.5965
     4.5719   4.9903   5.2924   7.0782   7.1390   9.0797  10.4725  13.7259
    14.4450  15.2799  17.3593

     occupation numbers 
     1.0000   1.0000   1.0000   1.0000   1.0000   1.0000   1.0000   1.0000
     1.0000   1.0000   1.0000   1.0000   1.0000   1.0000   1.0000   1.0000
     1.0039   1.0739   0.4870   0.0000   0.0000   0.0000   0.0000   0.0000
     0.0000   0.0000   0.0000

          k =-0.2500-0.4811 0.0430 (  3215 PWs)   bands (ev):

   -89.8259 -53.1413 -53.1222 -52.9979 -48.0791 -20.1719 -20.0714 -19.9061
   -12.7963 -12.2217  -0.5022  -0.0858   0.5907   1.4573   1.8852   2.6856
     4.6405   4.9795   5.3491   6.9726   7.0979   8.5132  11.4419  13.0456
    14.4213  16.2356  16.9542

     occupation numbers 
     1.0000   1.0000   1.0000   1.0000   1.0000   1.0000   1.0000   1.0000
     1.0000   1.0000   1.0000   1.0000   1.0000   1.0000   1.0000   1.0000
     1.0098   1.0777   0.3432   0.0000   0.0000   0.0000   0.0000   0.0000
     0.0000   0.0000   0.0000

          k =-0.2500-0.4811 0.0860 (  3216 PWs)   bands (ev):

   -89.8259 -53.1413 -53.1222 -52.9980 -48.0791 -20.1719 -20.0714 -19.9062
   -12.7963 -12.2217  -0.5023  -0.0861   0.5908   1.4575   1.8857   2.6856
     4.6405   4.9799   5.3470   6.9852   7.0948   8.4942  11.4394  13.0776
    14.4086  16.2648  16.9214

     occupation numbers 
     1.0000   1.0000   1.0000   1.0000   1.0000   1.0000   1.0000   1.0000
     1.0000   1.0000   1.0000   1.0000   1.0000   1.0000   1.0000   1.0000
     1.0098   1.0776   0.3481   0.0000   0.0000   0.0000   0.0000   0.0000
     0.0000   0.0000   0.0000

          k =-0.2500-0.4811 0.1289 (  3212 PWs)   bands (ev):

   -89.8258 -53.1413 -53.1222 -52.9979 -48.0791 -20.1718 -20.0714 -19.9062
   -12.7963 -12.2217  -0.5023  -0.0863   0.5909   1.4578   1.8862   2.6858
     4.6405   4.9803   5.3451   6.9962   7.0924   8.4773  11.4367  13.1030
    14.3986  16.2811  16.9383

     occupation numbers 
     1.0000   1.0000   1.0000   1.0000   1.0000   1.0000   1.0000   1.0000
     1.0000   1.0000   1.0000   1.0000   1.0000   1.0000   1.0000   1.0000
     1.0098   1.0775   0.3528   0.0000   0.0000   0.0000   0.0000   0.0000
     0.0000   0.0000   0.0000

          k =-0.2500-0.5292 0.0430 (  3212 PWs)   bands (ev):

   -89.8257 -53.1413 -53.1247 -52.9976 -48.0779 -20.1714 -20.0844 -19.9043
   -12.7476 -12.2165  -0.5443  -0.0596   0.5207   1.5071   1.9588   2.5253
     4.5638   5.0445   5.3259   7.0146   7.0930   9.1104  10.8433  13.5322
    14.2454  15.5415  16.9369

     occupation numbers 
     1.0000   1.0000   1.0000   1.0000   1.0000   1.0000   1.0000   1.0000
     1.0000   1.0000   1.0000   1.0000   1.0000   1.0000   1.0000   1.0000
     1.0035   1.0362   0.3996   0.0000   0.0000   0.0000   0.0000   0.0000
     0.0000   0.0000   0.0000

          k =-0.2500-0.5292 0.0860 (  3215 PWs)   bands (ev):

   -89.8257 -53.1413 -53.1247 -52.9976 -48.0779 -20.1715 -20.0844 -19.9044
   -12.7476 -12.2165  -0.5444  -0.0597   0.5208   1.5072   1.9589   2.5255
     4.5639   5.0446   5.3248   7.0218   7.0935   9.0933  10.8357  13.5575
    14.2495  15.5787  16.9308

     occupation numbers 
     1.0000   1.0000   1.0000   1.0000   1.0000   1.0000   1.0000   1.0000
     1.0000   1.0000   1.0000   1.0000   1.0000   1.0000   1.0000   1.0000
     1.0035   1.0361   0.4025   0.0000   0.0000   0.0000   0.0000   0.0000
     0.0000   0.0000   0.0000

          k =-0.2500-0.5292 0.1289 (  3214 PWs)   bands (ev):

   -89.8257 -53.1413 -53.1247 -52.9976 -48.0779 -20.1715 -20.0843 -19.9044
   -12.7476 -12.2165  -0.5444  -0.0599   0.5209   1.5074   1.9588   2.5258
     4.5639   5.0448   5.3237   7.0275   7.0947   9.0785  10.8275  13.5721
    14.2585  15.6195  16.9456

     occupation numbers 
     1.0000   1.0000   1.0000   1.0000   1.0000   1.0000   1.0000   1.0000
     1.0000   1.0000   1.0000   1.0000   1.0000   1.0000   1.0000   1.0000
     1.0035   1.0359   0.4053   0.0000   0.0000   0.0000   0.0000   0.0000
     0.0000   0.0000   0.0000

          k =-0.2917-0.5533 0.0430 (  3211 PWs)   bands (ev):

   -89.8255 -53.1382 -53.1296 -52.9974 -48.0770 -20.1548 -20.1099 -19.9031
   -12.7208 -12.2049  -0.4159  -0.0520   0.2762   1.5769   2.0578   2.3528
     4.5178   5.1296   5.3115   7.0002   7.0683   9.6480  10.5597  13.4324
    14.4114  15.4935  16.2878

     occupation numbers 
     1.0000   1.0000   1.0000   1.0000   1.0000   1.0000   1.0000   1.0000
     1.0000   1.0000   1.0000   1.0000   1.0000   1.0000   1.0000   1.0000
     1.0017   0.9061   0.4364   0.0000   0.0000   0.0000   0.0000   0.0000
     0.0000   0.0000   0.0000

          k =-0.2917-0.5533 0.0860 (  3207 PWs)   bands (ev):

   -89.8255 -53.1382 -53.1296 -52.9974 -48.0770 -20.1548 -20.1098 -19.9030
   -12.7208 -12.2049  -0.4160  -0.0521   0.2764   1.5771   2.0577   2.3528
     4.5179   5.1296   5.3109   7.0046   7.0705   9.6333  10.5500  13.4303
    14.4396  15.5299  16.3168

     occupation numbers 
     1.0000   1.0000   1.0000   1.0000   1.0000   1.0000   1.0000   1.0000
     1.0000   1.0000   1.0000   1.0000   1.0000   1.0000   1.0000   1.0000
     1.0017   0.9062   0.4381   0.0000   0.0000   0.0000   0.0000   0.0000
     0.0000   0.0000   0.0000

          k =-0.2917-0.5533 0.1289 (  3213 PWs)   bands (ev):

   -89.8255 -53.1382 -53.1296 -52.9974 -48.0770 -20.1548 -20.1099 -19.9031
   -12.7208 -12.2049  -0.4160  -0.0522   0.2764   1.5772   2.0574   2.3529
     4.5180   5.1295   5.3102   7.0090   7.0727   9.6190  10.5397  13.4275
    14.4671  15.5686  16.3484

     occupation numbers 
     1.0000   1.0000   1.0000   1.0000   1.0000   1.0000   1.0000   1.0000
     1.0000   1.0000   1.0000   1.0000   1.0000   1.0000   1.0000   1.0000
     1.0017   0.9064   0.4398   0.0000   0.0000   0.0000   0.0000   0.0000
     0.0000   0.0000   0.0000

     the Fermi energy is     5.3255 ev
     (compare with:     5.3170 eV, computed in scf)

     Writing all to output data dir ../Na_1x1_c8.4_d1.00/out/pw.save/ :
     XML data file, pseudopotentials, collected wavefunctions
 
     init_run     :     13.27s CPU      3.29s WALL (       1 calls)
     electrons    :    189.61s CPU    189.26s WALL (       1 calls)

     Called by init_run:
     wfcinit      :      0.00s CPU      0.00s WALL (       1 calls)
     wfcinit:atom :      0.71s CPU      0.75s WALL (     898 calls)
     wfcinit:wfcr :      2.17s CPU      2.25s WALL (     898 calls)
     potinit      :     12.49s CPU      2.36s WALL (       1 calls)
     hinit0       :      0.45s CPU      0.45s WALL (       1 calls)

     Called by electrons:
     c_bands      :    189.58s CPU    189.23s WALL (       1 calls)
     v_of_rho     :      0.02s CPU      0.07s WALL (       1 calls)
     v_h          :      0.01s CPU      0.00s WALL (       1 calls)
     v_xc         :      0.01s CPU      0.06s WALL (       1 calls)
     newd         :      0.05s CPU      0.18s WALL (       1 calls)
                                        0.18s GPU  (       1 calls)
     PAW_pot      :      4.60s CPU      0.58s WALL (       1 calls)

     Called by c_bands:
     init_us_2    :      0.30s CPU      0.37s WALL (     898 calls)
     cegterg      :    185.44s CPU    184.88s WALL (    3519 calls)

     Called by sum_band:

     Called by *egterg:
     cdiaghg      :     64.94s CPU     66.90s WALL (   63649 calls)
                                       66.12s GPU  (   63649 calls)
     cegterg:over :     12.56s CPU     13.10s WALL (   62751 calls)
     cegterg:upda :     17.13s CPU     17.26s WALL (   62751 calls)
     cegterg:last :      3.36s CPU      3.26s WALL (   36958 calls)
     h_psi        :     63.53s CPU     62.48s WALL (   67168 calls)
                                       61.64s GPU  (   67168 calls)
     s_psi        :     10.38s CPU     10.94s WALL (   67168 calls)
     g_psi        :      0.32s CPU      1.64s WALL (   62751 calls)
                                        0.84s GPU  (   62751 calls)

     Called by h_psi:
     h_psi:calbec :      1.76s CPU      3.30s WALL (   67168 calls)
                                        2.45s GPU  (   67168 calls)
     vloc_psi     :     45.24s CPU     43.31s WALL (   67168 calls)
                                       42.46s GPU  (   67168 calls)
     add_vuspsi   :      9.35s CPU     11.09s WALL (   67168 calls)
                                       10.23s GPU  (   67168 calls)

     General routines
     calbec       :      1.59s CPU      1.72s WALL (   67168 calls)
     fft          :      3.41s CPU      0.92s WALL (      23 calls)
                                        0.01s GPU  (      21 calls)
     ffts         :      4.44s CPU      0.79s WALL (       2 calls)
     fftw         :      3.86s CPU     12.74s WALL (  205058 calls)
                                       10.38s GPU  (  205058 calls)
     interpolate  :      7.86s CPU      1.71s WALL (       2 calls)
     davcio       :      1.52s CPU      0.33s WALL (    1796 calls)
 
     Parallel routines

     PAW routines
     PAW_pot      :      4.60s CPU      0.58s WALL (       1 calls)
 
     PWSCF        :   3m31.12s CPU   3m13.95s WALL

 
   This run was terminated on:   4: 8:39  12Jul2026            

=------------------------------------------------------------------------------=
   JOB DONE.
=------------------------------------------------------------------------------=
Warning: ieee_divide_by_zero is signaling
Warning: ieee_inexact is signaling
FORTRAN STOP
