
     Program PWSCF v.7.3.1 starts on 12Jul2026 at  2:21: 7 

     This program is part of the open-source Quantum ESPRESSO suite
     for quantum simulation of materials; please cite
         "P. Giannozzi et al., J. Phys.:Condens. Matter 21 395502 (2009);
         "P. Giannozzi et al., J. Phys.:Condens. Matter 29 465901 (2017);
         "P. Giannozzi et al., J. Chem. Phys. 152 154105 (2020);
          URL http://www.quantum-espresso.org", 
     in publications or presentations arising from this work. More details at
     http://www.quantum-espresso.org/quote

     Parallel version (MPI & OpenMP), running on      14 processor cores
     Number of MPI processes:                 1
     Threads/MPI process:                    14

     MPI processes distributed on     1 nodes
     849153 MiB available memory on the printing compute node when the environment starts
 
     Reading input from pw.in

     Current dimensions of program PWSCF are:
     Max number of different atomic species (ntypx) = 10
     Max number of k-points (npk) =  40000
     Max angular momentum in pseudopotentials (lmaxx) =  4
     file Co.pbe-spn-kjpaw_psl.0.3.1.UPF: wavefunction(s)  3P 3D renormalized
     file O.pbe-n-kjpaw_psl.1.0.0.UPF: wavefunction(s)  2S 2P renormalized
 
     Subspace diagonalization in iterative solution of the eigenvalue problem:
     a serial algorithm will be used

 
     G-vector sticks info
     --------------------
     sticks:   dense  smooth     PW     G-vecs:    dense   smooth      PW
     Sum         931     475    139                81725    28863    4749
 
     Using Slab Decomposition
 


     bravais-lattice index     =            4
     lattice parameter (alat)  =       5.3290  a.u.
     unit-cell volume          =     460.1089 (a.u.)^3
     number of atoms/cell      =            4
     number of atomic types    =            3
     number of electrons       =        32.00
     number of Kohn-Sham states=           24
     kinetic-energy cutoff     =      60.0000  Ry
     charge density cutoff     =     480.0000  Ry
     scf convergence threshold =      1.0E-08
     mixing beta               =       0.3000
     number of iterations used =            8  plain     mixing
     Exchange-correlation= SLA  PW   PBX  PBC
                           (   1   4   3   4   0   0   0)

     GPU acceleration is ACTIVE.  1 visible GPUs per MPI rank
     GPU-aware MPI enabled


     GPU used by master process:

        Device Number: 0
        Device name: NVIDIA A100-SXM4-80GB
        Compute capability : 80
        Ratio of single to double precision performance  : 2
        Memory Clock Rate (KHz): 1593000
        Memory Bus Width (bits): 5120
        Peak Memory Bandwidth (GB/s): ******

     celldm(1)=   5.329028  celldm(2)=   0.000000  celldm(3)=   3.510638
     celldm(4)=   0.000000  celldm(5)=   0.000000  celldm(6)=   0.000000

     crystal axes: (cart. coord. in units of alat)
               a(1) = (   1.000000   0.000000   0.000000 )  
               a(2) = (  -0.500000   0.866025   0.000000 )  
               a(3) = (   0.000000   0.000000   3.510638 )  

     reciprocal axes: (cart. coord. in units 2 pi/alat)
               b(1) = (  1.000000  0.577350 -0.000000 )  
               b(2) = (  0.000000  1.154701  0.000000 )  
               b(3) = (  0.000000 -0.000000  0.284848 )  


     PseudoPot. # 1 for Co read from file:
     ../../pseudo/Co.pbe-spn-kjpaw_psl.0.3.1.UPF
     MD5 check sum: 3c0a43779828c046024e4f3be63f8e67
     Pseudo is Projector augmented-wave + core cor, Zval = 17.0
     Generated using &quot;atomic&quot; code by A. Dal Corso  v.6.2.2
     Shape of augmentation charge: PSQ
     Using radial grid of 1193 points,  6 beta functions with: 
                l(1) =   0
                l(2) =   0
                l(3) =   1
                l(4) =   1
                l(5) =   2
                l(6) =   2
     Q(r) pseudized with 0 coefficients 


     PseudoPot. # 2 for O  read from file:
     ../../pseudo/O.pbe-n-kjpaw_psl.1.0.0.UPF
     MD5 check sum: e99d9cef9b487d1ca56f5b95ecd0fd7a
     Pseudo is Projector augmented-wave + core cor, Zval =  6.0
     Generated using &quot;atomic&quot; code by A. Dal Corso  v.6.3
     Shape of augmentation charge: PSQ
     Using radial grid of 1095 points,  4 beta functions with: 
                l(1) =   0
                l(2) =   0
                l(3) =   1
                l(4) =   1
     Q(r) pseudized with 0 coefficients 


     PseudoPot. # 3 for Li read from file:
     ../../pseudo/Li.pbe-s-kjpaw_psl.1.0.0.UPF
     MD5 check sum: 3974953fb0fea6c4f83fb01d64ffc134
     Pseudo is Projector augmented-wave, Zval =  3.0
     Generated using &quot;atomic&quot; code by A. Dal Corso  v.6.3
     Shape of augmentation charge: PSQ
     Using radial grid of 1017 points,  4 beta functions with: 
                l(1) =   0
                l(2) =   0
                l(3) =   1
                l(4) =   1
     Q(r) pseudized with 0 coefficients 


     atomic species   valence    mass     pseudopotential
     Co               17.00    58.93300     Co( 1.00)
     O                 6.00    15.99900     O ( 1.00)
     Li                3.00     6.94100     Li( 1.00)

     Starting magnetic structure 
     atomic species   magnetization
     Co              0.300
     O               0.000
     Li              0.000

      6 Sym. Ops. (no inversion) found


                                    s                        frac. trans.

      isym =  1     identity                                     

 cryst.   s( 1) = (     1          0          0      )
                  (     0          1          0      )
                  (     0          0          1      )

 cart.    s( 1) = (  1.0000000  0.0000000  0.0000000 )
                  (  0.0000000  1.0000000  0.0000000 )
                  (  0.0000000  0.0000000  1.0000000 )


      isym =  2     120 deg rotation - cryst. axis [0,0,1]       

 cryst.   s( 2) = (     0          1          0      )
                  (    -1         -1          0      )
                  (     0          0          1      )

 cart.    s( 2) = ( -0.5000000 -0.8660254  0.0000000 )
                  (  0.8660254 -0.5000000  0.0000000 )
                  (  0.0000000  0.0000000  1.0000000 )


      isym =  3     120 deg rotation - cryst. axis [0,0,-1]      

 cryst.   s( 3) = (    -1         -1          0      )
                  (     1          0          0      )
                  (     0          0          1      )

 cart.    s( 3) = ( -0.5000000  0.8660254  0.0000000 )
                  ( -0.8660254 -0.5000000  0.0000000 )
                  (  0.0000000  0.0000000  1.0000000 )


      isym =  4     inv. 180 deg rotation - cart. axis [1,0,0]   

 cryst.   s( 4) = (    -1          0          0      )
                  (     1          1          0      )
                  (     0          0          1      )

 cart.    s( 4) = ( -1.0000000  0.0000000  0.0000000 )
                  (  0.0000000  1.0000000  0.0000000 )
                  (  0.0000000  0.0000000  1.0000000 )


      isym =  5     inv. 180 deg rotation - cryst. axis [0,1,0]  

 cryst.   s( 5) = (     1          1          0      )
                  (     0         -1          0      )
                  (     0          0          1      )

 cart.    s( 5) = (  0.5000000  0.8660254  0.0000000 )
                  (  0.8660254 -0.5000000  0.0000000 )
                  (  0.0000000  0.0000000  1.0000000 )


      isym =  6     inv. 180 deg rotation - cryst. axis [1,1,0]  

 cryst.   s( 6) = (     0         -1          0      )
                  (    -1          0          0      )
                  (     0          0          1      )

 cart.    s( 6) = (  0.5000000 -0.8660254  0.0000000 )
                  ( -0.8660254 -0.5000000  0.0000000 )
                  (  0.0000000  0.0000000  1.0000000 )


     point group C_3v (3m)  
     there are  3 classes
     the character table:

       E     2C3   3s_v 
A_1    1.00  1.00  1.00
A_2    1.00  1.00 -1.00
E      2.00 -1.00  0.00

     the symmetry operations in each class and the name of the first element:

     E        1
          identity                                               
     2C3      2    3
          120 deg rotation - cryst. axis [0,0,1]                 
     3s_v     4    5    6
          inv. 180 deg rotation - cart. axis [1,0,0]             

   Cartesian axes

     site n.     atom                  positions (alat units)
         1        Co     tau(   1) = (   0.0000000   0.0000000   0.0000000  )
         2        O      tau(   2) = (  -0.0000000   0.5773503   0.3404255  )
         3        O      tau(   3) = (   0.5000000   0.2886751   3.1702128  )
         4        Li     tau(   4) = (  -0.0000000   0.5773503   2.0212766  )

   Crystallographic axes

     site n.     atom                  positions (cryst. coord.)
         1        Co     tau(   1) = (  0.0000000  0.0000000  0.0000000  )
         2        O      tau(   2) = (  0.3333333  0.6666667  0.0969697  )
         3        O      tau(   3) = (  0.6666667  0.3333333  0.9030303  )
         4        Li     tau(   4) = (  0.3333333  0.6666667  0.5757576  )

     number of k points=    25  Marzari-Vanderbilt smearing, width (Ry)=  0.0200
                       cart. coord. in units 2pi/alat
        k(    1) = (   0.0000000   0.0000000   0.0000000), wk =   0.0052083
        k(    2) = (   0.0000000   0.0000000   0.0949495), wk =   0.0104167
        k(    3) = (   0.0000000   0.1443376   0.0000000), wk =   0.0312500
        k(    4) = (   0.0000000   0.1443376   0.0949495), wk =   0.0312500
        k(    5) = (   0.0000000   0.2886751   0.0000000), wk =   0.0312500
        k(    6) = (   0.0000000   0.2886751   0.0949495), wk =   0.0312500
        k(    7) = (   0.0000000   0.4330127   0.0000000), wk =   0.0312500
        k(    8) = (   0.0000000   0.4330127   0.0949495), wk =   0.0312500
        k(    9) = (   0.0000000  -0.5773503   0.0000000), wk =   0.0156250
        k(   10) = (   0.0000000  -0.5773503   0.0949495), wk =   0.0312500
        k(   11) = (   0.1250000   0.2165064   0.0000000), wk =   0.0312500
        k(   12) = (   0.1250000   0.2165064   0.0949495), wk =   0.0625000
        k(   13) = (   0.1250000   0.3608439   0.0000000), wk =   0.0625000
        k(   14) = (   0.1250000   0.3608439   0.0949495), wk =   0.0625000
        k(   15) = (   0.1250000   0.5051815   0.0000000), wk =   0.0625000
        k(   16) = (   0.1250000   0.5051815   0.0949495), wk =   0.0625000
        k(   17) = (   0.2500000   0.4330127   0.0000000), wk =   0.0312500
        k(   18) = (   0.2500000   0.4330127   0.0949495), wk =   0.0625000
        k(   19) = (   0.2500000   0.5773503   0.0000000), wk =   0.0312500
        k(   20) = (   0.2500000   0.5773503   0.0949495), wk =   0.0625000
        k(   21) = (   0.0000000  -0.1443376   0.0949495), wk =   0.0312500
        k(   22) = (   0.0000000  -0.2886751   0.0949495), wk =   0.0312500
        k(   23) = (   0.0000000  -0.4330127   0.0949495), wk =   0.0312500
        k(   24) = (  -0.1250000  -0.3608439   0.0949495), wk =   0.0625000
        k(   25) = (  -0.1250000  -0.5051815   0.0949495), wk =   0.0625000

                       cryst. coord.
        k(    1) = (   0.0000000   0.0000000   0.0000000), wk =   0.0052083
        k(    2) = (   0.0000000   0.0000000   0.3333333), wk =   0.0104167
        k(    3) = (   0.0000000   0.1250000   0.0000000), wk =   0.0312500
        k(    4) = (   0.0000000   0.1250000   0.3333333), wk =   0.0312500
        k(    5) = (   0.0000000   0.2500000   0.0000000), wk =   0.0312500
        k(    6) = (   0.0000000   0.2500000   0.3333333), wk =   0.0312500
        k(    7) = (   0.0000000   0.3750000   0.0000000), wk =   0.0312500
        k(    8) = (   0.0000000   0.3750000   0.3333333), wk =   0.0312500
        k(    9) = (   0.0000000  -0.5000000   0.0000000), wk =   0.0156250
        k(   10) = (   0.0000000  -0.5000000   0.3333333), wk =   0.0312500
        k(   11) = (   0.1250000   0.1250000   0.0000000), wk =   0.0312500
        k(   12) = (   0.1250000   0.1250000   0.3333333), wk =   0.0625000
        k(   13) = (   0.1250000   0.2500000   0.0000000), wk =   0.0625000
        k(   14) = (   0.1250000   0.2500000   0.3333333), wk =   0.0625000
        k(   15) = (   0.1250000   0.3750000   0.0000000), wk =   0.0625000
        k(   16) = (   0.1250000   0.3750000   0.3333333), wk =   0.0625000
        k(   17) = (   0.2500000   0.2500000   0.0000000), wk =   0.0312500
        k(   18) = (   0.2500000   0.2500000   0.3333333), wk =   0.0625000
        k(   19) = (   0.2500000   0.3750000   0.0000000), wk =   0.0312500
        k(   20) = (   0.2500000   0.3750000   0.3333333), wk =   0.0625000
        k(   21) = (   0.0000000  -0.1250000   0.3333333), wk =   0.0312500
        k(   22) = (   0.0000000  -0.2500000   0.3333333), wk =   0.0312500
        k(   23) = (   0.0000000  -0.3750000   0.3333333), wk =   0.0312500
        k(   24) = (  -0.1250000  -0.2500000   0.3333333), wk =   0.0625000
        k(   25) = (  -0.1250000  -0.3750000   0.3333333), wk =   0.0625000

     Dense  grid:    81725 G-vectors     FFT dimensions: (  40,  40, 135)

     Smooth grid:    28863 G-vectors     FFT dimensions: (  27,  27,  96)

     Dynamical RAM for                 wfc:       1.32 MB

     Dynamical RAM for     wfc (w. buffer):      67.44 MB

     Dynamical RAM for           str. fact:       3.74 MB

     Dynamical RAM for           local pot:       0.00 MB

     Dynamical RAM for          nlocal pot:       2.31 MB

     Dynamical RAM for                qrad:       5.27 MB

     Dynamical RAM for          rho,v,vnew:      17.37 MB

     Dynamical RAM for               rhoin:       5.79 MB

     Dynamical RAM for            rho*nmix:      39.90 MB

     Dynamical RAM for           G-vectors:       4.90 MB

     Dynamical RAM for          h,s,v(r/c):       0.11 MB

     Dynamical RAM for          <psi|beta>:       0.02 MB

     Dynamical RAM for                 psi:       2.64 MB

     Dynamical RAM for                hpsi:       2.64 MB

     Dynamical RAM for                spsi:       2.64 MB

     Dynamical RAM for      wfcinit/wfcrot:       2.66 MB

     Dynamical RAM for           addusdens:     235.69 MB

     Dynamical RAM for          addusforce:     238.20 MB

     Estimated static dynamical RAM per process >     121.70 MB

     Estimated max dynamical RAM per process >     399.80 MB

     Check: negative core charge=   -0.000006
     Generating pointlists ...
     new r_m :   0.2765 (alat units)  1.4733 (a.u.) for type    1
     new r_m :   0.2765 (alat units)  1.4733 (a.u.) for type    2
     new r_m :   0.4125 (alat units)  2.1982 (a.u.) for type    3

     Initial potential from superposition of free atoms

     starting charge      31.9951, renormalised to      32.0000
     Starting wfcs are   23 randomized atomic wfcs +    1 random wfcs
     Checking if some PAW data can be deallocated... 

     total cpu time spent up to now is        3.4 secs

     Self-consistent Calculation
[tb_dev] Currently allocated     6.36E-01 Mbytes, locked:    0 /   6
[tb_pin] Currently allocated     0.00E+00 Mbytes, locked:    0 /   0

     iteration #  1     ecut=    60.00 Ry     beta= 0.30
     Davidson diagonalization with overlap

---- Real-time Memory Report at c_bands before calling an iterative solver
           697 MiB given to the printing process from OS
             0 MiB allocation reported by mallinfo(arena+hblkhd)
        849289 MiB available memory on the node where the printing process lives
     GPU memory used/free/total (MiB): 1094 / 80056 / 81151
------------------
     ethr =  1.00E-02,  avg # of iterations =  7.8

     total cpu time spent up to now is        5.4 secs

     total energy              =    -474.18184676 Ry
     estimated scf accuracy    <       1.90749428 Ry

     total magnetization       =     4.45 Bohr mag/cell
     absolute magnetization    =     4.47 Bohr mag/cell
[tb_dev] Currently allocated     3.05E-05 Mbytes, locked:    0 /   2
[tb_pin] Currently allocated     0.00E+00 Mbytes, locked:    0 /   0

     iteration #  2     ecut=    60.00 Ry     beta= 0.30
     Davidson diagonalization with overlap

---- Real-time Memory Report at c_bands before calling an iterative solver
           743 MiB given to the printing process from OS
             0 MiB allocation reported by mallinfo(arena+hblkhd)
        849473 MiB available memory on the node where the printing process lives
     GPU memory used/free/total (MiB): 1114 / 80036 / 81151
------------------
     ethr =  5.96E-03,  avg # of iterations =  2.0

     total cpu time spent up to now is        6.6 secs

     total energy              =    -474.39362180 Ry
     estimated scf accuracy    <       4.03813281 Ry

     total magnetization       =     1.00 Bohr mag/cell
     absolute magnetization    =     1.04 Bohr mag/cell
[tb_dev] Currently allocated     3.05E-05 Mbytes, locked:    0 /   2
[tb_pin] Currently allocated     0.00E+00 Mbytes, locked:    0 /   0

     iteration #  3     ecut=    60.00 Ry     beta= 0.30
     Davidson diagonalization with overlap

---- Real-time Memory Report at c_bands before calling an iterative solver
           743 MiB given to the printing process from OS
             0 MiB allocation reported by mallinfo(arena+hblkhd)
        849250 MiB available memory on the node where the printing process lives
     GPU memory used/free/total (MiB): 1114 / 80036 / 81151
------------------
     ethr =  5.96E-03,  avg # of iterations =  1.1

     total cpu time spent up to now is        7.7 secs

     total energy              =    -474.75423264 Ry
     estimated scf accuracy    <       0.58951888 Ry

     total magnetization       =     2.85 Bohr mag/cell
     absolute magnetization    =     2.92 Bohr mag/cell
[tb_dev] Currently allocated     3.05E-05 Mbytes, locked:    0 /   2
[tb_pin] Currently allocated     0.00E+00 Mbytes, locked:    0 /   0

     iteration #  4     ecut=    60.00 Ry     beta= 0.30
     Davidson diagonalization with overlap

---- Real-time Memory Report at c_bands before calling an iterative solver
           745 MiB given to the printing process from OS
             0 MiB allocation reported by mallinfo(arena+hblkhd)
        848862 MiB available memory on the node where the printing process lives
     GPU memory used/free/total (MiB): 1114 / 80036 / 81151
------------------
     ethr =  1.84E-03,  avg # of iterations =  2.0

     total cpu time spent up to now is        8.8 secs

     total energy              =    -474.83612464 Ry
     estimated scf accuracy    <       0.89017729 Ry

     total magnetization       =     1.74 Bohr mag/cell
     absolute magnetization    =     1.83 Bohr mag/cell
[tb_dev] Currently allocated     3.05E-05 Mbytes, locked:    0 /   2
[tb_pin] Currently allocated     0.00E+00 Mbytes, locked:    0 /   0

     iteration #  5     ecut=    60.00 Ry     beta= 0.30
     Davidson diagonalization with overlap

---- Real-time Memory Report at c_bands before calling an iterative solver
           747 MiB given to the printing process from OS
             0 MiB allocation reported by mallinfo(arena+hblkhd)
        848839 MiB available memory on the node where the printing process lives
     GPU memory used/free/total (MiB): 1114 / 80036 / 81151
------------------
     ethr =  1.84E-03,  avg # of iterations =  1.1

     total cpu time spent up to now is        9.9 secs

     total energy              =    -474.88254303 Ry
     estimated scf accuracy    <       0.29560108 Ry

     total magnetization       =     1.65 Bohr mag/cell
     absolute magnetization    =     1.83 Bohr mag/cell
[tb_dev] Currently allocated     3.05E-05 Mbytes, locked:    0 /   2
[tb_pin] Currently allocated     0.00E+00 Mbytes, locked:    0 /   0

     iteration #  6     ecut=    60.00 Ry     beta= 0.30
     Davidson diagonalization with overlap

---- Real-time Memory Report at c_bands before calling an iterative solver
           751 MiB given to the printing process from OS
             0 MiB allocation reported by mallinfo(arena+hblkhd)
        848807 MiB available memory on the node where the printing process lives
     GPU memory used/free/total (MiB): 1114 / 80036 / 81151
------------------
     ethr =  9.24E-04,  avg # of iterations =  1.5

     total cpu time spent up to now is       11.0 secs

     total energy              =    -474.92038087 Ry
     estimated scf accuracy    <       0.29454381 Ry

     total magnetization       =     1.22 Bohr mag/cell
     absolute magnetization    =     1.58 Bohr mag/cell
[tb_dev] Currently allocated     3.05E-05 Mbytes, locked:    0 /   2
[tb_pin] Currently allocated     0.00E+00 Mbytes, locked:    0 /   0

     iteration #  7     ecut=    60.00 Ry     beta= 0.30
     Davidson diagonalization with overlap

---- Real-time Memory Report at c_bands before calling an iterative solver
           753 MiB given to the printing process from OS
             0 MiB allocation reported by mallinfo(arena+hblkhd)
        848786 MiB available memory on the node where the printing process lives
     GPU memory used/free/total (MiB): 1114 / 80036 / 81151
------------------
     ethr =  9.20E-04,  avg # of iterations =  1.4

     total cpu time spent up to now is       12.1 secs

     total energy              =    -474.96498083 Ry
     estimated scf accuracy    <       0.06861121 Ry

     total magnetization       =     0.87 Bohr mag/cell
     absolute magnetization    =     1.10 Bohr mag/cell
[tb_dev] Currently allocated     3.05E-05 Mbytes, locked:    0 /   2
[tb_pin] Currently allocated     0.00E+00 Mbytes, locked:    0 /   0

     iteration #  8     ecut=    60.00 Ry     beta= 0.30
     Davidson diagonalization with overlap

---- Real-time Memory Report at c_bands before calling an iterative solver
           754 MiB given to the printing process from OS
             0 MiB allocation reported by mallinfo(arena+hblkhd)
        848490 MiB available memory on the node where the printing process lives
     GPU memory used/free/total (MiB): 1114 / 80036 / 81151
------------------
     ethr =  2.14E-04,  avg # of iterations =  4.7

     total cpu time spent up to now is       13.5 secs

     total energy              =    -474.97053322 Ry
     estimated scf accuracy    <       0.04256476 Ry

     total magnetization       =     0.69 Bohr mag/cell
     absolute magnetization    =     0.75 Bohr mag/cell
[tb_dev] Currently allocated     3.05E-05 Mbytes, locked:    0 /   2
[tb_pin] Currently allocated     0.00E+00 Mbytes, locked:    0 /   0

     iteration #  9     ecut=    60.00 Ry     beta= 0.30
     Davidson diagonalization with overlap

---- Real-time Memory Report at c_bands before calling an iterative solver
           757 MiB given to the printing process from OS
             0 MiB allocation reported by mallinfo(arena+hblkhd)
        848491 MiB available memory on the node where the printing process lives
     GPU memory used/free/total (MiB): 1114 / 80036 / 81151
------------------
     ethr =  1.33E-04,  avg # of iterations =  3.1

     total cpu time spent up to now is       14.8 secs

     total energy              =    -474.97754856 Ry
     estimated scf accuracy    <       0.05597350 Ry

     total magnetization       =     1.04 Bohr mag/cell
     absolute magnetization    =     1.07 Bohr mag/cell
[tb_dev] Currently allocated     3.05E-05 Mbytes, locked:    0 /   2
[tb_pin] Currently allocated     0.00E+00 Mbytes, locked:    0 /   0

     iteration # 10     ecut=    60.00 Ry     beta= 0.30
     Davidson diagonalization with overlap

---- Real-time Memory Report at c_bands before calling an iterative solver
           759 MiB given to the printing process from OS
             0 MiB allocation reported by mallinfo(arena+hblkhd)
        848467 MiB available memory on the node where the printing process lives
     GPU memory used/free/total (MiB): 1114 / 80036 / 81151
------------------
     ethr =  1.33E-04,  avg # of iterations =  1.1

     total cpu time spent up to now is       15.8 secs

     total energy              =    -474.98044891 Ry
     estimated scf accuracy    <       0.00487668 Ry

     total magnetization       =     0.87 Bohr mag/cell
     absolute magnetization    =     0.92 Bohr mag/cell
[tb_dev] Currently allocated     3.05E-05 Mbytes, locked:    0 /   2
[tb_pin] Currently allocated     0.00E+00 Mbytes, locked:    0 /   0

     iteration # 11     ecut=    60.00 Ry     beta= 0.30
     Davidson diagonalization with overlap

---- Real-time Memory Report at c_bands before calling an iterative solver
           759 MiB given to the printing process from OS
             0 MiB allocation reported by mallinfo(arena+hblkhd)
        848453 MiB available memory on the node where the printing process lives
     GPU memory used/free/total (MiB): 1114 / 80036 / 81151
------------------
     c_bands:  1 eigenvalues not converged
     ethr =  1.52E-05,  avg # of iterations =  7.4

     total cpu time spent up to now is       17.6 secs

     total energy              =    -474.98159373 Ry
     estimated scf accuracy    <       0.00224546 Ry

     total magnetization       =     0.89 Bohr mag/cell
     absolute magnetization    =     0.92 Bohr mag/cell
[tb_dev] Currently allocated     3.05E-05 Mbytes, locked:    0 /   2
[tb_pin] Currently allocated     0.00E+00 Mbytes, locked:    0 /   0

     iteration # 12     ecut=    60.00 Ry     beta= 0.30
     Davidson diagonalization with overlap

---- Real-time Memory Report at c_bands before calling an iterative solver
           761 MiB given to the printing process from OS
             0 MiB allocation reported by mallinfo(arena+hblkhd)
        848468 MiB available memory on the node where the printing process lives
     GPU memory used/free/total (MiB): 1114 / 80036 / 81151
------------------
     c_bands:  1 eigenvalues not converged
     ethr =  7.02E-06,  avg # of iterations =  4.1

     total cpu time spent up to now is       19.1 secs

     total energy              =    -474.98208001 Ry
     estimated scf accuracy    <       0.00229873 Ry

     total magnetization       =     0.88 Bohr mag/cell
     absolute magnetization    =     0.92 Bohr mag/cell
[tb_dev] Currently allocated     3.05E-05 Mbytes, locked:    0 /   2
[tb_pin] Currently allocated     0.00E+00 Mbytes, locked:    0 /   0

     iteration # 13     ecut=    60.00 Ry     beta= 0.30
     Davidson diagonalization with overlap

---- Real-time Memory Report at c_bands before calling an iterative solver
           761 MiB given to the printing process from OS
             0 MiB allocation reported by mallinfo(arena+hblkhd)
        848442 MiB available memory on the node where the printing process lives
     GPU memory used/free/total (MiB): 1114 / 80036 / 81151
------------------
     ethr =  7.02E-06,  avg # of iterations =  1.0

     total cpu time spent up to now is       20.1 secs

     total energy              =    -474.98224704 Ry
     estimated scf accuracy    <       0.00136046 Ry

     total magnetization       =     0.87 Bohr mag/cell
     absolute magnetization    =     0.93 Bohr mag/cell
[tb_dev] Currently allocated     3.05E-05 Mbytes, locked:    0 /   2
[tb_pin] Currently allocated     0.00E+00 Mbytes, locked:    0 /   0

     iteration # 14     ecut=    60.00 Ry     beta= 0.30
     Davidson diagonalization with overlap

---- Real-time Memory Report at c_bands before calling an iterative solver
           761 MiB given to the printing process from OS
             0 MiB allocation reported by mallinfo(arena+hblkhd)
        848412 MiB available memory on the node where the printing process lives
     GPU memory used/free/total (MiB): 1114 / 80036 / 81151
------------------
     ethr =  4.25E-06,  avg # of iterations =  1.7

     total cpu time spent up to now is       21.2 secs

     total energy              =    -474.98232962 Ry
     estimated scf accuracy    <       0.00009369 Ry

     total magnetization       =     0.85 Bohr mag/cell
     absolute magnetization    =     0.91 Bohr mag/cell
[tb_dev] Currently allocated     3.05E-05 Mbytes, locked:    0 /   2
[tb_pin] Currently allocated     0.00E+00 Mbytes, locked:    0 /   0

     iteration # 15     ecut=    60.00 Ry     beta= 0.30
     Davidson diagonalization with overlap

---- Real-time Memory Report at c_bands before calling an iterative solver
           761 MiB given to the printing process from OS
             0 MiB allocation reported by mallinfo(arena+hblkhd)
        848389 MiB available memory on the node where the printing process lives
     GPU memory used/free/total (MiB): 1114 / 80036 / 81151
------------------
     c_bands:  1 eigenvalues not converged
     ethr =  2.93E-07,  avg # of iterations =  6.3

     total cpu time spent up to now is       23.0 secs

     total energy              =    -474.98239234 Ry
     estimated scf accuracy    <       0.00001522 Ry

     total magnetization       =     0.83 Bohr mag/cell
     absolute magnetization    =     0.91 Bohr mag/cell
[tb_dev] Currently allocated     3.05E-05 Mbytes, locked:    0 /   2
[tb_pin] Currently allocated     0.00E+00 Mbytes, locked:    0 /   0

     iteration # 16     ecut=    60.00 Ry     beta= 0.30
     Davidson diagonalization with overlap

---- Real-time Memory Report at c_bands before calling an iterative solver
           761 MiB given to the printing process from OS
             0 MiB allocation reported by mallinfo(arena+hblkhd)
        848360 MiB available memory on the node where the printing process lives
     GPU memory used/free/total (MiB): 1114 / 80036 / 81151
------------------
     ethr =  4.76E-08,  avg # of iterations =  5.1

     total cpu time spent up to now is       24.5 secs

     total energy              =    -474.98240862 Ry
     estimated scf accuracy    <       0.00000135 Ry

     total magnetization       =     0.83 Bohr mag/cell
     absolute magnetization    =     0.92 Bohr mag/cell
[tb_dev] Currently allocated     3.05E-05 Mbytes, locked:    0 /   2
[tb_pin] Currently allocated     0.00E+00 Mbytes, locked:    0 /   0

     iteration # 17     ecut=    60.00 Ry     beta= 0.30
     Davidson diagonalization with overlap

---- Real-time Memory Report at c_bands before calling an iterative solver
           761 MiB given to the printing process from OS
             0 MiB allocation reported by mallinfo(arena+hblkhd)
        848329 MiB available memory on the node where the printing process lives
     GPU memory used/free/total (MiB): 1114 / 80036 / 81151
------------------
     ethr =  4.23E-09,  avg # of iterations =  6.2

     total cpu time spent up to now is       26.3 secs

     total energy              =    -474.98241593 Ry
     estimated scf accuracy    <       0.00000087 Ry

     total magnetization       =     0.82 Bohr mag/cell
     absolute magnetization    =     0.93 Bohr mag/cell
[tb_dev] Currently allocated     3.05E-05 Mbytes, locked:    0 /   2
[tb_pin] Currently allocated     0.00E+00 Mbytes, locked:    0 /   0

     iteration # 18     ecut=    60.00 Ry     beta= 0.30
     Davidson diagonalization with overlap

---- Real-time Memory Report at c_bands before calling an iterative solver
           761 MiB given to the printing process from OS
             0 MiB allocation reported by mallinfo(arena+hblkhd)
        848304 MiB available memory on the node where the printing process lives
     GPU memory used/free/total (MiB): 1114 / 80036 / 81151
------------------
     ethr =  2.72E-09,  avg # of iterations =  3.7

     total cpu time spent up to now is       27.6 secs

     total energy              =    -474.98242278 Ry
     estimated scf accuracy    <       0.00000090 Ry

     total magnetization       =     0.81 Bohr mag/cell
     absolute magnetization    =     0.93 Bohr mag/cell
[tb_dev] Currently allocated     3.05E-05 Mbytes, locked:    0 /   2
[tb_pin] Currently allocated     0.00E+00 Mbytes, locked:    0 /   0

     iteration # 19     ecut=    60.00 Ry     beta= 0.30
     Davidson diagonalization with overlap

---- Real-time Memory Report at c_bands before calling an iterative solver
           761 MiB given to the printing process from OS
             0 MiB allocation reported by mallinfo(arena+hblkhd)
        848284 MiB available memory on the node where the printing process lives
     GPU memory used/free/total (MiB): 1114 / 80036 / 81151
------------------
     ethr =  2.72E-09,  avg # of iterations =  2.1

     total cpu time spent up to now is       28.8 secs

     total energy              =    -474.98242753 Ry
     estimated scf accuracy    <       0.00000040 Ry

     total magnetization       =     0.81 Bohr mag/cell
     absolute magnetization    =     0.94 Bohr mag/cell
[tb_dev] Currently allocated     3.05E-05 Mbytes, locked:    0 /   2
[tb_pin] Currently allocated     0.00E+00 Mbytes, locked:    0 /   0

     iteration # 20     ecut=    60.00 Ry     beta= 0.30
     Davidson diagonalization with overlap

---- Real-time Memory Report at c_bands before calling an iterative solver
           761 MiB given to the printing process from OS
             0 MiB allocation reported by mallinfo(arena+hblkhd)
        848264 MiB available memory on the node where the printing process lives
     GPU memory used/free/total (MiB): 1114 / 80036 / 81151
------------------
     ethr =  1.26E-09,  avg # of iterations =  2.6

     total cpu time spent up to now is       30.0 secs

     total energy              =    -474.98243175 Ry
     estimated scf accuracy    <       0.00000033 Ry

     total magnetization       =     0.80 Bohr mag/cell
     absolute magnetization    =     0.94 Bohr mag/cell
[tb_dev] Currently allocated     3.05E-05 Mbytes, locked:    0 /   2
[tb_pin] Currently allocated     0.00E+00 Mbytes, locked:    0 /   0

     iteration # 21     ecut=    60.00 Ry     beta= 0.30
     Davidson diagonalization with overlap

---- Real-time Memory Report at c_bands before calling an iterative solver
           761 MiB given to the printing process from OS
             0 MiB allocation reported by mallinfo(arena+hblkhd)
        848255 MiB available memory on the node where the printing process lives
     GPU memory used/free/total (MiB): 1114 / 80036 / 81151
------------------
     ethr =  1.02E-09,  avg # of iterations =  4.3

     total cpu time spent up to now is       31.5 secs

     total energy              =    -474.98242724 Ry
     estimated scf accuracy    <       0.00000046 Ry

     total magnetization       =     0.79 Bohr mag/cell
     absolute magnetization    =     0.95 Bohr mag/cell
[tb_dev] Currently allocated     3.05E-05 Mbytes, locked:    0 /   2
[tb_pin] Currently allocated     0.00E+00 Mbytes, locked:    0 /   0

     iteration # 22     ecut=    60.00 Ry     beta= 0.30
     Davidson diagonalization with overlap

---- Real-time Memory Report at c_bands before calling an iterative solver
           761 MiB given to the printing process from OS
             0 MiB allocation reported by mallinfo(arena+hblkhd)
        848214 MiB available memory on the node where the printing process lives
     GPU memory used/free/total (MiB): 1114 / 80036 / 81151
------------------
     ethr =  1.02E-09,  avg # of iterations =  4.7

     total cpu time spent up to now is       33.0 secs

     total energy              =    -474.98245771 Ry
     estimated scf accuracy    <       0.00000117 Ry

     total magnetization       =     0.77 Bohr mag/cell
     absolute magnetization    =     0.98 Bohr mag/cell
[tb_dev] Currently allocated     3.05E-05 Mbytes, locked:    0 /   2
[tb_pin] Currently allocated     0.00E+00 Mbytes, locked:    0 /   0

     iteration # 23     ecut=    60.00 Ry     beta= 0.30
     Davidson diagonalization with overlap

---- Real-time Memory Report at c_bands before calling an iterative solver
           761 MiB given to the printing process from OS
             0 MiB allocation reported by mallinfo(arena+hblkhd)
        848231 MiB available memory on the node where the printing process lives
     GPU memory used/free/total (MiB): 1114 / 80036 / 81151
------------------
     ethr =  1.02E-09,  avg # of iterations =  3.1

     total cpu time spent up to now is       34.4 secs

     total energy              =    -474.98245683 Ry
     estimated scf accuracy    <       0.00000011 Ry

     total magnetization       =     0.76 Bohr mag/cell
     absolute magnetization    =     0.98 Bohr mag/cell
[tb_dev] Currently allocated     3.05E-05 Mbytes, locked:    0 /   2
[tb_pin] Currently allocated     0.00E+00 Mbytes, locked:    0 /   0

     iteration # 24     ecut=    60.00 Ry     beta= 0.30
     Davidson diagonalization with overlap

---- Real-time Memory Report at c_bands before calling an iterative solver
           761 MiB given to the printing process from OS
             0 MiB allocation reported by mallinfo(arena+hblkhd)
        848210 MiB available memory on the node where the printing process lives
     GPU memory used/free/total (MiB): 1114 / 80036 / 81151
------------------
     ethr =  3.43E-10,  avg # of iterations =  4.2

     total cpu time spent up to now is       35.8 secs

     total energy              =    -474.98246014 Ry
     estimated scf accuracy    <       0.00000017 Ry

     total magnetization       =     0.76 Bohr mag/cell
     absolute magnetization    =     0.99 Bohr mag/cell
[tb_dev] Currently allocated     3.05E-05 Mbytes, locked:    0 /   2
[tb_pin] Currently allocated     0.00E+00 Mbytes, locked:    0 /   0

     iteration # 25     ecut=    60.00 Ry     beta= 0.30
     Davidson diagonalization with overlap

---- Real-time Memory Report at c_bands before calling an iterative solver
           761 MiB given to the printing process from OS
             0 MiB allocation reported by mallinfo(arena+hblkhd)
        848192 MiB available memory on the node where the printing process lives
     GPU memory used/free/total (MiB): 1114 / 80036 / 81151
------------------
     ethr =  3.43E-10,  avg # of iterations =  2.4

     total cpu time spent up to now is       37.0 secs

     total energy              =    -474.98246077 Ry
     estimated scf accuracy    <       0.00000021 Ry

     total magnetization       =     0.76 Bohr mag/cell
     absolute magnetization    =     0.99 Bohr mag/cell
[tb_dev] Currently allocated     3.05E-05 Mbytes, locked:    0 /   2
[tb_pin] Currently allocated     0.00E+00 Mbytes, locked:    0 /   0

     iteration # 26     ecut=    60.00 Ry     beta= 0.30
     Davidson diagonalization with overlap

---- Real-time Memory Report at c_bands before calling an iterative solver
           761 MiB given to the printing process from OS
             0 MiB allocation reported by mallinfo(arena+hblkhd)
        848167 MiB available memory on the node where the printing process lives
     GPU memory used/free/total (MiB): 1114 / 80036 / 81151
------------------
     ethr =  3.43E-10,  avg # of iterations =  1.7

     total cpu time spent up to now is       38.1 secs

     total energy              =    -474.98246077 Ry
     estimated scf accuracy    <       0.00000004 Ry

     total magnetization       =     0.76 Bohr mag/cell
     absolute magnetization    =     0.99 Bohr mag/cell
[tb_dev] Currently allocated     3.05E-05 Mbytes, locked:    0 /   2
[tb_pin] Currently allocated     0.00E+00 Mbytes, locked:    0 /   0

     iteration # 27     ecut=    60.00 Ry     beta= 0.30
     Davidson diagonalization with overlap

---- Real-time Memory Report at c_bands before calling an iterative solver
           761 MiB given to the printing process from OS
             0 MiB allocation reported by mallinfo(arena+hblkhd)
        848152 MiB available memory on the node where the printing process lives
     GPU memory used/free/total (MiB): 1114 / 80036 / 81151
------------------
     ethr =  1.11E-10,  avg # of iterations =  3.9
 
     Magnetic moment per site  (integrated on atomic sphere of radius R)
     atom   1 (R=0.276)  charge= 14.0115  magn=  0.6463
     atom   2 (R=0.276)  charge=  5.1522  magn=  0.0826
     atom   3 (R=0.276)  charge=  5.1663  magn=  0.0711
     atom   4 (R=0.413)  charge=  2.3410  magn= -0.0516

     total cpu time spent up to now is       39.5 secs

     End of self-consistent calculation

 ------ SPIN UP ------------


          k = 0.0000 0.0000 0.0000 (  3635 PWs)   bands (ev):

   -93.1880 -56.4202 -56.3827 -56.3827 -44.3023 -16.8309 -14.7636  -3.0379
    -2.5653  -2.5653   0.5684   1.0261   1.0261   1.3252   1.4244   1.4244
     2.4915   4.6491   5.2851   5.2851   8.8923  12.1039  12.6182  15.1153

     occupation numbers 
     1.0000   1.0000   1.0000   1.0000   1.0000   1.0000   1.0000   1.0000
     1.0000   1.0000   1.0000   1.0000   1.0000   1.0000   1.0000   1.0000
     1.0833   0.0000   0.0000   0.0000   0.0000   0.0000   0.0000   0.0000

          k = 0.0000 0.0000 0.0949 (  3682 PWs)   bands (ev):

   -93.1881 -56.4205 -56.3829 -56.3829 -44.3024 -16.8309 -14.7636  -3.0366
    -2.5653  -2.5653   0.4956   1.0260   1.0260   1.4243   1.4243   1.4614
     2.4461   4.5728   5.2849   5.2849   9.2628  11.1008  13.2974  15.3093

     occupation numbers 
     1.0000   1.0000   1.0000   1.0000   1.0000   1.0000   1.0000   1.0000
     1.0000   1.0000   1.0000   1.0000   1.0000   1.0000   1.0000   1.0000
     1.0768   0.0000   0.0000   0.0000   0.0000   0.0000   0.0000   0.0000

          k = 0.0000 0.1443 0.0000 (  3637 PWs)   bands (ev):

   -93.1870 -56.4187 -56.3934 -56.3853 -44.2981 -16.6398 -14.7689  -2.8421
    -2.7250  -2.4413   0.0571   0.4351   0.9283   1.5114   1.6354   1.9057
     2.5737   4.6839   5.1374   5.1802   9.3305  12.5826  13.0788  15.4925

     occupation numbers 
     1.0000   1.0000   1.0000   1.0000   1.0000   1.0000   1.0000   1.0000
     1.0000   1.0000   1.0000   1.0000   1.0000   1.0000   1.0000   1.0001
     1.0577   0.0000   0.0000   0.0000   0.0000   0.0000   0.0000   0.0000

          k = 0.0000 0.1443 0.0949 (  3638 PWs)   bands (ev):

   -93.1870 -56.4188 -56.3934 -56.3853 -44.2981 -16.6398 -14.7689  -2.8413
    -2.7248  -2.4413   0.0576   0.4351   0.8618   1.5299   1.7420   1.9057
     2.5244   4.7496   5.0124   5.1802   9.6451  11.6175  13.9242  15.4149

     occupation numbers 
     1.0000   1.0000   1.0000   1.0000   1.0000   1.0000   1.0000   1.0000
     1.0000   1.0000   1.0000   1.0000   1.0000   1.0000   1.0000   1.0001
     1.0802   0.0000   0.0000   0.0000   0.0000   0.0000   0.0000   0.0000

          k = 0.0000 0.2887 0.0000 (  3607 PWs)   bands (ev):

   -93.1845 -56.4195 -56.4146 -56.3914 -44.2879 -16.1376 -14.7954  -3.0098
    -2.2989  -2.1539  -1.3409  -0.1214   1.2164   1.6891   2.1019   2.1549
     2.5257   4.1630   5.0563   6.0986  10.3285  12.6623  13.8798  14.5633

     occupation numbers 
     1.0000   1.0000   1.0000   1.0000   1.0000   1.0000   1.0000   1.0000
     1.0000   1.0000   1.0000   1.0000   1.0000   1.0000   1.0027   1.0059
     1.0799   0.0000   0.0000   0.0000   0.0000   0.0000   0.0000   0.0000

          k = 0.0000 0.2887 0.0949 (  3619 PWs)   bands (ev):

   -93.1845 -56.4195 -56.4147 -56.3914 -44.2879 -16.1376 -14.7954  -3.0101
    -2.2983  -2.1539  -1.3404  -0.1213   1.2091   1.6703   2.1018   2.2279
     2.4655   4.2109   5.0563   6.0293  10.5096  12.4316  13.5539  15.2337

     occupation numbers 
     1.0000   1.0000   1.0000   1.0000   1.0000   1.0000   1.0000   1.0000
     1.0000   1.0000   1.0000   1.0000   1.0000   1.0000   1.0027   1.0146
     1.0808   0.0000   0.0000   0.0000   0.0000   0.0000   0.0000   0.0000

          k = 0.0000 0.4330 0.0000 (  3602 PWs)   bands (ev):

   -93.1820 -56.4453 -56.4109 -56.3975 -44.2777 -15.5344 -14.8728  -3.4712
    -2.3102  -1.9518  -1.2928  -0.2293   0.6914   1.5433   1.7918   2.1090
     3.3587   4.4089   5.1013   7.8055   9.5336  12.3832  13.7755  14.8820

     occupation numbers 
     1.0000   1.0000   1.0000   1.0000   1.0000   1.0000   1.0000   1.0000
     1.0000   1.0000   1.0000   1.0000   1.0000   1.0000   1.0000   1.0030
     0.0011   0.0000   0.0000   0.0000   0.0000   0.0000   0.0000   0.0000

          k = 0.0000 0.4330 0.0949 (  3600 PWs)   bands (ev):

   -93.1820 -56.4454 -56.4109 -56.3974 -44.2777 -15.5344 -14.8728  -3.4712
    -2.3103  -1.9518  -1.2924  -0.2292   0.6916   1.5431   1.7918   2.1098
     3.3428   4.4329   5.1014   7.7825   9.5367  12.4515  13.8953  14.4473

     occupation numbers 
     1.0000   1.0000   1.0000   1.0000   1.0000   1.0000   1.0000   1.0000
     1.0000   1.0000   1.0000   1.0000   1.0000   1.0000   1.0000   1.0031
     0.0015   0.0000   0.0000   0.0000   0.0000   0.0000   0.0000   0.0000

          k = 0.0000-0.5774 0.0000 (  3610 PWs)   bands (ev):

   -93.1809 -56.4561 -56.4093 -56.4001 -44.2735 -15.1373 -15.0325  -3.8819
    -2.0922  -1.9228  -1.1478  -0.0952   0.4552   1.2603   1.5108   2.0166
     4.1247   4.6514   5.1547   8.1494   9.7763  11.1682  14.2231  14.5253

     occupation numbers 
     1.0000   1.0000   1.0000   1.0000   1.0000   1.0000   1.0000   1.0000
     1.0000   1.0000   1.0000   1.0000   1.0000   1.0000   1.0000   1.0007
     0.0000   0.0000   0.0000   0.0000   0.0000   0.0000   0.0000   0.0000

          k = 0.0000-0.5774 0.0949 (  3582 PWs)   bands (ev):

   -93.1809 -56.4560 -56.4092 -56.4000 -44.2734 -15.1373 -15.0325  -3.8818
    -2.0922  -1.9228  -1.1477  -0.0951   0.4555   1.2603   1.5108   2.0165
     4.1268   4.6476   5.1548   8.1482   9.7853  11.2132  13.8981  14.7112

     occupation numbers 
     1.0000   1.0000   1.0000   1.0000   1.0000   1.0000   1.0000   1.0000
     1.0000   1.0000   1.0000   1.0000   1.0000   1.0000   1.0000   1.0007
     0.0000   0.0000   0.0000   0.0000   0.0000   0.0000   0.0000   0.0000

          k = 0.1250 0.2165 0.0000 (  3623 PWs)   bands (ev):

   -93.1852 -56.4160 -56.4105 -56.3908 -44.2909 -16.2928 -14.7841  -2.9172
    -2.4373  -2.2766  -0.8082  -0.2970   1.3057   1.5983   1.9521   2.2407
     2.5300   4.3619   4.9011   5.7721  10.0698  13.1512  13.8602  14.3169

     occupation numbers 
     1.0000   1.0000   1.0000   1.0000   1.0000   1.0000   1.0000   1.0000
     1.0000   1.0000   1.0000   1.0000   1.0000   1.0000   1.0002   1.0168
     1.0788   0.0000   0.0000   0.0000   0.0000   0.0000   0.0000   0.0000

          k = 0.1250 0.2165 0.0949 (  3623 PWs)   bands (ev):

   -93.1852 -56.4160 -56.4105 -56.3908 -44.2909 -16.2928 -14.7841  -2.9175
    -2.4365  -2.2766  -0.8077  -0.2970   1.2731   1.5979   1.9918   2.2782
     2.4873   4.3992   4.8797   5.7255  10.2526  12.4846  14.3018  14.6828

     occupation numbers 
     1.0000   1.0000   1.0000   1.0000   1.0000   1.0000   1.0000   1.0000
     1.0000   1.0000   1.0000   1.0000   1.0000   1.0000   1.0004   1.0249
     1.0831   0.0000   0.0000   0.0000   0.0000   0.0000   0.0000   0.0000

          k = 0.1250 0.3608 0.0000 (  3612 PWs)   bands (ev):

   -93.1827 -56.4339 -56.4121 -56.3995 -44.2807 -15.7399 -14.8282  -3.0466
    -2.4898  -1.8722  -1.3894  -0.7000   1.0113   1.6281   1.9869   2.3494
     2.9954   4.3430   4.7925   7.1324  10.6541  11.6853  13.5871  14.8799

     occupation numbers 
     1.0000   1.0000   1.0000   1.0000   1.0000   1.0000   1.0000   1.0000
     1.0000   1.0000   1.0000   1.0000   1.0000   1.0000   1.0004   1.0458
     0.1654   0.0000   0.0000   0.0000   0.0000   0.0000   0.0000   0.0000

          k = 0.1250 0.3608 0.0949 (  3609 PWs)   bands (ev):

   -93.1827 -56.4338 -56.4121 -56.3996 -44.2807 -15.7399 -14.8282  -3.0467
    -2.4898  -1.8721  -1.3888  -0.7000   1.0106   1.6280   1.9897   2.3446
     2.9873   4.3725   4.7835   7.1111  10.6647  11.7458  13.4429  14.8054

     occupation numbers 
     1.0000   1.0000   1.0000   1.0000   1.0000   1.0000   1.0000   1.0000
     1.0000   1.0000   1.0000   1.0000   1.0000   1.0000   1.0004   1.0442
     0.1778   0.0000   0.0000   0.0000   0.0000   0.0000   0.0000   0.0000

          k = 0.1250 0.5052 0.0000 (  3591 PWs)   bands (ev):

   -93.1809 -56.4502 -56.4093 -56.4059 -44.2734 -15.2369 -14.9345  -3.5732
    -2.5075  -1.6059  -1.1030  -0.6765   0.3915   1.3833   1.6827   2.2391
     4.1313   4.5999   4.8910   8.3932   9.2252  12.4070  12.7387  14.1458

     occupation numbers 
     1.0000   1.0000   1.0000   1.0000   1.0000   1.0000   1.0000   1.0000
     1.0000   1.0000   1.0000   1.0000   1.0000   1.0000   1.0000   1.0165
     0.0000   0.0000   0.0000   0.0000   0.0000   0.0000   0.0000   0.0000

          k = 0.1250 0.5052 0.0949 (  3600 PWs)   bands (ev):

   -93.1809 -56.4502 -56.4093 -56.4059 -44.2734 -15.2369 -14.9345  -3.5732
    -2.5076  -1.6060  -1.1028  -0.6765   0.3916   1.3833   1.6828   2.2387
     4.1255   4.6082   4.8890   8.3891   9.2291  12.4109  12.7698  14.1908

     occupation numbers 
     1.0000   1.0000   1.0000   1.0000   1.0000   1.0000   1.0000   1.0000
     1.0000   1.0000   1.0000   1.0000   1.0000   1.0000   1.0000   1.0165
     0.0000   0.0000   0.0000   0.0000   0.0000   0.0000   0.0000   0.0000

          k = 0.2500 0.4330 0.0000 (  3605 PWs)   bands (ev):

   -93.1809 -56.4421 -56.4143 -56.4092 -44.2734 -15.2937 -14.8792  -2.9811
    -2.8596  -1.7715  -1.1183  -0.9905   0.3945   1.4535   1.8078   2.4487
     4.1310   4.5379   4.6264   8.7586   8.8864  11.6907  13.7172  14.6900

     occupation numbers 
     1.0000   1.0000   1.0000   1.0000   1.0000   1.0000   1.0000   1.0000
     1.0000   1.0000   1.0000   1.0000   1.0000   1.0000   1.0000   1.0775
     0.0000   0.0000   0.0000   0.0000   0.0000   0.0000   0.0000   0.0000

          k = 0.2500 0.4330 0.0949 (  3614 PWs)   bands (ev):

   -93.1809 -56.4421 -56.4143 -56.4092 -44.2735 -15.2937 -14.8792  -2.9812
    -2.8597  -1.7716  -1.1183  -0.9904   0.3945   1.4536   1.8080   2.4475
     4.1372   4.5212   4.6359   8.7600   8.8999  11.6600  13.7045  14.7064

     occupation numbers 
     1.0000   1.0000   1.0000   1.0000   1.0000   1.0000   1.0000   1.0000
     1.0000   1.0000   1.0000   1.0000   1.0000   1.0000   1.0000   1.0772
     0.0000   0.0000   0.0000   0.0000   0.0000   0.0000   0.0000   0.0000

          k = 0.2500 0.5774 0.0000 (  3600 PWs)   bands (ev):

   -93.1802 -56.4426 -56.4229 -56.4082 -44.2705 -15.0564 -14.9419  -3.1506
    -2.7733  -1.9384  -0.9495  -0.7460  -0.0684   1.1332   2.0412   2.3292
     4.5543   4.5570   5.3385   7.1628  10.7122  11.6772  12.3317  14.7849

     occupation numbers 
     1.0000   1.0000   1.0000   1.0000   1.0000   1.0000   1.0000   1.0000
     1.0000   1.0000   1.0000   1.0000   1.0000   1.0000   1.0010   1.0392
     0.0000   0.0000   0.0000   0.0000   0.0000   0.0000   0.0000   0.0000

          k = 0.2500 0.5774 0.0949 (  3599 PWs)   bands (ev):

   -93.1802 -56.4426 -56.4229 -56.4081 -44.2705 -15.0564 -14.9419  -3.1506
    -2.7733  -1.9384  -0.9495  -0.7460  -0.0683   1.1332   2.0412   2.3291
     4.5546   4.5593   5.3349   7.1615  10.7257  11.6643  12.3592  14.7885

     occupation numbers 
     1.0000   1.0000   1.0000   1.0000   1.0000   1.0000   1.0000   1.0000
     1.0000   1.0000   1.0000   1.0000   1.0000   1.0000   1.0010   1.0392
     0.0000   0.0000   0.0000   0.0000   0.0000   0.0000   0.0000   0.0000

          k = 0.0000-0.1443 0.0949 (  3638 PWs)   bands (ev):

   -93.1870 -56.4188 -56.3934 -56.3853 -44.2981 -16.6398 -14.7689  -2.8410
    -2.7250  -2.4413   0.0568   0.4351   0.8637   1.5327   1.7359   1.9057
     2.5299   4.6870   5.0779   5.1802   9.6175  11.6542  13.9031  15.4311

     occupation numbers 
     1.0000   1.0000   1.0000   1.0000   1.0000   1.0000   1.0000   1.0000
     1.0000   1.0000   1.0000   1.0000   1.0000   1.0000   1.0000   1.0001
     1.0788   0.0000   0.0000   0.0000   0.0000   0.0000   0.0000   0.0000

          k = 0.0000-0.2887 0.0949 (  3619 PWs)   bands (ev):

   -93.1845 -56.4195 -56.4147 -56.3914 -44.2879 -16.1376 -14.7954  -3.0100
    -2.2986  -2.1539  -1.3402  -0.1213   1.2057   1.6767   2.1019   2.1900
     2.5192   4.1614   5.0563   6.0821  10.4091  12.5178  13.6095  15.2599

     occupation numbers 
     1.0000   1.0000   1.0000   1.0000   1.0000   1.0000   1.0000   1.0000
     1.0000   1.0000   1.0000   1.0000   1.0000   1.0000   1.0027   1.0093
     1.0812   0.0000   0.0000   0.0000   0.0000   0.0000   0.0000   0.0000

          k = 0.0000-0.4330 0.0949 (  3600 PWs)   bands (ev):

   -93.1820 -56.4454 -56.4109 -56.3974 -44.2777 -15.5344 -14.8728  -3.4713
    -2.3104  -1.9518  -1.2923  -0.2292   0.6910   1.5438   1.7919   2.1069
     3.3628   4.4026   5.1013   7.8265   9.5274  12.2796  13.8399  14.8821

     occupation numbers 
     1.0000   1.0000   1.0000   1.0000   1.0000   1.0000   1.0000   1.0000
     1.0000   1.0000   1.0000   1.0000   1.0000   1.0000   1.0000   1.0029
     0.0011   0.0000   0.0000   0.0000   0.0000   0.0000   0.0000   0.0000

          k =-0.1250-0.3608 0.0949 (  3609 PWs)   bands (ev):

   -93.1827 -56.4338 -56.4121 -56.3996 -44.2807 -15.7399 -14.8282  -3.0467
    -2.4898  -1.8722  -1.3886  -0.7000   1.0099   1.6287   1.9904   2.3374
     3.0058   4.3424   4.7922   7.1357  10.6490  11.6737  13.5583  14.8450

     occupation numbers 
     1.0000   1.0000   1.0000   1.0000   1.0000   1.0000   1.0000   1.0000
     1.0000   1.0000   1.0000   1.0000   1.0000   1.0000   1.0004   1.0419
     0.1503   0.0000   0.0000   0.0000   0.0000   0.0000   0.0000   0.0000

          k =-0.1250-0.5052 0.0949 (  3600 PWs)   bands (ev):

   -93.1809 -56.4502 -56.4093 -56.4059 -44.2734 -15.2369 -14.9345  -3.5732
    -2.5075  -1.6060  -1.1028  -0.6765   0.3915   1.3834   1.6827   2.2385
     4.1392   4.5886   4.8915   8.3908   9.2516  12.4187  12.6949  13.9746

     occupation numbers 
     1.0000   1.0000   1.0000   1.0000   1.0000   1.0000   1.0000   1.0000
     1.0000   1.0000   1.0000   1.0000   1.0000   1.0000   1.0000   1.0164
     0.0000   0.0000   0.0000   0.0000   0.0000   0.0000   0.0000   0.0000

 ------ SPIN DOWN ----------


          k = 0.0000 0.0000 0.0000 (  3635 PWs)   bands (ev):

   -92.3898 -55.6603 -55.6603 -55.5318 -44.3344 -16.7059 -14.6258  -2.6787
    -2.3013  -2.3013   0.6440   1.2159   1.5256   1.5256   1.7086   1.7086
     3.3668   4.5258   5.6292   5.6292   8.8858  12.1947  12.6758  15.1410

     occupation numbers 
     1.0000   1.0000   1.0000   1.0000   1.0000   1.0000   1.0000   1.0000
     1.0000   1.0000   1.0000   1.0000   1.0000   1.0000   1.0000   1.0000
     0.0010   0.0000   0.0000   0.0000   0.0000   0.0000   0.0000   0.0000

          k = 0.0000 0.0000 0.0949 (  3682 PWs)   bands (ev):

   -92.3899 -55.6604 -55.6604 -55.5320 -44.3345 -16.7060 -14.6258  -2.6767
    -2.3013  -2.3013   0.5362   1.3811   1.5255   1.5255   1.7086   1.7086
     3.3077   4.4691   5.6290   5.6290   9.2506  11.1673  13.3819  15.3580

     occupation numbers 
     1.0000   1.0000   1.0000   1.0000   1.0000   1.0000   1.0000   1.0000
     1.0000   1.0000   1.0000   1.0000   1.0000   1.0000   1.0000   1.0000
     0.0028   0.0000   0.0000   0.0000   0.0000   0.0000   0.0000   0.0000

          k = 0.0000 0.1443 0.0000 (  3637 PWs)   bands (ev):

   -92.3887 -55.6714 -55.6629 -55.5302 -44.3301 -16.5139 -14.6303  -2.5355
    -2.4222  -2.1854   0.3313   0.7950   0.9887   1.4809   2.1376   2.3523
     3.3997   4.7601   5.2876   5.5153   9.3158  12.6624  13.1387  15.5201

     occupation numbers 
     1.0000   1.0000   1.0000   1.0000   1.0000   1.0000   1.0000   1.0000
     1.0000   1.0000   1.0000   1.0000   1.0000   1.0000   1.0046   1.0468
     0.0005   0.0000   0.0000   0.0000   0.0000   0.0000   0.0000   0.0000

          k = 0.0000 0.1443 0.0949 (  3638 PWs)   bands (ev):

   -92.3887 -55.6713 -55.6629 -55.5302 -44.3301 -16.5139 -14.6303  -2.5353
    -2.4208  -2.1854   0.3331   0.7949   0.8905   1.6166   2.1470   2.3523
     3.3489   4.7930   5.2060   5.5153   9.6271  11.6808  14.0093  15.4473

     occupation numbers 
     1.0000   1.0000   1.0000   1.0000   1.0000   1.0000   1.0000   1.0000
     1.0000   1.0000   1.0000   1.0000   1.0000   1.0000   1.0052   1.0468
     0.0014   0.0000   0.0000   0.0000   0.0000   0.0000   0.0000   0.0000

          k = 0.0000 0.2887 0.0000 (  3607 PWs)   bands (ev):

   -92.3861 -55.6983 -55.6692 -55.5259 -44.3197 -16.0091 -14.6548  -2.7768
    -1.9919  -1.9170  -1.0871   0.1750   1.4375   1.9842   2.3285   2.6641
     3.2578   4.5234   5.3727   5.9956  10.2878  12.5485  13.9128  14.5840

     occupation numbers 
     1.0000   1.0000   1.0000   1.0000   1.0000   1.0000   1.0000   1.0000
     1.0000   1.0000   1.0000   1.0000   1.0000   1.0004   1.0390   0.9440
     0.0064   0.0000   0.0000   0.0000   0.0000   0.0000   0.0000   0.0000

          k = 0.0000 0.2887 0.0949 (  3619 PWs)   bands (ev):

   -92.3861 -55.6983 -55.6692 -55.5260 -44.3198 -16.0091 -14.6548  -2.7771
    -1.9911  -1.9170  -1.0860   0.1750   1.4117   1.9920   2.3585   2.6641
     3.2328   4.5866   5.3728   5.9079  10.4664  12.3863  13.4781  15.3170

     occupation numbers 
     1.0000   1.0000   1.0000   1.0000   1.0000   1.0000   1.0000   1.0000
     1.0000   1.0000   1.0000   1.0000   1.0000   1.0004   1.0489   0.9440
     0.0095   0.0000   0.0000   0.0000   0.0000   0.0000   0.0000   0.0000

          k = 0.0000 0.4330 0.0000 (  3602 PWs)   bands (ev):

   -92.3835 -55.7252 -55.6755 -55.5219 -44.3094 -15.4024 -14.7307  -3.2678
    -2.1603  -1.7200  -0.9247  -0.0366   0.9185   2.2742   2.4796   2.8608
     3.1320   4.8106   5.4161   7.6863   9.3270  12.3481  13.6936  14.7036

     occupation numbers 
     1.0000   1.0000   1.0000   1.0000   1.0000   1.0000   1.0000   1.0000
     1.0000   1.0000   1.0000   1.0000   1.0000   1.0239   1.0826   0.4491
     0.0380   0.0000   0.0000   0.0000   0.0000   0.0000   0.0000   0.0000

          k = 0.0000 0.4330 0.0949 (  3600 PWs)   bands (ev):

   -92.3835 -55.7252 -55.6755 -55.5218 -44.3094 -15.4025 -14.7307  -3.2678
    -2.1605  -1.7200  -0.9240  -0.0365   0.9189   2.2725   2.4796   2.8667
     3.1173   4.8329   5.4162   7.6587   9.3304  12.4144  13.8298  14.4255

     occupation numbers 
     1.0000   1.0000   1.0000   1.0000   1.0000   1.0000   1.0000   1.0000
     1.0000   1.0000   1.0000   1.0000   1.0000   1.0235   1.0826   0.4338
     0.0455   0.0000   0.0000   0.0000   0.0000   0.0000   0.0000   0.0000

          k = 0.0000-0.5774 0.0000 (  3610 PWs)   bands (ev):

   -92.3824 -55.7364 -55.6782 -55.5202 -44.3051 -15.0086 -14.8848  -3.6975
    -1.9796  -1.6849  -0.7770   0.0030   0.6499   2.1381   2.2890   2.7383
     3.8694   5.0523   5.4740   7.9429   9.6842  11.0037  14.2375  14.5913

     occupation numbers 
     1.0000   1.0000   1.0000   1.0000   1.0000   1.0000   1.0000   1.0000
     1.0000   1.0000   1.0000   1.0000   1.0000   1.0046   1.0276   0.7807
     0.0000   0.0000   0.0000   0.0000   0.0000   0.0000   0.0000   0.0000

          k = 0.0000-0.5774 0.0949 (  3582 PWs)   bands (ev):

   -92.3824 -55.7363 -55.6781 -55.5201 -44.3050 -15.0086 -14.8848  -3.6975
    -1.9796  -1.6848  -0.7768   0.0031   0.6503   2.1380   2.2890   2.7381
     3.8695   5.0502   5.4741   7.9422   9.6930  11.0447  13.9040  14.3443

     occupation numbers 
     1.0000   1.0000   1.0000   1.0000   1.0000   1.0000   1.0000   1.0000
     1.0000   1.0000   1.0000   1.0000   1.0000   1.0046   1.0276   0.7809
     0.0000   0.0000   0.0000   0.0000   0.0000   0.0000   0.0000   0.0000

          k = 0.1250 0.2165 0.0000 (  3623 PWs)   bands (ev):

   -92.3869 -55.6891 -55.6686 -55.5272 -44.3228 -16.1652 -14.6440  -2.6824
    -2.1028  -2.0248  -0.5734   0.0016   1.4311   1.8510   2.2701   2.7194
     3.3226   4.6725   5.2237   5.6945  10.0435  13.1837  13.9427  14.0809

     occupation numbers 
     1.0000   1.0000   1.0000   1.0000   1.0000   1.0000   1.0000   1.0000
     1.0000   1.0000   1.0000   1.0000   1.0000   1.0000   1.0230   0.8270
     0.0022   0.0000   0.0000   0.0000   0.0000   0.0000   0.0000   0.0000

          k = 0.1250 0.2165 0.0949 (  3623 PWs)   bands (ev):

   -92.3869 -55.6891 -55.6686 -55.5272 -44.3228 -16.1652 -14.6440  -2.6828
    -2.1018  -2.0244  -0.5724   0.0016   1.3674   1.9269   2.2702   2.7334
     3.2957   4.7287   5.1792   5.6520  10.2247  12.5361  14.0697  14.7255

     occupation numbers 
     1.0000   1.0000   1.0000   1.0000   1.0000   1.0000   1.0000   1.0000
     1.0000   1.0000   1.0000   1.0000   1.0000   1.0001   1.0230   0.7928
     0.0035   0.0000   0.0000   0.0000   0.0000   0.0000   0.0000   0.0000

          k = 0.1250 0.3608 0.0000 (  3612 PWs)   bands (ev):

   -92.3843 -55.7133 -55.6777 -55.5231 -44.3124 -15.6092 -14.6863  -2.8254
    -2.3050  -1.6329  -1.0581  -0.4653   1.2309   2.3370   2.6379   2.8377
     3.0474   4.7109   5.1151   7.0139  10.4753  11.5766  13.5368  14.9288

     occupation numbers 
     1.0000   1.0000   1.0000   1.0000   1.0000   1.0000   1.0000   1.0000
     1.0000   1.0000   1.0000   1.0000   1.0000   1.0418   0.9873   0.5111
     0.0999   0.0000   0.0000   0.0000   0.0000   0.0000   0.0000   0.0000

          k = 0.1250 0.3608 0.0949 (  3609 PWs)   bands (ev):

   -92.3843 -55.7133 -55.6777 -55.5231 -44.3124 -15.6092 -14.6863  -2.8255
    -2.3050  -1.6328  -1.0571  -0.4653   1.2293   2.3358   2.6265   2.8527
     3.0386   4.7427   5.1044   6.9873  10.4828  11.6380  13.4194  14.7989

     occupation numbers 
     1.0000   1.0000   1.0000   1.0000   1.0000   1.0000   1.0000   1.0000
     1.0000   1.0000   1.0000   1.0000   1.0000   1.0414   1.0035   0.4706
     0.1093   0.0000   0.0000   0.0000   0.0000   0.0000   0.0000   0.0000

          k = 0.1250 0.5052 0.0000 (  3591 PWs)   bands (ev):

   -92.3824 -55.7302 -55.6843 -55.5201 -44.3050 -15.1040 -14.7909  -3.3868
    -2.3391  -1.4024  -0.7895  -0.4870   0.6127   2.3149   2.4186   2.8753
     3.8872   4.9755   5.2167   8.1680   9.1053  12.2817  12.6123  14.1098

     occupation numbers 
     1.0000   1.0000   1.0000   1.0000   1.0000   1.0000   1.0000   1.0000
     1.0000   1.0000   1.0000   1.0000   1.0000   1.0348   1.0692   0.4116
     0.0000   0.0000   0.0000   0.0000   0.0000   0.0000   0.0000   0.0000

          k = 0.1250 0.5052 0.0949 (  3600 PWs)   bands (ev):

   -92.3824 -55.7303 -55.6843 -55.5201 -44.3051 -15.1040 -14.7909  -3.3868
    -2.3392  -1.4025  -0.7893  -0.4870   0.6130   2.3148   2.4187   2.8746
     3.8846   4.9803   5.2155   8.1642   9.1086  12.2873  12.6372  14.1484

     occupation numbers 
     1.0000   1.0000   1.0000   1.0000   1.0000   1.0000   1.0000   1.0000
     1.0000   1.0000   1.0000   1.0000   1.0000   1.0348   1.0692   0.4134
     0.0000   0.0000   0.0000   0.0000   0.0000   0.0000   0.0000   0.0000

          k = 0.2500 0.4330 0.0000 (  3605 PWs)   bands (ev):

   -92.3824 -55.7218 -55.6929 -55.5201 -44.3051 -15.1607 -14.7357  -2.8099
    -2.6500  -1.6211  -0.8920  -0.6512   0.6137   2.4272   2.5190   3.0459
     3.9030   4.8734   4.9667   8.4915   8.7667  11.5899  13.6918  14.6095

     occupation numbers 
     1.0000   1.0000   1.0000   1.0000   1.0000   1.0000   1.0000   1.0000
     1.0000   1.0000   1.0000   1.0000   1.0000   1.0718   1.0813   0.1013
     0.0000   0.0000   0.0000   0.0000   0.0000   0.0000   0.0000   0.0000

          k = 0.2500 0.4330 0.0949 (  3614 PWs)   bands (ev):

   -92.3824 -55.7219 -55.6929 -55.5201 -44.3051 -15.1607 -14.7357  -2.8100
    -2.6501  -1.6211  -0.8922  -0.6509   0.6136   2.4272   2.5194   3.0428
     3.9071   4.8625   4.9746   8.4919   8.7808  11.5601  13.6755  14.6205

     occupation numbers 
     1.0000   1.0000   1.0000   1.0000   1.0000   1.0000   1.0000   1.0000
     1.0000   1.0000   1.0000   1.0000   1.0000   1.0718   1.0812   0.1047
     0.0000   0.0000   0.0000   0.0000   0.0000   0.0000   0.0000   0.0000

          k = 0.2500 0.5774 0.0000 (  3600 PWs)   bands (ev):

   -92.3816 -55.7224 -55.7019 -55.5189 -44.3020 -14.9263 -14.7936  -2.9702
    -2.5942  -1.7957  -0.7228  -0.4315   0.1224   2.1810   2.7264   2.9711
     4.8551   4.9175   5.1160   6.8956  10.6474  11.5608  12.1646  14.6636

     occupation numbers 
     1.0000   1.0000   1.0000   1.0000   1.0000   1.0000   1.0000   1.0000
     1.0000   1.0000   1.0000   1.0000   1.0000   1.0083   0.8102   0.2045
     0.0000   0.0000   0.0000   0.0000   0.0000   0.0000   0.0000   0.0000

          k = 0.2500 0.5774 0.0949 (  3599 PWs)   bands (ev):

   -92.3816 -55.7224 -55.7020 -55.5189 -44.3020 -14.9263 -14.7936  -2.9702
    -2.5942  -1.7957  -0.7228  -0.4315   0.1225   2.1810   2.7264   2.9709
     4.8648   4.9175   5.1056   6.8942  10.6612  11.5478  12.1908  14.6692

     occupation numbers 
     1.0000   1.0000   1.0000   1.0000   1.0000   1.0000   1.0000   1.0000
     1.0000   1.0000   1.0000   1.0000   1.0000   1.0083   0.8102   0.2049
     0.0000   0.0000   0.0000   0.0000   0.0000   0.0000   0.0000   0.0000

          k = 0.0000-0.1443 0.0949 (  3638 PWs)   bands (ev):

   -92.3887 -55.6713 -55.6629 -55.5302 -44.3301 -16.5139 -14.6303  -2.5350
    -2.4210  -2.1854   0.3302   0.7949   0.8975   1.6095   2.1503   2.3523
     3.3530   4.7448   5.2564   5.5153   9.5988  11.7193  13.9833  15.4700

     occupation numbers 
     1.0000   1.0000   1.0000   1.0000   1.0000   1.0000   1.0000   1.0000
     1.0000   1.0000   1.0000   1.0000   1.0000   1.0000   1.0055   1.0468
     0.0013   0.0000   0.0000   0.0000   0.0000   0.0000   0.0000   0.0000

          k = 0.0000-0.2887 0.0949 (  3619 PWs)   bands (ev):

   -92.3861 -55.6983 -55.6692 -55.5260 -44.3198 -16.0091 -14.6548  -2.7771
    -1.9914  -1.9170  -1.0857   0.1750   1.4062   1.9998   2.3579   2.6641
     3.2502   4.5212   5.3727   5.9774  10.3667  12.4498  13.5717  15.3085

     occupation numbers 
     1.0000   1.0000   1.0000   1.0000   1.0000   1.0000   1.0000   1.0000
     1.0000   1.0000   1.0000   1.0000   1.0000   1.0005   1.0487   0.9439
     0.0072   0.0000   0.0000   0.0000   0.0000   0.0000   0.0000   0.0000

          k = 0.0000-0.4330 0.0949 (  3600 PWs)   bands (ev):

   -92.3835 -55.7252 -55.6755 -55.5218 -44.3094 -15.4024 -14.7307  -3.2678
    -2.1605  -1.7200  -0.9238  -0.0365   0.9177   2.2735   2.4796   2.8524
     3.1428   4.8056   5.4161   7.7062   9.3222  12.2430  13.7497  14.7037

     occupation numbers 
     1.0000   1.0000   1.0000   1.0000   1.0000   1.0000   1.0000   1.0000
     1.0000   1.0000   1.0000   1.0000   1.0000   1.0238   1.0826   0.4714
     0.0332   0.0000   0.0000   0.0000   0.0000   0.0000   0.0000   0.0000

          k =-0.1250-0.3608 0.0949 (  3609 PWs)   bands (ev):

   -92.3843 -55.7133 -55.6777 -55.5231 -44.3124 -15.6092 -14.6863  -2.8255
    -2.3050  -1.6329  -1.0568  -0.4654   1.2279   2.3381   2.6290   2.8311
     3.0662   4.7105   5.1149   7.0150  10.4719  11.5635  13.5230  14.8634

     occupation numbers 
     1.0000   1.0000   1.0000   1.0000   1.0000   1.0000   1.0000   1.0000
     1.0000   1.0000   1.0000   1.0000   1.0000   1.0421   1.0001   0.5291
     0.0818   0.0000   0.0000   0.0000   0.0000   0.0000   0.0000   0.0000

          k =-0.1250-0.5052 0.0949 (  3600 PWs)   bands (ev):

   -92.3824 -55.7303 -55.6843 -55.5201 -44.3051 -15.1040 -14.7909  -3.3868
    -2.3392  -1.4025  -0.7893  -0.4869   0.6127   2.3149   2.4186   2.8740
     3.8905   4.9691   5.2173   8.1656   9.1315  12.2928  12.5729  13.9345

     occupation numbers 
     1.0000   1.0000   1.0000   1.0000   1.0000   1.0000   1.0000   1.0000
     1.0000   1.0000   1.0000   1.0000   1.0000   1.0349   1.0692   0.4149
     0.0000   0.0000   0.0000   0.0000   0.0000   0.0000   0.0000   0.0000

     the Fermi energy is     2.8797 ev

!    total energy              =    -474.98246104 Ry
     total all-electron energy =     -3102.854598 Ry
     estimated scf accuracy    <          3.9E-09 Ry
     smearing contrib. (-TS)   =       0.00227593 Ry
     internal energy E=F+TS    =    -474.98473697 Ry

     The total energy is F=E-TS. E is the sum of the following terms:
     one-electron contribution =    -817.30883200 Ry
     hartree contribution      =     416.24087949 Ry
     xc contribution           =     -48.90081265 Ry
     ewald contribution        =      81.69433390 Ry
     one-center paw contrib.   =    -106.71030571 Ry
      -> PAW hartree energy AE =     278.11483947 Ry
      -> PAW hartree energy PS =    -276.76827840 Ry
      -> PAW xc energy AE      =    -154.12357158 Ry
      -> PAW xc energy PS      =      46.06670480 Ry
      -> total E_H with PAW    =     417.58744056 Ry
      -> total E_XC with PAW   =    -156.95767943 Ry

     total magnetization       =     0.75 Bohr mag/cell
     absolute magnetization    =     0.99 Bohr mag/cell

     convergence has been achieved in  27 iterations

     Forces acting on atoms (cartesian axes, Ry/au):

     atom    1 type  1   force =    -0.00000000   -0.00000000    0.01265706
     atom    2 type  2   force =     0.00000000    0.00000000   -0.01545050
     atom    3 type  2   force =    -0.00000000   -0.00000000   -0.00635572
     atom    4 type  3   force =     0.00000000    0.00000000    0.00914916
     The non-local contrib.  to forces
     atom    1 type  1   force =     0.00000000    0.00000000    0.01036705
     atom    2 type  2   force =     0.00000000    0.00000000   -1.31771836
     atom    3 type  2   force =    -0.00000000   -0.00000000    1.14589299
     atom    4 type  3   force =     0.00000000   -0.00000000    0.00918202
     The ionic contribution  to forces
     atom    1 type  1   force =    -0.00000000    0.00000000    3.94674309
     atom    2 type  2   force =     0.00000000   -0.00000000   42.23934705
     atom    3 type  2   force =    -0.00000000    0.00000000  -39.45908719
     atom    4 type  3   force =     0.00000000   -0.00000000   -6.72700295
     The local contribution  to forces
     atom    1 type  1   force =    -0.00000000   -0.00000000   -3.94451312
     atom    2 type  2   force =     0.00000001   -0.00000001  -40.94842805
     atom    3 type  2   force =    -0.00000001    0.00000001   38.31646422
     atom    4 type  3   force =     0.00000002   -0.00000001    6.72695721
     The core correction contribution to forces
     atom    1 type  1   force =    -0.00000000    0.00000000   -0.00006140
     atom    2 type  2   force =    -0.00000000    0.00000000    0.01145002
     atom    3 type  2   force =     0.00000000   -0.00000000   -0.00975131
     atom    4 type  3   force =     0.00000000    0.00000000    0.00000000
     The Hubbard contrib.    to forces
     atom    1 type  1   force =     0.00000000    0.00000000    0.00000000
     atom    2 type  2   force =     0.00000000    0.00000000    0.00000000
     atom    3 type  2   force =     0.00000000    0.00000000    0.00000000
     atom    4 type  3   force =     0.00000000    0.00000000    0.00000000
     The SCF correction term to forces
     atom    1 type  1   force =     0.00000000    0.00000000    0.00012055
     atom    2 type  2   force =    -0.00000000    0.00000000   -0.00010204
     atom    3 type  2   force =     0.00000000   -0.00000000    0.00012468
     atom    4 type  3   force =    -0.00000000    0.00000000    0.00001199

     Total force =     0.022870     Total SCF correction =     0.000202

     Writing all to output data dir ./out/pw.save/ :
     XML data file, charge density, pseudopotentials, collected wavefunctions
 
     init_run     :     12.07s CPU      3.00s WALL (       1 calls)
     electrons    :    140.85s CPU     36.04s WALL (       1 calls)
     forces       :      0.58s CPU      0.50s WALL (       1 calls)

     Called by init_run:
     wfcinit      :      0.28s CPU      0.37s WALL (       1 calls)
     wfcinit:atom :      0.04s CPU      0.05s WALL (      50 calls)
     wfcinit:wfcr :      0.18s CPU      0.23s WALL (      50 calls)
     potinit      :     11.27s CPU      2.00s WALL (       1 calls)
     hinit0       :      0.41s CPU      0.41s WALL (       1 calls)

     Called by electrons:
     c_bands      :     17.05s CPU     16.98s WALL (      27 calls)
     sum_band     :      3.10s CPU      3.04s WALL (      27 calls)
     v_of_rho     :      0.50s CPU      0.24s WALL (      28 calls)
     v_h          :      0.35s CPU      0.05s WALL (      28 calls)
     v_xc         :      0.15s CPU      0.20s WALL (      29 calls)
     newd         :      0.64s CPU      0.58s WALL (      28 calls)
                                        0.58s GPU  (      28 calls)
     PAW_pot      :    122.15s CPU     15.21s WALL (      28 calls)
     mix_rho      :      0.50s CPU      0.49s WALL (      27 calls)

     Called by c_bands:
     init_us_2    :      1.16s CPU      1.09s WALL (    2800 calls)
     cegterg      :     14.74s CPU     14.76s WALL (    1350 calls)

     Called by sum_band:
     sum_band:wei :      0.03s CPU      0.03s WALL (      27 calls)
                                        0.03s GPU  (      27 calls)
     sum_band:loo :      1.93s CPU      1.86s WALL (      27 calls)
                                        1.86s GPU  (      27 calls)
     sum_band:buf :      0.24s CPU      0.28s WALL (    1350 calls)
                                        0.26s GPU  (    1350 calls)
     sum_band:ini :      0.55s CPU      0.54s WALL (    1350 calls)
                                        0.53s GPU  (    1350 calls)
     sum_band:cal :      0.05s CPU      0.08s WALL (    1350 calls)
                                        0.07s GPU  (    1350 calls)
     sum_band:bec :      0.29s CPU      0.31s WALL (    1350 calls)
                                        0.29s GPU  (    1350 calls)
     addusdens    :      0.92s CPU      0.93s WALL (      27 calls)
                                        0.92s GPU  (      27 calls)
     addusd:skk   :      0.00s CPU      0.01s WALL (      81 calls)
                                        0.00s GPU  (      81 calls)

     Called by *egterg:
     cdiaghg      :      4.51s CPU      4.68s WALL (    5859 calls)
                                        4.61s GPU  (    5859 calls)
     cegterg:over :      1.27s CPU      1.31s WALL (    4509 calls)
     cegterg:upda :      0.83s CPU      0.84s WALL (    4509 calls)
     cegterg:last :      0.17s CPU      0.16s WALL (    2533 calls)
     h_psi        :      5.50s CPU      5.50s WALL (    5909 calls)
                                        5.43s GPU  (    5909 calls)
     s_psi        :      0.90s CPU      0.94s WALL (    5909 calls)
     g_psi        :      0.02s CPU      0.11s WALL (    4509 calls)
                                        0.06s GPU  (    4509 calls)

     Called by h_psi:
     h_psi:calbec :      0.18s CPU      0.34s WALL (    5909 calls)
                                        0.26s GPU  (    5909 calls)
     vloc_psi     :      3.86s CPU      3.78s WALL (    5909 calls)
                                        3.70s GPU  (    5909 calls)
     add_vuspsi   :      0.82s CPU      0.97s WALL (    5909 calls)
                                        0.90s GPU  (    5909 calls)

     General routines
     calbec       :      0.20s CPU      0.23s WALL (    7459 calls)
     fft          :      3.52s CPU      0.65s WALL (     713 calls)
                                        0.02s GPU  (     657 calls)
     ffts         :      4.21s CPU      0.80s WALL (     110 calls)
                                        0.00s GPU  (      54 calls)
     fftw         :      0.37s CPU      1.36s WALL (   20020 calls)
                                        1.13s GPU  (   20020 calls)
     interpolate  :      7.97s CPU      1.46s WALL (      56 calls)
 
     Parallel routines

     PAW routines
     PAW_pot      :    122.15s CPU     15.21s WALL (      28 calls)
     PAW_symme    :      0.03s CPU      0.01s WALL (      55 calls)
 
     PWSCF        :   2m34.37s CPU     40.05s WALL

 
   This run was terminated on:   2:21:47  12Jul2026            

=------------------------------------------------------------------------------=
   JOB DONE.
=------------------------------------------------------------------------------=
Warning: ieee_divide_by_zero is signaling
Warning: ieee_inexact is signaling
FORTRAN STOP
