
     Program PWSCF v.7.3.1 starts on 12Jul2026 at  3:16:42 

     This program is part of the open-source Quantum ESPRESSO suite
     for quantum simulation of materials; please cite
         "P. Giannozzi et al., J. Phys.:Condens. Matter 21 395502 (2009);
         "P. Giannozzi et al., J. Phys.:Condens. Matter 29 465901 (2017);
         "P. Giannozzi et al., J. Chem. Phys. 152 154105 (2020);
          URL http://www.quantum-espresso.org", 
     in publications or presentations arising from this work. More details at
     http://www.quantum-espresso.org/quote

     Parallel version (MPI & OpenMP), running on      14 processor cores
     Number of MPI processes:                 1
     Threads/MPI process:                    14

     MPI processes distributed on     1 nodes
     849823 MiB available memory on the printing compute node when the environment starts
 
     Reading input from pw.in

     Current dimensions of program PWSCF are:
     Max number of different atomic species (ntypx) = 10
     Max number of k-points (npk) =  40000
     Max angular momentum in pseudopotentials (lmaxx) =  4
     file Co.pbe-spn-kjpaw_psl.0.3.1.UPF: wavefunction(s)  3P 3D renormalized
     file O.pbe-n-kjpaw_psl.1.0.0.UPF: wavefunction(s)  2S 2P renormalized
     file Na.pbe-spn-kjpaw_psl.1.0.0.UPF: wavefunction(s)  2P renormalized
 
     Subspace diagonalization in iterative solution of the eigenvalue problem:
     a serial algorithm will be used

 
     G-vector sticks info
     --------------------
     sticks:   dense  smooth     PW     G-vecs:    dense   smooth      PW
     Sum         979     499    151                59641    21167    3485
 
     Using Slab Decomposition
 


     bravais-lattice index     =            4
     lattice parameter (alat)  =       5.4575  a.u.
     unit-cell volume          =     336.3339 (a.u.)^3
     number of atoms/cell      =            4
     number of atomic types    =            3
     number of electrons       =        38.00
     number of Kohn-Sham states=           27
     kinetic-energy cutoff     =      60.0000  Ry
     charge density cutoff     =     480.0000  Ry
     scf convergence threshold =      1.0E-07
     mixing beta               =       0.3000
     number of iterations used =            8  local-TF  mixing
     Exchange-correlation= SLA  PW   PBX  PBC
                           (   1   4   3   4   0   0   0)

     GPU acceleration is ACTIVE.  1 visible GPUs per MPI rank
     GPU-aware MPI enabled


     GPU used by master process:

        Device Number: 0
        Device name: NVIDIA A100-SXM4-80GB
        Compute capability : 80
        Ratio of single to double precision performance  : 2
        Memory Clock Rate (KHz): 1593000
        Memory Bus Width (bits): 5120
        Peak Memory Bandwidth (GB/s): ******

     celldm(1)=   5.457529  celldm(2)=   0.000000  celldm(3)=   2.389197
     celldm(4)=   0.000000  celldm(5)=   0.000000  celldm(6)=   0.000000

     crystal axes: (cart. coord. in units of alat)
               a(1) = (   1.000000   0.000000   0.000000 )  
               a(2) = (  -0.500000   0.866025   0.000000 )  
               a(3) = (   0.000000   0.000000   2.389197 )  

     reciprocal axes: (cart. coord. in units 2 pi/alat)
               b(1) = (  1.000000  0.577350 -0.000000 )  
               b(2) = (  0.000000  1.154701  0.000000 )  
               b(3) = (  0.000000 -0.000000  0.418551 )  


     PseudoPot. # 1 for Co read from file:
     ../../pseudo/Co.pbe-spn-kjpaw_psl.0.3.1.UPF
     MD5 check sum: 3c0a43779828c046024e4f3be63f8e67
     Pseudo is Projector augmented-wave + core cor, Zval = 17.0
     Generated using &quot;atomic&quot; code by A. Dal Corso  v.6.2.2
     Shape of augmentation charge: PSQ
     Using radial grid of 1193 points,  6 beta functions with: 
                l(1) =   0
                l(2) =   0
                l(3) =   1
                l(4) =   1
                l(5) =   2
                l(6) =   2
     Q(r) pseudized with 0 coefficients 


     PseudoPot. # 2 for O  read from file:
     ../../pseudo/O.pbe-n-kjpaw_psl.1.0.0.UPF
     MD5 check sum: e99d9cef9b487d1ca56f5b95ecd0fd7a
     Pseudo is Projector augmented-wave + core cor, Zval =  6.0
     Generated using &quot;atomic&quot; code by A. Dal Corso  v.6.3
     Shape of augmentation charge: PSQ
     Using radial grid of 1095 points,  4 beta functions with: 
                l(1) =   0
                l(2) =   0
                l(3) =   1
                l(4) =   1
     Q(r) pseudized with 0 coefficients 


     PseudoPot. # 3 for Na read from file:
     ../../pseudo/Na.pbe-spn-kjpaw_psl.1.0.0.UPF
     MD5 check sum: 05b4deb74e3932c23ab016979dc8b5d4
     Pseudo is Projector augmented-wave + core cor, Zval =  9.0
     Generated using &quot;atomic&quot; code by A. Dal Corso  v.6.3
     Shape of augmentation charge: PSQ
     Using radial grid of 1121 points,  4 beta functions with: 
                l(1) =   0
                l(2) =   0
                l(3) =   1
                l(4) =   1
     Q(r) pseudized with 0 coefficients 


     atomic species   valence    mass     pseudopotential
     Co               17.00    58.93300     Co( 1.00)
     O                 6.00    15.99900     O ( 1.00)
     Na                9.00    22.98977     Na( 1.00)

     Starting magnetic structure 
     atomic species   magnetization
     Co              0.300
     O               0.000
     Na              0.000

      6 Sym. Ops. (no inversion) found


                                    s                        frac. trans.

      isym =  1     identity                                     

 cryst.   s( 1) = (     1          0          0      )
                  (     0          1          0      )
                  (     0          0          1      )

 cart.    s( 1) = (  1.0000000  0.0000000  0.0000000 )
                  (  0.0000000  1.0000000  0.0000000 )
                  (  0.0000000  0.0000000  1.0000000 )


      isym =  2     120 deg rotation - cryst. axis [0,0,1]       

 cryst.   s( 2) = (     0          1          0      )
                  (    -1         -1          0      )
                  (     0          0          1      )

 cart.    s( 2) = ( -0.5000000 -0.8660254  0.0000000 )
                  (  0.8660254 -0.5000000  0.0000000 )
                  (  0.0000000  0.0000000  1.0000000 )


      isym =  3     120 deg rotation - cryst. axis [0,0,-1]      

 cryst.   s( 3) = (    -1         -1          0      )
                  (     1          0          0      )
                  (     0          0          1      )

 cart.    s( 3) = ( -0.5000000  0.8660254  0.0000000 )
                  ( -0.8660254 -0.5000000  0.0000000 )
                  (  0.0000000  0.0000000  1.0000000 )


      isym =  4     inv. 180 deg rotation - cart. axis [1,0,0]   

 cryst.   s( 4) = (    -1          0          0      )
                  (     1          1          0      )
                  (     0          0          1      )

 cart.    s( 4) = ( -1.0000000  0.0000000  0.0000000 )
                  (  0.0000000  1.0000000  0.0000000 )
                  (  0.0000000  0.0000000  1.0000000 )


      isym =  5     inv. 180 deg rotation - cryst. axis [0,1,0]  

 cryst.   s( 5) = (     1          1          0      )
                  (     0         -1          0      )
                  (     0          0          1      )

 cart.    s( 5) = (  0.5000000  0.8660254  0.0000000 )
                  (  0.8660254 -0.5000000  0.0000000 )
                  (  0.0000000  0.0000000  1.0000000 )


      isym =  6     inv. 180 deg rotation - cryst. axis [1,1,0]  

 cryst.   s( 6) = (     0         -1          0      )
                  (    -1          0          0      )
                  (     0          0          1      )

 cart.    s( 6) = (  0.5000000 -0.8660254  0.0000000 )
                  ( -0.8660254 -0.5000000  0.0000000 )
                  (  0.0000000  0.0000000  1.0000000 )


     point group C_3v (3m)  
     there are  3 classes
     the character table:

       E     2C3   3s_v 
A_1    1.00  1.00  1.00
A_2    1.00  1.00 -1.00
E      2.00 -1.00  0.00

     the symmetry operations in each class and the name of the first element:

     E        1
          identity                                               
     2C3      2    3
          120 deg rotation - cryst. axis [0,0,1]                 
     3s_v     4    5    6
          inv. 180 deg rotation - cart. axis [1,0,0]             

   Cartesian axes

     site n.     atom                  positions (alat units)
         1        Co     tau(   1) = (   0.0000000   0.0000000   0.0000000  )
         2        O      tau(   2) = (  -0.0000000   0.5773503   0.3324100  )
         3        O      tau(   3) = (   0.5000000   0.2886751   2.0567867  )
         4        Na     tau(   4) = (   0.0000000   0.0000000   1.3677285  )

   Crystallographic axes

     site n.     atom                  positions (cryst. coord.)
         1        Co     tau(   1) = (  0.0000000  0.0000000  0.0000000  )
         2        O      tau(   2) = (  0.3333333  0.6666667  0.1391304  )
         3        O      tau(   3) = (  0.6666667  0.3333333  0.8608696  )
         4        Na     tau(   4) = (  0.0000000  0.0000000  0.5724638  )

     number of k points=    25  Marzari-Vanderbilt smearing, width (Ry)=  0.0200
                       cart. coord. in units 2pi/alat
        k(    1) = (   0.0000000   0.0000000   0.0000000), wk =   0.0052083
        k(    2) = (   0.0000000   0.0000000   0.1395169), wk =   0.0104167
        k(    3) = (   0.0000000   0.1443376   0.0000000), wk =   0.0312500
        k(    4) = (   0.0000000   0.1443376   0.1395169), wk =   0.0312500
        k(    5) = (   0.0000000   0.2886751   0.0000000), wk =   0.0312500
        k(    6) = (   0.0000000   0.2886751   0.1395169), wk =   0.0312500
        k(    7) = (   0.0000000   0.4330127   0.0000000), wk =   0.0312500
        k(    8) = (   0.0000000   0.4330127   0.1395169), wk =   0.0312500
        k(    9) = (   0.0000000  -0.5773503   0.0000000), wk =   0.0156250
        k(   10) = (   0.0000000  -0.5773503   0.1395169), wk =   0.0312500
        k(   11) = (   0.1250000   0.2165064   0.0000000), wk =   0.0312500
        k(   12) = (   0.1250000   0.2165064   0.1395169), wk =   0.0625000
        k(   13) = (   0.1250000   0.3608439   0.0000000), wk =   0.0625000
        k(   14) = (   0.1250000   0.3608439   0.1395169), wk =   0.0625000
        k(   15) = (   0.1250000   0.5051815   0.0000000), wk =   0.0625000
        k(   16) = (   0.1250000   0.5051815   0.1395169), wk =   0.0625000
        k(   17) = (   0.2500000   0.4330127   0.0000000), wk =   0.0312500
        k(   18) = (   0.2500000   0.4330127   0.1395169), wk =   0.0625000
        k(   19) = (   0.2500000   0.5773503   0.0000000), wk =   0.0312500
        k(   20) = (   0.2500000   0.5773503   0.1395169), wk =   0.0625000
        k(   21) = (   0.0000000  -0.1443376   0.1395169), wk =   0.0312500
        k(   22) = (   0.0000000  -0.2886751   0.1395169), wk =   0.0312500
        k(   23) = (   0.0000000  -0.4330127   0.1395169), wk =   0.0312500
        k(   24) = (  -0.1250000  -0.3608439   0.1395169), wk =   0.0625000
        k(   25) = (  -0.1250000  -0.5051815   0.1395169), wk =   0.0625000

                       cryst. coord.
        k(    1) = (   0.0000000   0.0000000   0.0000000), wk =   0.0052083
        k(    2) = (   0.0000000   0.0000000   0.3333333), wk =   0.0104167
        k(    3) = (   0.0000000   0.1250000   0.0000000), wk =   0.0312500
        k(    4) = (   0.0000000   0.1250000   0.3333333), wk =   0.0312500
        k(    5) = (   0.0000000   0.2500000   0.0000000), wk =   0.0312500
        k(    6) = (   0.0000000   0.2500000   0.3333333), wk =   0.0312500
        k(    7) = (   0.0000000   0.3750000   0.0000000), wk =   0.0312500
        k(    8) = (   0.0000000   0.3750000   0.3333333), wk =   0.0312500
        k(    9) = (   0.0000000  -0.5000000   0.0000000), wk =   0.0156250
        k(   10) = (   0.0000000  -0.5000000   0.3333333), wk =   0.0312500
        k(   11) = (   0.1250000   0.1250000   0.0000000), wk =   0.0312500
        k(   12) = (   0.1250000   0.1250000   0.3333333), wk =   0.0625000
        k(   13) = (   0.1250000   0.2500000   0.0000000), wk =   0.0625000
        k(   14) = (   0.1250000   0.2500000   0.3333333), wk =   0.0625000
        k(   15) = (   0.1250000   0.3750000   0.0000000), wk =   0.0625000
        k(   16) = (   0.1250000   0.3750000   0.3333333), wk =   0.0625000
        k(   17) = (   0.2500000   0.2500000   0.0000000), wk =   0.0312500
        k(   18) = (   0.2500000   0.2500000   0.3333333), wk =   0.0625000
        k(   19) = (   0.2500000   0.3750000   0.0000000), wk =   0.0312500
        k(   20) = (   0.2500000   0.3750000   0.3333333), wk =   0.0625000
        k(   21) = (   0.0000000  -0.1250000   0.3333333), wk =   0.0312500
        k(   22) = (   0.0000000  -0.2500000   0.3333333), wk =   0.0312500
        k(   23) = (   0.0000000  -0.3750000   0.3333333), wk =   0.0312500
        k(   24) = (  -0.1250000  -0.2500000   0.3333333), wk =   0.0625000
        k(   25) = (  -0.1250000  -0.3750000   0.3333333), wk =   0.0625000

     Dense  grid:    59641 G-vectors     FFT dimensions: (  40,  40,  96)

     Smooth grid:    21167 G-vectors     FFT dimensions: (  27,  27,  72)

     Dynamical RAM for                 wfc:       1.09 MB

     Dynamical RAM for     wfc (w. buffer):      55.47 MB

     Dynamical RAM for           str. fact:       2.73 MB

     Dynamical RAM for           local pot:       0.00 MB

     Dynamical RAM for          nlocal pot:       1.69 MB

     Dynamical RAM for                qrad:       5.27 MB

     Dynamical RAM for          rho,v,vnew:      12.49 MB

     Dynamical RAM for               rhoin:       4.16 MB

     Dynamical RAM for            rho*nmix:      29.12 MB

     Dynamical RAM for           G-vectors:       3.57 MB

     Dynamical RAM for          h,s,v(r/c):       0.13 MB

     Dynamical RAM for          <psi|beta>:       0.02 MB

     Dynamical RAM for                 psi:       2.18 MB

     Dynamical RAM for                hpsi:       2.18 MB

     Dynamical RAM for                spsi:       2.18 MB

     Dynamical RAM for      wfcinit/wfcrot:       2.19 MB

     Dynamical RAM for           addusdens:     172.00 MB

     Dynamical RAM for          addusforce:     173.84 MB

     Estimated static dynamical RAM per process >      96.07 MB

     Estimated max dynamical RAM per process >     299.02 MB

     Check: negative core charge=   -0.000008
     Generating pointlists ...
     new r_m :   0.2748 (alat units)  1.4998 (a.u.) for type    1
     new r_m :   0.2748 (alat units)  1.4998 (a.u.) for type    2
     new r_m :   0.3708 (alat units)  2.0238 (a.u.) for type    3

     Initial potential from superposition of free atoms

     starting charge      37.9934, renormalised to      38.0000
     Starting wfcs are   23 randomized atomic wfcs +    4 random wfcs
     Checking if some PAW data can be deallocated... 

     total cpu time spent up to now is        3.8 secs

     Self-consistent Calculation
[tb_dev] Currently allocated     6.54E-01 Mbytes, locked:    0 /   6
[tb_pin] Currently allocated     0.00E+00 Mbytes, locked:    0 /   0

     iteration #  1     ecut=    60.00 Ry     beta= 0.30
     Davidson diagonalization with overlap

---- Real-time Memory Report at c_bands before calling an iterative solver
           671 MiB given to the printing process from OS
             0 MiB allocation reported by mallinfo(arena+hblkhd)
        849614 MiB available memory on the node where the printing process lives
     GPU memory used/free/total (MiB): 998 / 80152 / 81151
------------------
     ethr =  1.00E-02,  avg # of iterations =  9.6

     total cpu time spent up to now is        5.8 secs

     total energy              =    -569.09066924 Ry
     estimated scf accuracy    <       1.50967290 Ry

     total magnetization       =     4.00 Bohr mag/cell
     absolute magnetization    =     4.00 Bohr mag/cell
[tb_dev] Currently allocated     3.05E-05 Mbytes, locked:    0 /   2
[tb_pin] Currently allocated     0.00E+00 Mbytes, locked:    0 /   0

     iteration #  2     ecut=    60.00 Ry     beta= 0.30
     Davidson diagonalization with overlap

---- Real-time Memory Report at c_bands before calling an iterative solver
           712 MiB given to the printing process from OS
             0 MiB allocation reported by mallinfo(arena+hblkhd)
        849208 MiB available memory on the node where the printing process lives
     GPU memory used/free/total (MiB): 1014 / 80136 / 81151
------------------
     ethr =  3.97E-03,  avg # of iterations =  1.9

     total cpu time spent up to now is        6.9 secs

     total energy              =    -569.06852606 Ry
     estimated scf accuracy    <       0.52775204 Ry

     total magnetization       =     3.94 Bohr mag/cell
     absolute magnetization    =     3.94 Bohr mag/cell
[tb_dev] Currently allocated     3.05E-05 Mbytes, locked:    0 /   2
[tb_pin] Currently allocated     0.00E+00 Mbytes, locked:    0 /   0

     iteration #  3     ecut=    60.00 Ry     beta= 0.30
     Davidson diagonalization with overlap

---- Real-time Memory Report at c_bands before calling an iterative solver
           712 MiB given to the printing process from OS
             0 MiB allocation reported by mallinfo(arena+hblkhd)
        849188 MiB available memory on the node where the printing process lives
     GPU memory used/free/total (MiB): 1014 / 80136 / 81151
------------------
     ethr =  1.39E-03,  avg # of iterations =  2.9

     total cpu time spent up to now is        8.1 secs

     total energy              =    -569.28082301 Ry
     estimated scf accuracy    <       0.95542340 Ry

     total magnetization       =     1.57 Bohr mag/cell
     absolute magnetization    =     1.69 Bohr mag/cell
[tb_dev] Currently allocated     3.05E-05 Mbytes, locked:    0 /   2
[tb_pin] Currently allocated     0.00E+00 Mbytes, locked:    0 /   0

     iteration #  4     ecut=    60.00 Ry     beta= 0.30
     Davidson diagonalization with overlap

---- Real-time Memory Report at c_bands before calling an iterative solver
           715 MiB given to the printing process from OS
             0 MiB allocation reported by mallinfo(arena+hblkhd)
        849092 MiB available memory on the node where the printing process lives
     GPU memory used/free/total (MiB): 1014 / 80136 / 81151
------------------
     ethr =  1.39E-03,  avg # of iterations =  1.5

     total cpu time spent up to now is        9.2 secs

     total energy              =    -569.29934993 Ry
     estimated scf accuracy    <       2.04102440 Ry

     total magnetization       =     1.00 Bohr mag/cell
     absolute magnetization    =     1.29 Bohr mag/cell
[tb_dev] Currently allocated     3.05E-05 Mbytes, locked:    0 /   2
[tb_pin] Currently allocated     0.00E+00 Mbytes, locked:    0 /   0

     iteration #  5     ecut=    60.00 Ry     beta= 0.30
     Davidson diagonalization with overlap

---- Real-time Memory Report at c_bands before calling an iterative solver
           719 MiB given to the printing process from OS
             0 MiB allocation reported by mallinfo(arena+hblkhd)
        849048 MiB available memory on the node where the printing process lives
     GPU memory used/free/total (MiB): 1014 / 80136 / 81151
------------------
     ethr =  1.39E-03,  avg # of iterations =  1.4

     total cpu time spent up to now is       10.3 secs

     total energy              =    -569.09334190 Ry
     estimated scf accuracy    <       1.57103621 Ry

     total magnetization       =     0.77 Bohr mag/cell
     absolute magnetization    =     1.19 Bohr mag/cell
[tb_dev] Currently allocated     3.05E-05 Mbytes, locked:    0 /   2
[tb_pin] Currently allocated     0.00E+00 Mbytes, locked:    0 /   0

     iteration #  6     ecut=    60.00 Ry     beta= 0.30
     Davidson diagonalization with overlap

---- Real-time Memory Report at c_bands before calling an iterative solver
           721 MiB given to the printing process from OS
             0 MiB allocation reported by mallinfo(arena+hblkhd)
        849028 MiB available memory on the node where the printing process lives
     GPU memory used/free/total (MiB): 1014 / 80136 / 81151
------------------
     ethr =  1.39E-03,  avg # of iterations =  1.9

     total cpu time spent up to now is       11.4 secs

     total energy              =    -569.25216176 Ry
     estimated scf accuracy    <       0.04989647 Ry

     total magnetization       =     0.34 Bohr mag/cell
     absolute magnetization    =     0.64 Bohr mag/cell
[tb_dev] Currently allocated     3.05E-05 Mbytes, locked:    0 /   2
[tb_pin] Currently allocated     0.00E+00 Mbytes, locked:    0 /   0

     iteration #  7     ecut=    60.00 Ry     beta= 0.30
     Davidson diagonalization with overlap

---- Real-time Memory Report at c_bands before calling an iterative solver
           722 MiB given to the printing process from OS
             0 MiB allocation reported by mallinfo(arena+hblkhd)
        849016 MiB available memory on the node where the printing process lives
     GPU memory used/free/total (MiB): 1014 / 80136 / 81151
------------------
     ethr =  1.31E-04,  avg # of iterations =  7.5

     total cpu time spent up to now is       13.3 secs

     total energy              =    -569.26152591 Ry
     estimated scf accuracy    <       0.05424453 Ry

     total magnetization       =     0.17 Bohr mag/cell
     absolute magnetization    =     0.55 Bohr mag/cell
[tb_dev] Currently allocated     3.05E-05 Mbytes, locked:    0 /   2
[tb_pin] Currently allocated     0.00E+00 Mbytes, locked:    0 /   0

     iteration #  8     ecut=    60.00 Ry     beta= 0.30
     Davidson diagonalization with overlap

---- Real-time Memory Report at c_bands before calling an iterative solver
           724 MiB given to the printing process from OS
             0 MiB allocation reported by mallinfo(arena+hblkhd)
        848964 MiB available memory on the node where the printing process lives
     GPU memory used/free/total (MiB): 1014 / 80136 / 81151
------------------
     ethr =  1.31E-04,  avg # of iterations =  2.9

     total cpu time spent up to now is       14.5 secs

     total energy              =    -569.26453155 Ry
     estimated scf accuracy    <       0.01731710 Ry

     total magnetization       =    -0.16 Bohr mag/cell
     absolute magnetization    =     0.19 Bohr mag/cell
[tb_dev] Currently allocated     3.05E-05 Mbytes, locked:    0 /   2
[tb_pin] Currently allocated     0.00E+00 Mbytes, locked:    0 /   0

     iteration #  9     ecut=    60.00 Ry     beta= 0.30
     Davidson diagonalization with overlap

---- Real-time Memory Report at c_bands before calling an iterative solver
           726 MiB given to the printing process from OS
             0 MiB allocation reported by mallinfo(arena+hblkhd)
        848996 MiB available memory on the node where the printing process lives
     GPU memory used/free/total (MiB): 1014 / 80136 / 81151
------------------
     ethr =  4.56E-05,  avg # of iterations =  2.5

     total cpu time spent up to now is       15.7 secs

     total energy              =    -569.27528055 Ry
     estimated scf accuracy    <       0.01914590 Ry

     total magnetization       =     0.10 Bohr mag/cell
     absolute magnetization    =     0.35 Bohr mag/cell
[tb_dev] Currently allocated     3.05E-05 Mbytes, locked:    0 /   2
[tb_pin] Currently allocated     0.00E+00 Mbytes, locked:    0 /   0

     iteration # 10     ecut=    60.00 Ry     beta= 0.30
     Davidson diagonalization with overlap

---- Real-time Memory Report at c_bands before calling an iterative solver
           727 MiB given to the printing process from OS
             0 MiB allocation reported by mallinfo(arena+hblkhd)
        848994 MiB available memory on the node where the printing process lives
     GPU memory used/free/total (MiB): 1014 / 80136 / 81151
------------------
     ethr =  4.56E-05,  avg # of iterations =  1.4

     total cpu time spent up to now is       16.8 secs

     total energy              =    -569.27655958 Ry
     estimated scf accuracy    <       0.00212968 Ry

     total magnetization       =     0.16 Bohr mag/cell
     absolute magnetization    =     0.27 Bohr mag/cell
[tb_dev] Currently allocated     3.05E-05 Mbytes, locked:    0 /   2
[tb_pin] Currently allocated     0.00E+00 Mbytes, locked:    0 /   0

     iteration # 11     ecut=    60.00 Ry     beta= 0.30
     Davidson diagonalization with overlap

---- Real-time Memory Report at c_bands before calling an iterative solver
           727 MiB given to the printing process from OS
             0 MiB allocation reported by mallinfo(arena+hblkhd)
        848981 MiB available memory on the node where the printing process lives
     GPU memory used/free/total (MiB): 1014 / 80136 / 81151
------------------
     c_bands:  1 eigenvalues not converged
     ethr =  5.60E-06,  avg # of iterations =  7.1

     total cpu time spent up to now is       18.6 secs

     total energy              =    -569.27693067 Ry
     estimated scf accuracy    <       0.00178373 Ry

     total magnetization       =     0.15 Bohr mag/cell
     absolute magnetization    =     0.24 Bohr mag/cell
[tb_dev] Currently allocated     3.05E-05 Mbytes, locked:    0 /   2
[tb_pin] Currently allocated     0.00E+00 Mbytes, locked:    0 /   0

     iteration # 12     ecut=    60.00 Ry     beta= 0.30
     Davidson diagonalization with overlap

---- Real-time Memory Report at c_bands before calling an iterative solver
           727 MiB given to the printing process from OS
             0 MiB allocation reported by mallinfo(arena+hblkhd)
        848956 MiB available memory on the node where the printing process lives
     GPU memory used/free/total (MiB): 1014 / 80136 / 81151
------------------
     ethr =  4.69E-06,  avg # of iterations =  1.9

     total cpu time spent up to now is       19.7 secs

     total energy              =    -569.27730066 Ry
     estimated scf accuracy    <       0.00042706 Ry

     total magnetization       =     0.18 Bohr mag/cell
     absolute magnetization    =     0.25 Bohr mag/cell
[tb_dev] Currently allocated     3.05E-05 Mbytes, locked:    0 /   2
[tb_pin] Currently allocated     0.00E+00 Mbytes, locked:    0 /   0

     iteration # 13     ecut=    60.00 Ry     beta= 0.30
     Davidson diagonalization with overlap

---- Real-time Memory Report at c_bands before calling an iterative solver
           727 MiB given to the printing process from OS
             0 MiB allocation reported by mallinfo(arena+hblkhd)
        848924 MiB available memory on the node where the printing process lives
     GPU memory used/free/total (MiB): 1014 / 80136 / 81151
------------------
     c_bands:  1 eigenvalues not converged
     ethr =  1.12E-06,  avg # of iterations =  5.3

     total cpu time spent up to now is       21.3 secs

     total energy              =    -569.27741719 Ry
     estimated scf accuracy    <       0.00010044 Ry

     total magnetization       =     0.18 Bohr mag/cell
     absolute magnetization    =     0.24 Bohr mag/cell
[tb_dev] Currently allocated     3.05E-05 Mbytes, locked:    0 /   2
[tb_pin] Currently allocated     0.00E+00 Mbytes, locked:    0 /   0

     iteration # 14     ecut=    60.00 Ry     beta= 0.30
     Davidson diagonalization with overlap

---- Real-time Memory Report at c_bands before calling an iterative solver
           727 MiB given to the printing process from OS
             0 MiB allocation reported by mallinfo(arena+hblkhd)
        848947 MiB available memory on the node where the printing process lives
     GPU memory used/free/total (MiB): 1014 / 80136 / 81151
------------------
     ethr =  2.64E-07,  avg # of iterations =  4.7

     total cpu time spent up to now is       22.8 secs

     total energy              =    -569.27743953 Ry
     estimated scf accuracy    <       0.00006797 Ry

     total magnetization       =     0.17 Bohr mag/cell
     absolute magnetization    =     0.23 Bohr mag/cell
[tb_dev] Currently allocated     3.05E-05 Mbytes, locked:    0 /   2
[tb_pin] Currently allocated     0.00E+00 Mbytes, locked:    0 /   0

     iteration # 15     ecut=    60.00 Ry     beta= 0.30
     Davidson diagonalization with overlap

---- Real-time Memory Report at c_bands before calling an iterative solver
           727 MiB given to the printing process from OS
             0 MiB allocation reported by mallinfo(arena+hblkhd)
        848960 MiB available memory on the node where the printing process lives
     GPU memory used/free/total (MiB): 1014 / 80136 / 81151
------------------
     ethr =  1.79E-07,  avg # of iterations =  1.9

     total cpu time spent up to now is       23.9 secs

     total energy              =    -569.27744485 Ry
     estimated scf accuracy    <       0.00002053 Ry

     total magnetization       =     0.17 Bohr mag/cell
     absolute magnetization    =     0.23 Bohr mag/cell
[tb_dev] Currently allocated     3.05E-05 Mbytes, locked:    0 /   2
[tb_pin] Currently allocated     0.00E+00 Mbytes, locked:    0 /   0

     iteration # 16     ecut=    60.00 Ry     beta= 0.30
     Davidson diagonalization with overlap

---- Real-time Memory Report at c_bands before calling an iterative solver
           727 MiB given to the printing process from OS
             0 MiB allocation reported by mallinfo(arena+hblkhd)
        848916 MiB available memory on the node where the printing process lives
     GPU memory used/free/total (MiB): 1014 / 80136 / 81151
------------------
     ethr =  5.40E-08,  avg # of iterations =  3.8

     total cpu time spent up to now is       25.3 secs

     total energy              =    -569.27745078 Ry
     estimated scf accuracy    <       0.00000804 Ry

     total magnetization       =     0.17 Bohr mag/cell
     absolute magnetization    =     0.22 Bohr mag/cell
[tb_dev] Currently allocated     3.05E-05 Mbytes, locked:    0 /   2
[tb_pin] Currently allocated     0.00E+00 Mbytes, locked:    0 /   0

     iteration # 17     ecut=    60.00 Ry     beta= 0.30
     Davidson diagonalization with overlap

---- Real-time Memory Report at c_bands before calling an iterative solver
           727 MiB given to the printing process from OS
             0 MiB allocation reported by mallinfo(arena+hblkhd)
        848919 MiB available memory on the node where the printing process lives
     GPU memory used/free/total (MiB): 1014 / 80136 / 81151
------------------
     ethr =  2.12E-08,  avg # of iterations =  4.8

     total cpu time spent up to now is       26.8 secs

     total energy              =    -569.27745396 Ry
     estimated scf accuracy    <       0.00000206 Ry

     total magnetization       =     0.17 Bohr mag/cell
     absolute magnetization    =     0.22 Bohr mag/cell
[tb_dev] Currently allocated     3.05E-05 Mbytes, locked:    0 /   2
[tb_pin] Currently allocated     0.00E+00 Mbytes, locked:    0 /   0

     iteration # 18     ecut=    60.00 Ry     beta= 0.30
     Davidson diagonalization with overlap

---- Real-time Memory Report at c_bands before calling an iterative solver
           727 MiB given to the printing process from OS
             0 MiB allocation reported by mallinfo(arena+hblkhd)
        848911 MiB available memory on the node where the printing process lives
     GPU memory used/free/total (MiB): 1014 / 80136 / 81151
------------------
     ethr =  5.42E-09,  avg # of iterations =  4.0

     total cpu time spent up to now is       28.2 secs

     total energy              =    -569.27745451 Ry
     estimated scf accuracy    <       0.00000052 Ry

     total magnetization       =     0.17 Bohr mag/cell
     absolute magnetization    =     0.22 Bohr mag/cell
[tb_dev] Currently allocated     3.05E-05 Mbytes, locked:    0 /   2
[tb_pin] Currently allocated     0.00E+00 Mbytes, locked:    0 /   0

     iteration # 19     ecut=    60.00 Ry     beta= 0.30
     Davidson diagonalization with overlap

---- Real-time Memory Report at c_bands before calling an iterative solver
           727 MiB given to the printing process from OS
             0 MiB allocation reported by mallinfo(arena+hblkhd)
        849413 MiB available memory on the node where the printing process lives
     GPU memory used/free/total (MiB): 1014 / 80136 / 81151
------------------
     ethr =  1.36E-09,  avg # of iterations =  4.0

     total cpu time spent up to now is       29.6 secs

     total energy              =    -569.27745476 Ry
     estimated scf accuracy    <       0.00000017 Ry

     total magnetization       =     0.17 Bohr mag/cell
     absolute magnetization    =     0.22 Bohr mag/cell
[tb_dev] Currently allocated     3.05E-05 Mbytes, locked:    0 /   2
[tb_pin] Currently allocated     0.00E+00 Mbytes, locked:    0 /   0

     iteration # 20     ecut=    60.00 Ry     beta= 0.30
     Davidson diagonalization with overlap

---- Real-time Memory Report at c_bands before calling an iterative solver
           727 MiB given to the printing process from OS
             0 MiB allocation reported by mallinfo(arena+hblkhd)
        849167 MiB available memory on the node where the printing process lives
     GPU memory used/free/total (MiB): 1014 / 80136 / 81151
------------------
     ethr =  4.43E-10,  avg # of iterations =  3.1

     total cpu time spent up to now is       30.9 secs

     total energy              =    -569.27745488 Ry
     estimated scf accuracy    <       0.00000012 Ry

     total magnetization       =     0.17 Bohr mag/cell
     absolute magnetization    =     0.22 Bohr mag/cell
[tb_dev] Currently allocated     3.05E-05 Mbytes, locked:    0 /   2
[tb_pin] Currently allocated     0.00E+00 Mbytes, locked:    0 /   0

     iteration # 21     ecut=    60.00 Ry     beta= 0.30
     Davidson diagonalization with overlap

---- Real-time Memory Report at c_bands before calling an iterative solver
           727 MiB given to the printing process from OS
             0 MiB allocation reported by mallinfo(arena+hblkhd)
        849089 MiB available memory on the node where the printing process lives
     GPU memory used/free/total (MiB): 1014 / 80136 / 81151
------------------
     ethr =  3.15E-10,  avg # of iterations =  3.0
 
     Magnetic moment per site  (integrated on atomic sphere of radius R)
     atom   1 (R=0.275)  charge= 14.1432  magn=  0.1594
     atom   2 (R=0.275)  charge=  5.2235  magn=  0.0113
     atom   3 (R=0.275)  charge=  5.2762  magn=  0.0081
     atom   4 (R=0.371)  charge=  8.0796  magn= -0.0071

     total cpu time spent up to now is       32.1 secs

     End of self-consistent calculation

 ------ SPIN UP ------------


          k = 0.0000 0.0000 0.0000 (  2625 PWs)   bands (ev):

   -87.5425 -50.7826 -50.7826 -50.7766 -45.9428 -17.7699 -17.7651 -17.7651
   -12.0496 -10.1682   1.3829   2.4947   2.4947   4.8737   5.8163   5.8163
     6.4772   6.4858   6.4858   7.9317  10.0243  10.0243  13.3893  15.2059
    17.8487  22.8643  24.8010

     occupation numbers 
     1.0000   1.0000   1.0000   1.0000   1.0000   1.0000   1.0000   1.0000
     1.0000   1.0000   1.0000   1.0000   1.0000   1.0000   1.0000   1.0000
     1.0000   1.0000   1.0000   0.0810   0.0000   0.0000   0.0000   0.0000
     0.0000   0.0000   0.0000

          k = 0.0000 0.0000 0.1395 (  2666 PWs)   bands (ev):

   -87.5425 -50.7829 -50.7829 -50.7768 -45.9429 -17.7705 -17.7655 -17.7655
   -12.0450 -10.1754   1.5187   2.4948   2.4948   4.2581   5.8155   5.8155
     6.4858   6.4858   7.2800   7.8723  10.0249  10.0249  12.4434  16.0888
    17.8545  22.8442  24.6394

     occupation numbers 
     1.0000   1.0000   1.0000   1.0000   1.0000   1.0000   1.0000   1.0000
     1.0000   1.0000   1.0000   1.0000   1.0000   1.0000   1.0000   1.0000
     1.0000   1.0000   1.0682   0.1476   0.0000   0.0000   0.0000   0.0000
     0.0000   0.0000   0.0000

          k = 0.0000 0.1443 0.0000 (  2643 PWs)   bands (ev):

   -87.5417 -50.7912 -50.7848 -50.7754 -45.9377 -17.8094 -17.7747 -17.7617
   -11.8823 -10.1600   1.5854   2.2480   2.5934   4.7535   5.2778   5.2939
     6.7186   6.7852   6.9211   8.1152   9.5598   9.9245  13.7100  15.8269
    18.4851  21.7776  22.8057

     occupation numbers 
     1.0000   1.0000   1.0000   1.0000   1.0000   1.0000   1.0000   1.0000
     1.0000   1.0000   1.0000   1.0000   1.0000   1.0000   1.0000   1.0000
     1.0000   1.0001   1.0013   0.0072   0.0000   0.0000   0.0000   0.0000
     0.0000   0.0000   0.0000

          k = 0.0000 0.1443 0.1395 (  2651 PWs)   bands (ev):

   -87.5417 -50.7913 -50.7848 -50.7755 -45.9378 -17.8095 -17.7747 -17.7620
   -11.8783 -10.1659   1.6887   2.2294   2.5935   4.7284   4.8384   5.2936
     6.7162   6.9210   7.4151   7.9748   9.6927   9.9249  12.9135  16.6538
    18.3218  21.6103  23.0911

     occupation numbers 
     1.0000   1.0000   1.0000   1.0000   1.0000   1.0000   1.0000   1.0000
     1.0000   1.0000   1.0000   1.0000   1.0000   1.0000   1.0000   1.0000
     1.0000   1.0013   1.0713   0.0496   0.0000   0.0000   0.0000   0.0000
     0.0000   0.0000   0.0000

          k = 0.0000 0.2887 0.0000 (  2620 PWs)   bands (ev):

   -87.5399 -50.8116 -50.7896 -50.7723 -45.9252 -17.9139 -17.7970 -17.7416
   -11.4472 -10.1484   1.7502   2.2231   2.8250   3.3547   4.6967   5.5761
     6.8482   7.2222   7.2809   8.3537   9.2193   9.7985  14.3449  17.2300
    18.1573  19.9248  21.5525

     occupation numbers 
     1.0000   1.0000   1.0000   1.0000   1.0000   1.0000   1.0000   1.0000
     1.0000   1.0000   1.0000   1.0000   1.0000   1.0000   1.0000   1.0000
     1.0004   1.0486   1.0685   0.0001   0.0000   0.0000   0.0000   0.0000
     0.0000   0.0000   0.0000

          k = 0.0000 0.2887 0.1395 (  2636 PWs)   bands (ev):

   -87.5399 -50.8116 -50.7897 -50.7724 -45.9253 -17.9140 -17.7973 -17.7418
   -11.4447 -10.1517   1.7128   2.2851   2.8251   3.3970   4.6964   5.4317
     6.7771   7.2221   7.5366   7.9613   9.6739   9.7982  13.8985  17.7951
    17.9848  19.4643  21.7111

     occupation numbers 
     1.0000   1.0000   1.0000   1.0000   1.0000   1.0000   1.0000   1.0000
     1.0000   1.0000   1.0000   1.0000   1.0000   1.0000   1.0000   1.0000
     1.0001   1.0486   0.9292   0.0581   0.0000   0.0000   0.0000   0.0000
     0.0000   0.0000   0.0000

          k = 0.0000 0.4330 0.0000 (  2652 PWs)   bands (ev):

   -87.5381 -50.8321 -50.7947 -50.7694 -45.9128 -18.0169 -17.8200 -17.7220
   -10.9467 -10.1615   1.2705   2.2422   3.0061   3.3313   4.4192   5.0516
     6.7741   7.1208   7.3331   8.9679   9.8305  10.1424  14.5715  15.7460
    18.2459  19.4776  20.2605

     occupation numbers 
     1.0000   1.0000   1.0000   1.0000   1.0000   1.0000   1.0000   1.0000
     1.0000   1.0000   1.0000   1.0000   1.0000   1.0000   1.0000   1.0000
     1.0001   1.0199   1.0813   0.0000   0.0000   0.0000   0.0000   0.0000
     0.0000   0.0000   0.0000

          k = 0.0000 0.4330 0.1395 (  2641 PWs)   bands (ev):

   -87.5381 -50.8321 -50.7946 -50.7694 -45.9128 -18.0167 -17.8198 -17.7220
   -10.9458 -10.1625   1.2635   2.2246   3.0063   3.3767   4.4190   5.0738
     6.7565   7.1208   7.3445   8.7149   9.8302  10.4313  14.5948  15.3630
    18.7723  19.3978  20.0273

     occupation numbers 
     1.0000   1.0000   1.0000   1.0000   1.0000   1.0000   1.0000   1.0000
     1.0000   1.0000   1.0000   1.0000   1.0000   1.0000   1.0000   1.0000
     1.0001   1.0199   1.0826   0.0000   0.0000   0.0000   0.0000   0.0000
     0.0000   0.0000   0.0000

          k = 0.0000-0.5774 0.0000 (  2642 PWs)   bands (ev):

   -87.5373 -50.8406 -50.7966 -50.7680 -45.9076 -18.0589 -17.8291 -17.7135
   -10.7004 -10.1904   0.8790   2.3489   3.0446   3.6150   4.3958   4.6721
     6.6331   6.9954   7.2791   9.3270   9.8787  11.5649  12.7737  16.6712
    16.9821  19.4312  20.0566

     occupation numbers 
     1.0000   1.0000   1.0000   1.0000   1.0000   1.0000   1.0000   1.0000
     1.0000   1.0000   1.0000   1.0000   1.0000   1.0000   1.0000   1.0000
     1.0000   1.0042   1.0679   0.0000   0.0000   0.0000   0.0000   0.0000
     0.0000   0.0000   0.0000

          k = 0.0000-0.5774 0.1395 (  2638 PWs)   bands (ev):

   -87.5373 -50.8405 -50.7966 -50.7680 -45.9076 -18.0587 -17.8290 -17.7137
   -10.7004 -10.1902   0.8787   2.3290   3.0448   3.6274   4.3957   4.7106
     6.6257   6.9954   7.2734   9.3115   9.8784  11.5656  12.6655  16.4797
    17.5933  19.1905  19.9312

     occupation numbers 
     1.0000   1.0000   1.0000   1.0000   1.0000   1.0000   1.0000   1.0000
     1.0000   1.0000   1.0000   1.0000   1.0000   1.0000   1.0000   1.0000
     1.0000   1.0042   1.0661   0.0000   0.0000   0.0000   0.0000   0.0000
     0.0000   0.0000   0.0000

          k = 0.1250 0.2165 0.0000 (  2659 PWs)   bands (ev):

   -87.5405 -50.8048 -50.7892 -50.7734 -45.9290 -17.8790 -17.7957 -17.7479
   -11.5808 -10.1495   1.8069   2.1531   2.7125   3.8180   4.5989   5.6176
     6.8813   7.1423   7.2382   8.3206   9.1600   9.7653  14.1754  16.8595
    19.0761  19.8915  21.7742

     occupation numbers 
     1.0000   1.0000   1.0000   1.0000   1.0000   1.0000   1.0000   1.0000
     1.0000   1.0000   1.0000   1.0000   1.0000   1.0000   1.0000   1.0000
     1.0007   1.0248   1.0541   0.0002   0.0000   0.0000   0.0000   0.0000
     0.0000   0.0000   0.0000

          k = 0.1250 0.2165 0.1395 (  2634 PWs)   bands (ev):

   -87.5404 -50.8047 -50.7892 -50.7732 -45.9289 -17.8786 -17.7956 -17.7476
   -11.5779 -10.1533   1.7969   2.2035   2.7145   3.8537   4.5981   5.3563
     6.8844   7.1115   7.4991   8.1810   9.4377   9.7161  13.7294  17.4242
    18.9531  19.4935  22.0289

     occupation numbers 
     1.0000   1.0000   1.0000   1.0000   1.0000   1.0000   1.0000   1.0000
     1.0000   1.0000   1.0000   1.0000   1.0000   1.0000   1.0000   1.0000
     1.0007   1.0180   0.9922   0.0024   0.0000   0.0000   0.0000   0.0000
     0.0000   0.0000   0.0000

          k = 0.1250 0.3608 0.0000 (  2630 PWs)   bands (ev):

   -87.5386 -50.8230 -50.7961 -50.7702 -45.9164 -17.9711 -17.8289 -17.7277
   -11.1117 -10.1447   1.6756   2.2005   2.9168   3.2099   4.1208   5.3858
     6.9110   7.2337   7.4181   8.7628   9.3232   9.9406  14.8242  16.6530
    18.2178  20.0387  20.3794

     occupation numbers 
     1.0000   1.0000   1.0000   1.0000   1.0000   1.0000   1.0000   1.0000
     1.0000   1.0000   1.0000   1.0000   1.0000   1.0000   1.0000   1.0000
     1.0011   1.0526   1.0698   0.0000   0.0000   0.0000   0.0000   0.0000
     0.0000   0.0000   0.0000

          k = 0.1250 0.3608 0.1395 (  2633 PWs)   bands (ev):

   -87.5386 -50.8230 -50.7961 -50.7702 -45.9164 -17.9711 -17.8290 -17.7277
   -11.1104 -10.1462   1.6502   2.1999   2.9340   3.2593   4.1208   5.3661
     6.9047   7.2277   7.4080   8.5193   9.5221  10.0394  14.7399  16.4598
    18.3847  19.8375  20.5024

     occupation numbers 
     1.0000   1.0000   1.0000   1.0000   1.0000   1.0000   1.0000   1.0000
     1.0000   1.0000   1.0000   1.0000   1.0000   1.0000   1.0000   1.0000
     1.0010   1.0505   1.0743   0.0000   0.0000   0.0000   0.0000   0.0000
     0.0000   0.0000   0.0000

          k = 0.1250 0.5052 0.0000 (  2636 PWs)   bands (ev):

   -87.5373 -50.8359 -50.8012 -50.7680 -45.9076 -18.0350 -17.8533 -17.7136
   -10.7332 -10.1587   1.1608   2.1946   3.0449   3.6125   3.9622   4.7740
     6.7508   7.0727   7.3945   9.2393   9.5779  11.2296  13.6960  16.3124
    17.9448  18.9864  20.1165

     occupation numbers 
     1.0000   1.0000   1.0000   1.0000   1.0000   1.0000   1.0000   1.0000
     1.0000   1.0000   1.0000   1.0000   1.0000   1.0000   1.0000   1.0000
     1.0001   1.0116   1.0788   0.0000   0.0000   0.0000   0.0000   0.0000
     0.0000   0.0000   0.0000

          k = 0.1250 0.5052 0.1395 (  2647 PWs)   bands (ev):

   -87.5373 -50.8360 -50.8012 -50.7681 -45.9076 -18.0351 -17.8533 -17.7138
   -10.7329 -10.1589   1.1604   2.1798   3.0442   3.6291   3.9617   4.8009
     6.7445   7.0747   7.3833   9.1901   9.6154  11.2246  13.6161  16.1963
    18.3396  18.8974  20.0780

     occupation numbers 
     1.0000   1.0000   1.0000   1.0000   1.0000   1.0000   1.0000   1.0000
     1.0000   1.0000   1.0000   1.0000   1.0000   1.0000   1.0000   1.0000
     1.0000   1.0119   1.0813   0.0000   0.0000   0.0000   0.0000   0.0000
     0.0000   0.0000   0.0000

          k = 0.2500 0.4330 0.0000 (  2639 PWs)   bands (ev):

   -87.5373 -50.8295 -50.8075 -50.7681 -45.9076 -18.0020 -17.8866 -17.7138
   -10.7627 -10.1303   1.6434   1.9894   2.8140   3.4605   3.8163   4.8752
     6.8370   7.1257   7.5325   9.0870   9.3413  11.0581  14.6678  16.2649
    17.6318  19.6353  20.2139

     occupation numbers 
     1.0000   1.0000   1.0000   1.0000   1.0000   1.0000   1.0000   1.0000
     1.0000   1.0000   1.0000   1.0000   1.0000   1.0000   1.0000   1.0000
     1.0003   1.0210   0.9370   0.0000   0.0000   0.0000   0.0000   0.0000
     0.0000   0.0000   0.0000

          k = 0.2500 0.4330 0.1395 (  2630 PWs)   bands (ev):

   -87.5373 -50.8294 -50.8075 -50.7681 -45.9076 -18.0018 -17.8865 -17.7138
   -10.7625 -10.1305   1.6388   1.9784   2.8175   3.4853   3.8197   4.8747
     6.8396   7.1292   7.4990   9.1821   9.3145  10.9337  14.6988  16.2874
    17.4993  19.7595  20.1649

     occupation numbers 
     1.0000   1.0000   1.0000   1.0000   1.0000   1.0000   1.0000   1.0000
     1.0000   1.0000   1.0000   1.0000   1.0000   1.0000   1.0000   1.0000
     1.0003   1.0217   0.9924   0.0000   0.0000   0.0000   0.0000   0.0000
     0.0000   0.0000   0.0000

          k = 0.2500 0.5774 0.0000 (  2630 PWs)   bands (ev):

   -87.5368 -50.8300 -50.8144 -50.7671 -45.9039 -18.0031 -17.9219 -17.7079
   -10.6207 -10.1131   1.5339   2.0620   2.5831   3.6138   4.0079   4.4370
     6.6334   7.2811   7.4865   9.2270   9.3089  12.4619  13.3668  16.4911
    17.8045  18.2423  19.9242

     occupation numbers 
     1.0000   1.0000   1.0000   1.0000   1.0000   1.0000   1.0000   1.0000
     1.0000   1.0000   1.0000   1.0000   1.0000   1.0000   1.0000   1.0000
     1.0000   1.0685   1.0095   0.0000   0.0000   0.0000   0.0000   0.0000
     0.0000   0.0000   0.0000

          k = 0.2500 0.5774 0.1395 (  2649 PWs)   bands (ev):

   -87.5368 -50.8300 -50.8145 -50.7673 -45.9040 -18.0032 -17.9221 -17.7083
   -10.6207 -10.1130   1.5331   2.0579   2.5863   3.6176   4.0052   4.4412
     6.6343   7.2814   7.4749   9.2699   9.3407  12.3296  13.2705  16.4567
    17.8657  18.5048  19.8752

     occupation numbers 
     1.0000   1.0000   1.0000   1.0000   1.0000   1.0000   1.0000   1.0000
     1.0000   1.0000   1.0000   1.0000   1.0000   1.0000   1.0000   1.0000
     1.0000   1.0686   1.0236   0.0000   0.0000   0.0000   0.0000   0.0000
     0.0000   0.0000   0.0000

          k = 0.0000-0.1443 0.1395 (  2651 PWs)   bands (ev):

   -87.5417 -50.7912 -50.7848 -50.7755 -45.9378 -17.8095 -17.7747 -17.7620
   -11.8783 -10.1659   1.6925   2.2256   2.5935   4.6352   4.9387   5.2935
     6.7081   6.9209   7.3816   8.0647   9.5989   9.9254  12.9767  16.6119
    18.3344  21.7247  22.9070

     occupation numbers 
     1.0000   1.0000   1.0000   1.0000   1.0000   1.0000   1.0000   1.0000
     1.0000   1.0000   1.0000   1.0000   1.0000   1.0000   1.0000   1.0000
     1.0000   1.0013   1.0816   0.0153   0.0000   0.0000   0.0000   0.0000
     0.0000   0.0000   0.0000

          k = 0.0000-0.2887 0.1395 (  2636 PWs)   bands (ev):

   -87.5399 -50.8116 -50.7897 -50.7724 -45.9253 -17.9140 -17.7973 -17.7418
   -11.4449 -10.1513   1.7259   2.2607   2.8251   3.4107   4.6964   5.3996
     6.7999   7.2220   7.4001   8.4209   9.2451   9.7988  14.1348  17.3556
    18.4739  19.3895  21.8593

     occupation numbers 
     1.0000   1.0000   1.0000   1.0000   1.0000   1.0000   1.0000   1.0000
     1.0000   1.0000   1.0000   1.0000   1.0000   1.0000   1.0000   1.0000
     1.0001   1.0485   1.0771   0.0000   0.0000   0.0000   0.0000   0.0000
     0.0000   0.0000   0.0000

          k = 0.0000-0.4330 0.1395 (  2641 PWs)   bands (ev):

   -87.5381 -50.8321 -50.7946 -50.7694 -45.9128 -18.0167 -17.8198 -17.7220
   -10.9463 -10.1618   1.2589   2.2236   3.0063   3.3971   4.4190   5.0350
     6.7695   7.1208   7.3084   9.0299   9.8305  10.0301  14.6736  15.7511
    18.3118  19.3765  20.1840

     occupation numbers 
     1.0000   1.0000   1.0000   1.0000   1.0000   1.0000   1.0000   1.0000
     1.0000   1.0000   1.0000   1.0000   1.0000   1.0000   1.0000   1.0000
     1.0001   1.0199   1.0763   0.0000   0.0000   0.0000   0.0000   0.0000
     0.0000   0.0000   0.0000

          k =-0.1250-0.3608 0.1395 (  2633 PWs)   bands (ev):

   -87.5386 -50.8230 -50.7961 -50.7702 -45.9164 -17.9711 -17.8290 -17.7277
   -11.1106 -10.1459   1.6503   2.1947   2.9269   3.2796   4.1188   5.3411
     6.9239   7.2516   7.3337   8.8225   9.3290   9.9112  14.8955  16.4920
    18.3398  19.9295  20.7479

     occupation numbers 
     1.0000   1.0000   1.0000   1.0000   1.0000   1.0000   1.0000   1.0000
     1.0000   1.0000   1.0000   1.0000   1.0000   1.0000   1.0000   1.0000
     1.0014   1.0588   1.0813   0.0000   0.0000   0.0000   0.0000   0.0000
     0.0000   0.0000   0.0000

          k =-0.1250-0.5052 0.1395 (  2647 PWs)   bands (ev):

   -87.5373 -50.8360 -50.8012 -50.7681 -45.9076 -18.0351 -17.8533 -17.7138
   -10.7333 -10.1585   1.1573   2.1819   3.0461   3.6352   3.9646   4.7833
     6.7503   7.0741   7.3738   9.2972   9.5858  11.0794  13.6672  16.5217
    17.9459  18.9640  20.1647

     occupation numbers 
     1.0000   1.0000   1.0000   1.0000   1.0000   1.0000   1.0000   1.0000
     1.0000   1.0000   1.0000   1.0000   1.0000   1.0000   1.0000   1.0000
     1.0001   1.0118   1.0826   0.0000   0.0000   0.0000   0.0000   0.0000
     0.0000   0.0000   0.0000

 ------ SPIN DOWN ----------


          k = 0.0000 0.0000 0.0000 (  2625 PWs)   bands (ev):

   -87.3494 -50.6082 -50.6082 -50.5605 -45.9475 -17.7744 -17.7701 -17.7701
   -12.0332 -10.1499   1.4239   2.5446   2.5446   4.9018   5.8301   5.8301
     6.4568   6.6647   6.6647   8.0729  10.1042  10.1042  13.3776  15.2192
    17.8596  22.8669  24.7547

     occupation numbers 
     1.0000   1.0000   1.0000   1.0000   1.0000   1.0000   1.0000   1.0000
     1.0000   1.0000   1.0000   1.0000   1.0000   1.0000   1.0000   1.0000
     1.0000   1.0000   1.0000   0.0136   0.0000   0.0000   0.0000   0.0000
     0.0000   0.0000   0.0000

          k = 0.0000 0.0000 0.1395 (  2666 PWs)   bands (ev):

   -87.3494 -50.6084 -50.6084 -50.5607 -45.9477 -17.7750 -17.7706 -17.7706
   -12.0286 -10.1572   1.5662   2.5447   2.5447   4.2562   5.8293   5.8293
     6.6647   6.6647   7.3208   7.9745  10.1049  10.1049  12.4371  16.1003
    17.8661  22.8342  24.5997

     occupation numbers 
     1.0000   1.0000   1.0000   1.0000   1.0000   1.0000   1.0000   1.0000
     1.0000   1.0000   1.0000   1.0000   1.0000   1.0000   1.0000   1.0000
     1.0000   1.0000   1.0791   0.0497   0.0000   0.0000   0.0000   0.0000
     0.0000   0.0000   0.0000

          k = 0.0000 0.1443 0.0000 (  2643 PWs)   bands (ev):

   -87.3486 -50.6168 -50.6103 -50.5593 -45.9424 -17.8147 -17.7797 -17.7662
   -11.8659 -10.1415   1.6261   2.2946   2.6416   4.7885   5.3062   5.3409
     6.7602   6.9193   7.0716   8.2193   9.6397  10.0031  13.6990  15.8394
    18.4973  21.7013  22.7982

     occupation numbers 
     1.0000   1.0000   1.0000   1.0000   1.0000   1.0000   1.0000   1.0000
     1.0000   1.0000   1.0000   1.0000   1.0000   1.0000   1.0000   1.0000
     1.0001   1.0013   1.0114   0.0012   0.0000   0.0000   0.0000   0.0000
     0.0000   0.0000   0.0000

          k = 0.0000 0.1443 0.1395 (  2651 PWs)   bands (ev):

   -87.3486 -50.6169 -50.6104 -50.5594 -45.9424 -17.8147 -17.7798 -17.7665
   -11.8619 -10.1475   1.7333   2.2759   2.6417   4.7472   4.8610   5.3405
     6.8708   7.0715   7.4953   8.0422   9.7687  10.0035  12.9051  16.6649
    18.3351  21.5336  23.0741

     occupation numbers 
     1.0000   1.0000   1.0000   1.0000   1.0000   1.0000   1.0000   1.0000
     1.0000   1.0000   1.0000   1.0000   1.0000   1.0000   1.0000   1.0000
     1.0006   1.0114   0.9976   0.0209   0.0000   0.0000   0.0000   0.0000
     0.0000   0.0000   0.0000

          k = 0.0000 0.2887 0.0000 (  2620 PWs)   bands (ev):

   -87.3467 -50.6374 -50.6152 -50.5562 -45.9299 -17.9197 -17.8022 -17.7460
   -11.4308 -10.1294   1.7871   2.2645   2.8695   3.3916   4.7426   5.6064
     7.0138   7.3835   7.4097   8.3700   9.2731   9.8750  14.3308  17.2382
    18.0788  19.9348  21.5564

     occupation numbers 
     1.0000   1.0000   1.0000   1.0000   1.0000   1.0000   1.0000   1.0000
     1.0000   1.0000   1.0000   1.0000   1.0000   1.0000   1.0000   1.0000
     1.0054   1.0813   1.0736   0.0001   0.0000   0.0000   0.0000   0.0000
     0.0000   0.0000   0.0000

          k = 0.0000 0.2887 0.1395 (  2636 PWs)   bands (ev):

   -87.3468 -50.6374 -50.6153 -50.5562 -45.9299 -17.9198 -17.8024 -17.7462
   -11.4284 -10.1326   1.7485   2.3283   2.8696   3.4380   4.7424   5.4508
     6.9336   7.3835   7.7255   7.9536   9.7094   9.8747  13.8850  17.7797
    17.9356  19.4647  21.7210

     occupation numbers 
     1.0000   1.0000   1.0000   1.0000   1.0000   1.0000   1.0000   1.0000
     1.0000   1.0000   1.0000   1.0000   1.0000   1.0000   1.0000   1.0000
     1.0016   1.0813   0.4488   0.0635   0.0000   0.0000   0.0000   0.0000
     0.0000   0.0000   0.0000

          k = 0.0000 0.4330 0.0000 (  2652 PWs)   bands (ev):

   -87.3450 -50.6581 -50.6204 -50.5532 -45.9174 -18.0232 -17.8252 -17.7263
   -10.9307 -10.1416   1.3044   2.2658   3.0511   3.3793   4.4475   5.0849
     6.9532   7.3014   7.5262   9.0284   9.9093  10.0834  14.4996  15.7161
    18.2545  19.4667  20.2777

     occupation numbers 
     1.0000   1.0000   1.0000   1.0000   1.0000   1.0000   1.0000   1.0000
     1.0000   1.0000   1.0000   1.0000   1.0000   1.0000   1.0000   1.0000
     1.0022   1.0745   0.9484   0.0000   0.0000   0.0000   0.0000   0.0000
     0.0000   0.0000   0.0000

          k = 0.0000 0.4330 0.1395 (  2641 PWs)   bands (ev):

   -87.3449 -50.6581 -50.6202 -50.5532 -45.9174 -18.0231 -17.8250 -17.7264
   -10.9298 -10.1426   1.2971   2.2477   3.0513   3.4268   4.4474   5.1075
     6.9331   7.3014   7.5382   8.7525   9.9089  10.3962  14.5228  15.3362
    18.7778  19.3927  20.0361

     occupation numbers 
     1.0000   1.0000   1.0000   1.0000   1.0000   1.0000   1.0000   1.0000
     1.0000   1.0000   1.0000   1.0000   1.0000   1.0000   1.0000   1.0000
     1.0016   1.0745   0.9263   0.0000   0.0000   0.0000   0.0000   0.0000
     0.0000   0.0000   0.0000

          k = 0.0000-0.5774 0.0000 (  2642 PWs)   bands (ev):

   -87.3442 -50.6667 -50.6223 -50.5518 -45.9122 -18.0655 -17.8344 -17.7178
   -10.6849 -10.1698   0.9111   2.3660   3.0922   3.6681   4.4105   4.7005
     6.8284   7.1868   7.4673   9.4221   9.9595  11.4568  12.6969  16.6561
    16.9792  19.4309  20.0707

     occupation numbers 
     1.0000   1.0000   1.0000   1.0000   1.0000   1.0000   1.0000   1.0000
     1.0000   1.0000   1.0000   1.0000   1.0000   1.0000   1.0000   1.0000
     1.0003   1.0371   1.0321   0.0000   0.0000   0.0000   0.0000   0.0000
     0.0000   0.0000   0.0000

          k = 0.0000-0.5774 0.1395 (  2638 PWs)   bands (ev):

   -87.3442 -50.6666 -50.6223 -50.5519 -45.9122 -18.0653 -17.8343 -17.7180
   -10.6850 -10.1696   0.9107   2.3457   3.0924   3.6806   4.4104   4.7407
     6.8200   7.1869   7.4618   9.4018   9.9592  11.4643  12.5887  16.4631
    17.5875  19.1861  19.9530

     occupation numbers 
     1.0000   1.0000   1.0000   1.0000   1.0000   1.0000   1.0000   1.0000
     1.0000   1.0000   1.0000   1.0000   1.0000   1.0000   1.0000   1.0000
     1.0002   1.0371   1.0376   0.0000   0.0000   0.0000   0.0000   0.0000
     0.0000   0.0000   0.0000

          k = 0.1250 0.2165 0.0000 (  2659 PWs)   bands (ev):

   -87.3473 -50.6306 -50.6148 -50.5573 -45.9336 -17.8846 -17.8009 -17.7523
   -11.5644 -10.1306   1.8438   2.1988   2.7573   3.8510   4.6508   5.6454
     7.0587   7.2415   7.3748   8.3502   9.2425   9.8370  14.1630  16.8708
    19.0258  19.8625  21.7541

     occupation numbers 
     1.0000   1.0000   1.0000   1.0000   1.0000   1.0000   1.0000   1.0000
     1.0000   1.0000   1.0000   1.0000   1.0000   1.0000   1.0000   1.0000
     1.0098   1.0553   1.0825   0.0001   0.0000   0.0000   0.0000   0.0000
     0.0000   0.0000   0.0000

          k = 0.1250 0.2165 0.1395 (  2634 PWs)   bands (ev):

   -87.3473 -50.6304 -50.6148 -50.5571 -45.9336 -17.8842 -17.8008 -17.7521
   -11.5616 -10.1344   1.8328   2.2519   2.7595   3.8899   4.6497   5.3690
     7.0628   7.2295   7.6662   8.1895   9.5033   9.7864  13.7186  17.4303
    18.9383  19.4328  22.0120

     occupation numbers 
     1.0000   1.0000   1.0000   1.0000   1.0000   1.0000   1.0000   1.0000
     1.0000   1.0000   1.0000   1.0000   1.0000   1.0000   1.0000   1.0000
     1.0103   1.0511   0.6104   0.0021   0.0000   0.0000   0.0000   0.0000
     0.0000   0.0000   0.0000

          k = 0.1250 0.3608 0.0000 (  2630 PWs)   bands (ev):

   -87.3455 -50.6489 -50.6218 -50.5540 -45.9210 -17.9772 -17.8342 -17.7321
   -11.0956 -10.1252   1.7108   2.2309   2.9596   3.2513   4.1631   5.4172
     7.0946   7.4267   7.5797   8.7691   9.3844   9.9548  14.7975  16.5722
    18.2227  20.0345  20.3725

     occupation numbers 
     1.0000   1.0000   1.0000   1.0000   1.0000   1.0000   1.0000   1.0000
     1.0000   1.0000   1.0000   1.0000   1.0000   1.0000   1.0000   1.0000
     1.0150   1.0652   0.8371   0.0000   0.0000   0.0000   0.0000   0.0000
     0.0000   0.0000   0.0000

          k = 0.1250 0.3608 0.1395 (  2633 PWs)   bands (ev):

   -87.3455 -50.6490 -50.6218 -50.5540 -45.9210 -17.9773 -17.8343 -17.7321
   -11.0943 -10.1267   1.6845   2.2301   2.9762   3.3050   4.1631   5.3950
     7.0846   7.4049   7.5836   8.5328   9.6018  10.0338  14.7185  16.3768
    18.3803  19.8443  20.4994

     occupation numbers 
     1.0000   1.0000   1.0000   1.0000   1.0000   1.0000   1.0000   1.0000
     1.0000   1.0000   1.0000   1.0000   1.0000   1.0000   1.0000   1.0000
     1.0133   1.0755   0.8279   0.0000   0.0000   0.0000   0.0000   0.0000
     0.0000   0.0000   0.0000

          k = 0.1250 0.5052 0.0000 (  2636 PWs)   bands (ev):

   -87.3442 -50.6620 -50.6269 -50.5518 -45.9122 -18.0414 -17.8587 -17.7179
   -10.7175 -10.1383   1.1926   2.2203   3.0826   3.6587   3.9917   4.8060
     6.9586   7.2599   7.5656   9.3237   9.6562  11.1428  13.6073  16.2973
    17.9360  18.9677  20.1193

     occupation numbers 
     1.0000   1.0000   1.0000   1.0000   1.0000   1.0000   1.0000   1.0000
     1.0000   1.0000   1.0000   1.0000   1.0000   1.0000   1.0000   1.0000
     1.0024   1.0616   0.8694   0.0000   0.0000   0.0000   0.0000   0.0000
     0.0000   0.0000   0.0000

          k = 0.1250 0.5052 0.1395 (  2647 PWs)   bands (ev):

   -87.3442 -50.6621 -50.6269 -50.5519 -45.9122 -18.0416 -17.8587 -17.7182
   -10.7173 -10.1385   1.1922   2.2050   3.0819   3.6755   3.9912   4.8342
     6.9511   7.2624   7.5538   9.2683   9.6982  11.1400  13.5287  16.1816
    18.3200  18.8854  20.0945

     occupation numbers 
     1.0000   1.0000   1.0000   1.0000   1.0000   1.0000   1.0000   1.0000
     1.0000   1.0000   1.0000   1.0000   1.0000   1.0000   1.0000   1.0000
     1.0022   1.0624   0.8947   0.0000   0.0000   0.0000   0.0000   0.0000
     0.0000   0.0000   0.0000

          k = 0.2500 0.4330 0.0000 (  2639 PWs)   bands (ev):

   -87.3442 -50.6555 -50.6333 -50.5519 -45.9122 -18.0083 -17.8922 -17.7181
   -10.7469 -10.1100   1.6742   2.0219   2.8404   3.5037   3.8577   4.9094
     7.0558   7.3093   7.6920   9.1539   9.4278  10.9815  14.5704  16.2414
    17.6039  19.6323  20.2355

     occupation numbers 
     1.0000   1.0000   1.0000   1.0000   1.0000   1.0000   1.0000   1.0000
     1.0000   1.0000   1.0000   1.0000   1.0000   1.0000   1.0000   1.0000
     1.0094   1.0765   0.5391   0.0000   0.0000   0.0000   0.0000   0.0000
     0.0000   0.0000   0.0000

          k = 0.2500 0.4330 0.1395 (  2630 PWs)   bands (ev):

   -87.3442 -50.6555 -50.6333 -50.5519 -45.9122 -18.0081 -17.8921 -17.7182
   -10.7467 -10.1102   1.6695   2.0102   2.8438   3.5293   3.8618   4.9087
     7.0583   7.3132   7.6550   9.2577   9.3996  10.8525  14.5979  16.2683
    17.4709  19.7584  20.1610

     occupation numbers 
     1.0000   1.0000   1.0000   1.0000   1.0000   1.0000   1.0000   1.0000
     1.0000   1.0000   1.0000   1.0000   1.0000   1.0000   1.0000   1.0000
     1.0097   1.0774   0.6413   0.0000   0.0000   0.0000   0.0000   0.0000
     0.0000   0.0000   0.0000

          k = 0.2500 0.5774 0.0000 (  2630 PWs)   bands (ev):

   -87.3436 -50.6560 -50.6403 -50.5509 -45.9085 -18.0093 -17.9277 -17.7122
   -10.6052 -10.0924   1.5647   2.0931   2.6084   3.6492   4.0493   4.4711
     6.8648   7.4559   7.6547   9.3108   9.3931  12.3602  13.2700  16.4653
    17.7761  18.2414  19.9118

     occupation numbers 
     1.0000   1.0000   1.0000   1.0000   1.0000   1.0000   1.0000   1.0000
     1.0000   1.0000   1.0000   1.0000   1.0000   1.0000   1.0000   1.0000
     1.0005   1.0433   0.6423   0.0000   0.0000   0.0000   0.0000   0.0000
     0.0000   0.0000   0.0000

          k = 0.2500 0.5774 0.1395 (  2649 PWs)   bands (ev):

   -87.3437 -50.6560 -50.6404 -50.5510 -45.9086 -18.0094 -17.9278 -17.7126
   -10.6052 -10.0924   1.5639   2.0888   2.6114   3.6532   4.0461   4.4764
     6.8658   7.4564   7.6424   9.3574   9.4267  12.2241  13.1724  16.4289
    17.8400  18.5042  19.8730

     occupation numbers 
     1.0000   1.0000   1.0000   1.0000   1.0000   1.0000   1.0000   1.0000
     1.0000   1.0000   1.0000   1.0000   1.0000   1.0000   1.0000   1.0000
     1.0005   1.0428   0.6759   0.0000   0.0000   0.0000   0.0000   0.0000
     0.0000   0.0000   0.0000

          k = 0.0000-0.1443 0.1395 (  2651 PWs)   bands (ev):

   -87.3486 -50.6169 -50.6104 -50.5594 -45.9424 -17.8147 -17.7798 -17.7665
   -11.8619 -10.1474   1.7372   2.2722   2.6417   4.6508   4.9651   5.3405
     6.8573   7.0713   7.4751   8.1199   9.6778  10.0040  12.9693  16.6217
    18.3488  21.6435  22.8980

     occupation numbers 
     1.0000   1.0000   1.0000   1.0000   1.0000   1.0000   1.0000   1.0000
     1.0000   1.0000   1.0000   1.0000   1.0000   1.0000   1.0000   1.0000
     1.0004   1.0114   1.0235   0.0067   0.0000   0.0000   0.0000   0.0000
     0.0000   0.0000   0.0000

          k = 0.0000-0.2887 0.1395 (  2636 PWs)   bands (ev):

   -87.3468 -50.6374 -50.6153 -50.5562 -45.9299 -17.9198 -17.8024 -17.7462
   -11.4286 -10.1323   1.7612   2.3042   2.8696   3.4519   4.7424   5.4175
     6.9544   7.3833   7.5623   8.4303   9.2921   9.8753  14.1227  17.3331
    18.4148  19.4083  21.8602

     occupation numbers 
     1.0000   1.0000   1.0000   1.0000   1.0000   1.0000   1.0000   1.0000
     1.0000   1.0000   1.0000   1.0000   1.0000   1.0000   1.0000   1.0000
     1.0023   1.0813   0.8766   0.0000   0.0000   0.0000   0.0000   0.0000
     0.0000   0.0000   0.0000

          k = 0.0000-0.4330 0.1395 (  2641 PWs)   bands (ev):

   -87.3449 -50.6581 -50.6202 -50.5532 -45.9174 -18.0231 -17.8250 -17.7264
   -10.9303 -10.1419   1.2924   2.2467   3.0513   3.4489   4.4474   5.0663
     6.9452   7.3014   7.5003   9.0977   9.9093   9.9695  14.5945  15.7275
    18.3085  19.3709  20.2121

     occupation numbers 
     1.0000   1.0000   1.0000   1.0000   1.0000   1.0000   1.0000   1.0000
     1.0000   1.0000   1.0000   1.0000   1.0000   1.0000   1.0000   1.0000
     1.0020   1.0745   0.9905   0.0000   0.0000   0.0000   0.0000   0.0000
     0.0000   0.0000   0.0000

          k =-0.1250-0.3608 0.1395 (  2633 PWs)   bands (ev):

   -87.3455 -50.6490 -50.6218 -50.5540 -45.9210 -17.9773 -17.8343 -17.7321
   -11.0945 -10.1264   1.6844   2.2249   2.9692   3.3259   4.1612   5.3685
     7.1066   7.4292   7.5009   8.8437   9.3878   9.9251  14.8723  16.4120
    18.3261  19.9480  20.7458

     occupation numbers 
     1.0000   1.0000   1.0000   1.0000   1.0000   1.0000   1.0000   1.0000
     1.0000   1.0000   1.0000   1.0000   1.0000   1.0000   1.0000   1.0000
     1.0171   1.0637   0.9896   0.0000   0.0000   0.0000   0.0000   0.0000
     0.0000   0.0000   0.0000

          k =-0.1250-0.5052 0.1395 (  2647 PWs)   bands (ev):

   -87.3442 -50.6621 -50.6269 -50.5519 -45.9122 -18.0416 -17.8587 -17.7182
   -10.7177 -10.1381   1.1890   2.2070   3.0839   3.6823   3.9947   4.8154
     6.9573   7.2611   7.5441   9.3878   9.6643  10.9891  13.5774  16.5038
    17.9330  18.9470  20.1823

     occupation numbers 
     1.0000   1.0000   1.0000   1.0000   1.0000   1.0000   1.0000   1.0000
     1.0000   1.0000   1.0000   1.0000   1.0000   1.0000   1.0000   1.0000
     1.0024   1.0620   0.9147   0.0000   0.0000   0.0000   0.0000   0.0000
     0.0000   0.0000   0.0000

     the Fermi energy is     7.7442 ev

!    total energy              =    -569.27745499 Ry
     total all-electron energy =     -3412.768010 Ry
     estimated scf accuracy    <       0.00000005 Ry
     smearing contrib. (-TS)   =       0.00640669 Ry
     internal energy E=F+TS    =    -569.28386168 Ry

     The total energy is F=E-TS. E is the sum of the following terms:
     one-electron contribution =    -433.51695108 Ry
     hartree contribution      =     234.55916646 Ry
     xc contribution           =     -60.18603577 Ry
     ewald contribution        =    -188.20998527 Ry
     one-center paw contrib.   =    -121.93005602 Ry
      -> PAW hartree energy AE =     344.55442521 Ry
      -> PAW hartree energy PS =    -344.53672031 Ry
      -> PAW xc energy AE      =    -179.09993327 Ry
      -> PAW xc energy PS      =      57.15217235 Ry
      -> total E_H with PAW    =     234.57687136 Ry
      -> total E_XC with PAW   =    -182.13379669 Ry

     total magnetization       =     0.17 Bohr mag/cell
     absolute magnetization    =     0.22 Bohr mag/cell

     convergence has been achieved in  21 iterations

     Forces acting on atoms (cartesian axes, Ry/au):

     atom    1 type  1   force =     0.00000000    0.00000000    0.04188987
     atom    2 type  2   force =    -0.00000000   -0.00000000   -0.00425226
     atom    3 type  2   force =     0.00000000    0.00000000   -0.04715893
     atom    4 type  3   force =     0.00000000    0.00000000    0.00952132
     The non-local contrib.  to forces
     atom    1 type  1   force =    -0.00000000   -0.00000000   -0.00944040
     atom    2 type  2   force =     0.00000000    0.00000000   -0.91749527
     atom    3 type  2   force =    -0.00000000   -0.00000000    0.47210122
     atom    4 type  3   force =     0.00000000    0.00000000   -0.21935545
     The ionic contribution  to forces
     atom    1 type  1   force =    -0.00000000   -0.00000000   11.05243542
     atom    2 type  2   force =     0.00000000   -0.00000000   29.50189661
     atom    3 type  2   force =    -0.00000000    0.00000000  -22.34621197
     atom    4 type  3   force =     0.00000000   -0.00000000  -18.20812006
     The local contribution  to forces
     atom    1 type  1   force =    -0.00000000   -0.00000000  -11.00106737
     atom    2 type  2   force =     0.00000001   -0.00000001  -28.59662533
     atom    3 type  2   force =    -0.00000001    0.00000001   21.83061106
     atom    4 type  3   force =     0.00000000   -0.00000000   18.43711746
     The core correction contribution to forces
     atom    1 type  1   force =     0.00000000   -0.00000000   -0.00036710
     atom    2 type  2   force =    -0.00000000    0.00000000    0.00780006
     atom    3 type  2   force =     0.00000000   -0.00000000   -0.00362289
     atom    4 type  3   force =     0.00000000   -0.00000000    0.00008558
     The Hubbard contrib.    to forces
     atom    1 type  1   force =     0.00000000    0.00000000    0.00000000
     atom    2 type  2   force =     0.00000000    0.00000000    0.00000000
     atom    3 type  2   force =     0.00000000    0.00000000    0.00000000
     atom    4 type  3   force =     0.00000000    0.00000000    0.00000000
     The SCF correction term to forces
     atom    1 type  1   force =     0.00000000   -0.00000000    0.00034132
     atom    2 type  2   force =    -0.00000000    0.00000000    0.00018368
     atom    3 type  2   force =     0.00000000   -0.00000000   -0.00002435
     atom    4 type  3   force =    -0.00000000    0.00000000   -0.00019420

     Total force =     0.063933     Total SCF correction =     0.000434

     Writing all to output data dir ./out/pw.save/ :
     XML data file, charge density, pseudopotentials, collected wavefunctions
 
     init_run     :     12.60s CPU      3.32s WALL (       1 calls)
     electrons    :    105.64s CPU     28.37s WALL (       1 calls)
     forces       :      0.56s CPU      0.54s WALL (       1 calls)

     Called by init_run:
     wfcinit      :      0.26s CPU      0.31s WALL (       1 calls)
     wfcinit:atom :      0.04s CPU      0.04s WALL (      50 calls)
     wfcinit:wfcr :      0.16s CPU      0.20s WALL (      50 calls)
     potinit      :     11.81s CPU      2.45s WALL (       1 calls)
     hinit0       :      0.44s CPU      0.44s WALL (       1 calls)

     Called by electrons:
     c_bands      :     13.55s CPU     13.78s WALL (      21 calls)
     sum_band     :      2.24s CPU      2.24s WALL (      21 calls)
     v_of_rho     :      0.33s CPU      0.36s WALL (      22 calls)
     v_h          :      0.23s CPU      0.03s WALL (      22 calls)
     v_xc         :      0.10s CPU      0.34s WALL (      23 calls)
     newd         :      0.52s CPU      0.38s WALL (      22 calls)
                                        0.38s GPU  (      22 calls)
     PAW_pot      :     92.07s CPU     11.75s WALL (      22 calls)
     mix_rho      :      0.56s CPU      0.57s WALL (      21 calls)

     Called by c_bands:
     init_us_2    :      0.85s CPU      0.85s WALL (    2200 calls)
     cegterg      :     11.98s CPU     12.22s WALL (    1050 calls)

     Called by sum_band:
     sum_band:wei :      0.03s CPU      0.03s WALL (      21 calls)
                                        0.03s GPU  (      21 calls)
     sum_band:loo :      1.39s CPU      1.39s WALL (      21 calls)
                                        1.39s GPU  (      21 calls)
     sum_band:buf :      0.15s CPU      0.18s WALL (    1050 calls)
                                        0.16s GPU  (    1050 calls)
     sum_band:ini :      0.40s CPU      0.42s WALL (    1050 calls)
                                        0.41s GPU  (    1050 calls)
     sum_band:cal :      0.04s CPU      0.06s WALL (    1050 calls)
                                        0.05s GPU  (    1050 calls)
     sum_band:bec :      0.22s CPU      0.24s WALL (    1050 calls)
                                        0.23s GPU  (    1050 calls)
     addusdens    :      0.68s CPU      0.69s WALL (      21 calls)
                                        0.69s GPU  (      21 calls)
     addusd:skk   :      0.00s CPU      0.00s WALL (      63 calls)
                                        0.00s GPU  (      63 calls)

     Called by *egterg:
     cdiaghg      :      4.24s CPU      4.38s WALL (    4910 calls)
                                        4.33s GPU  (    4910 calls)
     cegterg:over :      0.87s CPU      0.91s WALL (    3860 calls)
     cegterg:upda :      0.69s CPU      0.71s WALL (    3860 calls)
     cegterg:last :      0.13s CPU      0.13s WALL (    2073 calls)
     h_psi        :      4.17s CPU      4.35s WALL (    4960 calls)
                                        4.28s GPU  (    4960 calls)
     s_psi        :      0.74s CPU      0.79s WALL (    4960 calls)
     g_psi        :      0.02s CPU      0.09s WALL (    3860 calls)
                                        0.04s GPU  (    3860 calls)

     Called by h_psi:
     h_psi:calbec :      0.15s CPU      0.27s WALL (    4960 calls)
                                        0.21s GPU  (    4960 calls)
     vloc_psi     :      2.84s CPU      2.93s WALL (    4960 calls)
                                        2.87s GPU  (    4960 calls)
     add_vuspsi   :      0.67s CPU      0.80s WALL (    4960 calls)
                                        0.74s GPU  (    4960 calls)

     General routines
     calbec       :      0.16s CPU      0.19s WALL (    6210 calls)
     fft          :      3.46s CPU      0.88s WALL (     563 calls)
                                        0.02s GPU  (     519 calls)
     ffts         :      4.46s CPU      0.80s WALL (     768 calls)
                                        0.02s GPU  (     724 calls)
     fftw         :      0.26s CPU      0.97s WALL (   16322 calls)
                                        0.78s GPU  (   16322 calls)
     interpolate  :      8.06s CPU      1.66s WALL (      44 calls)
 
     Parallel routines

     PAW routines
     PAW_pot      :     92.07s CPU     11.75s WALL (      22 calls)
     PAW_symme    :      0.02s CPU      0.00s WALL (      43 calls)
 
     PWSCF        :   1m59.68s CPU     32.80s WALL

 
   This run was terminated on:   3:17:15  12Jul2026            

=------------------------------------------------------------------------------=
   JOB DONE.
=------------------------------------------------------------------------------=
Warning: ieee_divide_by_zero is signaling
Warning: ieee_inexact is signaling
FORTRAN STOP
