
     Program PWSCF v.7.3.1 starts on 12Jul2026 at  5:37:57 

     This program is part of the open-source Quantum ESPRESSO suite
     for quantum simulation of materials; please cite
         "P. Giannozzi et al., J. Phys.:Condens. Matter 21 395502 (2009);
         "P. Giannozzi et al., J. Phys.:Condens. Matter 29 465901 (2017);
         "P. Giannozzi et al., J. Chem. Phys. 152 154105 (2020);
          URL http://www.quantum-espresso.org", 
     in publications or presentations arising from this work. More details at
     http://www.quantum-espresso.org/quote

     Parallel version (MPI & OpenMP), running on      14 processor cores
     Number of MPI processes:                 1
     Threads/MPI process:                    14

     MPI processes distributed on     1 nodes
     1353660 MiB available memory on the printing compute node when the environment starts
 
     Reading input from pw.in

     Current dimensions of program PWSCF are:
     Max number of different atomic species (ntypx) = 10
     Max number of k-points (npk) =  40000
     Max angular momentum in pseudopotentials (lmaxx) =  4
     file Co.pbe-spn-kjpaw_psl.0.3.1.UPF: wavefunction(s)  3P 3D renormalized
     file O.pbe-n-kjpaw_psl.1.0.0.UPF: wavefunction(s)  2S 2P renormalized
     file K.pbe-spn-kjpaw_psl.1.0.0.UPF: wavefunction(s)  3S renormalized
 
     Subspace diagonalization in iterative solution of the eigenvalue problem:
     a serial algorithm will be used

 
     G-vector sticks info
     --------------------
     sticks:   dense  smooth     PW     G-vecs:    dense   smooth      PW
     Sum        1003     499    151                73353    26017    4261
 
     Using Slab Decomposition
 


     bravais-lattice index     =            4
     lattice parameter (alat)  =       5.4802  a.u.
     unit-cell volume          =     412.8597 (a.u.)^3
     number of atoms/cell      =            4
     number of atomic types    =            3
     number of electrons       =        38.00
     number of Kohn-Sham states=           27
     kinetic-energy cutoff     =      60.0000  Ry
     charge density cutoff     =     480.0000  Ry
     scf convergence threshold =      1.0E-07
     mixing beta               =       0.3000
     number of iterations used =            8  local-TF  mixing
     Exchange-correlation= SLA  PW   PBX  PBC
                           (   1   4   3   4   0   0   0)

     GPU acceleration is ACTIVE.  1 visible GPUs per MPI rank
     GPU-aware MPI enabled


     GPU used by master process:

        Device Number: 0
        Device name: NVIDIA A100-SXM4-80GB
        Compute capability : 80
        Ratio of single to double precision performance  : 2
        Memory Clock Rate (KHz): 1593000
        Memory Bus Width (bits): 5120
        Peak Memory Bandwidth (GB/s): ******

     celldm(1)=   5.480206  celldm(2)=   0.000000  celldm(3)=   2.896552
     celldm(4)=   0.000000  celldm(5)=   0.000000  celldm(6)=   0.000000

     crystal axes: (cart. coord. in units of alat)
               a(1) = (   1.000000   0.000000   0.000000 )  
               a(2) = (  -0.500000   0.866025   0.000000 )  
               a(3) = (   0.000000   0.000000   2.896552 )  

     reciprocal axes: (cart. coord. in units 2 pi/alat)
               b(1) = (  1.000000  0.577350 -0.000000 )  
               b(2) = (  0.000000  1.154701  0.000000 )  
               b(3) = (  0.000000 -0.000000  0.345238 )  


     PseudoPot. # 1 for Co read from file:
     ../../pseudo/Co.pbe-spn-kjpaw_psl.0.3.1.UPF
     MD5 check sum: 3c0a43779828c046024e4f3be63f8e67
     Pseudo is Projector augmented-wave + core cor, Zval = 17.0
     Generated using &quot;atomic&quot; code by A. Dal Corso  v.6.2.2
     Shape of augmentation charge: PSQ
     Using radial grid of 1193 points,  6 beta functions with: 
                l(1) =   0
                l(2) =   0
                l(3) =   1
                l(4) =   1
                l(5) =   2
                l(6) =   2
     Q(r) pseudized with 0 coefficients 


     PseudoPot. # 2 for O  read from file:
     ../../pseudo/O.pbe-n-kjpaw_psl.1.0.0.UPF
     MD5 check sum: e99d9cef9b487d1ca56f5b95ecd0fd7a
     Pseudo is Projector augmented-wave + core cor, Zval =  6.0
     Generated using &quot;atomic&quot; code by A. Dal Corso  v.6.3
     Shape of augmentation charge: PSQ
     Using radial grid of 1095 points,  4 beta functions with: 
                l(1) =   0
                l(2) =   0
                l(3) =   1
                l(4) =   1
     Q(r) pseudized with 0 coefficients 


     PseudoPot. # 3 for K  read from file:
     ../../pseudo/K.pbe-spn-kjpaw_psl.1.0.0.UPF
     MD5 check sum: 34cc42130a09071ebe376fd42eb21491
     Pseudo is Projector augmented-wave + core cor, Zval =  9.0
     Generated using &quot;atomic&quot; code by A. Dal Corso  v.6.2.2
     Shape of augmentation charge: PSQ
     Using radial grid of 1165 points,  6 beta functions with: 
                l(1) =   0
                l(2) =   0
                l(3) =   1
                l(4) =   1
                l(5) =   2
                l(6) =   2
     Q(r) pseudized with 0 coefficients 


     atomic species   valence    mass     pseudopotential
     Co               17.00    58.93300     Co( 1.00)
     O                 6.00    15.99900     O ( 1.00)
     K                 9.00    39.09830     K ( 1.00)

     Starting magnetic structure 
     atomic species   magnetization
     Co              0.300
     O               0.000
     K               0.000

      6 Sym. Ops. (no inversion) found


                                    s                        frac. trans.

      isym =  1     identity                                     

 cryst.   s( 1) = (     1          0          0      )
                  (     0          1          0      )
                  (     0          0          1      )

 cart.    s( 1) = (  1.0000000  0.0000000  0.0000000 )
                  (  0.0000000  1.0000000  0.0000000 )
                  (  0.0000000  0.0000000  1.0000000 )


      isym =  2     120 deg rotation - cryst. axis [0,0,1]       

 cryst.   s( 2) = (     0          1          0      )
                  (    -1         -1          0      )
                  (     0          0          1      )

 cart.    s( 2) = ( -0.5000000 -0.8660254  0.0000000 )
                  (  0.8660254 -0.5000000  0.0000000 )
                  (  0.0000000  0.0000000  1.0000000 )


      isym =  3     120 deg rotation - cryst. axis [0,0,-1]      

 cryst.   s( 3) = (    -1         -1          0      )
                  (     1          0          0      )
                  (     0          0          1      )

 cart.    s( 3) = ( -0.5000000  0.8660254  0.0000000 )
                  ( -0.8660254 -0.5000000  0.0000000 )
                  (  0.0000000  0.0000000  1.0000000 )


      isym =  4     inv. 180 deg rotation - cart. axis [1,0,0]   

 cryst.   s( 4) = (    -1          0          0      )
                  (     1          1          0      )
                  (     0          0          1      )

 cart.    s( 4) = ( -1.0000000  0.0000000  0.0000000 )
                  (  0.0000000  1.0000000  0.0000000 )
                  (  0.0000000  0.0000000  1.0000000 )


      isym =  5     inv. 180 deg rotation - cryst. axis [0,1,0]  

 cryst.   s( 5) = (     1          1          0      )
                  (     0         -1          0      )
                  (     0          0          1      )

 cart.    s( 5) = (  0.5000000  0.8660254  0.0000000 )
                  (  0.8660254 -0.5000000  0.0000000 )
                  (  0.0000000  0.0000000  1.0000000 )


      isym =  6     inv. 180 deg rotation - cryst. axis [1,1,0]  

 cryst.   s( 6) = (     0         -1          0      )
                  (    -1          0          0      )
                  (     0          0          1      )

 cart.    s( 6) = (  0.5000000 -0.8660254  0.0000000 )
                  ( -0.8660254 -0.5000000  0.0000000 )
                  (  0.0000000  0.0000000  1.0000000 )


     point group C_3v (3m)  
     there are  3 classes
     the character table:

       E     2C3   3s_v 
A_1    1.00  1.00  1.00
A_2    1.00  1.00 -1.00
E      2.00 -1.00  0.00

     the symmetry operations in each class and the name of the first element:

     E        1
          identity                                               
     2C3      2    3
          120 deg rotation - cryst. axis [0,0,1]                 
     3s_v     4    5    6
          inv. 180 deg rotation - cart. axis [1,0,0]             

   Cartesian axes

     site n.     atom                  positions (alat units)
         1        Co     tau(   1) = (   0.0000000   0.0000000   0.0000000  )
         2        O      tau(   2) = (  -0.0000000   0.5773503   0.3310345  )
         3        O      tau(   3) = (   0.5000000   0.2886751   2.5655172  )
         4        K      tau(   4) = (   0.0000000   0.0000000   1.6206897  )

   Crystallographic axes

     site n.     atom                  positions (cryst. coord.)
         1        Co     tau(   1) = (  0.0000000  0.0000000  0.0000000  )
         2        O      tau(   2) = (  0.3333333  0.6666667  0.1142857  )
         3        O      tau(   3) = (  0.6666667  0.3333333  0.8857143  )
         4        K      tau(   4) = (  0.0000000  0.0000000  0.5595238  )

     number of k points=    25  Marzari-Vanderbilt smearing, width (Ry)=  0.0200
                       cart. coord. in units 2pi/alat
        k(    1) = (   0.0000000   0.0000000   0.0000000), wk =   0.0052083
        k(    2) = (   0.0000000   0.0000000   0.1150794), wk =   0.0104167
        k(    3) = (   0.0000000   0.1443376   0.0000000), wk =   0.0312500
        k(    4) = (   0.0000000   0.1443376   0.1150794), wk =   0.0312500
        k(    5) = (   0.0000000   0.2886751   0.0000000), wk =   0.0312500
        k(    6) = (   0.0000000   0.2886751   0.1150794), wk =   0.0312500
        k(    7) = (   0.0000000   0.4330127   0.0000000), wk =   0.0312500
        k(    8) = (   0.0000000   0.4330127   0.1150794), wk =   0.0312500
        k(    9) = (   0.0000000  -0.5773503   0.0000000), wk =   0.0156250
        k(   10) = (   0.0000000  -0.5773503   0.1150794), wk =   0.0312500
        k(   11) = (   0.1250000   0.2165064   0.0000000), wk =   0.0312500
        k(   12) = (   0.1250000   0.2165064   0.1150794), wk =   0.0625000
        k(   13) = (   0.1250000   0.3608439   0.0000000), wk =   0.0625000
        k(   14) = (   0.1250000   0.3608439   0.1150794), wk =   0.0625000
        k(   15) = (   0.1250000   0.5051815   0.0000000), wk =   0.0625000
        k(   16) = (   0.1250000   0.5051815   0.1150794), wk =   0.0625000
        k(   17) = (   0.2500000   0.4330127   0.0000000), wk =   0.0312500
        k(   18) = (   0.2500000   0.4330127   0.1150794), wk =   0.0625000
        k(   19) = (   0.2500000   0.5773503   0.0000000), wk =   0.0312500
        k(   20) = (   0.2500000   0.5773503   0.1150794), wk =   0.0625000
        k(   21) = (   0.0000000  -0.1443376   0.1150794), wk =   0.0312500
        k(   22) = (   0.0000000  -0.2886751   0.1150794), wk =   0.0312500
        k(   23) = (   0.0000000  -0.4330127   0.1150794), wk =   0.0312500
        k(   24) = (  -0.1250000  -0.3608439   0.1150794), wk =   0.0625000
        k(   25) = (  -0.1250000  -0.5051815   0.1150794), wk =   0.0625000

                       cryst. coord.
        k(    1) = (   0.0000000   0.0000000   0.0000000), wk =   0.0052083
        k(    2) = (   0.0000000   0.0000000   0.3333333), wk =   0.0104167
        k(    3) = (   0.0000000   0.1250000   0.0000000), wk =   0.0312500
        k(    4) = (   0.0000000   0.1250000   0.3333333), wk =   0.0312500
        k(    5) = (   0.0000000   0.2500000   0.0000000), wk =   0.0312500
        k(    6) = (   0.0000000   0.2500000   0.3333333), wk =   0.0312500
        k(    7) = (   0.0000000   0.3750000   0.0000000), wk =   0.0312500
        k(    8) = (   0.0000000   0.3750000   0.3333333), wk =   0.0312500
        k(    9) = (   0.0000000  -0.5000000   0.0000000), wk =   0.0156250
        k(   10) = (   0.0000000  -0.5000000   0.3333333), wk =   0.0312500
        k(   11) = (   0.1250000   0.1250000   0.0000000), wk =   0.0312500
        k(   12) = (   0.1250000   0.1250000   0.3333333), wk =   0.0625000
        k(   13) = (   0.1250000   0.2500000   0.0000000), wk =   0.0625000
        k(   14) = (   0.1250000   0.2500000   0.3333333), wk =   0.0625000
        k(   15) = (   0.1250000   0.3750000   0.0000000), wk =   0.0625000
        k(   16) = (   0.1250000   0.3750000   0.3333333), wk =   0.0625000
        k(   17) = (   0.2500000   0.2500000   0.0000000), wk =   0.0312500
        k(   18) = (   0.2500000   0.2500000   0.3333333), wk =   0.0625000
        k(   19) = (   0.2500000   0.3750000   0.0000000), wk =   0.0312500
        k(   20) = (   0.2500000   0.3750000   0.3333333), wk =   0.0625000
        k(   21) = (   0.0000000  -0.1250000   0.3333333), wk =   0.0312500
        k(   22) = (   0.0000000  -0.2500000   0.3333333), wk =   0.0312500
        k(   23) = (   0.0000000  -0.3750000   0.3333333), wk =   0.0312500
        k(   24) = (  -0.1250000  -0.2500000   0.3333333), wk =   0.0625000
        k(   25) = (  -0.1250000  -0.3750000   0.3333333), wk =   0.0625000

     Dense  grid:    73353 G-vectors     FFT dimensions: (  40,  40, 120)

     Smooth grid:    26017 G-vectors     FFT dimensions: (  27,  27,  80)

     Dynamical RAM for                 wfc:       1.33 MB

     Dynamical RAM for     wfc (w. buffer):      68.08 MB

     Dynamical RAM for           str. fact:       3.36 MB

     Dynamical RAM for           local pot:       0.00 MB

     Dynamical RAM for          nlocal pot:       2.57 MB

     Dynamical RAM for                qrad:       5.27 MB

     Dynamical RAM for          rho,v,vnew:      15.50 MB

     Dynamical RAM for               rhoin:       5.17 MB

     Dynamical RAM for            rho*nmix:      35.82 MB

     Dynamical RAM for           G-vectors:       4.40 MB

     Dynamical RAM for          h,s,v(r/c):       0.13 MB

     Dynamical RAM for          <psi|beta>:       0.02 MB

     Dynamical RAM for                 psi:       2.67 MB

     Dynamical RAM for                hpsi:       2.67 MB

     Dynamical RAM for                spsi:       2.67 MB

     Dynamical RAM for      wfcinit/wfcrot:       2.69 MB

     Dynamical RAM for           addusdens:     211.54 MB

     Dynamical RAM for          addusforce:     213.80 MB

     Estimated static dynamical RAM per process >     117.61 MB

     Estimated max dynamical RAM per process >     367.23 MB

     Check: negative core charge=   -0.000007
     Generating pointlists ...
     new r_m :   0.2745 (alat units)  1.5045 (a.u.) for type    1
     new r_m :   0.2745 (alat units)  1.5045 (a.u.) for type    2
     new r_m :   0.4125 (alat units)  2.2606 (a.u.) for type    3

     Initial potential from superposition of free atoms

     starting charge      37.9809, renormalised to      38.0000
     Starting wfcs are   26 randomized atomic wfcs +    1 random wfcs
     Checking if some PAW data can be deallocated... 

     total cpu time spent up to now is        4.2 secs

     Self-consistent Calculation
[tb_dev] Currently allocated     6.58E-01 Mbytes, locked:    0 /   6
[tb_pin] Currently allocated     0.00E+00 Mbytes, locked:    0 /   0

     iteration #  1     ecut=    60.00 Ry     beta= 0.30
     Davidson diagonalization with overlap

---- Real-time Memory Report at c_bands before calling an iterative solver
           697 MiB given to the printing process from OS
             0 MiB allocation reported by mallinfo(arena+hblkhd)
       1349012 MiB available memory on the node where the printing process lives
     GPU memory used/free/total (MiB): 1060 / 80090 / 81151
------------------
     ethr =  1.00E-02,  avg # of iterations =  8.0

     total cpu time spent up to now is        6.4 secs

     total energy              =    -572.76515648 Ry
     estimated scf accuracy    <       1.76448192 Ry

     total magnetization       =     4.00 Bohr mag/cell
     absolute magnetization    =     4.00 Bohr mag/cell
[tb_dev] Currently allocated     3.05E-05 Mbytes, locked:    0 /   2
[tb_pin] Currently allocated     0.00E+00 Mbytes, locked:    0 /   0

     iteration #  2     ecut=    60.00 Ry     beta= 0.30
     Davidson diagonalization with overlap

---- Real-time Memory Report at c_bands before calling an iterative solver
           740 MiB given to the printing process from OS
             0 MiB allocation reported by mallinfo(arena+hblkhd)
       1345172 MiB available memory on the node where the printing process lives
     GPU memory used/free/total (MiB): 1078 / 80072 / 81151
------------------
     ethr =  4.64E-03,  avg # of iterations =  1.9

     total cpu time spent up to now is        7.8 secs

     total energy              =    -572.72360991 Ry
     estimated scf accuracy    <       0.74950592 Ry

     total magnetization       =     3.95 Bohr mag/cell
     absolute magnetization    =     3.95 Bohr mag/cell
[tb_dev] Currently allocated     3.05E-05 Mbytes, locked:    0 /   2
[tb_pin] Currently allocated     0.00E+00 Mbytes, locked:    0 /   0

     iteration #  3     ecut=    60.00 Ry     beta= 0.30
     Davidson diagonalization with overlap

---- Real-time Memory Report at c_bands before calling an iterative solver
           746 MiB given to the printing process from OS
             0 MiB allocation reported by mallinfo(arena+hblkhd)
       1342744 MiB available memory on the node where the printing process lives
     GPU memory used/free/total (MiB): 1078 / 80072 / 81151
------------------
     ethr =  1.97E-03,  avg # of iterations =  2.2

     total cpu time spent up to now is        9.3 secs

     total energy              =    -572.98192730 Ry
     estimated scf accuracy    <       1.31987083 Ry

     total magnetization       =     1.37 Bohr mag/cell
     absolute magnetization    =     1.52 Bohr mag/cell
[tb_dev] Currently allocated     3.05E-05 Mbytes, locked:    0 /   2
[tb_pin] Currently allocated     0.00E+00 Mbytes, locked:    0 /   0

     iteration #  4     ecut=    60.00 Ry     beta= 0.30
     Davidson diagonalization with overlap

---- Real-time Memory Report at c_bands before calling an iterative solver
           747 MiB given to the printing process from OS
             0 MiB allocation reported by mallinfo(arena+hblkhd)
       1359711 MiB available memory on the node where the printing process lives
     GPU memory used/free/total (MiB): 1078 / 80072 / 81151
------------------
     ethr =  1.97E-03,  avg # of iterations =  1.6

     total cpu time spent up to now is       10.6 secs

     total energy              =    -572.99899684 Ry
     estimated scf accuracy    <       2.65745126 Ry

     total magnetization       =     0.81 Bohr mag/cell
     absolute magnetization    =     1.16 Bohr mag/cell
[tb_dev] Currently allocated     3.05E-05 Mbytes, locked:    0 /   2
[tb_pin] Currently allocated     0.00E+00 Mbytes, locked:    0 /   0

     iteration #  5     ecut=    60.00 Ry     beta= 0.30
     Davidson diagonalization with overlap

---- Real-time Memory Report at c_bands before calling an iterative solver
           748 MiB given to the printing process from OS
             0 MiB allocation reported by mallinfo(arena+hblkhd)
       1359047 MiB available memory on the node where the printing process lives
     GPU memory used/free/total (MiB): 1078 / 80072 / 81151
------------------
     ethr =  1.97E-03,  avg # of iterations =  1.7

     total cpu time spent up to now is       12.0 secs

     total energy              =    -572.61183496 Ry
     estimated scf accuracy    <       2.09518345 Ry

     total magnetization       =     0.57 Bohr mag/cell
     absolute magnetization    =     1.13 Bohr mag/cell
[tb_dev] Currently allocated     3.05E-05 Mbytes, locked:    0 /   2
[tb_pin] Currently allocated     0.00E+00 Mbytes, locked:    0 /   0

     iteration #  6     ecut=    60.00 Ry     beta= 0.30
     Davidson diagonalization with overlap

---- Real-time Memory Report at c_bands before calling an iterative solver
           749 MiB given to the printing process from OS
             0 MiB allocation reported by mallinfo(arena+hblkhd)
       1357891 MiB available memory on the node where the printing process lives
     GPU memory used/free/total (MiB): 1078 / 80072 / 81151
------------------
     ethr =  1.97E-03,  avg # of iterations =  3.4

     total cpu time spent up to now is       13.5 secs

     total energy              =    -572.76049198 Ry
     estimated scf accuracy    <       1.93373950 Ry

     total magnetization       =     0.44 Bohr mag/cell
     absolute magnetization    =     0.64 Bohr mag/cell
[tb_dev] Currently allocated     3.05E-05 Mbytes, locked:    0 /   2
[tb_pin] Currently allocated     0.00E+00 Mbytes, locked:    0 /   0

     iteration #  7     ecut=    60.00 Ry     beta= 0.30
     Davidson diagonalization with overlap

---- Real-time Memory Report at c_bands before calling an iterative solver
           750 MiB given to the printing process from OS
             0 MiB allocation reported by mallinfo(arena+hblkhd)
       1356722 MiB available memory on the node where the printing process lives
     GPU memory used/free/total (MiB): 1078 / 80072 / 81151
------------------
     ethr =  1.97E-03,  avg # of iterations =  1.1

     total cpu time spent up to now is       14.8 secs

     total energy              =    -572.90509616 Ry
     estimated scf accuracy    <       0.19608779 Ry

     total magnetization       =     0.20 Bohr mag/cell
     absolute magnetization    =     0.69 Bohr mag/cell
[tb_dev] Currently allocated     3.05E-05 Mbytes, locked:    0 /   2
[tb_pin] Currently allocated     0.00E+00 Mbytes, locked:    0 /   0

     iteration #  8     ecut=    60.00 Ry     beta= 0.30
     Davidson diagonalization with overlap

---- Real-time Memory Report at c_bands before calling an iterative solver
           750 MiB given to the printing process from OS
             0 MiB allocation reported by mallinfo(arena+hblkhd)
       1355546 MiB available memory on the node where the printing process lives
     GPU memory used/free/total (MiB): 1078 / 80072 / 81151
------------------
     ethr =  5.16E-04,  avg # of iterations =  2.4

     total cpu time spent up to now is       16.3 secs

     total energy              =    -572.89613517 Ry
     estimated scf accuracy    <       0.23220728 Ry

     total magnetization       =     0.24 Bohr mag/cell
     absolute magnetization    =     0.74 Bohr mag/cell
[tb_dev] Currently allocated     3.05E-05 Mbytes, locked:    0 /   2
[tb_pin] Currently allocated     0.00E+00 Mbytes, locked:    0 /   0

     iteration #  9     ecut=    60.00 Ry     beta= 0.30
     Davidson diagonalization with overlap

---- Real-time Memory Report at c_bands before calling an iterative solver
           751 MiB given to the printing process from OS
             0 MiB allocation reported by mallinfo(arena+hblkhd)
       1354444 MiB available memory on the node where the printing process lives
     GPU memory used/free/total (MiB): 1078 / 80072 / 81151
------------------
     ethr =  5.16E-04,  avg # of iterations =  3.0

     total cpu time spent up to now is       17.8 secs

     total energy              =    -572.92493734 Ry
     estimated scf accuracy    <       0.23504991 Ry

     total magnetization       =     0.49 Bohr mag/cell
     absolute magnetization    =     0.67 Bohr mag/cell
[tb_dev] Currently allocated     3.05E-05 Mbytes, locked:    0 /   2
[tb_pin] Currently allocated     0.00E+00 Mbytes, locked:    0 /   0

     iteration # 10     ecut=    60.00 Ry     beta= 0.30
     Davidson diagonalization with overlap

---- Real-time Memory Report at c_bands before calling an iterative solver
           753 MiB given to the printing process from OS
             0 MiB allocation reported by mallinfo(arena+hblkhd)
       1353441 MiB available memory on the node where the printing process lives
     GPU memory used/free/total (MiB): 1078 / 80072 / 81151
------------------
     ethr =  5.16E-04,  avg # of iterations =  1.6

     total cpu time spent up to now is       19.1 secs

     total energy              =    -572.91269396 Ry
     estimated scf accuracy    <       0.09077127 Ry

     total magnetization       =     0.40 Bohr mag/cell
     absolute magnetization    =     0.45 Bohr mag/cell
[tb_dev] Currently allocated     3.05E-05 Mbytes, locked:    0 /   2
[tb_pin] Currently allocated     0.00E+00 Mbytes, locked:    0 /   0

     iteration # 11     ecut=    60.00 Ry     beta= 0.30
     Davidson diagonalization with overlap

---- Real-time Memory Report at c_bands before calling an iterative solver
           753 MiB given to the printing process from OS
             0 MiB allocation reported by mallinfo(arena+hblkhd)
       1352364 MiB available memory on the node where the printing process lives
     GPU memory used/free/total (MiB): 1078 / 80072 / 81151
------------------
     ethr =  2.39E-04,  avg # of iterations =  2.8

     total cpu time spent up to now is       20.6 secs

     total energy              =    -572.91999915 Ry
     estimated scf accuracy    <       0.03089361 Ry

     total magnetization       =     0.32 Bohr mag/cell
     absolute magnetization    =     0.41 Bohr mag/cell
[tb_dev] Currently allocated     3.05E-05 Mbytes, locked:    0 /   2
[tb_pin] Currently allocated     0.00E+00 Mbytes, locked:    0 /   0

     iteration # 12     ecut=    60.00 Ry     beta= 0.30
     Davidson diagonalization with overlap

---- Real-time Memory Report at c_bands before calling an iterative solver
           753 MiB given to the printing process from OS
             0 MiB allocation reported by mallinfo(arena+hblkhd)
       1351058 MiB available memory on the node where the printing process lives
     GPU memory used/free/total (MiB): 1078 / 80072 / 81151
------------------
     c_bands:  2 eigenvalues not converged
     ethr =  8.13E-05,  avg # of iterations =  4.8

     total cpu time spent up to now is       22.3 secs

     total energy              =    -572.91665857 Ry
     estimated scf accuracy    <       0.03452804 Ry

     total magnetization       =     0.27 Bohr mag/cell
     absolute magnetization    =     0.40 Bohr mag/cell
[tb_dev] Currently allocated     3.05E-05 Mbytes, locked:    0 /   2
[tb_pin] Currently allocated     0.00E+00 Mbytes, locked:    0 /   0

     iteration # 13     ecut=    60.00 Ry     beta= 0.30
     Davidson diagonalization with overlap

---- Real-time Memory Report at c_bands before calling an iterative solver
           753 MiB given to the printing process from OS
             0 MiB allocation reported by mallinfo(arena+hblkhd)
       1350222 MiB available memory on the node where the printing process lives
     GPU memory used/free/total (MiB): 1078 / 80072 / 81151
------------------
     ethr =  8.13E-05,  avg # of iterations =  2.1

     total cpu time spent up to now is       23.7 secs

     total energy              =    -572.92160735 Ry
     estimated scf accuracy    <       0.03434921 Ry

     total magnetization       =     0.29 Bohr mag/cell
     absolute magnetization    =     0.32 Bohr mag/cell
[tb_dev] Currently allocated     3.05E-05 Mbytes, locked:    0 /   2
[tb_pin] Currently allocated     0.00E+00 Mbytes, locked:    0 /   0

     iteration # 14     ecut=    60.00 Ry     beta= 0.30
     Davidson diagonalization with overlap

---- Real-time Memory Report at c_bands before calling an iterative solver
           753 MiB given to the printing process from OS
             0 MiB allocation reported by mallinfo(arena+hblkhd)
       1348119 MiB available memory on the node where the printing process lives
     GPU memory used/free/total (MiB): 1078 / 80072 / 81151
------------------
     ethr =  8.13E-05,  avg # of iterations =  1.6

     total cpu time spent up to now is       25.1 secs

     total energy              =    -572.91959088 Ry
     estimated scf accuracy    <       0.03974348 Ry

     total magnetization       =     0.29 Bohr mag/cell
     absolute magnetization    =     0.33 Bohr mag/cell
[tb_dev] Currently allocated     3.05E-05 Mbytes, locked:    0 /   2
[tb_pin] Currently allocated     0.00E+00 Mbytes, locked:    0 /   0

     iteration # 15     ecut=    60.00 Ry     beta= 0.30
     Davidson diagonalization with overlap

---- Real-time Memory Report at c_bands before calling an iterative solver
           753 MiB given to the printing process from OS
             0 MiB allocation reported by mallinfo(arena+hblkhd)
       1345182 MiB available memory on the node where the printing process lives
     GPU memory used/free/total (MiB): 1078 / 80072 / 81151
------------------
     ethr =  8.13E-05,  avg # of iterations =  1.1

     total cpu time spent up to now is       26.4 secs

     total energy              =    -572.92129392 Ry
     estimated scf accuracy    <       0.00059139 Ry

     total magnetization       =     0.37 Bohr mag/cell
     absolute magnetization    =     0.41 Bohr mag/cell
[tb_dev] Currently allocated     3.05E-05 Mbytes, locked:    0 /   2
[tb_pin] Currently allocated     0.00E+00 Mbytes, locked:    0 /   0

     iteration # 16     ecut=    60.00 Ry     beta= 0.30
     Davidson diagonalization with overlap

---- Real-time Memory Report at c_bands before calling an iterative solver
           753 MiB given to the printing process from OS
             0 MiB allocation reported by mallinfo(arena+hblkhd)
       1362361 MiB available memory on the node where the printing process lives
     GPU memory used/free/total (MiB): 1078 / 80072 / 81151
------------------
     c_bands:  1 eigenvalues not converged
     c_bands:  2 eigenvalues not converged
     c_bands:  2 eigenvalues not converged
     c_bands:  1 eigenvalues not converged
     c_bands:  1 eigenvalues not converged
     c_bands:  1 eigenvalues not converged
     c_bands:  1 eigenvalues not converged
     c_bands:  1 eigenvalues not converged
     c_bands:  1 eigenvalues not converged
     c_bands:  1 eigenvalues not converged
     c_bands:  1 eigenvalues not converged
     c_bands:  1 eigenvalues not converged
     c_bands:  1 eigenvalues not converged
     c_bands:  1 eigenvalues not converged
     c_bands:  1 eigenvalues not converged
     c_bands:  1 eigenvalues not converged
     c_bands:  1 eigenvalues not converged
     c_bands:  1 eigenvalues not converged
     ethr =  1.56E-06,  avg # of iterations = 14.6

     total cpu time spent up to now is       29.3 secs

     total energy              =    -572.92158493 Ry
     estimated scf accuracy    <       0.00031130 Ry

     total magnetization       =     0.40 Bohr mag/cell
     absolute magnetization    =     0.45 Bohr mag/cell
[tb_dev] Currently allocated     3.05E-05 Mbytes, locked:    0 /   2
[tb_pin] Currently allocated     0.00E+00 Mbytes, locked:    0 /   0

     iteration # 17     ecut=    60.00 Ry     beta= 0.30
     Davidson diagonalization with overlap

---- Real-time Memory Report at c_bands before calling an iterative solver
           753 MiB given to the printing process from OS
             0 MiB allocation reported by mallinfo(arena+hblkhd)
       1359841 MiB available memory on the node where the printing process lives
     GPU memory used/free/total (MiB): 1078 / 80072 / 81151
------------------
     c_bands:  1 eigenvalues not converged
     ethr =  8.19E-07,  avg # of iterations =  3.2

     total cpu time spent up to now is       30.9 secs

     total energy              =    -572.92160747 Ry
     estimated scf accuracy    <       0.00013579 Ry

     total magnetization       =     0.41 Bohr mag/cell
     absolute magnetization    =     0.46 Bohr mag/cell
[tb_dev] Currently allocated     3.05E-05 Mbytes, locked:    0 /   2
[tb_pin] Currently allocated     0.00E+00 Mbytes, locked:    0 /   0

     iteration # 18     ecut=    60.00 Ry     beta= 0.30
     Davidson diagonalization with overlap

---- Real-time Memory Report at c_bands before calling an iterative solver
           753 MiB given to the printing process from OS
             0 MiB allocation reported by mallinfo(arena+hblkhd)
       1358586 MiB available memory on the node where the printing process lives
     GPU memory used/free/total (MiB): 1078 / 80072 / 81151
------------------
     ethr =  3.57E-07,  avg # of iterations =  2.1

     total cpu time spent up to now is       32.3 secs

     total energy              =    -572.92162384 Ry
     estimated scf accuracy    <       0.00008207 Ry

     total magnetization       =     0.41 Bohr mag/cell
     absolute magnetization    =     0.46 Bohr mag/cell
[tb_dev] Currently allocated     3.05E-05 Mbytes, locked:    0 /   2
[tb_pin] Currently allocated     0.00E+00 Mbytes, locked:    0 /   0

     iteration # 19     ecut=    60.00 Ry     beta= 0.30
     Davidson diagonalization with overlap

---- Real-time Memory Report at c_bands before calling an iterative solver
           753 MiB given to the printing process from OS
             0 MiB allocation reported by mallinfo(arena+hblkhd)
       1357427 MiB available memory on the node where the printing process lives
     GPU memory used/free/total (MiB): 1078 / 80072 / 81151
------------------
     ethr =  2.16E-07,  avg # of iterations =  1.7

     total cpu time spent up to now is       33.6 secs

     total energy              =    -572.92162983 Ry
     estimated scf accuracy    <       0.00000767 Ry

     total magnetization       =     0.41 Bohr mag/cell
     absolute magnetization    =     0.46 Bohr mag/cell
[tb_dev] Currently allocated     3.05E-05 Mbytes, locked:    0 /   2
[tb_pin] Currently allocated     0.00E+00 Mbytes, locked:    0 /   0

     iteration # 20     ecut=    60.00 Ry     beta= 0.30
     Davidson diagonalization with overlap

---- Real-time Memory Report at c_bands before calling an iterative solver
           753 MiB given to the printing process from OS
             0 MiB allocation reported by mallinfo(arena+hblkhd)
       1356418 MiB available memory on the node where the printing process lives
     GPU memory used/free/total (MiB): 1078 / 80072 / 81151
------------------
     ethr =  2.02E-08,  avg # of iterations =  6.6

     total cpu time spent up to now is       35.7 secs

     total energy              =    -572.92163622 Ry
     estimated scf accuracy    <       0.00000482 Ry

     total magnetization       =     0.41 Bohr mag/cell
     absolute magnetization    =     0.47 Bohr mag/cell
[tb_dev] Currently allocated     3.05E-05 Mbytes, locked:    0 /   2
[tb_pin] Currently allocated     0.00E+00 Mbytes, locked:    0 /   0

     iteration # 21     ecut=    60.00 Ry     beta= 0.30
     Davidson diagonalization with overlap

---- Real-time Memory Report at c_bands before calling an iterative solver
           753 MiB given to the printing process from OS
             0 MiB allocation reported by mallinfo(arena+hblkhd)
       1354763 MiB available memory on the node where the printing process lives
     GPU memory used/free/total (MiB): 1078 / 80072 / 81151
------------------
     ethr =  1.27E-08,  avg # of iterations =  2.0

     total cpu time spent up to now is       37.1 secs

     total energy              =    -572.92163690 Ry
     estimated scf accuracy    <       0.00000211 Ry

     total magnetization       =     0.41 Bohr mag/cell
     absolute magnetization    =     0.47 Bohr mag/cell
[tb_dev] Currently allocated     3.05E-05 Mbytes, locked:    0 /   2
[tb_pin] Currently allocated     0.00E+00 Mbytes, locked:    0 /   0

     iteration # 22     ecut=    60.00 Ry     beta= 0.30
     Davidson diagonalization with overlap

---- Real-time Memory Report at c_bands before calling an iterative solver
           753 MiB given to the printing process from OS
             0 MiB allocation reported by mallinfo(arena+hblkhd)
       1354145 MiB available memory on the node where the printing process lives
     GPU memory used/free/total (MiB): 1078 / 80072 / 81151
------------------
     ethr =  5.54E-09,  avg # of iterations =  3.2

     total cpu time spent up to now is       38.7 secs

     total energy              =    -572.92163733 Ry
     estimated scf accuracy    <       0.00000050 Ry

     total magnetization       =     0.41 Bohr mag/cell
     absolute magnetization    =     0.47 Bohr mag/cell
[tb_dev] Currently allocated     3.05E-05 Mbytes, locked:    0 /   2
[tb_pin] Currently allocated     0.00E+00 Mbytes, locked:    0 /   0

     iteration # 23     ecut=    60.00 Ry     beta= 0.30
     Davidson diagonalization with overlap

---- Real-time Memory Report at c_bands before calling an iterative solver
           753 MiB given to the printing process from OS
             0 MiB allocation reported by mallinfo(arena+hblkhd)
       1352690 MiB available memory on the node where the printing process lives
     GPU memory used/free/total (MiB): 1078 / 80072 / 81151
------------------
     ethr =  1.31E-09,  avg # of iterations =  4.2

     total cpu time spent up to now is       40.4 secs

     total energy              =    -572.92163749 Ry
     estimated scf accuracy    <       0.00000018 Ry

     total magnetization       =     0.41 Bohr mag/cell
     absolute magnetization    =     0.47 Bohr mag/cell
[tb_dev] Currently allocated     3.05E-05 Mbytes, locked:    0 /   2
[tb_pin] Currently allocated     0.00E+00 Mbytes, locked:    0 /   0

     iteration # 24     ecut=    60.00 Ry     beta= 0.30
     Davidson diagonalization with overlap

---- Real-time Memory Report at c_bands before calling an iterative solver
           753 MiB given to the printing process from OS
             0 MiB allocation reported by mallinfo(arena+hblkhd)
       1351303 MiB available memory on the node where the printing process lives
     GPU memory used/free/total (MiB): 1078 / 80072 / 81151
------------------
     ethr =  4.70E-10,  avg # of iterations =  2.9
 
     Magnetic moment per site  (integrated on atomic sphere of radius R)
     atom   1 (R=0.275)  charge= 14.1357  magn=  0.3483
     atom   2 (R=0.275)  charge=  5.2300  magn=  0.0276
     atom   3 (R=0.275)  charge=  5.2605  magn=  0.0224
     atom   4 (R=0.413)  charge=  7.7960  magn= -0.0132

     total cpu time spent up to now is       41.9 secs

     End of self-consistent calculation

 ------ SPIN UP ------------


          k = 0.0000 0.0000 0.0000 (  3279 PWs)   bands (ev):

   -87.1595 -50.4077 -50.3742 -50.3742 -26.0177 -11.1714  -9.4383  -9.0238
    -7.9894  -7.9894   2.4221   3.2128   3.2128   5.7461   6.6455   6.6455
     6.9683   6.9683   7.0308   8.1894  10.1574  10.5968  10.5968  12.4266
    12.4266  12.7370  15.9309

     occupation numbers 
     1.0000   1.0000   1.0000   1.0000   1.0000   1.0000   1.0000   1.0000
     1.0000   1.0000   1.0000   1.0000   1.0000   1.0000   1.0000   1.0000
     1.0000   1.0000   1.0000   0.8552   0.0000   0.0000   0.0000   0.0000
     0.0000   0.0000   0.0000

          k = 0.0000 0.0000 0.1151 (  3249 PWs)   bands (ev):

   -87.1595 -50.4077 -50.3740 -50.3740 -26.0177 -11.1744  -9.4062  -9.0544
    -7.9894  -7.9894   2.4728   3.2129   3.2129   5.4570   6.6454   6.6454
     6.9683   6.9683   7.4197   8.0878  10.2273  10.5976  10.5976  12.4260
    12.4260  12.4640  15.9308

     occupation numbers 
     1.0000   1.0000   1.0000   1.0000   1.0000   1.0000   1.0000   1.0000
     1.0000   1.0000   1.0000   1.0000   1.0000   1.0000   1.0000   1.0000
     1.0000   1.0000   1.0002   1.0288   0.0000   0.0000   0.0000   0.0000
     0.0000   0.0000   0.0000

          k = 0.0000 0.1443 0.0000 (  3241 PWs)   bands (ev):

   -87.1588 -50.4065 -50.3819 -50.3759 -25.9309 -11.0049  -9.4031  -8.9807
    -8.4335  -8.0803   2.6147   3.0049   3.3176   5.5588   6.0384   6.1222
     7.2793   7.4799   7.5142   8.3696  10.0691  10.4990  10.5069  11.7953
    12.5259  12.9846  15.6834

     occupation numbers 
     1.0000   1.0000   1.0000   1.0000   1.0000   1.0000   1.0000   1.0000
     1.0000   1.0000   1.0000   1.0000   1.0000   1.0000   1.0000   1.0000
     1.0000   1.0005   1.0009   0.3812   0.0000   0.0000   0.0000   0.0000
     0.0000   0.0000   0.0000

          k = 0.0000 0.1443 0.1151 (  3236 PWs)   bands (ev):

   -87.1588 -50.4065 -50.3819 -50.3759 -25.9309 -11.0077  -9.3776  -9.0048
    -8.4332  -8.0803   2.6501   2.9989   3.3176   5.5681   5.9254   6.0383
     7.2629   7.4798   7.8646   8.2242  10.0568  10.4993  10.5516  11.7916
    12.4558  12.9846  15.3789

     occupation numbers 
     1.0000   1.0000   1.0000   1.0000   1.0000   1.0000   1.0000   1.0000
     1.0000   1.0000   1.0000   1.0000   1.0000   1.0000   1.0000   1.0000
     1.0000   1.0005   1.0572   0.7708   0.0000   0.0000   0.0000   0.0000
     0.0000   0.0000   0.0000

          k = 0.0000 0.2887 0.0000 (  3230 PWs)   bands (ev):

   -87.1571 -50.4039 -50.4009 -50.3804 -25.7128 -10.5702  -9.4354  -9.3383
    -8.8423  -8.2917   2.6289   3.1407   3.5666   4.2072   5.4506   6.4106
     7.3750   7.7457   7.9113   8.7924   9.4321  10.3767  10.4137  11.7098
    12.3537  14.5161  15.2584

     occupation numbers 
     1.0000   1.0000   1.0000   1.0000   1.0000   1.0000   1.0000   1.0000
     1.0000   1.0000   1.0000   1.0000   1.0000   1.0000   1.0000   1.0000
     1.0001   1.0215   1.0724   0.0027   0.0000   0.0000   0.0000   0.0000
     0.0000   0.0000   0.0000

          k = 0.0000 0.2887 0.1151 (  3236 PWs)   bands (ev):

   -87.1571 -50.4039 -50.4009 -50.3805 -25.7128 -10.5721  -9.4392  -9.3231
    -8.8520  -8.2918   2.6184   3.1562   3.5666   4.2196   5.4504   6.3762
     7.3632   7.7456   7.9764   8.6453   9.5968  10.3281  10.3772  11.7130
    12.4605  14.5183  15.5352

     occupation numbers 
     1.0000   1.0000   1.0000   1.0000   1.0000   1.0000   1.0000   1.0000
     1.0000   1.0000   1.0000   1.0000   1.0000   1.0000   1.0000   1.0000
     1.0000   1.0215   1.0833   0.0254   0.0000   0.0000   0.0000   0.0000
     0.0000   0.0000   0.0000

          k = 0.0000 0.4330 0.0000 (  3242 PWs)   bands (ev):

   -87.1554 -50.4201 -50.4009 -50.3852 -25.4812 -10.3402 -10.0331  -9.3705
    -8.6708  -8.4929   2.1546   3.1508   3.7671   4.1993   5.2041   5.9278
     7.2643   7.5861   7.7865   8.4654   9.3646  10.1259  10.4097  12.4338
    13.7256  14.8416  16.1562

     occupation numbers 
     1.0000   1.0000   1.0000   1.0000   1.0000   1.0000   1.0000   1.0000
     1.0000   1.0000   1.0000   1.0000   1.0000   1.0000   1.0000   1.0000
     1.0000   1.0028   1.0318   0.1841   0.0000   0.0000   0.0000   0.0000
     0.0000   0.0000   0.0000

          k = 0.0000 0.4330 0.1151 (  3243 PWs)   bands (ev):

   -87.1554 -50.4201 -50.4008 -50.3852 -25.4812 -10.3396 -10.0352  -9.3674
    -8.6724  -8.4929   2.1582   3.1419   3.7672   4.2128   5.2037   5.9044
     7.2760   7.5861   7.7815   8.4473   9.6333   9.8343  10.4111  12.5180
    13.7023  14.8386  16.1271

     occupation numbers 
     1.0000   1.0000   1.0000   1.0000   1.0000   1.0000   1.0000   1.0000
     1.0000   1.0000   1.0000   1.0000   1.0000   1.0000   1.0000   1.0000
     1.0000   1.0028   1.0304   0.2148   0.0000   0.0000   0.0000   0.0000
     0.0000   0.0000   0.0000

          k = 0.0000-0.5774 0.0000 (  3254 PWs)   bands (ev):

   -87.1548 -50.4281 -50.3998 -50.3870 -25.3807 -10.6839  -9.7560  -9.4417
    -8.5918  -8.5734   1.7729   3.2859   3.8118   4.4100   5.2067   5.6148
     7.0747   7.4262   7.7288   8.1891   9.3227  10.1162  10.4569  13.3526
    14.0840  14.6832  16.3479

     occupation numbers 
     1.0000   1.0000   1.0000   1.0000   1.0000   1.0000   1.0000   1.0000
     1.0000   1.0000   1.0000   1.0000   1.0000   1.0000   1.0000   1.0000
     1.0000   1.0002   1.0180   0.8560   0.0000   0.0000   0.0000   0.0000
     0.0000   0.0000   0.0000

          k = 0.0000-0.5774 0.1151 (  3256 PWs)   bands (ev):

   -87.1548 -50.4281 -50.3998 -50.3871 -25.3807 -10.6838  -9.7562  -9.4418
    -8.5916  -8.5734   1.7773   3.2765   3.8120   4.4271   5.2062   5.5745
     7.0840   7.4262   7.7402   8.1950   9.4625   9.9869  10.4583  13.2595
    14.0658  14.6793  16.6009

     occupation numbers 
     1.0000   1.0000   1.0000   1.0000   1.0000   1.0000   1.0000   1.0000
     1.0000   1.0000   1.0000   1.0000   1.0000   1.0000   1.0000   1.0000
     1.0000   1.0002   1.0203   0.8425   0.0000   0.0000   0.0000   0.0000
     0.0000   0.0000   0.0000

          k = 0.1250 0.2165 0.0000 (  3241 PWs)   bands (ev):

   -87.1576 -50.4045 -50.3946 -50.3800 -25.7781 -10.7039  -9.3651  -9.0902
    -8.8845  -8.2911   2.7231   3.0350   3.4539   4.6659   5.3355   6.4540
     7.3835   7.7756   7.8974   8.8626   9.6673  10.2415  10.8683  10.9611
    12.2525  14.2248  15.1319

     occupation numbers 
     1.0000   1.0000   1.0000   1.0000   1.0000   1.0000   1.0000   1.0000
     1.0000   1.0000   1.0000   1.0000   1.0000   1.0000   1.0000   1.0000
     1.0001   1.0288   1.0682   0.0008   0.0000   0.0000   0.0000   0.0000
     0.0000   0.0000   0.0000

          k = 0.1250 0.2165 0.1151 (  3233 PWs)   bands (ev):

   -87.1576 -50.4045 -50.3946 -50.3800 -25.7781 -10.7061  -9.3526  -9.0880
    -8.8975  -8.2911   2.7144   3.0519   3.4541   4.6797   5.3358   6.3914
     7.3819   7.7501   7.9832   8.8053   9.7794  10.1701  10.8438  10.9543
    12.3314  14.2246  15.1334

     occupation numbers 
     1.0000   1.0000   1.0000   1.0000   1.0000   1.0000   1.0000   1.0000
     1.0000   1.0000   1.0000   1.0000   1.0000   1.0000   1.0000   1.0000
     1.0001   1.0225   1.0832   0.0022   0.0000   0.0000   0.0000   0.0000
     0.0000   0.0000   0.0000

          k = 0.1250 0.3608 0.0000 (  3230 PWs)   bands (ev):

   -87.1559 -50.4116 -50.4017 -50.3865 -25.5511 -10.2382  -9.9138  -9.3450
    -8.7240  -8.6165   2.5616   3.0669   3.7180   4.0976   4.8755   6.2328
     7.4115   7.6886   7.9313   9.2693   9.5480  10.0861  10.2937  11.6385
    12.6984  14.2202  16.1589

     occupation numbers 
     1.0000   1.0000   1.0000   1.0000   1.0000   1.0000   1.0000   1.0000
     1.0000   1.0000   1.0000   1.0000   1.0000   1.0000   1.0000   1.0000
     1.0001   1.0114   1.0776   0.0000   0.0000   0.0000   0.0000   0.0000
     0.0000   0.0000   0.0000

          k = 0.1250 0.3608 0.1151 (  3231 PWs)   bands (ev):

   -87.1559 -50.4117 -50.4017 -50.3865 -25.5511 -10.2383  -9.9165  -9.3389
    -8.7274  -8.6165   2.5586   3.0650   3.7177   4.1096   4.8753   6.2311
     7.4124   7.6915   7.9302   9.1731   9.7284   9.9047  10.3562  11.6545
    12.7377  14.2235  16.1386

     occupation numbers 
     1.0000   1.0000   1.0000   1.0000   1.0000   1.0000   1.0000   1.0000
     1.0000   1.0000   1.0000   1.0000   1.0000   1.0000   1.0000   1.0000
     1.0001   1.0118   1.0773   0.0000   0.0000   0.0000   0.0000   0.0000
     0.0000   0.0000   0.0000

          k = 0.1250 0.5052 0.0000 (  3243 PWs)   bands (ev):

   -87.1548 -50.4237 -50.3997 -50.3913 -25.3819 -10.4917  -9.8042  -9.3943
    -8.8378  -8.5921   2.0559   3.0669   3.9143   4.4069   4.7652   5.6566
     7.1762   7.5207   7.8748   8.9115   9.5404  10.0873  10.2355  12.9804
    13.4541  13.7794  16.9442

     occupation numbers 
     1.0000   1.0000   1.0000   1.0000   1.0000   1.0000   1.0000   1.0000
     1.0000   1.0000   1.0000   1.0000   1.0000   1.0000   1.0000   1.0000
     1.0000   1.0010   1.0607   0.0003   0.0000   0.0000   0.0000   0.0000
     0.0000   0.0000   0.0000

          k = 0.1250 0.5052 0.1151 (  3244 PWs)   bands (ev):

   -87.1548 -50.4237 -50.3998 -50.3913 -25.3819 -10.4916  -9.8049  -9.3935
    -8.8379  -8.5923   2.0606   3.0627   3.9111   4.4181   4.7645   5.6310
     7.1820   7.5182   7.8848   8.9143   9.6726   9.8789  10.3217  12.9610
    13.4540  13.7706  17.0126

     occupation numbers 
     1.0000   1.0000   1.0000   1.0000   1.0000   1.0000   1.0000   1.0000
     1.0000   1.0000   1.0000   1.0000   1.0000   1.0000   1.0000   1.0000
     1.0000   1.0009   1.0641   0.0003   0.0000   0.0000   0.0000   0.0000
     0.0000   0.0000   0.0000

          k = 0.2500 0.4330 0.0000 (  3245 PWs)   bands (ev):

   -87.1548 -50.4177 -50.3999 -50.3971 -25.3831 -10.2152  -9.8396  -9.3588
    -9.1858  -8.5923   2.5779   2.7973   3.6902   4.3339   4.5791   5.7176
     7.2510   7.5924   8.0266   9.7402   9.7983  10.1583  10.4448  11.7255
    12.6990  13.3614  17.1180

     occupation numbers 
     1.0000   1.0000   1.0000   1.0000   1.0000   1.0000   1.0000   1.0000
     1.0000   1.0000   1.0000   1.0000   1.0000   1.0000   1.0000   1.0000
     1.0000   1.0031   1.0739   0.0000   0.0000   0.0000   0.0000   0.0000
     0.0000   0.0000   0.0000

          k = 0.2500 0.4330 0.1151 (  3234 PWs)   bands (ev):

   -87.1547 -50.4177 -50.3999 -50.3970 -25.3831 -10.2144  -9.8420  -9.3562
    -9.1865  -8.5926   2.5789   2.7987   3.6919   4.3310   4.5745   5.7217
     7.2485   7.5885   8.0451   9.5811   9.8358  10.3230  10.4103  11.6990
    12.7169  13.3438  17.1943

     occupation numbers 
     1.0000   1.0000   1.0000   1.0000   1.0000   1.0000   1.0000   1.0000
     1.0000   1.0000   1.0000   1.0000   1.0000   1.0000   1.0000   1.0000
     1.0000   1.0029   1.0647   0.0000   0.0000   0.0000   0.0000   0.0000
     0.0000   0.0000   0.0000

          k = 0.2500 0.5774 0.0000 (  3233 PWs)   bands (ev):

   -87.1543 -50.4182 -50.4036 -50.3989 -25.3115 -10.2387  -9.6887  -9.5019
    -9.3665  -8.5351   2.4464   2.8876   3.4837   4.4688   4.7929   5.2834
     7.0168   7.7605   7.9735   9.7971   9.8290  10.3446  10.5218  11.8926
    12.3769  13.7882  17.9331

     occupation numbers 
     1.0000   1.0000   1.0000   1.0000   1.0000   1.0000   1.0000   1.0000
     1.0000   1.0000   1.0000   1.0000   1.0000   1.0000   1.0000   1.0000
     1.0000   1.0249   1.0833   0.0000   0.0000   0.0000   0.0000   0.0000
     0.0000   0.0000   0.0000

          k = 0.2500 0.5774 0.1151 (  3249 PWs)   bands (ev):

   -87.1543 -50.4183 -50.4037 -50.3990 -25.3115 -10.2385  -9.6892  -9.5011
    -9.3670  -8.5351   2.4497   2.8887   3.4878   4.4623   4.7923   5.2740
     7.0182   7.7569   7.9866   9.7038   9.8182  10.4203  10.5528  11.9297
    12.3656  13.7742  17.9198

     occupation numbers 
     1.0000   1.0000   1.0000   1.0000   1.0000   1.0000   1.0000   1.0000
     1.0000   1.0000   1.0000   1.0000   1.0000   1.0000   1.0000   1.0000
     1.0000   1.0241   1.0830   0.0000   0.0000   0.0000   0.0000   0.0000
     0.0000   0.0000   0.0000

          k = 0.0000-0.1443 0.1151 (  3236 PWs)   bands (ev):

   -87.1588 -50.4065 -50.3819 -50.3759 -25.9309 -11.0076  -9.3776  -9.0048
    -8.4331  -8.0803   2.6516   2.9965   3.3176   5.5488   5.9538   6.0384
     7.2599   7.4798   7.8353   8.2601  10.0481  10.4994  10.5328  11.7957
    12.4606  12.9841  15.4171

     occupation numbers 
     1.0000   1.0000   1.0000   1.0000   1.0000   1.0000   1.0000   1.0000
     1.0000   1.0000   1.0000   1.0000   1.0000   1.0000   1.0000   1.0000
     1.0000   1.0005   1.0471   0.6755   0.0000   0.0000   0.0000   0.0000
     0.0000   0.0000   0.0000

          k = 0.0000-0.2887 0.1151 (  3236 PWs)   bands (ev):

   -87.1571 -50.4039 -50.4008 -50.3805 -25.7128 -10.5719  -9.4422  -9.3206
    -8.8516  -8.2918   2.6208   3.1443   3.5665   4.2271   5.4506   6.3937
     7.3645   7.7456   7.9259   8.7810   9.4394  10.3769  10.3940  11.7178
    12.3725  14.5161  15.2578

     occupation numbers 
     1.0000   1.0000   1.0000   1.0000   1.0000   1.0000   1.0000   1.0000
     1.0000   1.0000   1.0000   1.0000   1.0000   1.0000   1.0000   1.0000
     1.0000   1.0215   1.0763   0.0033   0.0000   0.0000   0.0000   0.0000
     0.0000   0.0000   0.0000

          k = 0.0000-0.4330 0.1151 (  3243 PWs)   bands (ev):

   -87.1554 -50.4201 -50.4008 -50.3852 -25.4812 -10.3384 -10.0369  -9.3673
    -8.6718  -8.4929   2.1541   3.1431   3.7671   4.2061   5.2039   5.9349
     7.2650   7.5860   7.7848   8.4813   9.3677  10.1122  10.4107  12.3462
    13.7147  14.8392  16.4234

     occupation numbers 
     1.0000   1.0000   1.0000   1.0000   1.0000   1.0000   1.0000   1.0000
     1.0000   1.0000   1.0000   1.0000   1.0000   1.0000   1.0000   1.0000
     1.0000   1.0028   1.0313   0.1596   0.0000   0.0000   0.0000   0.0000
     0.0000   0.0000   0.0000

          k =-0.1250-0.3608 0.1151 (  3231 PWs)   bands (ev):

   -87.1559 -50.4117 -50.4017 -50.3865 -25.5511 -10.2374  -9.9179  -9.3386
    -8.7271  -8.6166   2.5562   3.0639   3.7149   4.1145   4.8738   6.2462
     7.4068   7.6882   7.9313   9.2536   9.5436   9.9883  10.3884  11.6441
    12.6775  14.2319  16.1790

     occupation numbers 
     1.0000   1.0000   1.0000   1.0000   1.0000   1.0000   1.0000   1.0000
     1.0000   1.0000   1.0000   1.0000   1.0000   1.0000   1.0000   1.0000
     1.0001   1.0113   1.0776   0.0000   0.0000   0.0000   0.0000   0.0000
     0.0000   0.0000   0.0000

          k =-0.1250-0.5052 0.1151 (  3244 PWs)   bands (ev):

   -87.1548 -50.4237 -50.3998 -50.3913 -25.3819 -10.4914  -9.8055  -9.3934
    -8.8379  -8.5919   2.0586   3.0638   3.9141   4.4071   4.7640   5.6497
     7.1752   7.5166   7.8943   8.9336   9.5326  10.0105  10.3101  12.9047
    13.4619  13.7684  17.1346

     occupation numbers 
     1.0000   1.0000   1.0000   1.0000   1.0000   1.0000   1.0000   1.0000
     1.0000   1.0000   1.0000   1.0000   1.0000   1.0000   1.0000   1.0000
     1.0000   1.0009   1.0672   0.0002   0.0000   0.0000   0.0000   0.0000
     0.0000   0.0000   0.0000

 ------ SPIN DOWN ----------


          k = 0.0000 0.0000 0.0000 (  3279 PWs)   bands (ev):

   -86.7372 -50.0011 -50.0011 -49.9182 -26.0295 -11.1299  -9.4100  -9.0140
    -8.0006  -8.0006   2.5680   3.3310   3.3310   5.8212   6.6731   6.6731
     7.0359   7.3023   7.3023   8.6568  10.1524  10.7768  10.7768  12.3989
    12.3989  12.7534  15.9250

     occupation numbers 
     1.0000   1.0000   1.0000   1.0000   1.0000   1.0000   1.0000   1.0000
     1.0000   1.0000   1.0000   1.0000   1.0000   1.0000   1.0000   1.0000
     1.0000   1.0000   1.0000   0.0218   0.0000   0.0000   0.0000   0.0000
     0.0000   0.0000   0.0000

          k = 0.0000 0.0000 0.1151 (  3249 PWs)   bands (ev):

   -86.7371 -50.0009 -50.0009 -49.9181 -26.0295 -11.1331  -9.3758  -9.0467
    -8.0006  -8.0006   2.6229   3.3310   3.3310   5.5116   6.6730   6.6730
     7.3023   7.3023   7.4110   8.5787  10.2289  10.7777  10.7777  12.3982
    12.3983  12.4827  15.9251

     occupation numbers 
     1.0000   1.0000   1.0000   1.0000   1.0000   1.0000   1.0000   1.0000
     1.0000   1.0000   1.0000   1.0000   1.0000   1.0000   1.0000   1.0000
     1.0000   1.0000   1.0001   0.0582   0.0000   0.0000   0.0000   0.0000
     0.0000   0.0000   0.0000

          k = 0.0000 0.1443 0.0000 (  3241 PWs)   bands (ev):

   -86.7364 -50.0090 -50.0028 -49.9168 -25.9424 -10.9633  -9.3696  -8.9755
    -8.4465  -8.0918   2.7555   3.1187   3.4315   5.6440   6.1455   6.1968
     7.5602   7.6194   7.7461   8.7421  10.2126  10.5341  10.6746  11.7610
    12.5384  12.9576  15.6939

     occupation numbers 
     1.0000   1.0000   1.0000   1.0000   1.0000   1.0000   1.0000   1.0000
     1.0000   1.0000   1.0000   1.0000   1.0000   1.0000   1.0000   1.0000
     1.0019   1.0046   1.0216   0.0062   0.0000   0.0000   0.0000   0.0000
     0.0000   0.0000   0.0000

          k = 0.0000 0.1443 0.1151 (  3236 PWs)   bands (ev):

   -86.7364 -50.0090 -50.0029 -49.9168 -25.9424 -10.9662  -9.3417  -9.0020
    -8.4462  -8.0918   2.7922   3.1138   3.4315   5.6567   5.9853   6.1454
     7.5554   7.7460   7.9415   8.6173  10.1850  10.5999  10.6750  11.7573
    12.4711  12.9576  15.3903

     occupation numbers 
     1.0000   1.0000   1.0000   1.0000   1.0000   1.0000   1.0000   1.0000
     1.0000   1.0000   1.0000   1.0000   1.0000   1.0000   1.0000   1.0000
     1.0017   1.0216   1.0797   0.0365   0.0000   0.0000   0.0000   0.0000
     0.0000   0.0000   0.0000

          k = 0.0000 0.2887 0.0000 (  3230 PWs)   bands (ev):

   -86.7347 -50.0285 -50.0074 -49.9140 -25.7237 -10.5285  -9.4457  -9.3019
    -8.8449  -8.3037   2.7240   3.2630   3.6707   4.3039   5.5483   6.4885
     7.7030   8.0499   8.3167   8.8354   9.5911  10.4193  10.5413  11.6984
    12.3413  14.4931  15.8269

     occupation numbers 
     1.0000   1.0000   1.0000   1.0000   1.0000   1.0000   1.0000   1.0000
     1.0000   1.0000   1.0000   1.0000   1.0000   1.0000   1.0000   1.0000
     1.0135   1.0616   0.5194   0.0013   0.0000   0.0000   0.0000   0.0000
     0.0000   0.0000   0.0000

          k = 0.0000 0.2887 0.1151 (  3236 PWs)   bands (ev):

   -86.7347 -50.0284 -50.0075 -49.9140 -25.7237 -10.5305  -9.4489  -9.2861
    -8.8557  -8.3038   2.7132   3.2784   3.6707   4.3190   5.5481   6.4501
     7.6916   8.0498   8.4498   8.6434   9.7397  10.3245  10.5419  11.6959
    12.4608  14.4921  15.5516

     occupation numbers 
     1.0000   1.0000   1.0000   1.0000   1.0000   1.0000   1.0000   1.0000
     1.0000   1.0000   1.0000   1.0000   1.0000   1.0000   1.0000   1.0000
     1.0118   1.0618   0.2105   0.0261   0.0000   0.0000   0.0000   0.0000
     0.0000   0.0000   0.0000

          k = 0.0000 0.4330 0.0000 (  3242 PWs)   bands (ev):

   -86.7330 -50.0479 -50.0123 -49.9111 -25.4912 -10.3571  -9.9939  -9.3231
    -8.6763  -8.5054   2.2310   3.2086   3.8675   4.3456   5.2633   6.0126
     7.6688   7.9448   8.2096   8.4268   9.4584  10.2253  10.5700  12.4342
    13.6919  14.8334  16.1666

     occupation numbers 
     1.0000   1.0000   1.0000   1.0000   1.0000   1.0000   1.0000   1.0000
     1.0000   1.0000   1.0000   1.0000   1.0000   1.0000   1.0000   1.0000
     1.0089   1.0803   0.8074   0.2534   0.0000   0.0000   0.0000   0.0000
     0.0000   0.0000   0.0000

          k = 0.0000 0.4330 0.1151 (  3243 PWs)   bands (ev):

   -86.7330 -50.0480 -50.0123 -49.9111 -25.4912 -10.3566  -9.9959  -9.3197
    -8.6782  -8.5054   2.2348   3.1994   3.8676   4.3600   5.2629   5.9882
     7.6850   7.9447   8.1993   8.4123   9.7872   9.8636  10.5714  12.5269
    13.6684  14.8302  16.1375

     occupation numbers 
     1.0000   1.0000   1.0000   1.0000   1.0000   1.0000   1.0000   1.0000
     1.0000   1.0000   1.0000   1.0000   1.0000   1.0000   1.0000   1.0000
     1.0109   1.0803   0.8324   0.2831   0.0000   0.0000   0.0000   0.0000
     0.0000   0.0000   0.0000

          k = 0.0000-0.5774 0.0000 (  3254 PWs)   bands (ev):

   -86.7323 -50.0560 -50.0142 -49.9099 -25.3903 -10.7044  -9.7155  -9.3920
    -8.5977  -8.5861   1.8421   3.3267   3.9148   4.5602   5.2349   5.6914
     7.5551   7.8157   8.1075   8.1461   9.3520  10.2891  10.6179  13.3546
    14.0523  14.6748  16.3498

     occupation numbers 
     1.0000   1.0000   1.0000   1.0000   1.0000   1.0000   1.0000   1.0000
     1.0000   1.0000   1.0000   1.0000   1.0000   1.0000   1.0000   1.0000
     1.0017   1.0407   1.0049   0.9442   0.0000   0.0000   0.0000   0.0000
     0.0000   0.0000   0.0000

          k = 0.0000-0.5774 0.1151 (  3256 PWs)   bands (ev):

   -86.7323 -50.0561 -50.0142 -49.9099 -25.3903 -10.7043  -9.7157  -9.3921
    -8.5975  -8.5861   1.8467   3.3172   3.9150   4.5789   5.2345   5.6495
     7.5704   7.8157   8.1176   8.1491   9.4712  10.1774  10.6194  13.2589
    14.0365  14.6709  16.6029

     occupation numbers 
     1.0000   1.0000   1.0000   1.0000   1.0000   1.0000   1.0000   1.0000
     1.0000   1.0000   1.0000   1.0000   1.0000   1.0000   1.0000   1.0000
     1.0022   1.0407   0.9908   0.9386   0.0000   0.0000   0.0000   0.0000
     0.0000   0.0000   0.0000

          k = 0.1250 0.2165 0.0000 (  3241 PWs)   bands (ev):

   -86.7352 -50.0219 -50.0071 -49.9148 -25.7892 -10.6622  -9.3249  -9.1055
    -8.8852  -8.3032   2.8224   3.1719   3.5600   4.7484   5.4432   6.5254
     7.7340   8.0424   8.2769   8.9380   9.8352  10.4069  10.8642  10.9258
    12.2630  14.1991  15.1235

     occupation numbers 
     1.0000   1.0000   1.0000   1.0000   1.0000   1.0000   1.0000   1.0000
     1.0000   1.0000   1.0000   1.0000   1.0000   1.0000   1.0000   1.0000
     1.0190   1.0662   0.6293   0.0002   0.0000   0.0000   0.0000   0.0000
     0.0000   0.0000   0.0000

          k = 0.1250 0.2165 0.1151 (  3233 PWs)   bands (ev):

   -86.7352 -50.0219 -50.0070 -49.9148 -25.7892 -10.6645  -9.3115  -9.1027
    -8.8997  -8.3032   2.8128   3.1899   3.5604   4.7645   5.4435   6.4586
     7.7328   8.0068   8.4305   8.8336   9.9369  10.3149  10.8628  10.9154
    12.3471  14.1988  15.1249

     occupation numbers 
     1.0000   1.0000   1.0000   1.0000   1.0000   1.0000   1.0000   1.0000
     1.0000   1.0000   1.0000   1.0000   1.0000   1.0000   1.0000   1.0000
     1.0188   1.0801   0.2463   0.0013   0.0000   0.0000   0.0000   0.0000
     0.0000   0.0000   0.0000

          k = 0.1250 0.3608 0.0000 (  3230 PWs)   bands (ev):

   -86.7335 -50.0393 -50.0137 -49.9119 -25.5614 -10.1992  -9.9291  -9.2989
    -8.7290  -8.6297   2.6465   3.1397   3.8207   4.2243   4.9629   6.3118
     7.7914   8.1267   8.2827   9.2586   9.6596  10.2272  10.3375  11.6250
    12.6914  14.2090  16.1494

     occupation numbers 
     1.0000   1.0000   1.0000   1.0000   1.0000   1.0000   1.0000   1.0000
     1.0000   1.0000   1.0000   1.0000   1.0000   1.0000   1.0000   1.0000
     1.0332   0.9769   0.6133   0.0000   0.0000   0.0000   0.0000   0.0000
     0.0000   0.0000   0.0000

          k = 0.1250 0.3608 0.1151 (  3231 PWs)   bands (ev):

   -86.7335 -50.0393 -50.0137 -49.9119 -25.5614 -10.1989  -9.9320  -9.2924
    -8.7329  -8.6297   2.6436   3.1374   3.8199   4.2376   4.9627   6.3104
     7.7934   8.1316   8.2776   9.1854   9.8611   9.9533  10.4445  11.6408
    12.7367  14.2123  16.1330

     occupation numbers 
     1.0000   1.0000   1.0000   1.0000   1.0000   1.0000   1.0000   1.0000
     1.0000   1.0000   1.0000   1.0000   1.0000   1.0000   1.0000   1.0000
     1.0338   0.9691   0.6273   0.0000   0.0000   0.0000   0.0000   0.0000
     0.0000   0.0000   0.0000

          k = 0.1250 0.5052 0.0000 (  3243 PWs)   bands (ev):

   -86.7323 -50.0516 -50.0185 -49.9099 -25.3915 -10.5113  -9.7633  -9.3454
    -8.8517  -8.5979   2.1252   3.1264   4.0025   4.5297   4.8365   5.7385
     7.7000   7.9001   8.2068   8.8685   9.5954  10.2341  10.3839  12.9679
    13.4302  13.7696  16.9522

     occupation numbers 
     1.0000   1.0000   1.0000   1.0000   1.0000   1.0000   1.0000   1.0000
     1.0000   1.0000   1.0000   1.0000   1.0000   1.0000   1.0000   1.0000
     1.0130   1.0690   0.8144   0.0007   0.0000   0.0000   0.0000   0.0000
     0.0000   0.0000   0.0000

          k = 0.1250 0.5052 0.1151 (  3244 PWs)   bands (ev):

   -86.7323 -50.0516 -50.0185 -49.9099 -25.3915 -10.5112  -9.7640  -9.3445
    -8.8517  -8.5981   2.1300   3.1220   3.9992   4.5413   4.8364   5.7116
     7.7110   7.8968   8.2142   8.8707   9.6976  10.0650  10.4588  12.9485
    13.4301  13.7610  17.0228

     occupation numbers 
     1.0000   1.0000   1.0000   1.0000   1.0000   1.0000   1.0000   1.0000
     1.0000   1.0000   1.0000   1.0000   1.0000   1.0000   1.0000   1.0000
     1.0148   1.0680   0.7961   0.0007   0.0000   0.0000   0.0000   0.0000
     0.0000   0.0000   0.0000

          k = 0.2500 0.4330 0.0000 (  3245 PWs)   bands (ev):

   -86.7323 -50.0455 -50.0246 -49.9099 -25.3928 -10.2325  -9.7998  -9.3117
    -9.1996  -8.5981   2.6434   2.8723   3.7484   4.4475   4.6896   5.8012
     7.8128   7.9568   8.3295   9.8595   9.9637  10.1754  10.4315  11.7008
    12.6833  13.3625  17.1282

     occupation numbers 
     1.0000   1.0000   1.0000   1.0000   1.0000   1.0000   1.0000   1.0000
     1.0000   1.0000   1.0000   1.0000   1.0000   1.0000   1.0000   1.0000
     1.0397   1.0821   0.4847   0.0000   0.0000   0.0000   0.0000   0.0000
     0.0000   0.0000   0.0000

          k = 0.2500 0.4330 0.1151 (  3234 PWs)   bands (ev):

   -86.7323 -50.0455 -50.0245 -49.9099 -25.3928 -10.2319  -9.8020  -9.3086
    -9.2008  -8.5985   2.6445   2.8736   3.7502   4.4441   4.6842   5.8065
     7.8100   7.9530   8.3512   9.6796  10.0112  10.3378  10.4064  11.6746
    12.7013  13.3445  17.2050

     occupation numbers 
     1.0000   1.0000   1.0000   1.0000   1.0000   1.0000   1.0000   1.0000
     1.0000   1.0000   1.0000   1.0000   1.0000   1.0000   1.0000   1.0000
     1.0388   1.0816   0.4275   0.0000   0.0000   0.0000   0.0000   0.0000
     0.0000   0.0000   0.0000

          k = 0.2500 0.5774 0.0000 (  3233 PWs)   bands (ev):

   -86.7318 -50.0460 -50.0311 -49.9090 -25.3209 -10.2571  -9.6543  -9.5123
    -9.3169  -8.5410   2.5117   2.9538   3.5379   4.5623   4.9116   5.3594
     7.6117   8.1115   8.2974   9.9603   9.9852  10.3304  10.5089  11.8767
    12.3428  13.7917  17.9372

     occupation numbers 
     1.0000   1.0000   1.0000   1.0000   1.0000   1.0000   1.0000   1.0000
     1.0000   1.0000   1.0000   1.0000   1.0000   1.0000   1.0000   1.0000
     1.0041   0.9995   0.5726   0.0000   0.0000   0.0000   0.0000   0.0000
     0.0000   0.0000   0.0000

          k = 0.2500 0.5774 0.1151 (  3249 PWs)   bands (ev):

   -86.7318 -50.0461 -50.0312 -49.9091 -25.3209 -10.2570  -9.6548  -9.5116
    -9.3172  -8.5409   2.5150   2.9550   3.5421   4.5554   4.9111   5.3499
     7.6139   8.1072   8.3123   9.8308   9.9945  10.3890  10.5701  11.9154
    12.3325  13.7750  17.9231

     occupation numbers 
     1.0000   1.0000   1.0000   1.0000   1.0000   1.0000   1.0000   1.0000
     1.0000   1.0000   1.0000   1.0000   1.0000   1.0000   1.0000   1.0000
     1.0042   1.0054   0.5315   0.0000   0.0000   0.0000   0.0000   0.0000
     0.0000   0.0000   0.0000

          k = 0.0000-0.1443 0.1151 (  3236 PWs)   bands (ev):

   -86.7364 -50.0090 -50.0029 -49.9168 -25.9424 -10.9662  -9.3418  -9.0020
    -8.4461  -8.0918   2.7938   3.1113   3.4315   5.6328   6.0199   6.1455
     7.5404   7.7460   7.9417   8.6329  10.1829  10.5747  10.6751  11.7618
    12.4764  12.9571  15.4286

     occupation numbers 
     1.0000   1.0000   1.0000   1.0000   1.0000   1.0000   1.0000   1.0000
     1.0000   1.0000   1.0000   1.0000   1.0000   1.0000   1.0000   1.0000
     1.0014   1.0216   1.0797   0.0299   0.0000   0.0000   0.0000   0.0000
     0.0000   0.0000   0.0000

          k = 0.0000-0.2887 0.1151 (  3236 PWs)   bands (ev):

   -86.7347 -50.0284 -50.0075 -49.9140 -25.7237 -10.5303  -9.4512  -9.2845
    -8.8553  -8.3038   2.7150   3.2665   3.6706   4.3267   5.5483   6.4699
     7.6865   8.0498   8.3512   8.8132   9.5871  10.4058  10.5415  11.7050
    12.3655  14.4928  15.7581

     occupation numbers 
     1.0000   1.0000   1.0000   1.0000   1.0000   1.0000   1.0000   1.0000
     1.0000   1.0000   1.0000   1.0000   1.0000   1.0000   1.0000   1.0000
     1.0111   1.0617   0.4277   0.0019   0.0000   0.0000   0.0000   0.0000
     0.0000   0.0000   0.0000

          k = 0.0000-0.4330 0.1151 (  3243 PWs)   bands (ev):

   -86.7330 -50.0480 -50.0123 -49.9110 -25.4912 -10.3557  -9.9973  -9.3198
    -8.6775  -8.5054   2.2305   3.2007   3.8675   4.3521   5.2632   6.0218
     7.6754   7.9447   8.1881   8.4541   9.4599  10.2127  10.5709  12.3497
    13.6793  14.8310  16.4333

     occupation numbers 
     1.0000   1.0000   1.0000   1.0000   1.0000   1.0000   1.0000   1.0000
     1.0000   1.0000   1.0000   1.0000   1.0000   1.0000   1.0000   1.0000
     1.0097   1.0803   0.8583   0.2030   0.0000   0.0000   0.0000   0.0000
     0.0000   0.0000   0.0000

          k =-0.1250-0.3608 0.1151 (  3231 PWs)   bands (ev):

   -86.7335 -50.0393 -50.0137 -49.9119 -25.5614 -10.1979  -9.9335  -9.2922
    -8.7325  -8.6298   2.6408   3.1366   3.8174   4.2418   4.9611   6.3269
     7.7877   8.1292   8.2747   9.2519   9.6392  10.1070  10.4616  11.6319
    12.6729  14.2207  16.1653

     occupation numbers 
     1.0000   1.0000   1.0000   1.0000   1.0000   1.0000   1.0000   1.0000
     1.0000   1.0000   1.0000   1.0000   1.0000   1.0000   1.0000   1.0000
     1.0321   0.9730   0.6354   0.0000   0.0000   0.0000   0.0000   0.0000
     0.0000   0.0000   0.0000

          k =-0.1250-0.5052 0.1151 (  3244 PWs)   bands (ev):

   -86.7323 -50.0516 -50.0185 -49.9099 -25.3915 -10.5110  -9.7645  -9.3445
    -8.8518  -8.5978   2.1280   3.1231   4.0023   4.5295   4.8353   5.7321
     7.7016   7.8964   8.2263   8.8852   9.5871  10.1744  10.4437  12.8940
    13.4380  13.7562  17.1402

     occupation numbers 
     1.0000   1.0000   1.0000   1.0000   1.0000   1.0000   1.0000   1.0000
     1.0000   1.0000   1.0000   1.0000   1.0000   1.0000   1.0000   1.0000
     1.0132   1.0678   0.7656   0.0005   0.0000   0.0000   0.0000   0.0000
     0.0000   0.0000   0.0000

     the Fermi energy is     8.3618 ev

!    total energy              =    -572.92163755 Ry
     total all-electron energy =     -4292.032474 Ry
     estimated scf accuracy    <       0.00000002 Ry
     smearing contrib. (-TS)   =       0.00374814 Ry
     internal energy E=F+TS    =    -572.92538569 Ry

     The total energy is F=E-TS. E is the sum of the following terms:
     one-electron contribution =    -494.64797557 Ry
     hartree contribution      =     264.75614145 Ry
     xc contribution           =     -56.68311737 Ry
     ewald contribution        =    -124.15644880 Ry
     one-center paw contrib.   =    -162.19398541 Ry
      -> PAW hartree energy AE =     309.68255286 Ry
      -> PAW hartree energy PS =    -308.32828051 Ry
      -> PAW xc energy AE      =    -216.99570634 Ry
      -> PAW xc energy PS      =      53.44744858 Ry
      -> total E_H with PAW    =     266.11041381 Ry
      -> total E_XC with PAW   =    -220.23137514 Ry

     total magnetization       =     0.41 Bohr mag/cell
     absolute magnetization    =     0.47 Bohr mag/cell

     convergence has been achieved in  24 iterations

     Forces acting on atoms (cartesian axes, Ry/au):

     atom    1 type  1   force =     0.00000000    0.00000000    0.02462057
     atom    2 type  2   force =     0.00000000    0.00000000   -0.01453147
     atom    3 type  2   force =     0.00000000    0.00000000   -0.03423356
     atom    4 type  3   force =     0.00000000    0.00000000    0.02414445
     The non-local contrib.  to forces
     atom    1 type  1   force =     0.00000000    0.00000000    0.01310828
     atom    2 type  2   force =     0.00000000    0.00000000   -0.99842258
     atom    3 type  2   force =     0.00000000   -0.00000000    0.62763791
     atom    4 type  3   force =    -0.00000000   -0.00000000    0.02894420
     The ionic contribution  to forces
     atom    1 type  1   force =    -0.00000000   -0.00000000    8.83923246
     atom    2 type  2   force =     0.00000000   -0.00000000   33.93217093
     atom    3 type  2   force =    -0.00000000    0.00000000  -27.79558068
     atom    4 type  3   force =     0.00000000   -0.00000000  -14.97582270
     The local contribution  to forces
     atom    1 type  1   force =     0.00000000   -0.00000000   -8.82755694
     atom    2 type  2   force =     0.00000001   -0.00000001  -32.95709088
     atom    3 type  2   force =    -0.00000001    0.00000001   27.13878378
     atom    4 type  3   force =    -0.00000000    0.00000000   14.97110021
     The core correction contribution to forces
     atom    1 type  1   force =     0.00000000   -0.00000000   -0.00027102
     atom    2 type  2   force =    -0.00000000    0.00000000    0.00866144
     atom    3 type  2   force =     0.00000000   -0.00000000   -0.00500601
     atom    4 type  3   force =     0.00000000   -0.00000000   -0.00001456
     The Hubbard contrib.    to forces
     atom    1 type  1   force =     0.00000000    0.00000000    0.00000000
     atom    2 type  2   force =     0.00000000    0.00000000    0.00000000
     atom    3 type  2   force =     0.00000000    0.00000000    0.00000000
     atom    4 type  3   force =     0.00000000    0.00000000    0.00000000
     The SCF correction term to forces
     atom    1 type  1   force =    -0.00000000    0.00000000    0.00010047
     atom    2 type  2   force =     0.00000000   -0.00000000    0.00014230
     atom    3 type  2   force =     0.00000000   -0.00000000   -0.00007589
     atom    4 type  3   force =    -0.00000000    0.00000000   -0.00007003

     Total force =     0.050717     Total SCF correction =     0.000203

     Writing all to output data dir ./out/pw.save/ :
     XML data file, charge density, pseudopotentials, collected wavefunctions
 
     init_run     :     14.54s CPU      3.65s WALL (       1 calls)
     electrons    :    151.48s CPU     37.68s WALL (       1 calls)
     forces       :      0.61s CPU      0.56s WALL (       1 calls)

     Called by init_run:
     wfcinit      :      0.27s CPU      0.35s WALL (       1 calls)
     wfcinit:atom :      0.05s CPU      0.05s WALL (      50 calls)
     wfcinit:wfcr :      0.16s CPU      0.21s WALL (      50 calls)
     potinit      :     13.64s CPU      2.60s WALL (       1 calls)
     hinit0       :      0.53s CPU      0.52s WALL (       1 calls)

     Called by electrons:
     c_bands      :     14.84s CPU     14.90s WALL (      24 calls)
     sum_band     :      3.20s CPU      3.16s WALL (      24 calls)
     v_of_rho     :      0.41s CPU      0.21s WALL (      25 calls)
     v_h          :      0.28s CPU      0.04s WALL (      25 calls)
     v_xc         :      0.13s CPU      0.17s WALL (      26 calls)
     newd         :      0.79s CPU      0.67s WALL (      25 calls)
                                        0.67s GPU  (      25 calls)
     PAW_pot      :    136.31s CPU     18.72s WALL (      25 calls)
     mix_rho      :      0.75s CPU      0.74s WALL (      24 calls)

     Called by c_bands:
     init_us_2    :      1.01s CPU      0.98s WALL (    2500 calls)
     cegterg      :     12.81s CPU     12.92s WALL (    1200 calls)

     Called by sum_band:
     sum_band:wei :      0.03s CPU      0.03s WALL (      24 calls)
                                        0.03s GPU  (      24 calls)
     sum_band:loo :      1.71s CPU      1.67s WALL (      24 calls)
                                        1.66s GPU  (      24 calls)
     sum_band:buf :      0.22s CPU      0.24s WALL (    1200 calls)
                                        0.23s GPU  (    1200 calls)
     sum_band:ini :      0.48s CPU      0.48s WALL (    1200 calls)
                                        0.47s GPU  (    1200 calls)
     sum_band:cal :      0.05s CPU      0.07s WALL (    1200 calls)
                                        0.06s GPU  (    1200 calls)
     sum_band:bec :      0.26s CPU      0.28s WALL (    1200 calls)
                                        0.27s GPU  (    1200 calls)
     addusdens    :      1.27s CPU      1.28s WALL (      24 calls)
                                        1.28s GPU  (      24 calls)
     addusd:skk   :      0.00s CPU      0.00s WALL (      72 calls)
                                        0.00s GPU  (      72 calls)

     Called by *egterg:
     cdiaghg      :      4.38s CPU      4.53s WALL (    5194 calls)
                                        4.47s GPU  (    5194 calls)
     cegterg:over :      1.02s CPU      1.07s WALL (    3994 calls)
     cegterg:upda :      0.73s CPU      0.73s WALL (    3994 calls)
     cegterg:last :      0.13s CPU      0.13s WALL (    2174 calls)
     h_psi        :      4.73s CPU      4.81s WALL (    5244 calls)
                                        4.75s GPU  (    5244 calls)
     s_psi        :      0.79s CPU      0.84s WALL (    5244 calls)
     g_psi        :      0.02s CPU      0.10s WALL (    3994 calls)
                                        0.05s GPU  (    3994 calls)

     Called by h_psi:
     h_psi:calbec :      0.16s CPU      0.30s WALL (    5244 calls)
                                        0.23s GPU  (    5244 calls)
     vloc_psi     :      3.29s CPU      3.28s WALL (    5244 calls)
                                        3.21s GPU  (    5244 calls)
     add_vuspsi   :      0.72s CPU      0.87s WALL (    5244 calls)
                                        0.80s GPU  (    5244 calls)

     General routines
     calbec       :      0.18s CPU      0.21s WALL (    6644 calls)
     fft          :      3.83s CPU      0.98s WALL (     638 calls)
                                        0.02s GPU  (     588 calls)
     ffts         :      4.69s CPU      0.84s WALL (     919 calls)
                                        0.02s GPU  (     869 calls)
     fftw         :      0.31s CPU      1.12s WALL (   17788 calls)
                                        0.92s GPU  (   17788 calls)
     interpolate  :      8.70s CPU      1.80s WALL (      50 calls)
 
     Parallel routines

     PAW routines
     PAW_pot      :    136.31s CPU     18.72s WALL (      25 calls)
     PAW_symme    :      0.01s CPU      0.01s WALL (      49 calls)
 
     PWSCF        :   2m47.63s CPU     42.53s WALL

 
   This run was terminated on:   5:38:40  12Jul2026            

=------------------------------------------------------------------------------=
   JOB DONE.
=------------------------------------------------------------------------------=
Warning: ieee_divide_by_zero is signaling
Warning: ieee_inexact is signaling
FORTRAN STOP
