
     Program PWSCF v.7.3.1 starts on 12Jul2026 at  3:51:38 

     This program is part of the open-source Quantum ESPRESSO suite
     for quantum simulation of materials; please cite
         "P. Giannozzi et al., J. Phys.:Condens. Matter 21 395502 (2009);
         "P. Giannozzi et al., J. Phys.:Condens. Matter 29 465901 (2017);
         "P. Giannozzi et al., J. Chem. Phys. 152 154105 (2020);
          URL http://www.quantum-espresso.org", 
     in publications or presentations arising from this work. More details at
     http://www.quantum-espresso.org/quote

     Parallel version (MPI & OpenMP), running on      14 processor cores
     Number of MPI processes:                 1
     Threads/MPI process:                    14

     MPI processes distributed on     1 nodes
     842233 MiB available memory on the printing compute node when the environment starts
 
     Reading input from pw.in

     Current dimensions of program PWSCF are:
     Max number of different atomic species (ntypx) = 10
     Max number of k-points (npk) =  40000
     Max angular momentum in pseudopotentials (lmaxx) =  4
     file Co.pbe-spn-kjpaw_psl.0.3.1.UPF: wavefunction(s)  3P 3D renormalized
     file O.pbe-n-kjpaw_psl.1.0.0.UPF: wavefunction(s)  2S 2P renormalized
     file Na.pbe-spn-kjpaw_psl.1.0.0.UPF: wavefunction(s)  2P renormalized
 
     Subspace diagonalization in iterative solution of the eigenvalue problem:
     a serial algorithm will be used

 
     G-vector sticks info
     --------------------
     sticks:   dense  smooth     PW     G-vecs:    dense   smooth      PW
     Sum         979     499    151                72573    25753    4225
 
     Using Slab Decomposition
 


     bravais-lattice index     =            4
     lattice parameter (alat)  =       5.4575  a.u.
     unit-cell volume          =     409.4500 (a.u.)^3
     number of atoms/cell      =            4
     number of atomic types    =            3
     number of electrons       =        38.00
     number of Kohn-Sham states=           27
     kinetic-energy cutoff     =      60.0000  Ry
     charge density cutoff     =     480.0000  Ry
     scf convergence threshold =      1.0E-07
     mixing beta               =       0.3000
     number of iterations used =            8  local-TF  mixing
     Exchange-correlation= SLA  PW   PBX  PBC
                           (   1   4   3   4   0   0   0)

     GPU acceleration is ACTIVE.  1 visible GPUs per MPI rank
     GPU-aware MPI enabled


     GPU used by master process:

        Device Number: 0
        Device name: NVIDIA A100-SXM4-80GB
        Compute capability : 80
        Ratio of single to double precision performance  : 2
        Memory Clock Rate (KHz): 1593000
        Memory Bus Width (bits): 5120
        Peak Memory Bandwidth (GB/s): ******

     celldm(1)=   5.457529  celldm(2)=   0.000000  celldm(3)=   2.908587
     celldm(4)=   0.000000  celldm(5)=   0.000000  celldm(6)=   0.000000

     crystal axes: (cart. coord. in units of alat)
               a(1) = (   1.000000   0.000000   0.000000 )  
               a(2) = (  -0.500000   0.866025   0.000000 )  
               a(3) = (   0.000000   0.000000   2.908587 )  

     reciprocal axes: (cart. coord. in units 2 pi/alat)
               b(1) = (  1.000000  0.577350 -0.000000 )  
               b(2) = (  0.000000  1.154701  0.000000 )  
               b(3) = (  0.000000 -0.000000  0.343810 )  


     PseudoPot. # 1 for Co read from file:
     ../../pseudo/Co.pbe-spn-kjpaw_psl.0.3.1.UPF
     MD5 check sum: 3c0a43779828c046024e4f3be63f8e67
     Pseudo is Projector augmented-wave + core cor, Zval = 17.0
     Generated using &quot;atomic&quot; code by A. Dal Corso  v.6.2.2
     Shape of augmentation charge: PSQ
     Using radial grid of 1193 points,  6 beta functions with: 
                l(1) =   0
                l(2) =   0
                l(3) =   1
                l(4) =   1
                l(5) =   2
                l(6) =   2
     Q(r) pseudized with 0 coefficients 


     PseudoPot. # 2 for O  read from file:
     ../../pseudo/O.pbe-n-kjpaw_psl.1.0.0.UPF
     MD5 check sum: e99d9cef9b487d1ca56f5b95ecd0fd7a
     Pseudo is Projector augmented-wave + core cor, Zval =  6.0
     Generated using &quot;atomic&quot; code by A. Dal Corso  v.6.3
     Shape of augmentation charge: PSQ
     Using radial grid of 1095 points,  4 beta functions with: 
                l(1) =   0
                l(2) =   0
                l(3) =   1
                l(4) =   1
     Q(r) pseudized with 0 coefficients 


     PseudoPot. # 3 for Na read from file:
     ../../pseudo/Na.pbe-spn-kjpaw_psl.1.0.0.UPF
     MD5 check sum: 05b4deb74e3932c23ab016979dc8b5d4
     Pseudo is Projector augmented-wave + core cor, Zval =  9.0
     Generated using &quot;atomic&quot; code by A. Dal Corso  v.6.3
     Shape of augmentation charge: PSQ
     Using radial grid of 1121 points,  4 beta functions with: 
                l(1) =   0
                l(2) =   0
                l(3) =   1
                l(4) =   1
     Q(r) pseudized with 0 coefficients 


     atomic species   valence    mass     pseudopotential
     Co               17.00    58.93300     Co( 1.00)
     O                 6.00    15.99900     O ( 1.00)
     Na                9.00    22.98977     Na( 1.00)

     Starting magnetic structure 
     atomic species   magnetization
     Co              0.300
     O               0.000
     Na              0.000

      6 Sym. Ops. (no inversion) found


                                    s                        frac. trans.

      isym =  1     identity                                     

 cryst.   s( 1) = (     1          0          0      )
                  (     0          1          0      )
                  (     0          0          1      )

 cart.    s( 1) = (  1.0000000  0.0000000  0.0000000 )
                  (  0.0000000  1.0000000  0.0000000 )
                  (  0.0000000  0.0000000  1.0000000 )


      isym =  2     120 deg rotation - cryst. axis [0,0,1]       

 cryst.   s( 2) = (     0          1          0      )
                  (    -1         -1          0      )
                  (     0          0          1      )

 cart.    s( 2) = ( -0.5000000 -0.8660254  0.0000000 )
                  (  0.8660254 -0.5000000  0.0000000 )
                  (  0.0000000  0.0000000  1.0000000 )


      isym =  3     120 deg rotation - cryst. axis [0,0,-1]      

 cryst.   s( 3) = (    -1         -1          0      )
                  (     1          0          0      )
                  (     0          0          1      )

 cart.    s( 3) = ( -0.5000000  0.8660254  0.0000000 )
                  ( -0.8660254 -0.5000000  0.0000000 )
                  (  0.0000000  0.0000000  1.0000000 )


      isym =  4     inv. 180 deg rotation - cart. axis [1,0,0]   

 cryst.   s( 4) = (    -1          0          0      )
                  (     1          1          0      )
                  (     0          0          1      )

 cart.    s( 4) = ( -1.0000000  0.0000000  0.0000000 )
                  (  0.0000000  1.0000000  0.0000000 )
                  (  0.0000000  0.0000000  1.0000000 )


      isym =  5     inv. 180 deg rotation - cryst. axis [0,1,0]  

 cryst.   s( 5) = (     1          1          0      )
                  (     0         -1          0      )
                  (     0          0          1      )

 cart.    s( 5) = (  0.5000000  0.8660254  0.0000000 )
                  (  0.8660254 -0.5000000  0.0000000 )
                  (  0.0000000  0.0000000  1.0000000 )


      isym =  6     inv. 180 deg rotation - cryst. axis [1,1,0]  

 cryst.   s( 6) = (     0         -1          0      )
                  (    -1          0          0      )
                  (     0          0          1      )

 cart.    s( 6) = (  0.5000000 -0.8660254  0.0000000 )
                  ( -0.8660254 -0.5000000  0.0000000 )
                  (  0.0000000  0.0000000  1.0000000 )


     point group C_3v (3m)  
     there are  3 classes
     the character table:

       E     2C3   3s_v 
A_1    1.00  1.00  1.00
A_2    1.00  1.00 -1.00
E      2.00 -1.00  0.00

     the symmetry operations in each class and the name of the first element:

     E        1
          identity                                               
     2C3      2    3
          120 deg rotation - cryst. axis [0,0,1]                 
     3s_v     4    5    6
          inv. 180 deg rotation - cart. axis [1,0,0]             

   Cartesian axes

     site n.     atom                  positions (alat units)
         1        Co     tau(   1) = (   0.0000000   0.0000000   0.0000000  )
         2        O      tau(   2) = (  -0.0000000   0.5773503   0.3324100  )
         3        O      tau(   3) = (   0.5000000   0.2886751   2.5761773  )
         4        Na     tau(   4) = (   0.0000000   0.0000000   1.8005540  )

   Crystallographic axes

     site n.     atom                  positions (cryst. coord.)
         1        Co     tau(   1) = (  0.0000000  0.0000000  0.0000000  )
         2        O      tau(   2) = (  0.3333333  0.6666667  0.1142857  )
         3        O      tau(   3) = (  0.6666667  0.3333333  0.8857143  )
         4        Na     tau(   4) = (  0.0000000  0.0000000  0.6190476  )

     number of k points=    25  Marzari-Vanderbilt smearing, width (Ry)=  0.0200
                       cart. coord. in units 2pi/alat
        k(    1) = (   0.0000000   0.0000000   0.0000000), wk =   0.0052083
        k(    2) = (   0.0000000   0.0000000   0.1146032), wk =   0.0104167
        k(    3) = (   0.0000000   0.1443376   0.0000000), wk =   0.0312500
        k(    4) = (   0.0000000   0.1443376   0.1146032), wk =   0.0312500
        k(    5) = (   0.0000000   0.2886751   0.0000000), wk =   0.0312500
        k(    6) = (   0.0000000   0.2886751   0.1146032), wk =   0.0312500
        k(    7) = (   0.0000000   0.4330127   0.0000000), wk =   0.0312500
        k(    8) = (   0.0000000   0.4330127   0.1146032), wk =   0.0312500
        k(    9) = (   0.0000000  -0.5773503   0.0000000), wk =   0.0156250
        k(   10) = (   0.0000000  -0.5773503   0.1146032), wk =   0.0312500
        k(   11) = (   0.1250000   0.2165064   0.0000000), wk =   0.0312500
        k(   12) = (   0.1250000   0.2165064   0.1146032), wk =   0.0625000
        k(   13) = (   0.1250000   0.3608439   0.0000000), wk =   0.0625000
        k(   14) = (   0.1250000   0.3608439   0.1146032), wk =   0.0625000
        k(   15) = (   0.1250000   0.5051815   0.0000000), wk =   0.0625000
        k(   16) = (   0.1250000   0.5051815   0.1146032), wk =   0.0625000
        k(   17) = (   0.2500000   0.4330127   0.0000000), wk =   0.0312500
        k(   18) = (   0.2500000   0.4330127   0.1146032), wk =   0.0625000
        k(   19) = (   0.2500000   0.5773503   0.0000000), wk =   0.0312500
        k(   20) = (   0.2500000   0.5773503   0.1146032), wk =   0.0625000
        k(   21) = (   0.0000000  -0.1443376   0.1146032), wk =   0.0312500
        k(   22) = (   0.0000000  -0.2886751   0.1146032), wk =   0.0312500
        k(   23) = (   0.0000000  -0.4330127   0.1146032), wk =   0.0312500
        k(   24) = (  -0.1250000  -0.3608439   0.1146032), wk =   0.0625000
        k(   25) = (  -0.1250000  -0.5051815   0.1146032), wk =   0.0625000

                       cryst. coord.
        k(    1) = (   0.0000000   0.0000000   0.0000000), wk =   0.0052083
        k(    2) = (   0.0000000   0.0000000   0.3333333), wk =   0.0104167
        k(    3) = (   0.0000000   0.1250000   0.0000000), wk =   0.0312500
        k(    4) = (   0.0000000   0.1250000   0.3333333), wk =   0.0312500
        k(    5) = (   0.0000000   0.2500000   0.0000000), wk =   0.0312500
        k(    6) = (   0.0000000   0.2500000   0.3333333), wk =   0.0312500
        k(    7) = (   0.0000000   0.3750000   0.0000000), wk =   0.0312500
        k(    8) = (   0.0000000   0.3750000   0.3333333), wk =   0.0312500
        k(    9) = (   0.0000000  -0.5000000   0.0000000), wk =   0.0156250
        k(   10) = (   0.0000000  -0.5000000   0.3333333), wk =   0.0312500
        k(   11) = (   0.1250000   0.1250000   0.0000000), wk =   0.0312500
        k(   12) = (   0.1250000   0.1250000   0.3333333), wk =   0.0625000
        k(   13) = (   0.1250000   0.2500000   0.0000000), wk =   0.0625000
        k(   14) = (   0.1250000   0.2500000   0.3333333), wk =   0.0625000
        k(   15) = (   0.1250000   0.3750000   0.0000000), wk =   0.0625000
        k(   16) = (   0.1250000   0.3750000   0.3333333), wk =   0.0625000
        k(   17) = (   0.2500000   0.2500000   0.0000000), wk =   0.0312500
        k(   18) = (   0.2500000   0.2500000   0.3333333), wk =   0.0625000
        k(   19) = (   0.2500000   0.3750000   0.0000000), wk =   0.0312500
        k(   20) = (   0.2500000   0.3750000   0.3333333), wk =   0.0625000
        k(   21) = (   0.0000000  -0.1250000   0.3333333), wk =   0.0312500
        k(   22) = (   0.0000000  -0.2500000   0.3333333), wk =   0.0312500
        k(   23) = (   0.0000000  -0.3750000   0.3333333), wk =   0.0312500
        k(   24) = (  -0.1250000  -0.2500000   0.3333333), wk =   0.0625000
        k(   25) = (  -0.1250000  -0.3750000   0.3333333), wk =   0.0625000

     Dense  grid:    72573 G-vectors     FFT dimensions: (  40,  40, 120)

     Smooth grid:    25753 G-vectors     FFT dimensions: (  27,  27,  80)

     Dynamical RAM for                 wfc:       1.32 MB

     Dynamical RAM for     wfc (w. buffer):      67.51 MB

     Dynamical RAM for           str. fact:       3.32 MB

     Dynamical RAM for           local pot:       0.00 MB

     Dynamical RAM for          nlocal pot:       2.06 MB

     Dynamical RAM for                qrad:       5.27 MB

     Dynamical RAM for          rho,v,vnew:      15.43 MB

     Dynamical RAM for               rhoin:       5.14 MB

     Dynamical RAM for            rho*nmix:      35.44 MB

     Dynamical RAM for           G-vectors:       4.35 MB

     Dynamical RAM for          h,s,v(r/c):       0.13 MB

     Dynamical RAM for          <psi|beta>:       0.02 MB

     Dynamical RAM for                 psi:       2.65 MB

     Dynamical RAM for                hpsi:       2.65 MB

     Dynamical RAM for                spsi:       2.65 MB

     Dynamical RAM for      wfcinit/wfcrot:       2.66 MB

     Dynamical RAM for           addusdens:     209.29 MB

     Dynamical RAM for          addusforce:     211.52 MB

     Estimated static dynamical RAM per process >     116.31 MB

     Estimated max dynamical RAM per process >     363.27 MB

     Check: negative core charge=   -0.000007
     Generating pointlists ...
     new r_m :   0.2748 (alat units)  1.4998 (a.u.) for type    1
     new r_m :   0.2748 (alat units)  1.4998 (a.u.) for type    2
     new r_m :   0.3989 (alat units)  2.1767 (a.u.) for type    3

     Initial potential from superposition of free atoms

     starting charge      37.9934, renormalised to      38.0000
     Starting wfcs are   23 randomized atomic wfcs +    4 random wfcs
     Checking if some PAW data can be deallocated... 

     total cpu time spent up to now is        3.8 secs

     Self-consistent Calculation
[tb_dev] Currently allocated     6.54E-01 Mbytes, locked:    0 /   6
[tb_pin] Currently allocated     0.00E+00 Mbytes, locked:    0 /   0

     iteration #  1     ecut=    60.00 Ry     beta= 0.30
     Davidson diagonalization with overlap

---- Real-time Memory Report at c_bands before calling an iterative solver
           688 MiB given to the printing process from OS
             0 MiB allocation reported by mallinfo(arena+hblkhd)
        841655 MiB available memory on the node where the printing process lives
     GPU memory used/free/total (MiB): 1056 / 80094 / 81151
------------------
     ethr =  1.00E-02,  avg # of iterations = 10.0

     total cpu time spent up to now is        6.0 secs

     total energy              =    -569.03655473 Ry
     estimated scf accuracy    <       1.73637024 Ry

     total magnetization       =     4.07 Bohr mag/cell
     absolute magnetization    =     4.07 Bohr mag/cell
[tb_dev] Currently allocated     3.05E-05 Mbytes, locked:    0 /   2
[tb_pin] Currently allocated     0.00E+00 Mbytes, locked:    0 /   0

     iteration #  2     ecut=    60.00 Ry     beta= 0.30
     Davidson diagonalization with overlap

---- Real-time Memory Report at c_bands before calling an iterative solver
           733 MiB given to the printing process from OS
             0 MiB allocation reported by mallinfo(arena+hblkhd)
        841207 MiB available memory on the node where the printing process lives
     GPU memory used/free/total (MiB): 1074 / 80076 / 81151
------------------
     ethr =  4.57E-03,  avg # of iterations =  1.9

     total cpu time spent up to now is        7.1 secs

     total energy              =    -569.03865262 Ry
     estimated scf accuracy    <       0.73535484 Ry

     total magnetization       =     3.83 Bohr mag/cell
     absolute magnetization    =     3.83 Bohr mag/cell
[tb_dev] Currently allocated     3.05E-05 Mbytes, locked:    0 /   2
[tb_pin] Currently allocated     0.00E+00 Mbytes, locked:    0 /   0

     iteration #  3     ecut=    60.00 Ry     beta= 0.30
     Davidson diagonalization with overlap

---- Real-time Memory Report at c_bands before calling an iterative solver
           737 MiB given to the printing process from OS
             0 MiB allocation reported by mallinfo(arena+hblkhd)
        841111 MiB available memory on the node where the printing process lives
     GPU memory used/free/total (MiB): 1074 / 80076 / 81151
------------------
     ethr =  1.94E-03,  avg # of iterations =  2.2

     total cpu time spent up to now is        8.2 secs

     total energy              =    -569.13113429 Ry
     estimated scf accuracy    <       0.93864878 Ry

     total magnetization       =     1.73 Bohr mag/cell
     absolute magnetization    =     1.81 Bohr mag/cell
[tb_dev] Currently allocated     3.05E-05 Mbytes, locked:    0 /   2
[tb_pin] Currently allocated     0.00E+00 Mbytes, locked:    0 /   0

     iteration #  4     ecut=    60.00 Ry     beta= 0.30
     Davidson diagonalization with overlap

---- Real-time Memory Report at c_bands before calling an iterative solver
           738 MiB given to the printing process from OS
             0 MiB allocation reported by mallinfo(arena+hblkhd)
        841094 MiB available memory on the node where the printing process lives
     GPU memory used/free/total (MiB): 1074 / 80076 / 81151
------------------
     ethr =  1.94E-03,  avg # of iterations =  1.1

     total cpu time spent up to now is        9.4 secs

     total energy              =    -569.13127475 Ry
     estimated scf accuracy    <       0.46910662 Ry

     total magnetization       =     2.36 Bohr mag/cell
     absolute magnetization    =     2.38 Bohr mag/cell
[tb_dev] Currently allocated     3.05E-05 Mbytes, locked:    0 /   2
[tb_pin] Currently allocated     0.00E+00 Mbytes, locked:    0 /   0

     iteration #  5     ecut=    60.00 Ry     beta= 0.30
     Davidson diagonalization with overlap

---- Real-time Memory Report at c_bands before calling an iterative solver
           739 MiB given to the printing process from OS
             0 MiB allocation reported by mallinfo(arena+hblkhd)
        841072 MiB available memory on the node where the printing process lives
     GPU memory used/free/total (MiB): 1074 / 80076 / 81151
------------------
     ethr =  1.23E-03,  avg # of iterations =  1.9

     total cpu time spent up to now is       10.5 secs

     total energy              =    -569.11964103 Ry
     estimated scf accuracy    <       0.22028955 Ry

     total magnetization       =     1.44 Bohr mag/cell
     absolute magnetization    =     1.64 Bohr mag/cell
[tb_dev] Currently allocated     3.05E-05 Mbytes, locked:    0 /   2
[tb_pin] Currently allocated     0.00E+00 Mbytes, locked:    0 /   0

     iteration #  6     ecut=    60.00 Ry     beta= 0.30
     Davidson diagonalization with overlap

---- Real-time Memory Report at c_bands before calling an iterative solver
           741 MiB given to the printing process from OS
             0 MiB allocation reported by mallinfo(arena+hblkhd)
        841121 MiB available memory on the node where the printing process lives
     GPU memory used/free/total (MiB): 1074 / 80076 / 81151
------------------
     ethr =  5.80E-04,  avg # of iterations =  2.8

     total cpu time spent up to now is       11.7 secs

     total energy              =    -569.13353924 Ry
     estimated scf accuracy    <       1.06055961 Ry

     total magnetization       =     0.37 Bohr mag/cell
     absolute magnetization    =     0.93 Bohr mag/cell
[tb_dev] Currently allocated     3.05E-05 Mbytes, locked:    0 /   2
[tb_pin] Currently allocated     0.00E+00 Mbytes, locked:    0 /   0

     iteration #  7     ecut=    60.00 Ry     beta= 0.30
     Davidson diagonalization with overlap

---- Real-time Memory Report at c_bands before calling an iterative solver
           742 MiB given to the printing process from OS
             0 MiB allocation reported by mallinfo(arena+hblkhd)
        841128 MiB available memory on the node where the printing process lives
     GPU memory used/free/total (MiB): 1074 / 80076 / 81151
------------------
     ethr =  5.80E-04,  avg # of iterations =  1.7

     total cpu time spent up to now is       12.8 secs

     total energy              =    -569.22505910 Ry
     estimated scf accuracy    <       0.02986067 Ry

     total magnetization       =     0.60 Bohr mag/cell
     absolute magnetization    =     0.85 Bohr mag/cell
[tb_dev] Currently allocated     3.05E-05 Mbytes, locked:    0 /   2
[tb_pin] Currently allocated     0.00E+00 Mbytes, locked:    0 /   0

     iteration #  8     ecut=    60.00 Ry     beta= 0.30
     Davidson diagonalization with overlap

---- Real-time Memory Report at c_bands before calling an iterative solver
           744 MiB given to the printing process from OS
             0 MiB allocation reported by mallinfo(arena+hblkhd)
        841135 MiB available memory on the node where the printing process lives
     GPU memory used/free/total (MiB): 1074 / 80076 / 81151
------------------
     ethr =  7.86E-05,  avg # of iterations =  8.6

     total cpu time spent up to now is       14.8 secs

     total energy              =    -569.23054861 Ry
     estimated scf accuracy    <       0.00610427 Ry

     total magnetization       =     0.53 Bohr mag/cell
     absolute magnetization    =     0.68 Bohr mag/cell
[tb_dev] Currently allocated     3.05E-05 Mbytes, locked:    0 /   2
[tb_pin] Currently allocated     0.00E+00 Mbytes, locked:    0 /   0

     iteration #  9     ecut=    60.00 Ry     beta= 0.30
     Davidson diagonalization with overlap

---- Real-time Memory Report at c_bands before calling an iterative solver
           746 MiB given to the printing process from OS
             0 MiB allocation reported by mallinfo(arena+hblkhd)
        841107 MiB available memory on the node where the printing process lives
     GPU memory used/free/total (MiB): 1074 / 80076 / 81151
------------------
     ethr =  1.61E-05,  avg # of iterations =  5.5

     total cpu time spent up to now is       16.4 secs

     total energy              =    -569.23210902 Ry
     estimated scf accuracy    <       0.00434707 Ry

     total magnetization       =     0.52 Bohr mag/cell
     absolute magnetization    =     0.62 Bohr mag/cell
[tb_dev] Currently allocated     3.05E-05 Mbytes, locked:    0 /   2
[tb_pin] Currently allocated     0.00E+00 Mbytes, locked:    0 /   0

     iteration # 10     ecut=    60.00 Ry     beta= 0.30
     Davidson diagonalization with overlap

---- Real-time Memory Report at c_bands before calling an iterative solver
           747 MiB given to the printing process from OS
             0 MiB allocation reported by mallinfo(arena+hblkhd)
        841109 MiB available memory on the node where the printing process lives
     GPU memory used/free/total (MiB): 1074 / 80076 / 81151
------------------
     ethr =  1.14E-05,  avg # of iterations =  1.8

     total cpu time spent up to now is       17.5 secs

     total energy              =    -569.23292916 Ry
     estimated scf accuracy    <       0.00442148 Ry

     total magnetization       =     0.58 Bohr mag/cell
     absolute magnetization    =     0.64 Bohr mag/cell
[tb_dev] Currently allocated     3.05E-05 Mbytes, locked:    0 /   2
[tb_pin] Currently allocated     0.00E+00 Mbytes, locked:    0 /   0

     iteration # 11     ecut=    60.00 Ry     beta= 0.30
     Davidson diagonalization with overlap

---- Real-time Memory Report at c_bands before calling an iterative solver
           747 MiB given to the printing process from OS
             0 MiB allocation reported by mallinfo(arena+hblkhd)
        841098 MiB available memory on the node where the printing process lives
     GPU memory used/free/total (MiB): 1074 / 80076 / 81151
------------------
     ethr =  1.14E-05,  avg # of iterations =  1.4

     total cpu time spent up to now is       18.6 secs

     total energy              =    -569.23340353 Ry
     estimated scf accuracy    <       0.00020354 Ry

     total magnetization       =     0.52 Bohr mag/cell
     absolute magnetization    =     0.58 Bohr mag/cell
[tb_dev] Currently allocated     3.05E-05 Mbytes, locked:    0 /   2
[tb_pin] Currently allocated     0.00E+00 Mbytes, locked:    0 /   0

     iteration # 12     ecut=    60.00 Ry     beta= 0.30
     Davidson diagonalization with overlap

---- Real-time Memory Report at c_bands before calling an iterative solver
           747 MiB given to the printing process from OS
             0 MiB allocation reported by mallinfo(arena+hblkhd)
        841101 MiB available memory on the node where the printing process lives
     GPU memory used/free/total (MiB): 1074 / 80076 / 81151
------------------
     c_bands:  1 eigenvalues not converged
     ethr =  5.36E-07,  avg # of iterations =  7.7

     total cpu time spent up to now is       20.5 secs

     total energy              =    -569.23344416 Ry
     estimated scf accuracy    <       0.00039358 Ry

     total magnetization       =     0.51 Bohr mag/cell
     absolute magnetization    =     0.57 Bohr mag/cell
[tb_dev] Currently allocated     3.05E-05 Mbytes, locked:    0 /   2
[tb_pin] Currently allocated     0.00E+00 Mbytes, locked:    0 /   0

     iteration # 13     ecut=    60.00 Ry     beta= 0.30
     Davidson diagonalization with overlap

---- Real-time Memory Report at c_bands before calling an iterative solver
           747 MiB given to the printing process from OS
             0 MiB allocation reported by mallinfo(arena+hblkhd)
        841133 MiB available memory on the node where the printing process lives
     GPU memory used/free/total (MiB): 1074 / 80076 / 81151
------------------
     ethr =  5.36E-07,  avg # of iterations =  4.2

     total cpu time spent up to now is       21.9 secs

     total energy              =    -569.23357768 Ry
     estimated scf accuracy    <       0.00044216 Ry

     total magnetization       =     0.51 Bohr mag/cell
     absolute magnetization    =     0.57 Bohr mag/cell
[tb_dev] Currently allocated     3.05E-05 Mbytes, locked:    0 /   2
[tb_pin] Currently allocated     0.00E+00 Mbytes, locked:    0 /   0

     iteration # 14     ecut=    60.00 Ry     beta= 0.30
     Davidson diagonalization with overlap

---- Real-time Memory Report at c_bands before calling an iterative solver
           747 MiB given to the printing process from OS
             0 MiB allocation reported by mallinfo(arena+hblkhd)
        841147 MiB available memory on the node where the printing process lives
     GPU memory used/free/total (MiB): 1074 / 80076 / 81151
------------------
     ethr =  5.36E-07,  avg # of iterations =  1.1

     total cpu time spent up to now is       22.9 secs

     total energy              =    -569.23361616 Ry
     estimated scf accuracy    <       0.00006008 Ry

     total magnetization       =     0.50 Bohr mag/cell
     absolute magnetization    =     0.55 Bohr mag/cell
[tb_dev] Currently allocated     3.05E-05 Mbytes, locked:    0 /   2
[tb_pin] Currently allocated     0.00E+00 Mbytes, locked:    0 /   0

     iteration # 15     ecut=    60.00 Ry     beta= 0.30
     Davidson diagonalization with overlap

---- Real-time Memory Report at c_bands before calling an iterative solver
           747 MiB given to the printing process from OS
             0 MiB allocation reported by mallinfo(arena+hblkhd)
        841154 MiB available memory on the node where the printing process lives
     GPU memory used/free/total (MiB): 1074 / 80076 / 81151
------------------
     ethr =  1.58E-07,  avg # of iterations =  2.0

     total cpu time spent up to now is       24.1 secs

     total energy              =    -569.23364249 Ry
     estimated scf accuracy    <       0.00000733 Ry

     total magnetization       =     0.49 Bohr mag/cell
     absolute magnetization    =     0.55 Bohr mag/cell
[tb_dev] Currently allocated     3.05E-05 Mbytes, locked:    0 /   2
[tb_pin] Currently allocated     0.00E+00 Mbytes, locked:    0 /   0

     iteration # 16     ecut=    60.00 Ry     beta= 0.30
     Davidson diagonalization with overlap

---- Real-time Memory Report at c_bands before calling an iterative solver
           747 MiB given to the printing process from OS
             0 MiB allocation reported by mallinfo(arena+hblkhd)
        841179 MiB available memory on the node where the printing process lives
     GPU memory used/free/total (MiB): 1074 / 80076 / 81151
------------------
     ethr =  1.93E-08,  avg # of iterations =  5.5

     total cpu time spent up to now is       25.7 secs

     total energy              =    -569.23364826 Ry
     estimated scf accuracy    <       0.00000783 Ry

     total magnetization       =     0.49 Bohr mag/cell
     absolute magnetization    =     0.54 Bohr mag/cell
[tb_dev] Currently allocated     3.05E-05 Mbytes, locked:    0 /   2
[tb_pin] Currently allocated     0.00E+00 Mbytes, locked:    0 /   0

     iteration # 17     ecut=    60.00 Ry     beta= 0.30
     Davidson diagonalization with overlap

---- Real-time Memory Report at c_bands before calling an iterative solver
           747 MiB given to the printing process from OS
             0 MiB allocation reported by mallinfo(arena+hblkhd)
        841179 MiB available memory on the node where the printing process lives
     GPU memory used/free/total (MiB): 1074 / 80076 / 81151
------------------
     ethr =  1.93E-08,  avg # of iterations =  2.2

     total cpu time spent up to now is       26.8 secs

     total energy              =    -569.23365224 Ry
     estimated scf accuracy    <       0.00000169 Ry

     total magnetization       =     0.48 Bohr mag/cell
     absolute magnetization    =     0.54 Bohr mag/cell
[tb_dev] Currently allocated     3.05E-05 Mbytes, locked:    0 /   2
[tb_pin] Currently allocated     0.00E+00 Mbytes, locked:    0 /   0

     iteration # 18     ecut=    60.00 Ry     beta= 0.30
     Davidson diagonalization with overlap

---- Real-time Memory Report at c_bands before calling an iterative solver
           748 MiB given to the printing process from OS
             0 MiB allocation reported by mallinfo(arena+hblkhd)
        841186 MiB available memory on the node where the printing process lives
     GPU memory used/free/total (MiB): 1074 / 80076 / 81151
------------------
     ethr =  4.45E-09,  avg # of iterations =  5.1

     total cpu time spent up to now is       28.4 secs

     total energy              =    -569.23365392 Ry
     estimated scf accuracy    <       0.00000107 Ry

     total magnetization       =     0.48 Bohr mag/cell
     absolute magnetization    =     0.54 Bohr mag/cell
[tb_dev] Currently allocated     3.05E-05 Mbytes, locked:    0 /   2
[tb_pin] Currently allocated     0.00E+00 Mbytes, locked:    0 /   0

     iteration # 19     ecut=    60.00 Ry     beta= 0.30
     Davidson diagonalization with overlap

---- Real-time Memory Report at c_bands before calling an iterative solver
           748 MiB given to the printing process from OS
             0 MiB allocation reported by mallinfo(arena+hblkhd)
        841684 MiB available memory on the node where the printing process lives
     GPU memory used/free/total (MiB): 1074 / 80076 / 81151
------------------
     ethr =  2.81E-09,  avg # of iterations =  2.2

     total cpu time spent up to now is       29.6 secs

     total energy              =    -569.23365468 Ry
     estimated scf accuracy    <       0.00000040 Ry

     total magnetization       =     0.48 Bohr mag/cell
     absolute magnetization    =     0.53 Bohr mag/cell
[tb_dev] Currently allocated     3.05E-05 Mbytes, locked:    0 /   2
[tb_pin] Currently allocated     0.00E+00 Mbytes, locked:    0 /   0

     iteration # 20     ecut=    60.00 Ry     beta= 0.30
     Davidson diagonalization with overlap

---- Real-time Memory Report at c_bands before calling an iterative solver
           748 MiB given to the printing process from OS
             0 MiB allocation reported by mallinfo(arena+hblkhd)
        841483 MiB available memory on the node where the printing process lives
     GPU memory used/free/total (MiB): 1074 / 80076 / 81151
------------------
     ethr =  1.04E-09,  avg # of iterations =  5.1

     total cpu time spent up to now is       31.1 secs

     total energy              =    -569.23365485 Ry
     estimated scf accuracy    <       0.00000025 Ry

     total magnetization       =     0.48 Bohr mag/cell
     absolute magnetization    =     0.53 Bohr mag/cell
[tb_dev] Currently allocated     3.05E-05 Mbytes, locked:    0 /   2
[tb_pin] Currently allocated     0.00E+00 Mbytes, locked:    0 /   0

     iteration # 21     ecut=    60.00 Ry     beta= 0.30
     Davidson diagonalization with overlap

---- Real-time Memory Report at c_bands before calling an iterative solver
           748 MiB given to the printing process from OS
             0 MiB allocation reported by mallinfo(arena+hblkhd)
        841398 MiB available memory on the node where the printing process lives
     GPU memory used/free/total (MiB): 1074 / 80076 / 81151
------------------
     ethr =  6.64E-10,  avg # of iterations =  3.6
 
     Magnetic moment per site  (integrated on atomic sphere of radius R)
     atom   1 (R=0.275)  charge= 14.1154  magn=  0.3860
     atom   2 (R=0.275)  charge=  5.2059  magn=  0.0463
     atom   3 (R=0.275)  charge=  5.2597  magn=  0.0295
     atom   4 (R=0.399)  charge=  8.1802  magn= -0.0083

     total cpu time spent up to now is       32.4 secs

     End of self-consistent calculation

 ------ SPIN UP ------------


          k = 0.0000 0.0000 0.0000 (  3231 PWs)   bands (ev):

   -90.3022 -53.5416 -53.5153 -53.5153 -48.1112 -19.9557 -19.9256 -19.9256
   -14.2322 -12.3010  -0.6403   0.1299   0.1299   2.6067   3.6608   3.6608
     3.7976   3.8367   3.8367   5.1433   7.5901   7.5901   9.1031  11.7913
    14.7661  16.6766  20.4684

     occupation numbers 
     1.0000   1.0000   1.0000   1.0000   1.0000   1.0000   1.0000   1.0000
     1.0000   1.0000   1.0000   1.0000   1.0000   1.0000   1.0000   1.0000
     1.0000   1.0000   1.0000   0.8582   0.0000   0.0000   0.0000   0.0000
     0.0000   0.0000   0.0000

          k = 0.0000 0.0000 0.1146 (  3237 PWs)   bands (ev):

   -90.3022 -53.5417 -53.5153 -53.5153 -48.1113 -19.9559 -19.9256 -19.9256
   -14.2321 -12.3013  -0.6192   0.1299   0.1299   2.3861   3.6607   3.6607
     3.8367   3.8367   4.1653   5.0650   7.5902   7.5902   8.7130  12.6139
    14.1768  16.5920  20.5261

     occupation numbers 
     1.0000   1.0000   1.0000   1.0000   1.0000   1.0000   1.0000   1.0000
     1.0000   1.0000   1.0000   1.0000   1.0000   1.0000   1.0000   1.0000
     1.0000   1.0000   1.0000   1.0018   0.0000   0.0000   0.0000   0.0000
     0.0000   0.0000   0.0000

          k = 0.0000 0.1443 0.0000 (  3229 PWs)   bands (ev):

   -90.3015 -53.5404 -53.5235 -53.5172 -48.1061 -19.9697 -19.9482 -19.9350
   -14.0640 -12.2983  -0.4879  -0.0239   0.2364   2.5302   2.9965   3.0211
     4.0465   4.2466   4.4041   5.2364   7.1085   7.4902   9.4531  12.3813
    15.3660  16.9288  19.3064

     occupation numbers 
     1.0000   1.0000   1.0000   1.0000   1.0000   1.0000   1.0000   1.0000
     1.0000   1.0000   1.0000   1.0000   1.0000   1.0000   1.0000   1.0000
     1.0000   1.0000   1.0003   0.6175   0.0000   0.0000   0.0000   0.0000
     0.0000   0.0000   0.0000

          k = 0.0000 0.1443 0.1146 (  3219 PWs)   bands (ev):

   -90.3014 -53.5404 -53.5235 -53.5172 -48.1060 -19.9696 -19.9481 -19.9350
   -14.0639 -12.2985  -0.4748  -0.0233   0.2364   2.5352   2.8372   2.9966
     4.1232   4.4041   4.4906   5.1288   7.1571   7.4901   9.1151  13.1197
    14.6740  17.0917  19.2862

     occupation numbers 
     1.0000   1.0000   1.0000   1.0000   1.0000   1.0000   1.0000   1.0000
     1.0000   1.0000   1.0000   1.0000   1.0000   1.0000   1.0000   1.0000
     1.0000   1.0003   1.0013   0.8900   0.0000   0.0000   0.0000   0.0000
     0.0000   0.0000   0.0000

          k = 0.0000 0.2887 0.0000 (  3212 PWs)   bands (ev):

   -90.2997 -53.5435 -53.5374 -53.5219 -48.0935 -20.0746 -19.9576 -19.9299
   -13.6260 -12.3012  -0.4856   0.1326   0.4868   1.2026   2.4165   3.4415
     4.2823   4.6610   4.7498   5.3868   6.5730   7.3657  10.2996  13.7187
    15.4627  16.6404  17.5657

     occupation numbers 
     1.0000   1.0000   1.0000   1.0000   1.0000   1.0000   1.0000   1.0000
     1.0000   1.0000   1.0000   1.0000   1.0000   1.0000   1.0000   1.0000
     1.0000   1.0139   1.0341   0.2441   0.0000   0.0000   0.0000   0.0000
     0.0000   0.0000   0.0000

          k = 0.0000 0.2887 0.1146 (  3212 PWs)   bands (ev):

   -90.2997 -53.5434 -53.5374 -53.5220 -48.0935 -20.0745 -19.9577 -19.9299
   -13.6259 -12.3013  -0.4897   0.1406   0.4868   1.2100   2.4165   3.3995
     4.2483   4.6609   4.8901   5.2407   6.7177   7.3656  10.0918  14.2069
    15.3637  15.9758  18.3020

     occupation numbers 
     1.0000   1.0000   1.0000   1.0000   1.0000   1.0000   1.0000   1.0000
     1.0000   1.0000   1.0000   1.0000   1.0000   1.0000   1.0000   1.0000
     1.0000   1.0139   1.0784   0.6057   0.0000   0.0000   0.0000   0.0000
     0.0000   0.0000   0.0000

          k = 0.0000 0.4330 0.0000 (  3198 PWs)   bands (ev):

   -90.2979 -53.5633 -53.5345 -53.5267 -48.0809 -20.1776 -19.9802 -19.9115
   -13.1195 -12.3320  -0.9192   0.0905   0.6802   1.2378   2.2014   2.9751
     4.2136   4.4768   4.7162   6.4414   7.1392   7.3987  11.5085  12.3322
    15.2129  16.1984  17.3554

     occupation numbers 
     1.0000   1.0000   1.0000   1.0000   1.0000   1.0000   1.0000   1.0000
     1.0000   1.0000   1.0000   1.0000   1.0000   1.0000   1.0000   1.0000
     1.0000   1.0010   1.0251   0.0000   0.0000   0.0000   0.0000   0.0000
     0.0000   0.0000   0.0000

          k = 0.0000 0.4330 0.1146 (  3216 PWs)   bands (ev):

   -90.2979 -53.5634 -53.5345 -53.5268 -48.0810 -20.1777 -19.9804 -19.9116
   -13.1195 -12.3321  -0.9199   0.0890   0.6802   1.2430   2.2014   2.9783
     4.2112   4.4768   4.7193   6.3272   7.2753   7.3986  11.4688  12.2580
    15.4487  16.2775  17.0412

     occupation numbers 
     1.0000   1.0000   1.0000   1.0000   1.0000   1.0000   1.0000   1.0000
     1.0000   1.0000   1.0000   1.0000   1.0000   1.0000   1.0000   1.0000
     1.0000   1.0010   1.0258   0.0000   0.0000   0.0000   0.0000   0.0000
     0.0000   0.0000   0.0000

          k = 0.0000-0.5774 0.0000 (  3214 PWs)   bands (ev):

   -90.2971 -53.5716 -53.5333 -53.5288 -48.0757 -20.2198 -19.9898 -19.9041
   -12.8661 -12.3731  -1.3008   0.2406   0.7192   1.4423   2.2276   2.6716
     4.0115   4.2986   4.6584   6.8549   7.4461   8.6759   9.9252  13.2629
    13.8905  16.3989  17.2377

     occupation numbers 
     1.0000   1.0000   1.0000   1.0000   1.0000   1.0000   1.0000   1.0000
     1.0000   1.0000   1.0000   1.0000   1.0000   1.0000   1.0000   1.0000
     1.0000   1.0000   1.0135   0.0000   0.0000   0.0000   0.0000   0.0000
     0.0000   0.0000   0.0000

          k = 0.0000-0.5774 0.1146 (  3216 PWs)   bands (ev):

   -90.2971 -53.5717 -53.5332 -53.5288 -48.0757 -20.2200 -19.9897 -19.9040
   -12.8661 -12.3731  -1.3009   0.2391   0.7192   1.4432   2.2276   2.6759
     4.0108   4.2986   4.6573   6.8496   7.4461   8.6818   9.8931  13.2452
    14.1017  16.1625  17.0960

     occupation numbers 
     1.0000   1.0000   1.0000   1.0000   1.0000   1.0000   1.0000   1.0000
     1.0000   1.0000   1.0000   1.0000   1.0000   1.0000   1.0000   1.0000
     1.0000   1.0000   1.0133   0.0000   0.0000   0.0000   0.0000   0.0000
     0.0000   0.0000   0.0000

          k = 0.1250 0.2165 0.0000 (  3225 PWs)   bands (ev):

   -90.3002 -53.5384 -53.5367 -53.5215 -48.0972 -20.0392 -19.9561 -19.9353
   -13.7606 -12.2977  -0.4203   0.0581   0.3784   1.6527   2.2895   3.4541
     4.2845   4.5113   4.7935   5.2934   6.7148   7.2508  10.0396  13.3513
    16.1341  16.8722  17.4657

     occupation numbers 
     1.0000   1.0000   1.0000   1.0000   1.0000   1.0000   1.0000   1.0000
     1.0000   1.0000   1.0000   1.0000   1.0000   1.0000   1.0000   1.0000
     1.0000   1.0018   1.0481   0.4615   0.0000   0.0000   0.0000   0.0000
     0.0000   0.0000   0.0000

          k = 0.1250 0.2165 0.1146 (  3212 PWs)   bands (ev):

   -90.3002 -53.5383 -53.5367 -53.5215 -48.0972 -20.0392 -19.9560 -19.9352
   -13.7605 -12.2979  -0.4224   0.0667   0.3789   1.6594   2.2895   3.3593
     4.2812   4.5575   4.9141   5.2123   6.7960   7.2219   9.8533  13.8343
    15.5153  16.7880  18.0106

     occupation numbers 
     1.0000   1.0000   1.0000   1.0000   1.0000   1.0000   1.0000   1.0000
     1.0000   1.0000   1.0000   1.0000   1.0000   1.0000   1.0000   1.0000
     1.0000   1.0036   1.0823   0.6837   0.0000   0.0000   0.0000   0.0000
     0.0000   0.0000   0.0000

          k = 0.1250 0.3608 0.0000 (  3216 PWs)   bands (ev):

   -90.2984 -53.5546 -53.5354 -53.5283 -48.0846 -20.1321 -19.9896 -19.9170
   -13.2873 -12.3089  -0.5301   0.0179   0.6542   1.1076   1.8586   3.2873
     4.3246   4.6001   4.8826   6.0655   6.7655   7.1777  11.0902  13.7921
    14.8104  16.9196  17.5770

     occupation numbers 
     1.0000   1.0000   1.0000   1.0000   1.0000   1.0000   1.0000   1.0000
     1.0000   1.0000   1.0000   1.0000   1.0000   1.0000   1.0000   1.0000
     1.0001   1.0065   1.0767   0.0000   0.0000   0.0000   0.0000   0.0000
     0.0000   0.0000   0.0000

          k = 0.1250 0.3608 0.1146 (  3205 PWs)   bands (ev):

   -90.2984 -53.5545 -53.5354 -53.5282 -48.0846 -20.1319 -19.9896 -19.9169
   -13.2872 -12.3089  -0.5326   0.0179   0.6556   1.1146   1.8588   3.2832
     4.3241   4.6048   4.8728   5.9777   6.9334   7.1256  11.0272  13.7639
    15.0174  16.5564  17.9005

     occupation numbers 
     1.0000   1.0000   1.0000   1.0000   1.0000   1.0000   1.0000   1.0000
     1.0000   1.0000   1.0000   1.0000   1.0000   1.0000   1.0000   1.0000
     1.0001   1.0069   1.0741   0.0000   0.0000   0.0000   0.0000   0.0000
     0.0000   0.0000   0.0000

          k = 0.1250 0.5052 0.0000 (  3220 PWs)   bands (ev):

   -90.2972 -53.5672 -53.5335 -53.5330 -48.0758 -20.1962 -20.0139 -19.9042
   -12.9014 -12.3386  -1.0200   0.0223   0.8019   1.4689   1.7595   2.7098
     4.1050   4.4059   4.8253   6.7894   7.1592   8.2307  10.9482  12.7590
    15.0037  16.0377  17.0256

     occupation numbers 
     1.0000   1.0000   1.0000   1.0000   1.0000   1.0000   1.0000   1.0000
     1.0000   1.0000   1.0000   1.0000   1.0000   1.0000   1.0000   1.0000
     1.0000   1.0003   1.0591   0.0000   0.0000   0.0000   0.0000   0.0000
     0.0000   0.0000   0.0000

          k = 0.1250 0.5052 0.1146 (  3217 PWs)   bands (ev):

   -90.2971 -53.5672 -53.5335 -53.5330 -48.0758 -20.1961 -20.0139 -19.9042
   -12.9013 -12.3386  -1.0201   0.0213   0.8017   1.4706   1.7593   2.7129
     4.1045   4.4063   4.8233   6.7718   7.1724   8.2335  10.9317  12.7429
    15.1493  15.9911  17.1585

     occupation numbers 
     1.0000   1.0000   1.0000   1.0000   1.0000   1.0000   1.0000   1.0000
     1.0000   1.0000   1.0000   1.0000   1.0000   1.0000   1.0000   1.0000
     1.0000   1.0003   1.0584   0.0000   0.0000   0.0000   0.0000   0.0000
     0.0000   0.0000   0.0000

          k = 0.2500 0.4330 0.0000 (  3215 PWs)   bands (ev):

   -90.2971 -53.5609 -53.5395 -53.5333 -48.0758 -20.1630 -20.0474 -19.9043
   -12.9327 -12.3080  -0.5411  -0.2020   0.6153   1.2700   1.6552   2.7617
     4.1728   4.4864   4.9915   6.7231   6.8648   7.9945  12.0042  12.6298
    14.8144  16.6054  17.0779

     occupation numbers 
     1.0000   1.0000   1.0000   1.0000   1.0000   1.0000   1.0000   1.0000
     1.0000   1.0000   1.0000   1.0000   1.0000   1.0000   1.0000   1.0000
     1.0000   1.0012   1.0695   0.0000   0.0000   0.0000   0.0000   0.0000
     0.0000   0.0000   0.0000

          k = 0.2500 0.4330 0.1146 (  3206 PWs)   bands (ev):

   -90.2971 -53.5609 -53.5394 -53.5333 -48.0757 -20.1630 -20.0473 -19.9041
   -12.9327 -12.3080  -0.5414  -0.2028   0.6155   1.2718   1.6564   2.7616
     4.1733   4.4873   4.9852   6.7536   6.8523   7.9610  12.0373  12.6471
    14.7610  16.6049  17.1447

     occupation numbers 
     1.0000   1.0000   1.0000   1.0000   1.0000   1.0000   1.0000   1.0000
     1.0000   1.0000   1.0000   1.0000   1.0000   1.0000   1.0000   1.0000
     1.0000   1.0012   1.0725   0.0000   0.0000   0.0000   0.0000   0.0000
     0.0000   0.0000   0.0000

          k = 0.2500 0.5774 0.0000 (  3210 PWs)   bands (ev):

   -90.2966 -53.5613 -53.5462 -53.5324 -48.0721 -20.1641 -20.0829 -19.8988
   -12.7871 -12.2976  -0.6485  -0.1392   0.4217   1.4165   1.8497   2.3350
     3.9226   4.6664   4.9225   6.8163   6.8738   9.5550  10.5452  13.7517
    14.3292  15.1404  16.9477

     occupation numbers 
     1.0000   1.0000   1.0000   1.0000   1.0000   1.0000   1.0000   1.0000
     1.0000   1.0000   1.0000   1.0000   1.0000   1.0000   1.0000   1.0000
     1.0000   1.0148   1.0830   0.0000   0.0000   0.0000   0.0000   0.0000
     0.0000   0.0000   0.0000

          k = 0.2500 0.5774 0.1146 (  3215 PWs)   bands (ev):

   -90.2966 -53.5614 -53.5462 -53.5325 -48.0721 -20.1642 -20.0829 -19.8989
   -12.7871 -12.2976  -0.6486  -0.1394   0.4219   1.4167   1.8495   2.3354
     3.9226   4.6666   4.9210   6.8229   6.8790   9.5268  10.5239  13.7570
    14.3790  15.2358  16.9595

     occupation numbers 
     1.0000   1.0000   1.0000   1.0000   1.0000   1.0000   1.0000   1.0000
     1.0000   1.0000   1.0000   1.0000   1.0000   1.0000   1.0000   1.0000
     1.0000   1.0148   1.0829   0.0000   0.0000   0.0000   0.0000   0.0000
     0.0000   0.0000   0.0000

          k = 0.0000-0.1443 0.1146 (  3219 PWs)   bands (ev):

   -90.3014 -53.5404 -53.5235 -53.5172 -48.1060 -19.9696 -19.9481 -19.9350
   -14.0639 -12.2986  -0.4742  -0.0240   0.2364   2.5170   2.8604   2.9965
     4.1180   4.4041   4.4834   5.1484   7.1193   7.4902   9.1580  13.0684
    14.7106  17.0956  19.2406

     occupation numbers 
     1.0000   1.0000   1.0000   1.0000   1.0000   1.0000   1.0000   1.0000
     1.0000   1.0000   1.0000   1.0000   1.0000   1.0000   1.0000   1.0000
     1.0000   1.0003   1.0011   0.8466   0.0000   0.0000   0.0000   0.0000
     0.0000   0.0000   0.0000

          k = 0.0000-0.2887 0.1146 (  3212 PWs)   bands (ev):

   -90.2997 -53.5434 -53.5374 -53.5220 -48.0935 -20.0745 -19.9577 -19.9299
   -13.6259 -12.3013  -0.4882   0.1376   0.4868   1.2117   2.4165   3.3887
     4.2601   4.6610   4.8141   5.4105   6.5690   7.3657  10.2165  13.9540
    15.5962  15.9437  18.2072

     occupation numbers 
     1.0000   1.0000   1.0000   1.0000   1.0000   1.0000   1.0000   1.0000
     1.0000   1.0000   1.0000   1.0000   1.0000   1.0000   1.0000   1.0000
     1.0000   1.0139   1.0552   0.2009   0.0000   0.0000   0.0000   0.0000
     0.0000   0.0000   0.0000

          k = 0.0000-0.4330 0.1146 (  3216 PWs)   bands (ev):

   -90.2979 -53.5634 -53.5345 -53.5268 -48.0810 -20.1777 -19.9804 -19.9116
   -13.1195 -12.3321  -0.9202   0.0889   0.6802   1.2451   2.2014   2.9725
     4.2143   4.4768   4.7091   6.4659   7.1011   7.3987  11.5946  12.3090
    15.1336  16.1604  17.2486

     occupation numbers 
     1.0000   1.0000   1.0000   1.0000   1.0000   1.0000   1.0000   1.0000
     1.0000   1.0000   1.0000   1.0000   1.0000   1.0000   1.0000   1.0000
     1.0000   1.0010   1.0234   0.0000   0.0000   0.0000   0.0000   0.0000
     0.0000   0.0000   0.0000

          k =-0.1250-0.3608 0.1146 (  3205 PWs)   bands (ev):

   -90.2984 -53.5545 -53.5354 -53.5282 -48.0846 -20.1319 -19.9896 -19.9169
   -13.2872 -12.3089  -0.5325   0.0174   0.6547   1.1170   1.8585   3.2782
     4.3277   4.6084   4.8531   6.0924   6.7691   7.1653  11.1064  13.7437
    14.9065  16.6846  17.8916

     occupation numbers 
     1.0000   1.0000   1.0000   1.0000   1.0000   1.0000   1.0000   1.0000
     1.0000   1.0000   1.0000   1.0000   1.0000   1.0000   1.0000   1.0000
     1.0001   1.0073   1.0683   0.0000   0.0000   0.0000   0.0000   0.0000
     0.0000   0.0000   0.0000

          k =-0.1250-0.5052 0.1146 (  3217 PWs)   bands (ev):

   -90.2971 -53.5672 -53.5335 -53.5330 -48.0758 -20.1961 -20.0139 -19.9042
   -12.9014 -12.3386  -1.0203   0.0215   0.8018   1.4711   1.7597   2.7110
     4.1052   4.4063   4.8215   6.8027   7.1628   8.1921  10.9379  12.8674
    15.0465  15.8289  17.1951

     occupation numbers 
     1.0000   1.0000   1.0000   1.0000   1.0000   1.0000   1.0000   1.0000
     1.0000   1.0000   1.0000   1.0000   1.0000   1.0000   1.0000   1.0000
     1.0000   1.0003   1.0578   0.0000   0.0000   0.0000   0.0000   0.0000
     0.0000   0.0000   0.0000

 ------ SPIN DOWN ----------


          k = 0.0000 0.0000 0.0000 (  3231 PWs)   bands (ev):

   -89.8315 -53.0942 -53.0942 -53.0070 -48.1154 -19.9594 -19.9300 -19.9300
   -14.1736 -12.2302  -0.4815   0.2677   0.2677   2.7066   3.7119   3.7119
     3.7934   4.2384   4.2384   5.6537   7.7907   7.7907   9.0904  11.8339
    14.8218  16.7394  20.4727

     occupation numbers 
     1.0000   1.0000   1.0000   1.0000   1.0000   1.0000   1.0000   1.0000
     1.0000   1.0000   1.0000   1.0000   1.0000   1.0000   1.0000   1.0000
     1.0000   1.0000   1.0000   0.0121   0.0000   0.0000   0.0000   0.0000
     0.0000   0.0000   0.0000

          k = 0.0000 0.0000 0.1146 (  3237 PWs)   bands (ev):

   -89.8315 -53.0942 -53.0942 -53.0071 -48.1154 -19.9595 -19.9300 -19.9300
   -14.1735 -12.2305  -0.4575   0.2677   0.2677   2.4565   3.7117   3.7117
     4.1755   4.2384   4.2384   5.5882   7.7908   7.7908   8.7011  12.6578
    14.2328  16.6388  20.5602

     occupation numbers 
     1.0000   1.0000   1.0000   1.0000   1.0000   1.0000   1.0000   1.0000
     1.0000   1.0000   1.0000   1.0000   1.0000   1.0000   1.0000   1.0000
     1.0000   1.0000   1.0000   0.0299   0.0000   0.0000   0.0000   0.0000
     0.0000   0.0000   0.0000

          k = 0.0000 0.1443 0.0000 (  3229 PWs)   bands (ev):

   -89.8307 -53.1027 -53.0963 -53.0057 -48.1102 -19.9743 -19.9518 -19.9395
   -14.0053 -12.2268  -0.3432   0.1220   0.3698   2.6469   3.1272   3.1504
     4.1030   4.5604   4.7153   5.7044   7.3066   7.6863   9.4473  12.4202
    15.4193  16.9948  19.2451

     occupation numbers 
     1.0000   1.0000   1.0000   1.0000   1.0000   1.0000   1.0000   1.0000
     1.0000   1.0000   1.0000   1.0000   1.0000   1.0000   1.0000   1.0000
     1.0000   1.0037   1.0248   0.0055   0.0000   0.0000   0.0000   0.0000
     0.0000   0.0000   0.0000

          k = 0.0000 0.1443 0.1146 (  3219 PWs)   bands (ev):

   -89.8307 -53.1026 -53.0962 -53.0057 -48.1102 -19.9742 -19.9517 -19.9395
   -14.0052 -12.2270  -0.3296   0.1243   0.3698   2.6545   2.9139   3.1504
     4.3516   4.6343   4.7153   5.6203   7.3606   7.6862   9.1030  13.1613
    14.7277  17.1437  19.2269

     occupation numbers 
     1.0000   1.0000   1.0000   1.0000   1.0000   1.0000   1.0000   1.0000
     1.0000   1.0000   1.0000   1.0000   1.0000   1.0000   1.0000   1.0000
     1.0001   1.0101   1.0248   0.0194   0.0000   0.0000   0.0000   0.0000
     0.0000   0.0000   0.0000

          k = 0.0000 0.2887 0.0000 (  3212 PWs)   bands (ev):

   -89.8288 -53.1230 -53.1011 -53.0027 -48.0976 -20.0797 -19.9621 -19.9335
   -13.5673 -12.2276  -0.3756   0.2778   0.6107   1.3291   2.5530   3.5674
     4.6358   4.9762   5.0166   5.6441   6.7846   7.5527  10.2907  13.7479
    15.4110  16.6789  17.6329

     occupation numbers 
     1.0000   1.0000   1.0000   1.0000   1.0000   1.0000   1.0000   1.0000
     1.0000   1.0000   1.0000   1.0000   1.0000   1.0000   1.0000   1.0000
     1.0103   1.0760   1.0535   0.0139   0.0000   0.0000   0.0000   0.0000
     0.0000   0.0000   0.0000

          k = 0.0000 0.2887 0.1146 (  3212 PWs)   bands (ev):

   -89.8288 -53.1230 -53.1011 -53.0027 -48.0976 -20.0795 -19.9622 -19.9335
   -13.5672 -12.2277  -0.3800   0.2861   0.6107   1.3388   2.5530   3.5131
     4.5928   5.0165   5.1264   5.5176   6.9253   7.5527  10.0745  14.2357
    15.3433  15.9869  18.3677

     occupation numbers 
     1.0000   1.0000   1.0000   1.0000   1.0000   1.0000   1.0000   1.0000
     1.0000   1.0000   1.0000   1.0000   1.0000   1.0000   1.0000   1.0000
     1.0059   1.0535   0.8952   0.0701   0.0000   0.0000   0.0000   0.0000
     0.0000   0.0000   0.0000

          k = 0.0000 0.4330 0.0000 (  3198 PWs)   bands (ev):

   -89.8270 -53.1434 -53.1059 -52.9996 -48.0850 -20.1830 -19.9847 -19.9151
   -13.0622 -12.2549  -0.8214   0.1666   0.8029   1.4103   2.2883   3.1042
     4.6608   4.8917   5.1797   6.5545   7.2090   7.5862  11.4824  12.2778
    15.2340  16.1977  17.4014

     occupation numbers 
     1.0000   1.0000   1.0000   1.0000   1.0000   1.0000   1.0000   1.0000
     1.0000   1.0000   1.0000   1.0000   1.0000   1.0000   1.0000   1.0000
     1.0139   1.0787   0.7701   0.0000   0.0000   0.0000   0.0000   0.0000
     0.0000   0.0000   0.0000

          k = 0.0000 0.4330 0.1146 (  3216 PWs)   bands (ev):

   -89.8270 -53.1434 -53.1060 -52.9996 -48.0850 -20.1831 -19.9850 -19.9151
   -13.0622 -12.2550  -0.8221   0.1651   0.8029   1.4162   2.2882   3.1076
     4.6564   4.8917   5.1843   6.4268   7.3614   7.5861  11.4423  12.2013
    15.4618  16.3004  17.0612

     occupation numbers 
     1.0000   1.0000   1.0000   1.0000   1.0000   1.0000   1.0000   1.0000
     1.0000   1.0000   1.0000   1.0000   1.0000   1.0000   1.0000   1.0000
     1.0132   1.0787   0.7582   0.0000   0.0000   0.0000   0.0000   0.0000
     0.0000   0.0000   0.0000

          k = 0.0000-0.5774 0.0000 (  3214 PWs)   bands (ev):

   -89.8263 -53.1519 -53.1080 -52.9983 -48.0798 -20.2254 -19.9944 -19.9076
   -12.8121 -12.2918  -1.2103   0.2996   0.8464   1.6142   2.2748   2.7922
     4.5306   4.7494   5.0886   7.1029   7.6366   8.6023   9.8717  13.2378
    13.8788  16.4181  17.2852

     occupation numbers 
     1.0000   1.0000   1.0000   1.0000   1.0000   1.0000   1.0000   1.0000
     1.0000   1.0000   1.0000   1.0000   1.0000   1.0000   1.0000   1.0000
     1.0024   1.0340   0.9662   0.0000   0.0000   0.0000   0.0000   0.0000
     0.0000   0.0000   0.0000

          k = 0.0000-0.5774 0.1146 (  3216 PWs)   bands (ev):

   -89.8263 -53.1520 -53.1080 -52.9983 -48.0798 -20.2256 -19.9944 -19.9075
   -12.8121 -12.2918  -1.2104   0.2980   0.8464   1.6152   2.2748   2.7969
     4.5295   4.7494   5.0877   7.0942   7.6366   8.6130   9.8384  13.2199
    14.0869  16.1819  17.1569

     occupation numbers 
     1.0000   1.0000   1.0000   1.0000   1.0000   1.0000   1.0000   1.0000
     1.0000   1.0000   1.0000   1.0000   1.0000   1.0000   1.0000   1.0000
     1.0023   1.0340   0.9677   0.0000   0.0000   0.0000   0.0000   0.0000
     0.0000   0.0000   0.0000

          k = 0.1250 0.2165 0.0000 (  3225 PWs)   bands (ev):

   -89.8294 -53.1162 -53.1007 -53.0036 -48.1013 -20.0441 -19.9607 -19.9388
   -13.7019 -12.2248  -0.3071   0.2187   0.5054   1.7638   2.4364   3.5691
     4.6374   4.6923   5.0758   5.6630   6.9152   7.4439  10.0329  13.3846
    16.1574  16.8438  17.5187

     occupation numbers 
     1.0000   1.0000   1.0000   1.0000   1.0000   1.0000   1.0000   1.0000
     1.0000   1.0000   1.0000   1.0000   1.0000   1.0000   1.0000   1.0000
     1.0105   1.0197   0.9863   0.0105   0.0000   0.0000   0.0000   0.0000
     0.0000   0.0000   0.0000

          k = 0.1250 0.2165 0.1146 (  3212 PWs)   bands (ev):

   -89.8294 -53.1161 -53.1006 -53.0035 -48.1013 -20.0441 -19.9605 -19.9387
   -13.7018 -12.2250  -0.3097   0.2284   0.5061   1.7726   2.4363   3.4556
     4.6756   4.7400   5.1748   5.5797   6.9983   7.4135   9.8415  13.8678
    15.5682  16.7253  18.0651

     occupation numbers 
     1.0000   1.0000   1.0000   1.0000   1.0000   1.0000   1.0000   1.0000
     1.0000   1.0000   1.0000   1.0000   1.0000   1.0000   1.0000   1.0000
     1.0164   1.0313   0.7826   0.0333   0.0000   0.0000   0.0000   0.0000
     0.0000   0.0000   0.0000

          k = 0.1250 0.3608 0.0000 (  3216 PWs)   bands (ev):

   -89.8276 -53.1345 -53.1076 -53.0005 -48.0887 -20.1373 -19.9943 -19.9206
   -13.2292 -12.2332  -0.4264   0.1119   0.7733   1.2656   1.9784   3.4103
     4.7531   5.0771   5.2635   6.0702   6.9535   7.3547  11.0747  13.7278
    14.8317  16.9411  17.6063

     occupation numbers 
     1.0000   1.0000   1.0000   1.0000   1.0000   1.0000   1.0000   1.0000
     1.0000   1.0000   1.0000   1.0000   1.0000   1.0000   1.0000   1.0000
     1.0351   0.9844   0.5425   0.0000   0.0000   0.0000   0.0000   0.0000
     0.0000   0.0000   0.0000

          k = 0.1250 0.3608 0.1146 (  3205 PWs)   bands (ev):

   -89.8276 -53.1344 -53.1075 -53.0005 -48.0887 -20.1371 -19.9942 -19.9205
   -13.2291 -12.2333  -0.4290   0.1119   0.7745   1.2743   1.9787   3.4048
     4.7509   5.0668   5.2685   5.9997   7.1078   7.3040  11.0082  13.7004
    15.0346  16.5982  17.9009

     occupation numbers 
     1.0000   1.0000   1.0000   1.0000   1.0000   1.0000   1.0000   1.0000
     1.0000   1.0000   1.0000   1.0000   1.0000   1.0000   1.0000   1.0000
     1.0344   0.9994   0.5287   0.0000   0.0000   0.0000   0.0000   0.0000
     0.0000   0.0000   0.0000

          k = 0.1250 0.5052 0.0000 (  3220 PWs)   bands (ev):

   -89.8263 -53.1474 -53.1126 -52.9984 -48.0798 -20.2017 -20.0186 -19.9077
   -12.8461 -12.2585  -0.9294   0.1029   0.9088   1.6185   1.8535   2.8343
     4.6578   4.8429   5.2113   7.0139   7.3497   8.1815  10.8857  12.7361
    14.9844  16.0445  17.0416

     occupation numbers 
     1.0000   1.0000   1.0000   1.0000   1.0000   1.0000   1.0000   1.0000
     1.0000   1.0000   1.0000   1.0000   1.0000   1.0000   1.0000   1.0000
     1.0134   1.0650   0.6866   0.0000   0.0000   0.0000   0.0000   0.0000
     0.0000   0.0000   0.0000

          k = 0.1250 0.5052 0.1146 (  3217 PWs)   bands (ev):

   -89.8263 -53.1473 -53.1126 -52.9984 -48.0798 -20.2016 -20.0186 -19.9077
   -12.8461 -12.2585  -0.9294   0.1018   0.9086   1.6202   1.8533   2.8378
     4.6568   4.8435   5.2091   6.9896   7.3675   8.1871  10.8692  12.7204
    15.1238  15.9988  17.1977

     occupation numbers 
     1.0000   1.0000   1.0000   1.0000   1.0000   1.0000   1.0000   1.0000
     1.0000   1.0000   1.0000   1.0000   1.0000   1.0000   1.0000   1.0000
     1.0132   1.0652   0.6924   0.0000   0.0000   0.0000   0.0000   0.0000
     0.0000   0.0000   0.0000

          k = 0.2500 0.4330 0.0000 (  3215 PWs)   bands (ev):

   -89.8263 -53.1409 -53.1189 -52.9984 -48.0798 -20.1683 -20.0522 -19.9078
   -12.8766 -12.2287  -0.4526  -0.1058   0.6916   1.4013   1.8007   2.8855
     4.7530   4.9081   5.3566   6.8979   7.0849   7.9595  11.9420  12.5951
    14.7934  16.6123  17.1003

     occupation numbers 
     1.0000   1.0000   1.0000   1.0000   1.0000   1.0000   1.0000   1.0000
     1.0000   1.0000   1.0000   1.0000   1.0000   1.0000   1.0000   1.0000
     1.0351   1.0816   0.3067   0.0000   0.0000   0.0000   0.0000   0.0000
     0.0000   0.0000   0.0000

          k = 0.2500 0.4330 0.1146 (  3206 PWs)   bands (ev):

   -89.8263 -53.1409 -53.1189 -52.9983 -48.0798 -20.1683 -20.0522 -19.9077
   -12.8766 -12.2287  -0.4529  -0.1067   0.6918   1.4030   1.8024   2.8853
     4.7533   4.9091   5.3487   6.9334   7.0716   7.9230  11.9727  12.6152
    14.7395  16.6056  17.1599

     occupation numbers 
     1.0000   1.0000   1.0000   1.0000   1.0000   1.0000   1.0000   1.0000
     1.0000   1.0000   1.0000   1.0000   1.0000   1.0000   1.0000   1.0000
     1.0352   1.0817   0.3244   0.0000   0.0000   0.0000   0.0000   0.0000
     0.0000   0.0000   0.0000

          k = 0.2500 0.5774 0.0000 (  3210 PWs)   bands (ev):

   -89.8257 -53.1414 -53.1259 -52.9974 -48.0761 -20.1694 -20.0879 -19.9023
   -12.7328 -12.2159  -0.5612  -0.0497   0.4953   1.5274   1.9889   2.4588
     4.5370   5.0732   5.3111   7.0359   7.0777   9.4845  10.4785  13.7203
    14.2984  15.1350  16.9366

     occupation numbers 
     1.0000   1.0000   1.0000   1.0000   1.0000   1.0000   1.0000   1.0000
     1.0000   1.0000   1.0000   1.0000   1.0000   1.0000   1.0000   1.0000
     1.0026   0.9902   0.4156   0.0000   0.0000   0.0000   0.0000   0.0000
     0.0000   0.0000   0.0000

          k = 0.2500 0.5774 0.1146 (  3215 PWs)   bands (ev):

   -89.8257 -53.1414 -53.1259 -52.9975 -48.0761 -20.1696 -20.0878 -19.9024
   -12.7328 -12.2159  -0.5613  -0.0500   0.4955   1.5276   1.9885   2.4594
     4.5371   5.0734   5.3093   7.0446   7.0829   9.4546  10.4563  13.7252
    14.3489  15.2307  16.9554

     occupation numbers 
     1.0000   1.0000   1.0000   1.0000   1.0000   1.0000   1.0000   1.0000
     1.0000   1.0000   1.0000   1.0000   1.0000   1.0000   1.0000   1.0000
     1.0026   0.9900   0.4201   0.0000   0.0000   0.0000   0.0000   0.0000
     0.0000   0.0000   0.0000

          k = 0.0000-0.1443 0.1146 (  3219 PWs)   bands (ev):

   -89.8307 -53.1026 -53.0962 -53.0057 -48.1102 -19.9742 -19.9517 -19.9395
   -14.0052 -12.2270  -0.3289   0.1236   0.3698   2.6285   2.9469   3.1503
     4.3300   4.6497   4.7152   5.6315   7.3188   7.6863   9.1500  13.1086
    14.7665  17.1472  19.1845

     occupation numbers 
     1.0000   1.0000   1.0000   1.0000   1.0000   1.0000   1.0000   1.0000
     1.0000   1.0000   1.0000   1.0000   1.0000   1.0000   1.0000   1.0000
     1.0001   1.0122   1.0248   0.0166   0.0000   0.0000   0.0000   0.0000
     0.0000   0.0000   0.0000

          k = 0.0000-0.2887 0.1146 (  3212 PWs)   bands (ev):

   -89.8288 -53.1230 -53.1011 -53.0027 -48.0976 -20.0795 -19.9622 -19.9335
   -13.5672 -12.2277  -0.3787   0.2833   0.6107   1.3405   2.5530   3.5016
     4.5989   5.0165   5.1013   5.6346   6.7802   7.5527  10.2042  13.9777
    15.5408  16.0040  18.2557

     occupation numbers 
     1.0000   1.0000   1.0000   1.0000   1.0000   1.0000   1.0000   1.0000
     1.0000   1.0000   1.0000   1.0000   1.0000   1.0000   1.0000   1.0000
     1.0064   1.0535   0.9442   0.0159   0.0000   0.0000   0.0000   0.0000
     0.0000   0.0000   0.0000

          k = 0.0000-0.4330 0.1146 (  3216 PWs)   bands (ev):

   -89.8270 -53.1434 -53.1061 -52.9996 -48.0850 -20.1831 -19.9850 -19.9151
   -13.0622 -12.2549  -0.8225   0.1649   0.8029   1.4189   2.2882   3.1007
     4.6587   4.8917   5.1723   6.5808   7.1729   7.5861  11.5661  12.2550
    15.1497  16.1631  17.3157

     occupation numbers 
     1.0000   1.0000   1.0000   1.0000   1.0000   1.0000   1.0000   1.0000
     1.0000   1.0000   1.0000   1.0000   1.0000   1.0000   1.0000   1.0000
     1.0135   1.0787   0.7889   0.0000   0.0000   0.0000   0.0000   0.0000
     0.0000   0.0000   0.0000

          k =-0.1250-0.3608 0.1146 (  3205 PWs)   bands (ev):

   -89.8275 -53.1344 -53.1075 -53.0005 -48.0887 -20.1371 -19.9942 -19.9205
   -13.2291 -12.2333  -0.4289   0.1115   0.7737   1.2768   1.9784   3.3989
     4.7551   5.0768   5.2333   6.1088   6.9567   7.3434  11.0888  13.6826
    14.9179  16.7384  17.9049

     occupation numbers 
     1.0000   1.0000   1.0000   1.0000   1.0000   1.0000   1.0000   1.0000
     1.0000   1.0000   1.0000   1.0000   1.0000   1.0000   1.0000   1.0000
     1.0357   0.9848   0.6262   0.0000   0.0000   0.0000   0.0000   0.0000
     0.0000   0.0000   0.0000

          k =-0.1250-0.5052 0.1146 (  3217 PWs)   bands (ev):

   -89.8263 -53.1473 -53.1126 -52.9984 -48.0798 -20.2016 -20.0186 -19.9077
   -12.8461 -12.2585  -0.9297   0.1020   0.9087   1.6207   1.8540   2.8355
     4.6577   4.8433   5.2070   7.0311   7.3535   8.1395  10.8746  12.8435
    15.0262  15.8368  17.2189

     occupation numbers 
     1.0000   1.0000   1.0000   1.0000   1.0000   1.0000   1.0000   1.0000
     1.0000   1.0000   1.0000   1.0000   1.0000   1.0000   1.0000   1.0000
     1.0134   1.0651   0.6981   0.0000   0.0000   0.0000   0.0000   0.0000
     0.0000   0.0000   0.0000

     the Fermi energy is     5.3170 ev

!    total energy              =    -569.23365506 Ry
     total all-electron energy =     -3412.724210 Ry
     estimated scf accuracy    <       0.00000007 Ry
     smearing contrib. (-TS)   =       0.00316326 Ry
     internal energy E=F+TS    =    -569.23681832 Ry

     The total energy is F=E-TS. E is the sum of the following terms:
     one-electron contribution =    -599.17441132 Ry
     hartree contribution      =     314.10804361 Ry
     xc contribution           =     -60.07145664 Ry
     ewald contribution        =    -102.15458093 Ry
     one-center paw contrib.   =    -121.94441304 Ry
      -> PAW hartree energy AE =     343.35143682 Ry
      -> PAW hartree energy PS =    -343.34580792 Ry
      -> PAW xc energy AE      =    -178.98708938 Ry
      -> PAW xc energy PS      =      57.03704744 Ry
      -> total E_H with PAW    =     314.11367251 Ry
      -> total E_XC with PAW   =    -182.02149858 Ry

     total magnetization       =     0.47 Bohr mag/cell
     absolute magnetization    =     0.53 Bohr mag/cell

     convergence has been achieved in  21 iterations

     Forces acting on atoms (cartesian axes, Ry/au):

     atom    1 type  1   force =     0.00000000    0.00000000    0.04138820
     atom    2 type  2   force =     0.00000000    0.00000000   -0.03377263
     atom    3 type  2   force =    -0.00000000   -0.00000000   -0.03349056
     atom    4 type  3   force =     0.00000000    0.00000000    0.02587499
     The non-local contrib.  to forces
     atom    1 type  1   force =    -0.00000000   -0.00000000    0.03128238
     atom    2 type  2   force =     0.00000000    0.00000000   -1.23461351
     atom    3 type  2   force =     0.00000000    0.00000000    0.65651005
     atom    4 type  3   force =     0.00000000   -0.00000000   -0.06417851
     The ionic contribution  to forces
     atom    1 type  1   force =    -0.00000000   -0.00000000   17.89096573
     atom    2 type  2   force =     0.00000000   -0.00000000   37.43303437
     atom    3 type  2   force =    -0.00000000    0.00000000  -25.18183875
     atom    4 type  3   force =     0.00000000   -0.00000000  -30.14216135
     The local contribution  to forces
     atom    1 type  1   force =    -0.00000000   -0.00000000  -17.88057307
     atom    2 type  2   force =     0.00000001   -0.00000001  -36.24327898
     atom    3 type  2   force =    -0.00000001    0.00000001   24.49730038
     atom    4 type  3   force =    -0.00000000   -0.00000000   30.23239802
     The core correction contribution to forces
     atom    1 type  1   force =     0.00000000   -0.00000000   -0.00046787
     atom    2 type  2   force =    -0.00000000    0.00000000    0.01099569
     atom    3 type  2   force =     0.00000000   -0.00000000   -0.00536672
     atom    4 type  3   force =    -0.00000000    0.00000000   -0.00001527
     The Hubbard contrib.    to forces
     atom    1 type  1   force =     0.00000000    0.00000000    0.00000000
     atom    2 type  2   force =     0.00000000    0.00000000    0.00000000
     atom    3 type  2   force =     0.00000000    0.00000000    0.00000000
     atom    4 type  3   force =     0.00000000    0.00000000    0.00000000
     The SCF correction term to forces
     atom    1 type  1   force =     0.00000000    0.00000000    0.00021605
     atom    2 type  2   force =    -0.00000000    0.00000000    0.00012481
     atom    3 type  2   force =     0.00000000   -0.00000000   -0.00006051
     atom    4 type  3   force =     0.00000000   -0.00000000   -0.00013289

     Total force =     0.068152     Total SCF correction =     0.000289

     Writing all to output data dir ./out/pw.save/ :
     XML data file, charge density, pseudopotentials, collected wavefunctions
 
     init_run     :     12.76s CPU      3.32s WALL (       1 calls)
     electrons    :    103.60s CPU     28.60s WALL (       1 calls)
     forces       :      0.58s CPU      0.54s WALL (       1 calls)

     Called by init_run:
     wfcinit      :      0.26s CPU      0.31s WALL (       1 calls)
     wfcinit:atom :      0.04s CPU      0.04s WALL (      50 calls)
     wfcinit:wfcr :      0.16s CPU      0.19s WALL (      50 calls)
     potinit      :     11.96s CPU      2.40s WALL (       1 calls)
     hinit0       :      0.45s CPU      0.46s WALL (       1 calls)

     Called by electrons:
     c_bands      :     13.77s CPU     14.00s WALL (      21 calls)
     sum_band     :      2.30s CPU      2.31s WALL (      21 calls)
     v_of_rho     :      0.36s CPU      0.20s WALL (      22 calls)
     v_h          :      0.25s CPU      0.04s WALL (      22 calls)
     v_xc         :      0.11s CPU      0.17s WALL (      23 calls)
     newd         :      0.51s CPU      0.38s WALL (      22 calls)
                                        0.38s GPU  (      22 calls)
     PAW_pot      :     89.80s CPU     11.58s WALL (      22 calls)
     mix_rho      :      0.68s CPU      0.67s WALL (      21 calls)

     Called by c_bands:
     init_us_2    :      0.85s CPU      0.84s WALL (    2200 calls)
     cegterg      :     12.09s CPU     12.32s WALL (    1050 calls)

     Called by sum_band:
     sum_band:wei :      0.03s CPU      0.03s WALL (      21 calls)
                                        0.03s GPU  (      21 calls)
     sum_band:loo :      1.42s CPU      1.42s WALL (      21 calls)
                                        1.42s GPU  (      21 calls)
     sum_band:buf :      0.18s CPU      0.20s WALL (    1050 calls)
                                        0.19s GPU  (    1050 calls)
     sum_band:ini :      0.40s CPU      0.41s WALL (    1050 calls)
                                        0.40s GPU  (    1050 calls)
     sum_band:cal :      0.04s CPU      0.06s WALL (    1050 calls)
                                        0.05s GPU  (    1050 calls)
     sum_band:bec :      0.22s CPU      0.24s WALL (    1050 calls)
                                        0.23s GPU  (    1050 calls)
     addusdens    :      0.70s CPU      0.71s WALL (      21 calls)
                                        0.71s GPU  (      21 calls)
     addusd:skk   :      0.00s CPU      0.00s WALL (      63 calls)
                                        0.00s GPU  (      63 calls)

     Called by *egterg:
     cdiaghg      :      4.35s CPU      4.49s WALL (    4930 calls)
                                        4.43s GPU  (    4930 calls)
     cegterg:over :      1.01s CPU      1.05s WALL (    3880 calls)
     cegterg:upda :      0.71s CPU      0.73s WALL (    3880 calls)
     cegterg:last :      0.12s CPU      0.13s WALL (    2060 calls)
     h_psi        :      4.22s CPU      4.39s WALL (    4980 calls)
                                        4.33s GPU  (    4980 calls)
     s_psi        :      0.74s CPU      0.78s WALL (    4980 calls)
     g_psi        :      0.02s CPU      0.09s WALL (    3880 calls)
                                        0.05s GPU  (    3880 calls)

     Called by h_psi:
     h_psi:calbec :      0.15s CPU      0.28s WALL (    4980 calls)
                                        0.22s GPU  (    4980 calls)
     vloc_psi     :      2.89s CPU      2.97s WALL (    4980 calls)
                                        2.91s GPU  (    4980 calls)
     add_vuspsi   :      0.67s CPU      0.80s WALL (    4980 calls)
                                        0.74s GPU  (    4980 calls)

     General routines
     calbec       :      0.16s CPU      0.19s WALL (    6230 calls)
     fft          :      3.47s CPU      0.95s WALL (     563 calls)
                                        0.02s GPU  (     519 calls)
     ffts         :      4.41s CPU      0.82s WALL (     880 calls)
                                        0.02s GPU  (     836 calls)
     fftw         :      0.26s CPU      1.02s WALL (   16400 calls)
                                        0.84s GPU  (   16400 calls)
     interpolate  :      8.01s CPU      1.74s WALL (      44 calls)
 
     Parallel routines

     PAW routines
     PAW_pot      :     89.80s CPU     11.58s WALL (      22 calls)
     PAW_symme    :      0.02s CPU      0.00s WALL (      43 calls)
 
     PWSCF        :   1m57.84s CPU     33.04s WALL

 
   This run was terminated on:   3:52:11  12Jul2026            

=------------------------------------------------------------------------------=
   JOB DONE.
=------------------------------------------------------------------------------=
Warning: ieee_divide_by_zero is signaling
Warning: ieee_inexact is signaling
FORTRAN STOP
