
     Program PWSCF v.7.3.1 starts on 12Jul2026 at  5:39:39 

     This program is part of the open-source Quantum ESPRESSO suite
     for quantum simulation of materials; please cite
         "P. Giannozzi et al., J. Phys.:Condens. Matter 21 395502 (2009);
         "P. Giannozzi et al., J. Phys.:Condens. Matter 29 465901 (2017);
         "P. Giannozzi et al., J. Chem. Phys. 152 154105 (2020);
          URL http://www.quantum-espresso.org", 
     in publications or presentations arising from this work. More details at
     http://www.quantum-espresso.org/quote

     Parallel version (MPI & OpenMP), running on      14 processor cores
     Number of MPI processes:                 1
     Threads/MPI process:                    14

     MPI processes distributed on     1 nodes
     1360390 MiB available memory on the printing compute node when the environment starts
 
     Reading input from pw.in

     Current dimensions of program PWSCF are:
     Max number of different atomic species (ntypx) = 10
     Max number of k-points (npk) =  40000
     Max angular momentum in pseudopotentials (lmaxx) =  4
     file Co.pbe-spn-kjpaw_psl.0.3.1.UPF: wavefunction(s)  3P 3D renormalized
     file O.pbe-n-kjpaw_psl.1.0.0.UPF: wavefunction(s)  2S 2P renormalized
     file K.pbe-spn-kjpaw_psl.1.0.0.UPF: wavefunction(s)  3S renormalized
 
     Subspace diagonalization in iterative solution of the eigenvalue problem:
     a serial algorithm will be used

 
     G-vector sticks info
     --------------------
     sticks:   dense  smooth     PW     G-vecs:    dense   smooth      PW
     Sum        1003     499    151                86309    30591    5001
 
     Using Slab Decomposition
 


     bravais-lattice index     =            4
     lattice parameter (alat)  =       5.4802  a.u.
     unit-cell volume          =     486.5847 (a.u.)^3
     number of atoms/cell      =            4
     number of atomic types    =            3
     number of electrons       =        38.00
     number of Kohn-Sham states=           27
     kinetic-energy cutoff     =      60.0000  Ry
     charge density cutoff     =     480.0000  Ry
     scf convergence threshold =      1.0E-07
     mixing beta               =       0.3000
     number of iterations used =            8  local-TF  mixing
     Exchange-correlation= SLA  PW   PBX  PBC
                           (   1   4   3   4   0   0   0)

     GPU acceleration is ACTIVE.  1 visible GPUs per MPI rank
     GPU-aware MPI enabled


     GPU used by master process:

        Device Number: 0
        Device name: NVIDIA A100-SXM4-80GB
        Compute capability : 80
        Ratio of single to double precision performance  : 2
        Memory Clock Rate (KHz): 1593000
        Memory Bus Width (bits): 5120
        Peak Memory Bandwidth (GB/s): ******

     celldm(1)=   5.480206  celldm(2)=   0.000000  celldm(3)=   3.413793
     celldm(4)=   0.000000  celldm(5)=   0.000000  celldm(6)=   0.000000

     crystal axes: (cart. coord. in units of alat)
               a(1) = (   1.000000   0.000000   0.000000 )  
               a(2) = (  -0.500000   0.866025   0.000000 )  
               a(3) = (   0.000000   0.000000   3.413793 )  

     reciprocal axes: (cart. coord. in units 2 pi/alat)
               b(1) = (  1.000000  0.577350 -0.000000 )  
               b(2) = (  0.000000  1.154701  0.000000 )  
               b(3) = (  0.000000 -0.000000  0.292929 )  


     PseudoPot. # 1 for Co read from file:
     ../../pseudo/Co.pbe-spn-kjpaw_psl.0.3.1.UPF
     MD5 check sum: 3c0a43779828c046024e4f3be63f8e67
     Pseudo is Projector augmented-wave + core cor, Zval = 17.0
     Generated using &quot;atomic&quot; code by A. Dal Corso  v.6.2.2
     Shape of augmentation charge: PSQ
     Using radial grid of 1193 points,  6 beta functions with: 
                l(1) =   0
                l(2) =   0
                l(3) =   1
                l(4) =   1
                l(5) =   2
                l(6) =   2
     Q(r) pseudized with 0 coefficients 


     PseudoPot. # 2 for O  read from file:
     ../../pseudo/O.pbe-n-kjpaw_psl.1.0.0.UPF
     MD5 check sum: e99d9cef9b487d1ca56f5b95ecd0fd7a
     Pseudo is Projector augmented-wave + core cor, Zval =  6.0
     Generated using &quot;atomic&quot; code by A. Dal Corso  v.6.3
     Shape of augmentation charge: PSQ
     Using radial grid of 1095 points,  4 beta functions with: 
                l(1) =   0
                l(2) =   0
                l(3) =   1
                l(4) =   1
     Q(r) pseudized with 0 coefficients 


     PseudoPot. # 3 for K  read from file:
     ../../pseudo/K.pbe-spn-kjpaw_psl.1.0.0.UPF
     MD5 check sum: 34cc42130a09071ebe376fd42eb21491
     Pseudo is Projector augmented-wave + core cor, Zval =  9.0
     Generated using &quot;atomic&quot; code by A. Dal Corso  v.6.2.2
     Shape of augmentation charge: PSQ
     Using radial grid of 1165 points,  6 beta functions with: 
                l(1) =   0
                l(2) =   0
                l(3) =   1
                l(4) =   1
                l(5) =   2
                l(6) =   2
     Q(r) pseudized with 0 coefficients 


     atomic species   valence    mass     pseudopotential
     Co               17.00    58.93300     Co( 1.00)
     O                 6.00    15.99900     O ( 1.00)
     K                 9.00    39.09830     K ( 1.00)

     Starting magnetic structure 
     atomic species   magnetization
     Co              0.300
     O               0.000
     K               0.000

      6 Sym. Ops. (no inversion) found


                                    s                        frac. trans.

      isym =  1     identity                                     

 cryst.   s( 1) = (     1          0          0      )
                  (     0          1          0      )
                  (     0          0          1      )

 cart.    s( 1) = (  1.0000000  0.0000000  0.0000000 )
                  (  0.0000000  1.0000000  0.0000000 )
                  (  0.0000000  0.0000000  1.0000000 )


      isym =  2     120 deg rotation - cryst. axis [0,0,1]       

 cryst.   s( 2) = (     0          1          0      )
                  (    -1         -1          0      )
                  (     0          0          1      )

 cart.    s( 2) = ( -0.5000000 -0.8660254  0.0000000 )
                  (  0.8660254 -0.5000000  0.0000000 )
                  (  0.0000000  0.0000000  1.0000000 )


      isym =  3     120 deg rotation - cryst. axis [0,0,-1]      

 cryst.   s( 3) = (    -1         -1          0      )
                  (     1          0          0      )
                  (     0          0          1      )

 cart.    s( 3) = ( -0.5000000  0.8660254  0.0000000 )
                  ( -0.8660254 -0.5000000  0.0000000 )
                  (  0.0000000  0.0000000  1.0000000 )


      isym =  4     inv. 180 deg rotation - cart. axis [1,0,0]   

 cryst.   s( 4) = (    -1          0          0      )
                  (     1          1          0      )
                  (     0          0          1      )

 cart.    s( 4) = ( -1.0000000  0.0000000  0.0000000 )
                  (  0.0000000  1.0000000  0.0000000 )
                  (  0.0000000  0.0000000  1.0000000 )


      isym =  5     inv. 180 deg rotation - cryst. axis [0,1,0]  

 cryst.   s( 5) = (     1          1          0      )
                  (     0         -1          0      )
                  (     0          0          1      )

 cart.    s( 5) = (  0.5000000  0.8660254  0.0000000 )
                  (  0.8660254 -0.5000000  0.0000000 )
                  (  0.0000000  0.0000000  1.0000000 )


      isym =  6     inv. 180 deg rotation - cryst. axis [1,1,0]  

 cryst.   s( 6) = (     0         -1          0      )
                  (    -1          0          0      )
                  (     0          0          1      )

 cart.    s( 6) = (  0.5000000 -0.8660254  0.0000000 )
                  ( -0.8660254 -0.5000000  0.0000000 )
                  (  0.0000000  0.0000000  1.0000000 )


     point group C_3v (3m)  
     there are  3 classes
     the character table:

       E     2C3   3s_v 
A_1    1.00  1.00  1.00
A_2    1.00  1.00 -1.00
E      2.00 -1.00  0.00

     the symmetry operations in each class and the name of the first element:

     E        1
          identity                                               
     2C3      2    3
          120 deg rotation - cryst. axis [0,0,1]                 
     3s_v     4    5    6
          inv. 180 deg rotation - cart. axis [1,0,0]             

   Cartesian axes

     site n.     atom                  positions (alat units)
         1        Co     tau(   1) = (   0.0000000   0.0000000   0.0000000  )
         2        O      tau(   2) = (  -0.0000000   0.5773503   0.3310345  )
         3        O      tau(   3) = (   0.5000000   0.2886751   3.0827586  )
         4        K      tau(   4) = (   0.0000000   0.0000000   2.0517241  )

   Crystallographic axes

     site n.     atom                  positions (cryst. coord.)
         1        Co     tau(   1) = (  0.0000000  0.0000000  0.0000000  )
         2        O      tau(   2) = (  0.3333333  0.6666667  0.0969697  )
         3        O      tau(   3) = (  0.6666667  0.3333333  0.9030303  )
         4        K      tau(   4) = (  0.0000000  0.0000000  0.6010101  )

     number of k points=    25  Marzari-Vanderbilt smearing, width (Ry)=  0.0200
                       cart. coord. in units 2pi/alat
        k(    1) = (   0.0000000   0.0000000   0.0000000), wk =   0.0052083
        k(    2) = (   0.0000000   0.0000000   0.0976431), wk =   0.0104167
        k(    3) = (   0.0000000   0.1443376   0.0000000), wk =   0.0312500
        k(    4) = (   0.0000000   0.1443376   0.0976431), wk =   0.0312500
        k(    5) = (   0.0000000   0.2886751   0.0000000), wk =   0.0312500
        k(    6) = (   0.0000000   0.2886751   0.0976431), wk =   0.0312500
        k(    7) = (   0.0000000   0.4330127   0.0000000), wk =   0.0312500
        k(    8) = (   0.0000000   0.4330127   0.0976431), wk =   0.0312500
        k(    9) = (   0.0000000  -0.5773503   0.0000000), wk =   0.0156250
        k(   10) = (   0.0000000  -0.5773503   0.0976431), wk =   0.0312500
        k(   11) = (   0.1250000   0.2165064   0.0000000), wk =   0.0312500
        k(   12) = (   0.1250000   0.2165064   0.0976431), wk =   0.0625000
        k(   13) = (   0.1250000   0.3608439   0.0000000), wk =   0.0625000
        k(   14) = (   0.1250000   0.3608439   0.0976431), wk =   0.0625000
        k(   15) = (   0.1250000   0.5051815   0.0000000), wk =   0.0625000
        k(   16) = (   0.1250000   0.5051815   0.0976431), wk =   0.0625000
        k(   17) = (   0.2500000   0.4330127   0.0000000), wk =   0.0312500
        k(   18) = (   0.2500000   0.4330127   0.0976431), wk =   0.0625000
        k(   19) = (   0.2500000   0.5773503   0.0000000), wk =   0.0312500
        k(   20) = (   0.2500000   0.5773503   0.0976431), wk =   0.0625000
        k(   21) = (   0.0000000  -0.1443376   0.0976431), wk =   0.0312500
        k(   22) = (   0.0000000  -0.2886751   0.0976431), wk =   0.0312500
        k(   23) = (   0.0000000  -0.4330127   0.0976431), wk =   0.0312500
        k(   24) = (  -0.1250000  -0.3608439   0.0976431), wk =   0.0625000
        k(   25) = (  -0.1250000  -0.5051815   0.0976431), wk =   0.0625000

                       cryst. coord.
        k(    1) = (   0.0000000   0.0000000   0.0000000), wk =   0.0052083
        k(    2) = (   0.0000000   0.0000000   0.3333333), wk =   0.0104167
        k(    3) = (   0.0000000   0.1250000   0.0000000), wk =   0.0312500
        k(    4) = (   0.0000000   0.1250000   0.3333333), wk =   0.0312500
        k(    5) = (   0.0000000   0.2500000   0.0000000), wk =   0.0312500
        k(    6) = (   0.0000000   0.2500000   0.3333333), wk =   0.0312500
        k(    7) = (   0.0000000   0.3750000   0.0000000), wk =   0.0312500
        k(    8) = (   0.0000000   0.3750000   0.3333333), wk =   0.0312500
        k(    9) = (   0.0000000  -0.5000000   0.0000000), wk =   0.0156250
        k(   10) = (   0.0000000  -0.5000000   0.3333333), wk =   0.0312500
        k(   11) = (   0.1250000   0.1250000   0.0000000), wk =   0.0312500
        k(   12) = (   0.1250000   0.1250000   0.3333333), wk =   0.0625000
        k(   13) = (   0.1250000   0.2500000   0.0000000), wk =   0.0625000
        k(   14) = (   0.1250000   0.2500000   0.3333333), wk =   0.0625000
        k(   15) = (   0.1250000   0.3750000   0.0000000), wk =   0.0625000
        k(   16) = (   0.1250000   0.3750000   0.3333333), wk =   0.0625000
        k(   17) = (   0.2500000   0.2500000   0.0000000), wk =   0.0312500
        k(   18) = (   0.2500000   0.2500000   0.3333333), wk =   0.0625000
        k(   19) = (   0.2500000   0.3750000   0.0000000), wk =   0.0312500
        k(   20) = (   0.2500000   0.3750000   0.3333333), wk =   0.0625000
        k(   21) = (   0.0000000  -0.1250000   0.3333333), wk =   0.0312500
        k(   22) = (   0.0000000  -0.2500000   0.3333333), wk =   0.0312500
        k(   23) = (   0.0000000  -0.3750000   0.3333333), wk =   0.0312500
        k(   24) = (  -0.1250000  -0.2500000   0.3333333), wk =   0.0625000
        k(   25) = (  -0.1250000  -0.3750000   0.3333333), wk =   0.0625000

     Dense  grid:    86309 G-vectors     FFT dimensions: (  40,  40, 135)

     Smooth grid:    30591 G-vectors     FFT dimensions: (  27,  27,  96)

     Dynamical RAM for                 wfc:       1.57 MB

     Dynamical RAM for     wfc (w. buffer):      80.24 MB

     Dynamical RAM for           str. fact:       3.95 MB

     Dynamical RAM for           local pot:       0.00 MB

     Dynamical RAM for          nlocal pot:       3.03 MB

     Dynamical RAM for                qrad:       5.27 MB

     Dynamical RAM for          rho,v,vnew:      17.79 MB

     Dynamical RAM for               rhoin:       5.93 MB

     Dynamical RAM for            rho*nmix:      42.14 MB

     Dynamical RAM for           G-vectors:       5.17 MB

     Dynamical RAM for          h,s,v(r/c):       0.13 MB

     Dynamical RAM for          <psi|beta>:       0.02 MB

     Dynamical RAM for                 psi:       3.15 MB

     Dynamical RAM for                hpsi:       3.15 MB

     Dynamical RAM for                spsi:       3.15 MB

     Dynamical RAM for      wfcinit/wfcrot:       3.16 MB

     Dynamical RAM for           addusdens:     248.91 MB

     Dynamical RAM for          addusforce:     251.56 MB

     Estimated static dynamical RAM per process >     136.54 MB

     Estimated max dynamical RAM per process >     430.24 MB

     Check: negative core charge=   -0.000006
     Generating pointlists ...
     new r_m :   0.2745 (alat units)  1.5045 (a.u.) for type    1
     new r_m :   0.2745 (alat units)  1.5045 (a.u.) for type    2
     new r_m :   0.4125 (alat units)  2.2606 (a.u.) for type    3

     Initial potential from superposition of free atoms

     starting charge      37.9809, renormalised to      38.0000
     Starting wfcs are   26 randomized atomic wfcs +    1 random wfcs
     Checking if some PAW data can be deallocated... 

     total cpu time spent up to now is        3.9 secs

     Self-consistent Calculation
[tb_dev] Currently allocated     6.58E-01 Mbytes, locked:    0 /   6
[tb_pin] Currently allocated     0.00E+00 Mbytes, locked:    0 /   0

     iteration #  1     ecut=    60.00 Ry     beta= 0.30
     Davidson diagonalization with overlap

---- Real-time Memory Report at c_bands before calling an iterative solver
           715 MiB given to the printing process from OS
             0 MiB allocation reported by mallinfo(arena+hblkhd)
       1356756 MiB available memory on the node where the printing process lives
     GPU memory used/free/total (MiB): 1110 / 80040 / 81151
------------------
     ethr =  1.00E-02,  avg # of iterations =  8.3

     total cpu time spent up to now is        6.1 secs

     total energy              =    -572.71655945 Ry
     estimated scf accuracy    <       2.05786280 Ry

     total magnetization       =     4.00 Bohr mag/cell
     absolute magnetization    =     4.00 Bohr mag/cell
[tb_dev] Currently allocated     3.05E-05 Mbytes, locked:    0 /   2
[tb_pin] Currently allocated     0.00E+00 Mbytes, locked:    0 /   0

     iteration #  2     ecut=    60.00 Ry     beta= 0.30
     Davidson diagonalization with overlap

---- Real-time Memory Report at c_bands before calling an iterative solver
           760 MiB given to the printing process from OS
             0 MiB allocation reported by mallinfo(arena+hblkhd)
       1354662 MiB available memory on the node where the printing process lives
     GPU memory used/free/total (MiB): 1130 / 80020 / 81151
------------------
     ethr =  5.42E-03,  avg # of iterations =  2.0

     total cpu time spent up to now is        7.5 secs

     total energy              =    -572.68088574 Ry
     estimated scf accuracy    <       1.00628354 Ry

     total magnetization       =     3.88 Bohr mag/cell
     absolute magnetization    =     3.88 Bohr mag/cell
[tb_dev] Currently allocated     3.05E-05 Mbytes, locked:    0 /   2
[tb_pin] Currently allocated     0.00E+00 Mbytes, locked:    0 /   0

     iteration #  3     ecut=    60.00 Ry     beta= 0.30
     Davidson diagonalization with overlap

---- Real-time Memory Report at c_bands before calling an iterative solver
           762 MiB given to the printing process from OS
             0 MiB allocation reported by mallinfo(arena+hblkhd)
       1353741 MiB available memory on the node where the printing process lives
     GPU memory used/free/total (MiB): 1130 / 80020 / 81151
------------------
     ethr =  2.65E-03,  avg # of iterations =  2.6

     total cpu time spent up to now is        9.0 secs

     total energy              =    -572.92948909 Ry
     estimated scf accuracy    <       1.54123942 Ry

     total magnetization       =     1.31 Bohr mag/cell
     absolute magnetization    =     1.47 Bohr mag/cell
[tb_dev] Currently allocated     3.05E-05 Mbytes, locked:    0 /   2
[tb_pin] Currently allocated     0.00E+00 Mbytes, locked:    0 /   0

     iteration #  4     ecut=    60.00 Ry     beta= 0.30
     Davidson diagonalization with overlap

---- Real-time Memory Report at c_bands before calling an iterative solver
           765 MiB given to the printing process from OS
             0 MiB allocation reported by mallinfo(arena+hblkhd)
       1352445 MiB available memory on the node where the printing process lives
     GPU memory used/free/total (MiB): 1130 / 80020 / 81151
------------------
     ethr =  2.65E-03,  avg # of iterations =  1.6

     total cpu time spent up to now is       10.4 secs

     total energy              =    -572.94063719 Ry
     estimated scf accuracy    <       2.87949057 Ry

     total magnetization       =     0.79 Bohr mag/cell
     absolute magnetization    =     1.14 Bohr mag/cell
[tb_dev] Currently allocated     3.05E-05 Mbytes, locked:    0 /   2
[tb_pin] Currently allocated     0.00E+00 Mbytes, locked:    0 /   0

     iteration #  5     ecut=    60.00 Ry     beta= 0.30
     Davidson diagonalization with overlap

---- Real-time Memory Report at c_bands before calling an iterative solver
           766 MiB given to the printing process from OS
             0 MiB allocation reported by mallinfo(arena+hblkhd)
       1351226 MiB available memory on the node where the printing process lives
     GPU memory used/free/total (MiB): 1130 / 80020 / 81151
------------------
     ethr =  2.65E-03,  avg # of iterations =  1.3

     total cpu time spent up to now is       11.7 secs

     total energy              =    -572.47499846 Ry
     estimated scf accuracy    <       2.24720546 Ry

     total magnetization       =     0.58 Bohr mag/cell
     absolute magnetization    =     1.12 Bohr mag/cell
[tb_dev] Currently allocated     3.05E-05 Mbytes, locked:    0 /   2
[tb_pin] Currently allocated     0.00E+00 Mbytes, locked:    0 /   0

     iteration #  6     ecut=    60.00 Ry     beta= 0.30
     Davidson diagonalization with overlap

---- Real-time Memory Report at c_bands before calling an iterative solver
           768 MiB given to the printing process from OS
             0 MiB allocation reported by mallinfo(arena+hblkhd)
       1349952 MiB available memory on the node where the printing process lives
     GPU memory used/free/total (MiB): 1130 / 80020 / 81151
------------------
     ethr =  2.65E-03,  avg # of iterations =  2.8

     total cpu time spent up to now is       13.2 secs

     total energy              =    -572.18356566 Ry
     estimated scf accuracy    <      17.86681168 Ry

     total magnetization       =    -0.52 Bohr mag/cell
     absolute magnetization    =     0.68 Bohr mag/cell
[tb_dev] Currently allocated     3.05E-05 Mbytes, locked:    0 /   2
[tb_pin] Currently allocated     0.00E+00 Mbytes, locked:    0 /   0

     iteration #  7     ecut=    60.00 Ry     beta= 0.30
     Davidson diagonalization with overlap

---- Real-time Memory Report at c_bands before calling an iterative solver
           769 MiB given to the printing process from OS
             0 MiB allocation reported by mallinfo(arena+hblkhd)
       1347853 MiB available memory on the node where the printing process lives
     GPU memory used/free/total (MiB): 1130 / 80020 / 81151
------------------
     ethr =  2.65E-03,  avg # of iterations =  1.1

     total cpu time spent up to now is       14.5 secs

     total energy              =    -572.84909241 Ry
     estimated scf accuracy    <       0.38337853 Ry

     total magnetization       =     0.31 Bohr mag/cell
     absolute magnetization    =     0.85 Bohr mag/cell
[tb_dev] Currently allocated     3.05E-05 Mbytes, locked:    0 /   2
[tb_pin] Currently allocated     0.00E+00 Mbytes, locked:    0 /   0

     iteration #  8     ecut=    60.00 Ry     beta= 0.30
     Davidson diagonalization with overlap

---- Real-time Memory Report at c_bands before calling an iterative solver
           771 MiB given to the printing process from OS
             0 MiB allocation reported by mallinfo(arena+hblkhd)
       1345884 MiB available memory on the node where the printing process lives
     GPU memory used/free/total (MiB): 1130 / 80020 / 81151
------------------
     ethr =  1.01E-03,  avg # of iterations =  2.1

     total cpu time spent up to now is       16.0 secs

     total energy              =    -572.86619549 Ry
     estimated scf accuracy    <       0.02671934 Ry

     total magnetization       =     0.51 Bohr mag/cell
     absolute magnetization    =     0.68 Bohr mag/cell
[tb_dev] Currently allocated     3.05E-05 Mbytes, locked:    0 /   2
[tb_pin] Currently allocated     0.00E+00 Mbytes, locked:    0 /   0

     iteration #  9     ecut=    60.00 Ry     beta= 0.30
     Davidson diagonalization with overlap

---- Real-time Memory Report at c_bands before calling an iterative solver
           773 MiB given to the printing process from OS
             0 MiB allocation reported by mallinfo(arena+hblkhd)
       1343011 MiB available memory on the node where the printing process lives
     GPU memory used/free/total (MiB): 1130 / 80020 / 81151
------------------
     c_bands:  1 eigenvalues not converged
     c_bands:  1 eigenvalues not converged
     ethr =  7.03E-05,  avg # of iterations = 10.3

     total cpu time spent up to now is       18.4 secs

     total energy              =    -572.87230704 Ry
     estimated scf accuracy    <       0.06020862 Ry

     total magnetization       =     0.43 Bohr mag/cell
     absolute magnetization    =     0.61 Bohr mag/cell
[tb_dev] Currently allocated     3.05E-05 Mbytes, locked:    0 /   2
[tb_pin] Currently allocated     0.00E+00 Mbytes, locked:    0 /   0

     iteration # 10     ecut=    60.00 Ry     beta= 0.30
     Davidson diagonalization with overlap

---- Real-time Memory Report at c_bands before calling an iterative solver
           776 MiB given to the printing process from OS
             0 MiB allocation reported by mallinfo(arena+hblkhd)
       1359613 MiB available memory on the node where the printing process lives
     GPU memory used/free/total (MiB): 1130 / 80020 / 81151
------------------
     ethr =  7.03E-05,  avg # of iterations =  1.8

     total cpu time spent up to now is       19.8 secs

     total energy              =    -572.87617396 Ry
     estimated scf accuracy    <       0.00282670 Ry

     total magnetization       =     0.57 Bohr mag/cell
     absolute magnetization    =     0.65 Bohr mag/cell
[tb_dev] Currently allocated     3.05E-05 Mbytes, locked:    0 /   2
[tb_pin] Currently allocated     0.00E+00 Mbytes, locked:    0 /   0

     iteration # 11     ecut=    60.00 Ry     beta= 0.30
     Davidson diagonalization with overlap

---- Real-time Memory Report at c_bands before calling an iterative solver
           776 MiB given to the printing process from OS
             0 MiB allocation reported by mallinfo(arena+hblkhd)
       1358552 MiB available memory on the node where the printing process lives
     GPU memory used/free/total (MiB): 1130 / 80020 / 81151
------------------
     c_bands:  1 eigenvalues not converged
     c_bands:  1 eigenvalues not converged
     c_bands:  1 eigenvalues not converged
     c_bands:  1 eigenvalues not converged
     c_bands:  1 eigenvalues not converged
     ethr =  7.44E-06,  avg # of iterations =  9.1

     total cpu time spent up to now is       22.2 secs

     total energy              =    -572.87706074 Ry
     estimated scf accuracy    <       0.00383614 Ry

     total magnetization       =     0.65 Bohr mag/cell
     absolute magnetization    =     0.74 Bohr mag/cell
[tb_dev] Currently allocated     3.05E-05 Mbytes, locked:    0 /   2
[tb_pin] Currently allocated     0.00E+00 Mbytes, locked:    0 /   0

     iteration # 12     ecut=    60.00 Ry     beta= 0.30
     Davidson diagonalization with overlap

---- Real-time Memory Report at c_bands before calling an iterative solver
           776 MiB given to the printing process from OS
             0 MiB allocation reported by mallinfo(arena+hblkhd)
       1356516 MiB available memory on the node where the printing process lives
     GPU memory used/free/total (MiB): 1130 / 80020 / 81151
------------------
     c_bands:  1 eigenvalues not converged
     ethr =  7.44E-06,  avg # of iterations =  2.3

     total cpu time spent up to now is       23.7 secs

     total energy              =    -572.87750027 Ry
     estimated scf accuracy    <       0.00104989 Ry

     total magnetization       =     0.60 Bohr mag/cell
     absolute magnetization    =     0.69 Bohr mag/cell
[tb_dev] Currently allocated     3.05E-05 Mbytes, locked:    0 /   2
[tb_pin] Currently allocated     0.00E+00 Mbytes, locked:    0 /   0

     iteration # 13     ecut=    60.00 Ry     beta= 0.30
     Davidson diagonalization with overlap

---- Real-time Memory Report at c_bands before calling an iterative solver
           776 MiB given to the printing process from OS
             0 MiB allocation reported by mallinfo(arena+hblkhd)
       1355320 MiB available memory on the node where the printing process lives
     GPU memory used/free/total (MiB): 1130 / 80020 / 81151
------------------
     c_bands:  1 eigenvalues not converged
     ethr =  2.76E-06,  avg # of iterations =  3.6

     total cpu time spent up to now is       25.3 secs

     total energy              =    -572.87749801 Ry
     estimated scf accuracy    <       0.01074318 Ry

     total magnetization       =     0.68 Bohr mag/cell
     absolute magnetization    =     0.77 Bohr mag/cell
[tb_dev] Currently allocated     3.05E-05 Mbytes, locked:    0 /   2
[tb_pin] Currently allocated     0.00E+00 Mbytes, locked:    0 /   0

     iteration # 14     ecut=    60.00 Ry     beta= 0.30
     Davidson diagonalization with overlap

---- Real-time Memory Report at c_bands before calling an iterative solver
           776 MiB given to the printing process from OS
             0 MiB allocation reported by mallinfo(arena+hblkhd)
       1354139 MiB available memory on the node where the printing process lives
     GPU memory used/free/total (MiB): 1130 / 80020 / 81151
------------------
     ethr =  2.76E-06,  avg # of iterations =  1.4

     total cpu time spent up to now is       26.7 secs

     total energy              =    -572.87767379 Ry
     estimated scf accuracy    <       0.00051827 Ry

     total magnetization       =     0.59 Bohr mag/cell
     absolute magnetization    =     0.71 Bohr mag/cell
[tb_dev] Currently allocated     3.05E-05 Mbytes, locked:    0 /   2
[tb_pin] Currently allocated     0.00E+00 Mbytes, locked:    0 /   0

     iteration # 15     ecut=    60.00 Ry     beta= 0.30
     Davidson diagonalization with overlap

---- Real-time Memory Report at c_bands before calling an iterative solver
           776 MiB given to the printing process from OS
             0 MiB allocation reported by mallinfo(arena+hblkhd)
       1353036 MiB available memory on the node where the printing process lives
     GPU memory used/free/total (MiB): 1130 / 80020 / 81151
------------------
     ethr =  1.36E-06,  avg # of iterations =  1.7

     total cpu time spent up to now is       28.1 secs

     total energy              =    -572.87775877 Ry
     estimated scf accuracy    <       0.00032910 Ry

     total magnetization       =     0.56 Bohr mag/cell
     absolute magnetization    =     0.72 Bohr mag/cell
[tb_dev] Currently allocated     3.05E-05 Mbytes, locked:    0 /   2
[tb_pin] Currently allocated     0.00E+00 Mbytes, locked:    0 /   0

     iteration # 16     ecut=    60.00 Ry     beta= 0.30
     Davidson diagonalization with overlap

---- Real-time Memory Report at c_bands before calling an iterative solver
           776 MiB given to the printing process from OS
             0 MiB allocation reported by mallinfo(arena+hblkhd)
       1352195 MiB available memory on the node where the printing process lives
     GPU memory used/free/total (MiB): 1130 / 80020 / 81151
------------------
     c_bands:  1 eigenvalues not converged
     c_bands:  1 eigenvalues not converged
     ethr =  8.66E-07,  avg # of iterations =  2.5

     total cpu time spent up to now is       29.5 secs

     total energy              =    -572.87778106 Ry
     estimated scf accuracy    <       0.00027647 Ry

     total magnetization       =     0.56 Bohr mag/cell
     absolute magnetization    =     0.71 Bohr mag/cell
[tb_dev] Currently allocated     3.05E-05 Mbytes, locked:    0 /   2
[tb_pin] Currently allocated     0.00E+00 Mbytes, locked:    0 /   0

     iteration # 17     ecut=    60.00 Ry     beta= 0.30
     Davidson diagonalization with overlap

---- Real-time Memory Report at c_bands before calling an iterative solver
           776 MiB given to the printing process from OS
             0 MiB allocation reported by mallinfo(arena+hblkhd)
       1350975 MiB available memory on the node where the printing process lives
     GPU memory used/free/total (MiB): 1130 / 80020 / 81151
------------------
     ethr =  7.28E-07,  avg # of iterations =  1.4

     total cpu time spent up to now is       30.9 secs

     total energy              =    -572.87772902 Ry
     estimated scf accuracy    <       0.00019648 Ry

     total magnetization       =     0.58 Bohr mag/cell
     absolute magnetization    =     0.71 Bohr mag/cell
[tb_dev] Currently allocated     3.05E-05 Mbytes, locked:    0 /   2
[tb_pin] Currently allocated     0.00E+00 Mbytes, locked:    0 /   0

     iteration # 18     ecut=    60.00 Ry     beta= 0.30
     Davidson diagonalization with overlap

---- Real-time Memory Report at c_bands before calling an iterative solver
           776 MiB given to the printing process from OS
             0 MiB allocation reported by mallinfo(arena+hblkhd)
       1349265 MiB available memory on the node where the printing process lives
     GPU memory used/free/total (MiB): 1130 / 80020 / 81151
------------------
     ethr =  5.17E-07,  avg # of iterations =  1.8

     total cpu time spent up to now is       32.3 secs

     total energy              =    -572.87774128 Ry
     estimated scf accuracy    <       0.00020152 Ry

     total magnetization       =     0.60 Bohr mag/cell
     absolute magnetization    =     0.70 Bohr mag/cell
[tb_dev] Currently allocated     3.05E-05 Mbytes, locked:    0 /   2
[tb_pin] Currently allocated     0.00E+00 Mbytes, locked:    0 /   0

     iteration # 19     ecut=    60.00 Ry     beta= 0.30
     Davidson diagonalization with overlap

---- Real-time Memory Report at c_bands before calling an iterative solver
           776 MiB given to the printing process from OS
             0 MiB allocation reported by mallinfo(arena+hblkhd)
       1346833 MiB available memory on the node where the printing process lives
     GPU memory used/free/total (MiB): 1130 / 80020 / 81151
------------------
     ethr =  5.17E-07,  avg # of iterations =  1.6

     total cpu time spent up to now is       33.7 secs

     total energy              =    -572.87773706 Ry
     estimated scf accuracy    <       0.00011388 Ry

     total magnetization       =     0.60 Bohr mag/cell
     absolute magnetization    =     0.70 Bohr mag/cell
[tb_dev] Currently allocated     3.05E-05 Mbytes, locked:    0 /   2
[tb_pin] Currently allocated     0.00E+00 Mbytes, locked:    0 /   0

     iteration # 20     ecut=    60.00 Ry     beta= 0.30
     Davidson diagonalization with overlap

---- Real-time Memory Report at c_bands before calling an iterative solver
           776 MiB given to the printing process from OS
             0 MiB allocation reported by mallinfo(arena+hblkhd)
       1344455 MiB available memory on the node where the printing process lives
     GPU memory used/free/total (MiB): 1130 / 80020 / 81151
------------------
     ethr =  3.00E-07,  avg # of iterations =  2.0

     total cpu time spent up to now is       35.1 secs

     total energy              =    -572.87781975 Ry
     estimated scf accuracy    <       0.00001898 Ry

     total magnetization       =     0.54 Bohr mag/cell
     absolute magnetization    =     0.76 Bohr mag/cell
[tb_dev] Currently allocated     3.05E-05 Mbytes, locked:    0 /   2
[tb_pin] Currently allocated     0.00E+00 Mbytes, locked:    0 /   0

     iteration # 21     ecut=    60.00 Ry     beta= 0.30
     Davidson diagonalization with overlap

---- Real-time Memory Report at c_bands before calling an iterative solver
           776 MiB given to the printing process from OS
             0 MiB allocation reported by mallinfo(arena+hblkhd)
       1341077 MiB available memory on the node where the printing process lives
     GPU memory used/free/total (MiB): 1130 / 80020 / 81151
------------------
     ethr =  4.99E-08,  avg # of iterations =  6.3

     total cpu time spent up to now is       37.1 secs

     total energy              =    -572.87785287 Ry
     estimated scf accuracy    <       0.00001160 Ry

     total magnetization       =     0.56 Bohr mag/cell
     absolute magnetization    =     0.74 Bohr mag/cell
[tb_dev] Currently allocated     3.05E-05 Mbytes, locked:    0 /   2
[tb_pin] Currently allocated     0.00E+00 Mbytes, locked:    0 /   0

     iteration # 22     ecut=    60.00 Ry     beta= 0.30
     Davidson diagonalization with overlap

---- Real-time Memory Report at c_bands before calling an iterative solver
           776 MiB given to the printing process from OS
             0 MiB allocation reported by mallinfo(arena+hblkhd)
       1359035 MiB available memory on the node where the printing process lives
     GPU memory used/free/total (MiB): 1130 / 80020 / 81151
------------------
     ethr =  3.05E-08,  avg # of iterations =  1.9

     total cpu time spent up to now is       38.5 secs

     total energy              =    -572.87787994 Ry
     estimated scf accuracy    <       0.00000283 Ry

     total magnetization       =     0.54 Bohr mag/cell
     absolute magnetization    =     0.75 Bohr mag/cell
[tb_dev] Currently allocated     3.05E-05 Mbytes, locked:    0 /   2
[tb_pin] Currently allocated     0.00E+00 Mbytes, locked:    0 /   0

     iteration # 23     ecut=    60.00 Ry     beta= 0.30
     Davidson diagonalization with overlap

---- Real-time Memory Report at c_bands before calling an iterative solver
           776 MiB given to the printing process from OS
             0 MiB allocation reported by mallinfo(arena+hblkhd)
       1358054 MiB available memory on the node where the printing process lives
     GPU memory used/free/total (MiB): 1130 / 80020 / 81151
------------------
     ethr =  7.46E-09,  avg # of iterations =  5.3

     total cpu time spent up to now is       40.4 secs

     total energy              =    -572.87791647 Ry
     estimated scf accuracy    <       0.00000312 Ry

     total magnetization       =     0.51 Bohr mag/cell
     absolute magnetization    =     0.78 Bohr mag/cell
[tb_dev] Currently allocated     3.05E-05 Mbytes, locked:    0 /   2
[tb_pin] Currently allocated     0.00E+00 Mbytes, locked:    0 /   0

     iteration # 24     ecut=    60.00 Ry     beta= 0.30
     Davidson diagonalization with overlap

---- Real-time Memory Report at c_bands before calling an iterative solver
           776 MiB given to the printing process from OS
             0 MiB allocation reported by mallinfo(arena+hblkhd)
       1357054 MiB available memory on the node where the printing process lives
     GPU memory used/free/total (MiB): 1130 / 80020 / 81151
------------------
     ethr =  7.46E-09,  avg # of iterations =  2.0

     total cpu time spent up to now is       41.8 secs

     total energy              =    -572.87793099 Ry
     estimated scf accuracy    <       0.00000214 Ry

     total magnetization       =     0.51 Bohr mag/cell
     absolute magnetization    =     0.79 Bohr mag/cell
[tb_dev] Currently allocated     3.05E-05 Mbytes, locked:    0 /   2
[tb_pin] Currently allocated     0.00E+00 Mbytes, locked:    0 /   0

     iteration # 25     ecut=    60.00 Ry     beta= 0.30
     Davidson diagonalization with overlap

---- Real-time Memory Report at c_bands before calling an iterative solver
           776 MiB given to the printing process from OS
             0 MiB allocation reported by mallinfo(arena+hblkhd)
       1355367 MiB available memory on the node where the printing process lives
     GPU memory used/free/total (MiB): 1130 / 80020 / 81151
------------------
     ethr =  5.62E-09,  avg # of iterations =  3.2

     total cpu time spent up to now is       43.4 secs

     total energy              =    -572.87793627 Ry
     estimated scf accuracy    <       0.00000190 Ry

     total magnetization       =     0.50 Bohr mag/cell
     absolute magnetization    =     0.79 Bohr mag/cell
[tb_dev] Currently allocated     3.05E-05 Mbytes, locked:    0 /   2
[tb_pin] Currently allocated     0.00E+00 Mbytes, locked:    0 /   0

     iteration # 26     ecut=    60.00 Ry     beta= 0.30
     Davidson diagonalization with overlap

---- Real-time Memory Report at c_bands before calling an iterative solver
           776 MiB given to the printing process from OS
             0 MiB allocation reported by mallinfo(arena+hblkhd)
       1355421 MiB available memory on the node where the printing process lives
     GPU memory used/free/total (MiB): 1130 / 80020 / 81151
------------------
     ethr =  5.01E-09,  avg # of iterations =  1.6

     total cpu time spent up to now is       44.8 secs

     total energy              =    -572.87794138 Ry
     estimated scf accuracy    <       0.00000196 Ry

     total magnetization       =     0.50 Bohr mag/cell
     absolute magnetization    =     0.80 Bohr mag/cell
[tb_dev] Currently allocated     3.05E-05 Mbytes, locked:    0 /   2
[tb_pin] Currently allocated     0.00E+00 Mbytes, locked:    0 /   0

     iteration # 27     ecut=    60.00 Ry     beta= 0.30
     Davidson diagonalization with overlap

---- Real-time Memory Report at c_bands before calling an iterative solver
           776 MiB given to the printing process from OS
             0 MiB allocation reported by mallinfo(arena+hblkhd)
       1353566 MiB available memory on the node where the printing process lives
     GPU memory used/free/total (MiB): 1130 / 80020 / 81151
------------------
     ethr =  5.01E-09,  avg # of iterations =  1.7

     total cpu time spent up to now is       46.2 secs

     total energy              =    -572.87795272 Ry
     estimated scf accuracy    <       0.00000190 Ry

     total magnetization       =     0.49 Bohr mag/cell
     absolute magnetization    =     0.80 Bohr mag/cell
[tb_dev] Currently allocated     3.05E-05 Mbytes, locked:    0 /   2
[tb_pin] Currently allocated     0.00E+00 Mbytes, locked:    0 /   0

     iteration # 28     ecut=    60.00 Ry     beta= 0.30
     Davidson diagonalization with overlap

---- Real-time Memory Report at c_bands before calling an iterative solver
           776 MiB given to the printing process from OS
             0 MiB allocation reported by mallinfo(arena+hblkhd)
       1352154 MiB available memory on the node where the printing process lives
     GPU memory used/free/total (MiB): 1130 / 80020 / 81151
------------------
     ethr =  4.99E-09,  avg # of iterations =  2.4

     total cpu time spent up to now is       47.6 secs

     total energy              =    -572.87797359 Ry
     estimated scf accuracy    <       0.00000195 Ry

     total magnetization       =     0.49 Bohr mag/cell
     absolute magnetization    =     0.81 Bohr mag/cell
[tb_dev] Currently allocated     3.05E-05 Mbytes, locked:    0 /   2
[tb_pin] Currently allocated     0.00E+00 Mbytes, locked:    0 /   0

     iteration # 29     ecut=    60.00 Ry     beta= 0.30
     Davidson diagonalization with overlap

---- Real-time Memory Report at c_bands before calling an iterative solver
           776 MiB given to the printing process from OS
             0 MiB allocation reported by mallinfo(arena+hblkhd)
       1350521 MiB available memory on the node where the printing process lives
     GPU memory used/free/total (MiB): 1130 / 80020 / 81151
------------------
     ethr =  4.99E-09,  avg # of iterations =  5.1

     total cpu time spent up to now is       49.5 secs

     total energy              =    -572.87801926 Ry
     estimated scf accuracy    <       0.00000231 Ry

     total magnetization       =     0.46 Bohr mag/cell
     absolute magnetization    =     0.84 Bohr mag/cell
[tb_dev] Currently allocated     3.05E-05 Mbytes, locked:    0 /   2
[tb_pin] Currently allocated     0.00E+00 Mbytes, locked:    0 /   0

     iteration # 30     ecut=    60.00 Ry     beta= 0.30
     Davidson diagonalization with overlap

---- Real-time Memory Report at c_bands before calling an iterative solver
           776 MiB given to the printing process from OS
             0 MiB allocation reported by mallinfo(arena+hblkhd)
       1349296 MiB available memory on the node where the printing process lives
     GPU memory used/free/total (MiB): 1130 / 80020 / 81151
------------------
     ethr =  4.99E-09,  avg # of iterations =  2.9

     total cpu time spent up to now is       51.0 secs

     total energy              =    -572.87801136 Ry
     estimated scf accuracy    <       0.00000273 Ry

     total magnetization       =     0.45 Bohr mag/cell
     absolute magnetization    =     0.84 Bohr mag/cell
[tb_dev] Currently allocated     3.05E-05 Mbytes, locked:    0 /   2
[tb_pin] Currently allocated     0.00E+00 Mbytes, locked:    0 /   0

     iteration # 31     ecut=    60.00 Ry     beta= 0.30
     Davidson diagonalization with overlap

---- Real-time Memory Report at c_bands before calling an iterative solver
           776 MiB given to the printing process from OS
             0 MiB allocation reported by mallinfo(arena+hblkhd)
       1346424 MiB available memory on the node where the printing process lives
     GPU memory used/free/total (MiB): 1130 / 80020 / 81151
------------------
     c_bands:  1 eigenvalues not converged
     ethr =  4.99E-09,  avg # of iterations =  6.2

     total cpu time spent up to now is       53.0 secs

     total energy              =    -572.87806575 Ry
     estimated scf accuracy    <       0.00000224 Ry

     total magnetization       =     0.41 Bohr mag/cell
     absolute magnetization    =     0.88 Bohr mag/cell
[tb_dev] Currently allocated     3.05E-05 Mbytes, locked:    0 /   2
[tb_pin] Currently allocated     0.00E+00 Mbytes, locked:    0 /   0

     iteration # 32     ecut=    60.00 Ry     beta= 0.30
     Davidson diagonalization with overlap

---- Real-time Memory Report at c_bands before calling an iterative solver
           776 MiB given to the printing process from OS
             0 MiB allocation reported by mallinfo(arena+hblkhd)
       1343187 MiB available memory on the node where the printing process lives
     GPU memory used/free/total (MiB): 1130 / 80020 / 81151
------------------
     ethr =  4.99E-09,  avg # of iterations =  3.5

     total cpu time spent up to now is       54.6 secs

     total energy              =    -572.87807439 Ry
     estimated scf accuracy    <       0.00000054 Ry

     total magnetization       =     0.40 Bohr mag/cell
     absolute magnetization    =     0.89 Bohr mag/cell
[tb_dev] Currently allocated     3.05E-05 Mbytes, locked:    0 /   2
[tb_pin] Currently allocated     0.00E+00 Mbytes, locked:    0 /   0

     iteration # 33     ecut=    60.00 Ry     beta= 0.30
     Davidson diagonalization with overlap

---- Real-time Memory Report at c_bands before calling an iterative solver
           776 MiB given to the printing process from OS
             0 MiB allocation reported by mallinfo(arena+hblkhd)
       1360280 MiB available memory on the node where the printing process lives
     GPU memory used/free/total (MiB): 1130 / 80020 / 81151
------------------
     ethr =  1.43E-09,  avg # of iterations =  4.1

     total cpu time spent up to now is       56.3 secs

     total energy              =    -572.87807457 Ry
     estimated scf accuracy    <       0.00000028 Ry

     total magnetization       =     0.40 Bohr mag/cell
     absolute magnetization    =     0.90 Bohr mag/cell
[tb_dev] Currently allocated     3.05E-05 Mbytes, locked:    0 /   2
[tb_pin] Currently allocated     0.00E+00 Mbytes, locked:    0 /   0

     iteration # 34     ecut=    60.00 Ry     beta= 0.30
     Davidson diagonalization with overlap

---- Real-time Memory Report at c_bands before calling an iterative solver
           776 MiB given to the printing process from OS
             0 MiB allocation reported by mallinfo(arena+hblkhd)
       1359093 MiB available memory on the node where the printing process lives
     GPU memory used/free/total (MiB): 1130 / 80020 / 81151
------------------
     ethr =  7.48E-10,  avg # of iterations =  2.7

     total cpu time spent up to now is       57.8 secs

     total energy              =    -572.87807247 Ry
     estimated scf accuracy    <       0.00000016 Ry

     total magnetization       =     0.40 Bohr mag/cell
     absolute magnetization    =     0.89 Bohr mag/cell
[tb_dev] Currently allocated     3.05E-05 Mbytes, locked:    0 /   2
[tb_pin] Currently allocated     0.00E+00 Mbytes, locked:    0 /   0

     iteration # 35     ecut=    60.00 Ry     beta= 0.30
     Davidson diagonalization with overlap

---- Real-time Memory Report at c_bands before calling an iterative solver
           776 MiB given to the printing process from OS
             0 MiB allocation reported by mallinfo(arena+hblkhd)
       1357835 MiB available memory on the node where the printing process lives
     GPU memory used/free/total (MiB): 1130 / 80020 / 81151
------------------
     ethr =  4.09E-10,  avg # of iterations =  5.3

     total cpu time spent up to now is       59.6 secs

     total energy              =    -572.87807385 Ry
     estimated scf accuracy    <       0.00000042 Ry

     total magnetization       =     0.40 Bohr mag/cell
     absolute magnetization    =     0.90 Bohr mag/cell
[tb_dev] Currently allocated     3.05E-05 Mbytes, locked:    0 /   2
[tb_pin] Currently allocated     0.00E+00 Mbytes, locked:    0 /   0

     iteration # 36     ecut=    60.00 Ry     beta= 0.30
     Davidson diagonalization with overlap

---- Real-time Memory Report at c_bands before calling an iterative solver
           776 MiB given to the printing process from OS
             0 MiB allocation reported by mallinfo(arena+hblkhd)
       1356283 MiB available memory on the node where the printing process lives
     GPU memory used/free/total (MiB): 1130 / 80020 / 81151
------------------
     ethr =  4.09E-10,  avg # of iterations =  4.1
 
     Magnetic moment per site  (integrated on atomic sphere of radius R)
     atom   1 (R=0.275)  charge= 14.1187  magn=  0.5029
     atom   2 (R=0.275)  charge=  5.2152  magn=  0.0560
     atom   3 (R=0.275)  charge=  5.2516  magn=  0.0343
     atom   4 (R=0.413)  charge=  7.8075  magn= -0.0920

     total cpu time spent up to now is       61.3 secs

     End of self-consistent calculation

 ------ SPIN UP ------------


          k = 0.0000 0.0000 0.0000 (  3827 PWs)   bands (ev):

   -89.3928 -52.6375 -52.5943 -52.5943 -27.9243 -13.0556 -11.2493 -11.0402
    -9.8804  -9.8804   0.6121   1.2094   1.2094   3.9162   4.7651   4.7651
     4.8133   4.8133   5.0375   6.0147   7.5901   8.5653   8.5653   9.8710
    10.5509  10.5509  12.6569

     occupation numbers 
     1.0000   1.0000   1.0000   1.0000   1.0000   1.0000   1.0000   1.0000
     1.0000   1.0000   1.0000   1.0000   1.0000   1.0000   1.0000   1.0000
     1.0000   1.0000   1.0000   1.0730   0.0000   0.0000   0.0000   0.0000
     0.0000   0.0000   0.0000

          k = 0.0000 0.0000 0.0976 (  3838 PWs)   bands (ev):

   -89.3928 -52.6376 -52.5944 -52.5944 -27.9243 -13.0557 -11.2471 -11.0424
    -9.8804  -9.8804   0.6193   1.2094   1.2094   3.8226   4.7652   4.7652
     4.8133   4.8133   5.2013   5.9661   7.5859   8.5653   8.5653   9.7555
    10.5508  10.5508  12.8924

     occupation numbers 
     1.0000   1.0000   1.0000   1.0000   1.0000   1.0000   1.0000   1.0000
     1.0000   1.0000   1.0000   1.0000   1.0000   1.0000   1.0000   1.0000
     1.0000   1.0000   1.0000   1.0833   0.0000   0.0000   0.0000   0.0000
     0.0000   0.0000   0.0000

          k = 0.0000 0.1443 0.0000 (  3809 PWs)   bands (ev):

   -89.3921 -52.6363 -52.6021 -52.5962 -27.8380 -12.8888 -11.2172 -10.9963
   -10.3232  -9.9711   0.7705   1.0630   1.3185   3.6363   4.0629   4.2980
     5.1691   5.4137   5.5218   6.1298   7.8967   8.1201   8.4677   9.8447
     9.9536  11.1087  12.6994

     occupation numbers 
     1.0000   1.0000   1.0000   1.0000   1.0000   1.0000   1.0000   1.0000
     1.0000   1.0000   1.0000   1.0000   1.0000   1.0000   1.0000   1.0000
     1.0000   1.0002   1.0013   0.9483   0.0000   0.0000   0.0000   0.0000
     0.0000   0.0000   0.0000

          k = 0.0000 0.1443 0.0976 (  3828 PWs)   bands (ev):

   -89.3921 -52.6365 -52.6022 -52.5962 -27.8380 -12.8889 -11.2155 -10.9979
   -10.3231  -9.9711   0.7746   1.0631   1.3186   3.6381   4.0629   4.2340
     5.1622   5.4138   5.6897   6.0439   7.9045   8.1063   8.4678   9.8118
     9.9525  11.1087  12.5807

     occupation numbers 
     1.0000   1.0000   1.0000   1.0000   1.0000   1.0000   1.0000   1.0000
     1.0000   1.0000   1.0000   1.0000   1.0000   1.0000   1.0000   1.0000
     1.0000   1.0002   1.0136   1.0561   0.0000   0.0000   0.0000   0.0000
     0.0000   0.0000   0.0000

          k = 0.0000 0.2887 0.0000 (  3822 PWs)   bands (ev):

   -89.3904 -52.6338 -52.6209 -52.6007 -27.6212 -12.4528 -11.3106 -11.1906
   -10.8384 -10.1819   0.7075   1.2965   1.5784   2.3315   3.4960   4.5972
     5.2947   5.6415   5.8487   6.6323   7.4027   8.0763   8.3487   9.4018
    10.2408  12.6394  12.7846

     occupation numbers 
     1.0000   1.0000   1.0000   1.0000   1.0000   1.0000   1.0000   1.0000
     1.0000   1.0000   1.0000   1.0000   1.0000   1.0000   1.0000   1.0000
     1.0000   1.0075   1.0565   0.0251   0.0000   0.0000   0.0000   0.0000
     0.0000   0.0000   0.0000

          k = 0.0000 0.2887 0.0976 (  3809 PWs)   bands (ev):

   -89.3904 -52.6337 -52.6209 -52.6007 -27.6212 -12.4528 -11.3107 -11.1900
   -10.8389 -10.1819   0.7063   1.2985   1.5784   2.3332   3.4959   4.5896
     5.2887   5.6415   5.8713   6.5813   7.4920   8.0155   8.3488   9.4227
    10.2643  12.6285  12.6396

     occupation numbers 
     1.0000   1.0000   1.0000   1.0000   1.0000   1.0000   1.0000   1.0000
     1.0000   1.0000   1.0000   1.0000   1.0000   1.0000   1.0000   1.0000
     1.0000   1.0075   1.0642   0.0478   0.0000   0.0000   0.0000   0.0000
     0.0000   0.0000   0.0000

          k = 0.0000 0.4330 0.0000 (  3818 PWs)   bands (ev):

   -89.3887 -52.6398 -52.6308 -52.6053 -27.3909 -12.2079 -11.9303 -11.2398
   -10.6467 -10.3826   0.2645   1.2888   1.7857   2.3561   3.2945   4.1164
     5.1613   5.4244   5.6609   6.5710   7.3684   7.8490   8.3849   9.9290
    11.7269  12.8545  13.3889

     occupation numbers 
     1.0000   1.0000   1.0000   1.0000   1.0000   1.0000   1.0000   1.0000
     1.0000   1.0000   1.0000   1.0000   1.0000   1.0000   1.0000   1.0000
     1.0000   1.0002   1.0096   0.0541   0.0000   0.0000   0.0000   0.0000
     0.0000   0.0000   0.0000

          k = 0.0000 0.4330 0.0976 (  3823 PWs)   bands (ev):

   -89.3887 -52.6398 -52.6309 -52.6053 -27.3909 -12.2079 -11.9304 -11.2397
   -10.6468 -10.3826   0.2647   1.2881   1.7857   2.3574   3.2944   4.1138
     5.1625   5.4245   5.6602   6.5656   7.4504   7.7538   8.3849   9.9643
    11.7228  12.8543  13.3529

     occupation numbers 
     1.0000   1.0000   1.0000   1.0000   1.0000   1.0000   1.0000   1.0000
     1.0000   1.0000   1.0000   1.0000   1.0000   1.0000   1.0000   1.0000
     1.0000   1.0002   1.0095   0.0576   0.0000   0.0000   0.0000   0.0000
     0.0000   0.0000   0.0000

          k = 0.0000-0.5774 0.0000 (  3830 PWs)   bands (ev):

   -89.3881 -52.6476 -52.6298 -52.6072 -27.2911 -12.5576 -11.6483 -11.3180
   -10.5618 -10.4629  -0.1114   1.4565   1.8305   2.5375   3.3339   3.8311
     4.9252   5.2259   5.6058   6.3220   7.2890   7.9288   8.4325  11.0422
    11.7909  12.6925  13.8977

     occupation numbers 
     1.0000   1.0000   1.0000   1.0000   1.0000   1.0000   1.0000   1.0000
     1.0000   1.0000   1.0000   1.0000   1.0000   1.0000   1.0000   1.0000
     1.0000   1.0000   1.0046   0.4675   0.0000   0.0000   0.0000   0.0000
     0.0000   0.0000   0.0000

          k = 0.0000-0.5774 0.0976 (  3834 PWs)   bands (ev):

   -89.3881 -52.6476 -52.6298 -52.6072 -27.2911 -12.5576 -11.6483 -11.3180
   -10.5618 -10.4629  -0.1112   1.4559   1.8305   2.5389   3.3339   3.8268
     4.9259   5.2259   5.6074   6.3229   7.3143   7.9034   8.4325  11.0207
    11.7866  12.6923  13.9928

     occupation numbers 
     1.0000   1.0000   1.0000   1.0000   1.0000   1.0000   1.0000   1.0000
     1.0000   1.0000   1.0000   1.0000   1.0000   1.0000   1.0000   1.0000
     1.0000   1.0000   1.0047   0.4651   0.0000   0.0000   0.0000   0.0000
     0.0000   0.0000   0.0000

          k = 0.1250 0.2165 0.0000 (  3807 PWs)   bands (ev):

   -89.3909 -52.6344 -52.6146 -52.6002 -27.6860 -12.5871 -11.1962 -10.9791
   -10.8868 -10.1811   0.7892   1.2016   1.4683   2.7811   3.3658   4.6550
     5.2503   5.6939   5.8851   6.5491   7.6357   8.1866   8.4889   9.0865
     9.8155  12.3425  12.7780

     occupation numbers 
     1.0000   1.0000   1.0000   1.0000   1.0000   1.0000   1.0000   1.0000
     1.0000   1.0000   1.0000   1.0000   1.0000   1.0000   1.0000   1.0000
     1.0000   1.0142   1.0687   0.0696   0.0000   0.0000   0.0000   0.0000
     0.0000   0.0000   0.0000

          k = 0.1250 0.2165 0.0976 (  3820 PWs)   bands (ev):

   -89.3909 -52.6345 -52.6146 -52.6003 -27.6860 -12.5872 -11.1955 -10.9790
   -10.8875 -10.1811   0.7882   1.2040   1.4683   2.7830   3.3658   4.6359
     5.2494   5.6877   5.9174   6.5330   7.6898   8.1319   8.4846   9.0864
     9.8470  12.3421  12.6423

     occupation numbers 
     1.0000   1.0000   1.0000   1.0000   1.0000   1.0000   1.0000   1.0000
     1.0000   1.0000   1.0000   1.0000   1.0000   1.0000   1.0000   1.0000
     1.0000   1.0133   1.0776   0.0830   0.0000   0.0000   0.0000   0.0000
     0.0000   0.0000   0.0000

          k = 0.1250 0.3608 0.0000 (  3816 PWs)   bands (ev):

   -89.3892 -52.6322 -52.6311 -52.6067 -27.4604 -12.1139 -11.8038 -11.2071
   -10.7054 -10.5056   0.6627   1.1757   1.7734   2.2490   2.9402   4.4210
     5.2845   5.5357   5.8681   7.2782   7.4868   8.0056   8.1334   9.3766
    10.5107  12.1855  13.3735

     occupation numbers 
     1.0000   1.0000   1.0000   1.0000   1.0000   1.0000   1.0000   1.0000
     1.0000   1.0000   1.0000   1.0000   1.0000   1.0000   1.0000   1.0000
     1.0000   1.0016   1.0631   0.0000   0.0000   0.0000   0.0000   0.0000
     0.0000   0.0000   0.0000

          k = 0.1250 0.3608 0.0976 (  3805 PWs)   bands (ev):

   -89.3892 -52.6321 -52.6310 -52.6066 -27.4604 -12.1139 -11.8039 -11.2069
   -10.7056 -10.5055   0.6623   1.1755   1.7734   2.2504   2.9402   4.4207
     5.2846   5.5364   5.8679   7.2370   7.5531   7.9308   8.1738   9.3895
    10.5210  12.1839  13.3252

     occupation numbers 
     1.0000   1.0000   1.0000   1.0000   1.0000   1.0000   1.0000   1.0000
     1.0000   1.0000   1.0000   1.0000   1.0000   1.0000   1.0000   1.0000
     1.0000   1.0016   1.0631   0.0000   0.0000   0.0000   0.0000   0.0000
     0.0000   0.0000   0.0000

          k = 0.1250 0.5052 0.0000 (  3825 PWs)   bands (ev):

   -89.3881 -52.6434 -52.6298 -52.6114 -27.2923 -12.3651 -11.6969 -11.2699
   -10.7263 -10.5626   0.1702   1.1877   1.9852   2.5506   2.8677   3.8440
     5.0105   5.3447   5.7883   7.0438   7.4991   7.9149   8.2013  10.6351
    11.4087  11.6719  14.3615

     occupation numbers 
     1.0000   1.0000   1.0000   1.0000   1.0000   1.0000   1.0000   1.0000
     1.0000   1.0000   1.0000   1.0000   1.0000   1.0000   1.0000   1.0000
     1.0000   1.0000   1.0364   0.0000   0.0000   0.0000   0.0000   0.0000
     0.0000   0.0000   0.0000

          k = 0.1250 0.5052 0.0976 (  3819 PWs)   bands (ev):

   -89.3881 -52.6433 -52.6298 -52.6113 -27.2923 -12.3651 -11.6969 -11.2698
   -10.7263 -10.5626   0.1705   1.1874   1.9849   2.5515   2.8677   3.8415
     5.0110   5.3443   5.7896   7.0440   7.5271   7.8711   8.2176  10.6335
    11.4083  11.6698  14.3863

     occupation numbers 
     1.0000   1.0000   1.0000   1.0000   1.0000   1.0000   1.0000   1.0000
     1.0000   1.0000   1.0000   1.0000   1.0000   1.0000   1.0000   1.0000
     1.0000   1.0000   1.0368   0.0000   0.0000   0.0000   0.0000   0.0000
     0.0000   0.0000   0.0000

          k = 0.2500 0.4330 0.0000 (  3819 PWs)   bands (ev):

   -89.3881 -52.6374 -52.6300 -52.6171 -27.2935 -12.0862 -11.7353 -11.2315
   -11.0750 -10.5635   0.6802   0.9192   1.7856   2.4339   2.7115   3.8845
     5.0710   5.4379   5.9619   7.6610   7.8184   8.0530   8.5236   9.5816
    10.6358  11.1123  14.3650

     occupation numbers 
     1.0000   1.0000   1.0000   1.0000   1.0000   1.0000   1.0000   1.0000
     1.0000   1.0000   1.0000   1.0000   1.0000   1.0000   1.0000   1.0000
     1.0000   1.0003   1.0833   0.0000   0.0000   0.0000   0.0000   0.0000
     0.0000   0.0000   0.0000

          k = 0.2500 0.4330 0.0976 (  3817 PWs)   bands (ev):

   -89.3881 -52.6374 -52.6299 -52.6171 -27.2935 -12.0861 -11.7353 -11.2315
   -11.0750 -10.5636   0.6802   0.9192   1.7856   2.4338   2.7112   3.8849
     5.0707   5.4374   5.9646   7.6297   7.8190   8.0919   8.5209   9.5727
    10.6381  11.1075  14.4030

     occupation numbers 
     1.0000   1.0000   1.0000   1.0000   1.0000   1.0000   1.0000   1.0000
     1.0000   1.0000   1.0000   1.0000   1.0000   1.0000   1.0000   1.0000
     1.0000   1.0003   1.0833   0.0000   0.0000   0.0000   0.0000   0.0000
     0.0000   0.0000   0.0000

          k = 0.2500 0.5774 0.0000 (  3813 PWs)   bands (ev):

   -89.3876 -52.6379 -52.6290 -52.6235 -27.2224 -12.1130 -11.5747 -11.3958
   -11.2447 -10.5030   0.5561   0.9938   1.6099   2.5789   2.9189   3.4530
     4.8094   5.6220   5.8815   7.7743   7.7923   8.3112   8.5576   9.8096
    10.3349  11.5802  15.5875

     occupation numbers 
     1.0000   1.0000   1.0000   1.0000   1.0000   1.0000   1.0000   1.0000
     1.0000   1.0000   1.0000   1.0000   1.0000   1.0000   1.0000   1.0000
     1.0000   1.0058   1.0675   0.0000   0.0000   0.0000   0.0000   0.0000
     0.0000   0.0000   0.0000

          k = 0.2500 0.5774 0.0976 (  3823 PWs)   bands (ev):

   -89.3876 -52.6379 -52.6290 -52.6236 -27.2224 -12.1130 -11.5747 -11.3958
   -11.2448 -10.5030   0.5563   0.9939   1.6101   2.5784   2.9189   3.4522
     4.8094   5.6215   5.8829   7.7526   7.7955   8.3370   8.5523   9.8167
    10.3305  11.5772  15.4692

     occupation numbers 
     1.0000   1.0000   1.0000   1.0000   1.0000   1.0000   1.0000   1.0000
     1.0000   1.0000   1.0000   1.0000   1.0000   1.0000   1.0000   1.0000
     1.0000   1.0057   1.0680   0.0000   0.0000   0.0000   0.0000   0.0000
     0.0000   0.0000   0.0000

          k = 0.0000-0.1443 0.0976 (  3828 PWs)   bands (ev):

   -89.3921 -52.6365 -52.6022 -52.5962 -27.8380 -12.8889 -11.2155 -10.9979
   -10.3231  -9.9711   0.7749   1.0627   1.3185   3.6352   4.0629   4.2397
     5.1615   5.4137   5.6776   6.0591   7.8771   8.1236   8.4678   9.8196
     9.9502  11.1087  12.5988

     occupation numbers 
     1.0000   1.0000   1.0000   1.0000   1.0000   1.0000   1.0000   1.0000
     1.0000   1.0000   1.0000   1.0000   1.0000   1.0000   1.0000   1.0000
     1.0000   1.0002   1.0118   1.0436   0.0000   0.0000   0.0000   0.0000
     0.0000   0.0000   0.0000

          k = 0.0000-0.2887 0.0976 (  3809 PWs)   bands (ev):

   -89.3904 -52.6337 -52.6209 -52.6007 -27.6212 -12.4528 -11.3108 -11.1899
   -10.8389 -10.1819   0.7067   1.2973   1.5784   2.3341   3.4960   4.5912
     5.2907   5.6415   5.8541   6.6373   7.4012   8.0701   8.3487   9.4091
    10.2451  12.6393  12.7407

     occupation numbers 
     1.0000   1.0000   1.0000   1.0000   1.0000   1.0000   1.0000   1.0000
     1.0000   1.0000   1.0000   1.0000   1.0000   1.0000   1.0000   1.0000
     1.0000   1.0075   1.0584   0.0235   0.0000   0.0000   0.0000   0.0000
     0.0000   0.0000   0.0000

          k = 0.0000-0.4330 0.0976 (  3823 PWs)   bands (ev):

   -89.3887 -52.6398 -52.6309 -52.6053 -27.3909 -12.2078 -11.9304 -11.2397
   -10.6468 -10.3826   0.2644   1.2882   1.7857   2.3568   3.2945   4.1169
     5.1612   5.4244   5.6610   6.5747   7.3677   7.8478   8.3849   9.9041
    11.7243  12.8543  13.5117

     occupation numbers 
     1.0000   1.0000   1.0000   1.0000   1.0000   1.0000   1.0000   1.0000
     1.0000   1.0000   1.0000   1.0000   1.0000   1.0000   1.0000   1.0000
     1.0000   1.0002   1.0096   0.0518   0.0000   0.0000   0.0000   0.0000
     0.0000   0.0000   0.0000

          k =-0.1250-0.3608 0.0976 (  3805 PWs)   bands (ev):

   -89.3892 -52.6321 -52.6310 -52.6066 -27.4604 -12.1138 -11.8039 -11.2069
   -10.7056 -10.5055   0.6622   1.1755   1.7731   2.2509   2.9400   4.4222
     5.2841   5.5358   5.8677   7.2728   7.4877   7.9700   8.1710   9.3773
    10.5065  12.1910  13.3974

     occupation numbers 
     1.0000   1.0000   1.0000   1.0000   1.0000   1.0000   1.0000   1.0000
     1.0000   1.0000   1.0000   1.0000   1.0000   1.0000   1.0000   1.0000
     1.0000   1.0016   1.0630   0.0000   0.0000   0.0000   0.0000   0.0000
     0.0000   0.0000   0.0000

          k =-0.1250-0.5052 0.0976 (  3819 PWs)   bands (ev):

   -89.3881 -52.6433 -52.6298 -52.6113 -27.2923 -12.3651 -11.6969 -11.2699
   -10.7263 -10.5626   0.1704   1.1876   1.9852   2.5506   2.8676   3.8433
     5.0103   5.3441   5.7910   7.0483   7.4982   7.9040   8.2117  10.6124
    11.4117  11.6708  14.4684

     occupation numbers 
     1.0000   1.0000   1.0000   1.0000   1.0000   1.0000   1.0000   1.0000
     1.0000   1.0000   1.0000   1.0000   1.0000   1.0000   1.0000   1.0000
     1.0000   1.0000   1.0373   0.0000   0.0000   0.0000   0.0000   0.0000
     0.0000   0.0000   0.0000

 ------ SPIN DOWN ----------


          k = 0.0000 0.0000 0.0000 (  3827 PWs)   bands (ev):

   -88.7788 -52.0515 -52.0515 -51.9272 -28.0078 -12.9845 -11.2522 -11.0197
    -9.9611  -9.9611   0.8507   1.3914   1.3914   4.0075   4.6762   4.8286
     4.8286   5.2864   5.2864   6.7326   7.2778   8.8267   8.8267   9.8049
    10.3741  10.3741  12.6874

     occupation numbers 
     1.0000   1.0000   1.0000   1.0000   1.0000   1.0000   1.0000   1.0000
     1.0000   1.0000   1.0000   1.0000   1.0000   1.0000   1.0000   1.0000
     1.0000   1.0000   1.0000   0.0058   0.0000   0.0000   0.0000   0.0000
     0.0000   0.0000   0.0000

          k = 0.0000 0.0000 0.0976 (  3838 PWs)   bands (ev):

   -88.7788 -52.0515 -52.0515 -51.9273 -28.0078 -12.9846 -11.2501 -11.0218
    -9.9611  -9.9611   0.8604   1.3914   1.3914   3.8517   4.8286   4.8286
     4.8827   5.2864   5.2864   6.6798   7.2885   8.8267   8.8267   9.7087
    10.3741  10.3741  12.8950

     occupation numbers 
     1.0000   1.0000   1.0000   1.0000   1.0000   1.0000   1.0000   1.0000
     1.0000   1.0000   1.0000   1.0000   1.0000   1.0000   1.0000   1.0000
     1.0000   1.0000   1.0000   0.0129   0.0000   0.0000   0.0000   0.0000
     0.0000   0.0000   0.0000

          k = 0.0000 0.1443 0.0000 (  3809 PWs)   bands (ev):

   -88.7780 -52.0595 -52.0534 -51.9259 -27.9200 -12.8176 -11.1904 -11.0031
   -10.4148 -10.0531   0.9818   1.2623   1.4946   3.7871   4.2561   4.4218
     5.1610   5.6092   5.7741   6.7639   7.6173   8.3508   8.7223   9.6882
     9.8298  10.9368  12.6599

     occupation numbers 
     1.0000   1.0000   1.0000   1.0000   1.0000   1.0000   1.0000   1.0000
     1.0000   1.0000   1.0000   1.0000   1.0000   1.0000   1.0000   1.0000
     1.0000   1.0048   1.0322   0.0035   0.0000   0.0000   0.0000   0.0000
     0.0000   0.0000   0.0000

          k = 0.0000 0.1443 0.0976 (  3828 PWs)   bands (ev):

   -88.7781 -52.0596 -52.0534 -51.9260 -27.9200 -12.8177 -11.1883 -11.0052
   -10.4148 -10.0531   0.9861   1.2637   1.4946   3.7912   4.2561   4.3069
     5.3088   5.6264   5.7741   6.7067   7.6201   8.3529   8.7224   9.6793
     9.8168  10.9368  12.5289

     occupation numbers 
     1.0000   1.0000   1.0000   1.0000   1.0000   1.0000   1.0000   1.0000
     1.0000   1.0000   1.0000   1.0000   1.0000   1.0000   1.0000   1.0000
     1.0000   1.0061   1.0322   0.0087   0.0000   0.0000   0.0000   0.0000
     0.0000   0.0000   0.0000

          k = 0.0000 0.2887 0.0000 (  3822 PWs)   bands (ev):

   -88.7763 -52.0789 -52.0581 -51.9232 -27.6992 -12.3817 -11.4209 -11.1163
   -10.8884 -10.2670   0.8562   1.4966   1.7402   2.5003   3.6625   4.7527
     5.7522   6.0697   6.1186   6.6199   7.5414   7.9089   8.5869   9.2990
    10.0115  12.4819  12.7022

     occupation numbers 
     1.0000   1.0000   1.0000   1.0000   1.0000   1.0000   1.0000   1.0000
     1.0000   1.0000   1.0000   1.0000   1.0000   1.0000   1.0000   1.0000
     1.0263   1.0332   0.9676   0.0295   0.0000   0.0000   0.0000   0.0000
     0.0000   0.0000   0.0000

          k = 0.0000 0.2887 0.0976 (  3809 PWs)   bands (ev):

   -88.7763 -52.0789 -52.0581 -51.9231 -27.6992 -12.3818 -11.4209 -11.1154
   -10.8893 -10.2670   0.8549   1.4988   1.7403   2.5031   3.6625   4.7386
     5.7386   6.0697   6.1736   6.5648   7.6873   7.7733   8.5870   9.3138
    10.0479  12.4827  12.5483

     occupation numbers 
     1.0000   1.0000   1.0000   1.0000   1.0000   1.0000   1.0000   1.0000
     1.0000   1.0000   1.0000   1.0000   1.0000   1.0000   1.0000   1.0000
     1.0230   1.0332   0.8595   0.0582   0.0000   0.0000   0.0000   0.0000
     0.0000   0.0000   0.0000

          k = 0.0000 0.4330 0.0000 (  3818 PWs)   bands (ev):

   -88.7746 -52.0982 -52.0628 -51.9202 -27.4644 -12.3359 -11.8629 -11.1501
   -10.7001 -10.4703   0.3882   1.3823   1.9419   2.6024   3.3973   4.2722
     5.7529   5.9390   6.2004   6.2917   7.2055   8.0060   8.6169   9.7600
    11.4669  12.7689  13.2564

     occupation numbers 
     1.0000   1.0000   1.0000   1.0000   1.0000   1.0000   1.0000   1.0000
     1.0000   1.0000   1.0000   1.0000   1.0000   1.0000   1.0000   1.0000
     1.0265   1.0816   0.7959   0.5498   0.0000   0.0000   0.0000   0.0000
     0.0000   0.0000   0.0000

          k = 0.0000 0.4330 0.0976 (  3823 PWs)   bands (ev):

   -88.7746 -52.0983 -52.0628 -51.9202 -27.4644 -12.3358 -11.8629 -11.1499
   -10.7002 -10.4703   0.3883   1.3815   1.9420   2.6040   3.3973   4.2686
     5.7559   5.9390   6.1992   6.2862   7.2572   7.9322   8.6170   9.8051
    11.4623  12.7687  13.2208

     occupation numbers 
     1.0000   1.0000   1.0000   1.0000   1.0000   1.0000   1.0000   1.0000
     1.0000   1.0000   1.0000   1.0000   1.0000   1.0000   1.0000   1.0000
     1.0273   1.0816   0.7988   0.5649   0.0000   0.0000   0.0000   0.0000
     0.0000   0.0000   0.0000

          k = 0.0000-0.5774 0.0000 (  3830 PWs)   bands (ev):

   -88.7739 -52.1063 -52.0647 -51.9190 -27.3625 -12.6937 -11.5856 -11.2199
   -10.6134 -10.5517   0.0004   1.5240   1.9904   2.7827   3.3838   3.9714
     5.6453   5.7931   5.9893   6.1406   7.0462   8.2124   8.6658  10.9047
    11.4346  12.6043  13.7079

     occupation numbers 
     1.0000   1.0000   1.0000   1.0000   1.0000   1.0000   1.0000   1.0000
     1.0000   1.0000   1.0000   1.0000   1.0000   1.0000   1.0000   1.0000
     1.0079   1.0379   1.0808   0.9284   0.0000   0.0000   0.0000   0.0000
     0.0000   0.0000   0.0000

          k = 0.0000-0.5774 0.0976 (  3834 PWs)   bands (ev):

   -88.7739 -52.1063 -52.0647 -51.9190 -27.3625 -12.6937 -11.5856 -11.2199
   -10.6134 -10.5517   0.0006   1.5233   1.9904   2.7845   3.3838   3.9659
     5.6477   5.7931   5.9898   6.1425   7.0624   8.1943   8.6659  10.8833
    11.4319  12.6040  13.7933

     occupation numbers 
     1.0000   1.0000   1.0000   1.0000   1.0000   1.0000   1.0000   1.0000
     1.0000   1.0000   1.0000   1.0000   1.0000   1.0000   1.0000   1.0000
     1.0081   1.0379   1.0807   0.9248   0.0000   0.0000   0.0000   0.0000
     0.0000   0.0000   0.0000

          k = 0.1250 0.2165 0.0000 (  3807 PWs)   bands (ev):

   -88.7768 -52.0723 -52.0576 -51.9239 -27.7653 -12.5159 -11.1302 -11.0832
   -10.9300 -10.2670   0.9417   1.4288   1.6366   2.9245   3.5438   4.7930
     5.7472   5.9557   6.1032   6.6926   7.8170   8.2863   8.4490   8.8238
     9.7427  12.1756  12.7077

     occupation numbers 
     1.0000   1.0000   1.0000   1.0000   1.0000   1.0000   1.0000   1.0000
     1.0000   1.0000   1.0000   1.0000   1.0000   1.0000   1.0000   1.0000
     1.0251   1.0831   0.9914   0.0107   0.0000   0.0000   0.0000   0.0000
     0.0000   0.0000   0.0000

          k = 0.1250 0.2165 0.0976 (  3820 PWs)   bands (ev):

   -88.7768 -52.0723 -52.0576 -51.9240 -27.7653 -12.5160 -11.1294 -11.0828
   -10.9312 -10.2670   0.9405   1.4317   1.6368   2.9276   3.5438   4.7606
     5.7461   5.9560   6.1769   6.6440   7.8857   8.1581   8.4999   8.8237
     9.7787  12.1747  12.5735

     occupation numbers 
     1.0000   1.0000   1.0000   1.0000   1.0000   1.0000   1.0000   1.0000
     1.0000   1.0000   1.0000   1.0000   1.0000   1.0000   1.0000   1.0000
     1.0248   1.0832   0.8520   0.0214   0.0000   0.0000   0.0000   0.0000
     0.0000   0.0000   0.0000

          k = 0.1250 0.3608 0.0000 (  3816 PWs)   bands (ev):

   -88.7751 -52.0897 -52.0642 -51.9211 -27.5353 -12.0492 -11.9204 -11.1205
   -10.7592 -10.5976   0.7993   1.2924   1.9300   2.4715   3.0841   4.5694
     5.8183   6.1801   6.3630   6.8634   7.5509   7.9784   8.2987   9.2368
    10.3168  12.0564  13.2798

     occupation numbers 
     1.0000   1.0000   1.0000   1.0000   1.0000   1.0000   1.0000   1.0000
     1.0000   1.0000   1.0000   1.0000   1.0000   1.0000   1.0000   1.0000
     1.0461   0.8445   0.3633   0.0006   0.0000   0.0000   0.0000   0.0000
     0.0000   0.0000   0.0000

          k = 0.1250 0.3608 0.0976 (  3805 PWs)   bands (ev):

   -88.7751 -52.0897 -52.0642 -51.9211 -27.5353 -12.0491 -11.9205 -11.1202
   -10.7594 -10.5976   0.7990   1.2922   1.9300   2.4733   3.0841   4.5690
     5.8186   6.1811   6.3625   6.8506   7.5998   7.8987   8.3310   9.2483
    10.3318  12.0549  13.2314

     occupation numbers 
     1.0000   1.0000   1.0000   1.0000   1.0000   1.0000   1.0000   1.0000
     1.0000   1.0000   1.0000   1.0000   1.0000   1.0000   1.0000   1.0000
     1.0462   0.8423   0.3644   0.0007   0.0000   0.0000   0.0000   0.0000
     0.0000   0.0000   0.0000

          k = 0.1250 0.5052 0.0000 (  3825 PWs)   bands (ev):

   -88.7739 -52.1019 -52.0690 -51.9190 -27.3638 -12.4974 -11.6313 -11.1750
   -10.8224 -10.6143   0.2823   1.2867   2.1203   2.7490   2.9926   3.9942
     5.7825   5.8908   6.2542   6.7161   7.2943   8.1503   8.4215  10.4143
    11.1620  11.5518  14.2150

     occupation numbers 
     1.0000   1.0000   1.0000   1.0000   1.0000   1.0000   1.0000   1.0000
     1.0000   1.0000   1.0000   1.0000   1.0000   1.0000   1.0000   1.0000
     1.0347   1.0704   0.6534   0.0075   0.0000   0.0000   0.0000   0.0000
     0.0000   0.0000   0.0000

          k = 0.1250 0.5052 0.0976 (  3819 PWs)   bands (ev):

   -88.7739 -52.1019 -52.0690 -51.9191 -27.3638 -12.4974 -11.6313 -11.1749
   -10.8224 -10.6143   0.2826   1.2864   2.1200   2.7500   2.9929   3.9909
     5.7841   5.8902   6.2557   6.7163   7.3082   8.1225   8.4343  10.4138
    11.1614  11.5501  14.2365

     occupation numbers 
     1.0000   1.0000   1.0000   1.0000   1.0000   1.0000   1.0000   1.0000
     1.0000   1.0000   1.0000   1.0000   1.0000   1.0000   1.0000   1.0000
     1.0352   1.0703   0.6493   0.0075   0.0000   0.0000   0.0000   0.0000
     0.0000   0.0000   0.0000

          k = 0.2500 0.4330 0.0000 (  3819 PWs)   bands (ev):

   -88.7739 -52.0959 -52.0749 -51.9191 -27.3650 -12.2119 -11.6691 -11.1828
   -11.1355 -10.6152   0.7879   1.0396   1.8791   2.6008   2.9159   4.0347
     5.8837   5.9609   6.4002   7.5360   8.0507   8.0761   8.2425   9.3581
    10.4558  10.9921  14.2118

     occupation numbers 
     1.0000   1.0000   1.0000   1.0000   1.0000   1.0000   1.0000   1.0000
     1.0000   1.0000   1.0000   1.0000   1.0000   1.0000   1.0000   1.0000
     1.0683   1.0833   0.2792   0.0000   0.0000   0.0000   0.0000   0.0000
     0.0000   0.0000   0.0000

          k = 0.2500 0.4330 0.0976 (  3817 PWs)   bands (ev):

   -88.7739 -52.0958 -52.0750 -51.9190 -27.3650 -12.2119 -11.6691 -11.1827
   -11.1355 -10.6152   0.7880   1.0397   1.8791   2.6006   2.9153   4.0355
     5.8835   5.9599   6.4056   7.5084   8.0590   8.1084   8.2326   9.3494
    10.4584  10.9869  14.2457

     occupation numbers 
     1.0000   1.0000   1.0000   1.0000   1.0000   1.0000   1.0000   1.0000
     1.0000   1.0000   1.0000   1.0000   1.0000   1.0000   1.0000   1.0000
     1.0682   1.0833   0.2681   0.0000   0.0000   0.0000   0.0000   0.0000
     0.0000   0.0000   0.0000

          k = 0.2500 0.5774 0.0000 (  3813 PWs)   bands (ev):

   -88.7734 -52.0963 -52.0816 -51.9181 -27.2924 -12.2399 -11.5373 -11.4824
   -11.1463 -10.5533   0.6625   1.1010   1.6964   2.7239   3.1209   3.5929
     5.6760   6.1259   6.3524   7.8248   8.0294   8.2052   8.2690   9.6180
    10.0593  11.5073  15.1848

     occupation numbers 
     1.0000   1.0000   1.0000   1.0000   1.0000   1.0000   1.0000   1.0000
     1.0000   1.0000   1.0000   1.0000   1.0000   1.0000   1.0000   1.0000
     1.0115   0.9551   0.3892   0.0000   0.0000   0.0000   0.0000   0.0000
     0.0000   0.0000   0.0000

          k = 0.2500 0.5774 0.0976 (  3823 PWs)   bands (ev):

   -88.7734 -52.0964 -52.0816 -51.9182 -27.2924 -12.2399 -11.5373 -11.4824
   -11.1463 -10.5533   0.6627   1.1011   1.6966   2.7234   3.1209   3.5920
     5.6762   6.1252   6.3549   7.7964   8.0405   8.2215   8.2709   9.6263
    10.0548  11.5033  15.1567

     occupation numbers 
     1.0000   1.0000   1.0000   1.0000   1.0000   1.0000   1.0000   1.0000
     1.0000   1.0000   1.0000   1.0000   1.0000   1.0000   1.0000   1.0000
     1.0116   0.9565   0.3831   0.0000   0.0000   0.0000   0.0000   0.0000
     0.0000   0.0000   0.0000

          k = 0.0000-0.1443 0.0976 (  3828 PWs)   bands (ev):

   -88.7781 -52.0596 -52.0534 -51.9260 -27.9200 -12.8177 -11.1884 -11.0052
   -10.4148 -10.0531   0.9865   1.2633   1.4946   3.7852   4.2561   4.3194
     5.2939   5.6353   5.7741   6.7115   7.6093   8.3540   8.7224   9.6840
     9.8164  10.9368  12.5475

     occupation numbers 
     1.0000   1.0000   1.0000   1.0000   1.0000   1.0000   1.0000   1.0000
     1.0000   1.0000   1.0000   1.0000   1.0000   1.0000   1.0000   1.0000
     1.0000   1.0069   1.0322   0.0081   0.0000   0.0000   0.0000   0.0000
     0.0000   0.0000   0.0000

          k = 0.0000-0.2887 0.0976 (  3809 PWs)   bands (ev):

   -88.7763 -52.0789 -52.0581 -51.9231 -27.6992 -12.3818 -11.4209 -11.1154
   -10.8892 -10.2670   0.8552   1.4974   1.7403   2.5041   3.6625   4.7420
     5.7360   6.0697   6.1601   6.6046   7.5298   7.9129   8.5869   9.3049
    10.0198  12.4819  12.6576

     occupation numbers 
     1.0000   1.0000   1.0000   1.0000   1.0000   1.0000   1.0000   1.0000
     1.0000   1.0000   1.0000   1.0000   1.0000   1.0000   1.0000   1.0000
     1.0224   1.0332   0.8891   0.0359   0.0000   0.0000   0.0000   0.0000
     0.0000   0.0000   0.0000

          k = 0.0000-0.4330 0.0976 (  3823 PWs)   bands (ev):

   -88.7746 -52.0983 -52.0628 -51.9202 -27.4644 -12.3358 -11.8630 -11.1500
   -10.7001 -10.4703   0.3881   1.3817   1.9419   2.6031   3.3973   4.2733
     5.7548   5.9390   6.1871   6.3067   7.2024   8.0060   8.6170   9.7382
    11.4630  12.7687  13.3681

     occupation numbers 
     1.0000   1.0000   1.0000   1.0000   1.0000   1.0000   1.0000   1.0000
     1.0000   1.0000   1.0000   1.0000   1.0000   1.0000   1.0000   1.0000
     1.0270   1.0816   0.8281   0.5088   0.0000   0.0000   0.0000   0.0000
     0.0000   0.0000   0.0000

          k =-0.1250-0.3608 0.0976 (  3805 PWs)   bands (ev):

   -88.7751 -52.0897 -52.0642 -51.9211 -27.5353 -12.0491 -11.9205 -11.1202
   -10.7594 -10.5976   0.7988   1.2922   1.9298   2.4737   3.0839   4.5714
     5.8178   6.1812   6.3588   6.8633   7.5428   7.9673   8.3176   9.2381
    10.3137  12.0616  13.2999

     occupation numbers 
     1.0000   1.0000   1.0000   1.0000   1.0000   1.0000   1.0000   1.0000
     1.0000   1.0000   1.0000   1.0000   1.0000   1.0000   1.0000   1.0000
     1.0459   0.8421   0.3734   0.0006   0.0000   0.0000   0.0000   0.0000
     0.0000   0.0000   0.0000

          k =-0.1250-0.5052 0.0976 (  3819 PWs)   bands (ev):

   -88.7739 -52.1019 -52.0690 -51.9191 -27.3638 -12.4974 -11.6313 -11.1749
   -10.8224 -10.6143   0.2825   1.2865   2.1203   2.7489   2.9925   3.9934
     5.7826   5.8901   6.2587   6.7187   7.2918   8.1451   8.4279  10.3936
    11.1657  11.5482  14.3098

     occupation numbers 
     1.0000   1.0000   1.0000   1.0000   1.0000   1.0000   1.0000   1.0000
     1.0000   1.0000   1.0000   1.0000   1.0000   1.0000   1.0000   1.0000
     1.0347   1.0702   0.6410   0.0072   0.0000   0.0000   0.0000   0.0000
     0.0000   0.0000   0.0000

     the Fermi energy is     6.3478 ev

!    total energy              =    -572.87807517 Ry
     total all-electron energy =     -4291.988912 Ry
     estimated scf accuracy    <       0.00000002 Ry
     smearing contrib. (-TS)   =       0.00322514 Ry
     internal energy E=F+TS    =    -572.88130030 Ry

     The total energy is F=E-TS. E is the sum of the following terms:
     one-electron contribution =    -660.13419689 Ry
     hartree contribution      =     344.71758852 Ry
     xc contribution           =     -56.61890071 Ry
     ewald contribution        =     -38.64352272 Ry
     one-center paw contrib.   =    -162.20226851 Ry
      -> PAW hartree energy AE =     308.98581965 Ry
      -> PAW hartree energy PS =    -307.63645299 Ry
      -> PAW xc energy AE      =    -216.93374750 Ry
      -> PAW xc energy PS      =      53.38211233 Ry
      -> total E_H with PAW    =     346.06695519 Ry
      -> total E_XC with PAW   =    -220.17053588 Ry

     total magnetization       =     0.40 Bohr mag/cell
     absolute magnetization    =     0.89 Bohr mag/cell

     convergence has been achieved in  36 iterations

     Forces acting on atoms (cartesian axes, Ry/au):

     atom    1 type  1   force =     0.00000000    0.00000000    0.03119401
     atom    2 type  2   force =     0.00000000    0.00000000   -0.03727326
     atom    3 type  2   force =     0.00000000    0.00000000   -0.02606423
     atom    4 type  3   force =     0.00000000    0.00000000    0.03214348
     The non-local contrib.  to forces
     atom    1 type  1   force =     0.00000000    0.00000000    0.02184576
     atom    2 type  2   force =    -0.00000000   -0.00000000   -1.21637736
     atom    3 type  2   force =     0.00000000    0.00000000    0.73376629
     atom    4 type  3   force =     0.00000000    0.00000000    0.09390725
     The ionic contribution  to forces
     atom    1 type  1   force =    -0.00000000   -0.00000000   14.95637031
     atom    2 type  2   force =     0.00000000   -0.00000000   39.90584236
     atom    3 type  2   force =    -0.00000000    0.00000000  -29.40817040
     atom    4 type  3   force =     0.00000000   -0.00000000  -25.45404228
     The local contribution  to forces
     atom    1 type  1   force =     0.00000000   -0.00000000  -14.94693190
     atom    2 type  2   force =     0.00000001   -0.00000001  -38.73781621
     atom    3 type  2   force =    -0.00000001    0.00000001   28.65453033
     atom    4 type  3   force =     0.00000000   -0.00000000   25.39496859
     The core correction contribution to forces
     atom    1 type  1   force =     0.00000000   -0.00000000   -0.00025645
     atom    2 type  2   force =    -0.00000000    0.00000000    0.01084121
     atom    3 type  2   force =     0.00000000   -0.00000000   -0.00601348
     atom    4 type  3   force =     0.00000000   -0.00000000   -0.00240367
     The Hubbard contrib.    to forces
     atom    1 type  1   force =     0.00000000    0.00000000    0.00000000
     atom    2 type  2   force =     0.00000000    0.00000000    0.00000000
     atom    3 type  2   force =     0.00000000    0.00000000    0.00000000
     atom    4 type  3   force =     0.00000000    0.00000000    0.00000000
     The SCF correction term to forces
     atom    1 type  1   force =    -0.00000000   -0.00000000    0.00018239
     atom    2 type  2   force =    -0.00000000    0.00000000    0.00025285
     atom    3 type  2   force =     0.00000000   -0.00000000   -0.00016086
     atom    4 type  3   force =     0.00000000    0.00000000   -0.00027030

     Total force =     0.063835     Total SCF correction =     0.000443

     Writing all to output data dir ./out/pw.save/ :
     XML data file, charge density, pseudopotentials, collected wavefunctions
 
     init_run     :     14.67s CPU      3.33s WALL (       1 calls)
     electrons    :    234.14s CPU     57.43s WALL (       1 calls)
     forces       :      0.61s CPU      0.56s WALL (       1 calls)

     Called by init_run:
     wfcinit      :      0.28s CPU      0.34s WALL (       1 calls)
     wfcinit:atom :      0.05s CPU      0.05s WALL (      50 calls)
     wfcinit:wfcr :      0.17s CPU      0.20s WALL (      50 calls)
     potinit      :     13.76s CPU      2.33s WALL (       1 calls)
     hinit0       :      0.53s CPU      0.52s WALL (       1 calls)

     Called by electrons:
     c_bands      :     22.68s CPU     22.77s WALL (      36 calls)
     sum_band     :      4.78s CPU      4.75s WALL (      36 calls)
     v_of_rho     :      0.60s CPU      0.31s WALL (      37 calls)
     v_h          :      0.41s CPU      0.07s WALL (      37 calls)
     v_xc         :      0.19s CPU      0.25s WALL (      38 calls)
     newd         :      1.10s CPU      0.91s WALL (      37 calls)
                                        0.91s GPU  (      37 calls)
     PAW_pot      :    208.23s CPU     28.00s WALL (      37 calls)
     mix_rho      :      1.31s CPU      1.29s WALL (      36 calls)

     Called by c_bands:
     init_us_2    :      1.49s CPU      1.42s WALL (    3700 calls)
     cegterg      :     19.46s CPU     19.62s WALL (    1800 calls)

     Called by sum_band:
     sum_band:wei :      0.05s CPU      0.05s WALL (      36 calls)
                                        0.05s GPU  (      36 calls)
     sum_band:loo :      2.56s CPU      2.51s WALL (      36 calls)
                                        2.51s GPU  (      36 calls)
     sum_band:buf :      0.36s CPU      0.40s WALL (    1800 calls)
                                        0.38s GPU  (    1800 calls)
     sum_band:ini :      0.70s CPU      0.71s WALL (    1800 calls)
                                        0.69s GPU  (    1800 calls)
     sum_band:cal :      0.07s CPU      0.11s WALL (    1800 calls)
                                        0.09s GPU  (    1800 calls)
     sum_band:bec :      0.38s CPU      0.41s WALL (    1800 calls)
                                        0.38s GPU  (    1800 calls)
     addusdens    :      1.88s CPU      1.88s WALL (      36 calls)
                                        1.88s GPU  (      36 calls)
     addusd:skk   :      0.01s CPU      0.01s WALL (     108 calls)
                                        0.01s GPU  (     108 calls)

     Called by *egterg:
     cdiaghg      :      6.59s CPU      6.81s WALL (    7785 calls)
                                        6.72s GPU  (    7785 calls)
     cegterg:over :      1.72s CPU      1.80s WALL (    5985 calls)
     cegterg:upda :      1.09s CPU      1.10s WALL (    5985 calls)
     cegterg:last :      0.22s CPU      0.22s WALL (    3345 calls)
     h_psi        :      7.10s CPU      7.17s WALL (    7835 calls)
                                        7.08s GPU  (    7835 calls)
     s_psi        :      1.16s CPU      1.22s WALL (    7835 calls)
     g_psi        :      0.03s CPU      0.15s WALL (    5985 calls)
                                        0.08s GPU  (    5985 calls)

     Called by h_psi:
     h_psi:calbec :      0.23s CPU      0.43s WALL (    7835 calls)
                                        0.33s GPU  (    7835 calls)
     vloc_psi     :      4.99s CPU      4.94s WALL (    7835 calls)
                                        4.84s GPU  (    7835 calls)
     add_vuspsi   :      1.05s CPU      1.27s WALL (    7835 calls)
                                        1.18s GPU  (    7835 calls)

     General routines
     calbec       :      0.25s CPU      0.29s WALL (    9835 calls)
     fft          :      4.21s CPU      0.72s WALL (     938 calls)
                                        0.03s GPU  (     864 calls)
     ffts         :      4.47s CPU      0.87s WALL (    1615 calls)
                                        0.04s GPU  (    1541 calls)
     fftw         :      0.45s CPU      1.82s WALL (   26644 calls)
                                        1.53s GPU  (   26644 calls)
     interpolate  :      9.00s CPU      1.54s WALL (      74 calls)
 
     Parallel routines

     PAW routines
     PAW_pot      :    208.23s CPU     28.00s WALL (      37 calls)
     PAW_symme    :      0.01s CPU      0.01s WALL (      73 calls)
 
     PWSCF        :   4m10.43s CPU   1m 1.96s WALL

 
   This run was terminated on:   5:40:41  12Jul2026            

=------------------------------------------------------------------------------=
   JOB DONE.
=------------------------------------------------------------------------------=
Warning: ieee_divide_by_zero is signaling
Warning: ieee_inexact is signaling
FORTRAN STOP
