
     Program PWSCF v.7.3.1 starts on 12Jul2026 at  5:37:45 

     This program is part of the open-source Quantum ESPRESSO suite
     for quantum simulation of materials; please cite
         "P. Giannozzi et al., J. Phys.:Condens. Matter 21 395502 (2009);
         "P. Giannozzi et al., J. Phys.:Condens. Matter 29 465901 (2017);
         "P. Giannozzi et al., J. Chem. Phys. 152 154105 (2020);
          URL http://www.quantum-espresso.org", 
     in publications or presentations arising from this work. More details at
     http://www.quantum-espresso.org/quote

     Parallel version (MPI & OpenMP), running on      14 processor cores
     Number of MPI processes:                 1
     Threads/MPI process:                    14

     MPI processes distributed on     1 nodes
     1346525 MiB available memory on the printing compute node when the environment starts
 
     Reading input from pw.in

     Current dimensions of program PWSCF are:
     Max number of different atomic species (ntypx) = 10
     Max number of k-points (npk) =  40000
     Max angular momentum in pseudopotentials (lmaxx) =  4
     file Co.pbe-spn-kjpaw_psl.0.3.1.UPF: wavefunction(s)  3P 3D renormalized
     file O.pbe-n-kjpaw_psl.1.0.0.UPF: wavefunction(s)  2S 2P renormalized
     file K.pbe-spn-kjpaw_psl.1.0.0.UPF: wavefunction(s)  3S renormalized
 
     Subspace diagonalization in iterative solution of the eigenvalue problem:
     a serial algorithm will be used

 
     G-vector sticks info
     --------------------
     sticks:   dense  smooth     PW     G-vecs:    dense   smooth      PW
     Sum        1003     499    151                73353    26017    4261
 
     Using Slab Decomposition
 


     bravais-lattice index     =            4
     lattice parameter (alat)  =       5.4802  a.u.
     unit-cell volume          =     412.8597 (a.u.)^3
     number of atoms/cell      =            4
     number of atomic types    =            3
     number of electrons       =        38.00
     number of Kohn-Sham states=           27
     kinetic-energy cutoff     =      60.0000  Ry
     charge density cutoff     =     480.0000  Ry
     scf convergence threshold =      1.0E-07
     mixing beta               =       0.3000
     number of iterations used =            8  local-TF  mixing
     Exchange-correlation= SLA  PW   PBX  PBC
                           (   1   4   3   4   0   0   0)

     GPU acceleration is ACTIVE.  1 visible GPUs per MPI rank
     GPU-aware MPI enabled


     GPU used by master process:

        Device Number: 0
        Device name: NVIDIA A100-SXM4-80GB
        Compute capability : 80
        Ratio of single to double precision performance  : 2
        Memory Clock Rate (KHz): 1593000
        Memory Bus Width (bits): 5120
        Peak Memory Bandwidth (GB/s): ******

     celldm(1)=   5.480206  celldm(2)=   0.000000  celldm(3)=   2.896552
     celldm(4)=   0.000000  celldm(5)=   0.000000  celldm(6)=   0.000000

     crystal axes: (cart. coord. in units of alat)
               a(1) = (   1.000000   0.000000   0.000000 )  
               a(2) = (  -0.500000   0.866025   0.000000 )  
               a(3) = (   0.000000   0.000000   2.896552 )  

     reciprocal axes: (cart. coord. in units 2 pi/alat)
               b(1) = (  1.000000  0.577350 -0.000000 )  
               b(2) = (  0.000000  1.154701  0.000000 )  
               b(3) = (  0.000000 -0.000000  0.345238 )  


     PseudoPot. # 1 for Co read from file:
     ../../pseudo/Co.pbe-spn-kjpaw_psl.0.3.1.UPF
     MD5 check sum: 3c0a43779828c046024e4f3be63f8e67
     Pseudo is Projector augmented-wave + core cor, Zval = 17.0
     Generated using &quot;atomic&quot; code by A. Dal Corso  v.6.2.2
     Shape of augmentation charge: PSQ
     Using radial grid of 1193 points,  6 beta functions with: 
                l(1) =   0
                l(2) =   0
                l(3) =   1
                l(4) =   1
                l(5) =   2
                l(6) =   2
     Q(r) pseudized with 0 coefficients 


     PseudoPot. # 2 for O  read from file:
     ../../pseudo/O.pbe-n-kjpaw_psl.1.0.0.UPF
     MD5 check sum: e99d9cef9b487d1ca56f5b95ecd0fd7a
     Pseudo is Projector augmented-wave + core cor, Zval =  6.0
     Generated using &quot;atomic&quot; code by A. Dal Corso  v.6.3
     Shape of augmentation charge: PSQ
     Using radial grid of 1095 points,  4 beta functions with: 
                l(1) =   0
                l(2) =   0
                l(3) =   1
                l(4) =   1
     Q(r) pseudized with 0 coefficients 


     PseudoPot. # 3 for K  read from file:
     ../../pseudo/K.pbe-spn-kjpaw_psl.1.0.0.UPF
     MD5 check sum: 34cc42130a09071ebe376fd42eb21491
     Pseudo is Projector augmented-wave + core cor, Zval =  9.0
     Generated using &quot;atomic&quot; code by A. Dal Corso  v.6.2.2
     Shape of augmentation charge: PSQ
     Using radial grid of 1165 points,  6 beta functions with: 
                l(1) =   0
                l(2) =   0
                l(3) =   1
                l(4) =   1
                l(5) =   2
                l(6) =   2
     Q(r) pseudized with 0 coefficients 


     atomic species   valence    mass     pseudopotential
     Co               17.00    58.93300     Co( 1.00)
     O                 6.00    15.99900     O ( 1.00)
     K                 9.00    39.09830     K ( 1.00)

     Starting magnetic structure 
     atomic species   magnetization
     Co              0.300
     O               0.000
     K               0.000

     12 Sym. Ops., with inversion, found


                                    s                        frac. trans.

      isym =  1     identity                                     

 cryst.   s( 1) = (     1          0          0      )
                  (     0          1          0      )
                  (     0          0          1      )

 cart.    s( 1) = (  1.0000000  0.0000000  0.0000000 )
                  (  0.0000000  1.0000000  0.0000000 )
                  (  0.0000000  0.0000000  1.0000000 )


      isym =  2     180 deg rotation - cart. axis [1,0,0]        

 cryst.   s( 2) = (     1          0          0      )
                  (    -1         -1          0      )
                  (     0          0         -1      )

 cart.    s( 2) = (  1.0000000  0.0000000  0.0000000 )
                  (  0.0000000 -1.0000000  0.0000000 )
                  (  0.0000000  0.0000000 -1.0000000 )


      isym =  3     120 deg rotation - cryst. axis [0,0,1]       

 cryst.   s( 3) = (     0          1          0      )
                  (    -1         -1          0      )
                  (     0          0          1      )

 cart.    s( 3) = ( -0.5000000 -0.8660254  0.0000000 )
                  (  0.8660254 -0.5000000  0.0000000 )
                  (  0.0000000  0.0000000  1.0000000 )


      isym =  4     120 deg rotation - cryst. axis [0,0,-1]      

 cryst.   s( 4) = (    -1         -1          0      )
                  (     1          0          0      )
                  (     0          0          1      )

 cart.    s( 4) = ( -0.5000000  0.8660254  0.0000000 )
                  ( -0.8660254 -0.5000000  0.0000000 )
                  (  0.0000000  0.0000000  1.0000000 )


      isym =  5     180 deg rotation - cryst. axis [0,1,0]       

 cryst.   s( 5) = (    -1         -1          0      )
                  (     0          1          0      )
                  (     0          0         -1      )

 cart.    s( 5) = ( -0.5000000 -0.8660254  0.0000000 )
                  ( -0.8660254  0.5000000  0.0000000 )
                  (  0.0000000  0.0000000 -1.0000000 )


      isym =  6     180 deg rotation - cryst. axis [1,1,0]       

 cryst.   s( 6) = (     0          1          0      )
                  (     1          0          0      )
                  (     0          0         -1      )

 cart.    s( 6) = ( -0.5000000  0.8660254  0.0000000 )
                  (  0.8660254  0.5000000  0.0000000 )
                  (  0.0000000  0.0000000 -1.0000000 )


      isym =  7     inversion                                    

 cryst.   s( 7) = (    -1          0          0      )
                  (     0         -1          0      )
                  (     0          0         -1      )

 cart.    s( 7) = ( -1.0000000  0.0000000  0.0000000 )
                  (  0.0000000 -1.0000000  0.0000000 )
                  (  0.0000000  0.0000000 -1.0000000 )


      isym =  8     inv. 180 deg rotation - cart. axis [1,0,0]   

 cryst.   s( 8) = (    -1          0          0      )
                  (     1          1          0      )
                  (     0          0          1      )

 cart.    s( 8) = ( -1.0000000  0.0000000  0.0000000 )
                  (  0.0000000  1.0000000  0.0000000 )
                  (  0.0000000  0.0000000  1.0000000 )


      isym =  9     inv. 120 deg rotation - cryst. axis [0,0,1]  

 cryst.   s( 9) = (     0         -1          0      )
                  (     1          1          0      )
                  (     0          0         -1      )

 cart.    s( 9) = (  0.5000000  0.8660254  0.0000000 )
                  ( -0.8660254  0.5000000  0.0000000 )
                  (  0.0000000  0.0000000 -1.0000000 )


      isym = 10     inv. 120 deg rotation - cryst. axis [0,0,-1] 

 cryst.   s(10) = (     1          1          0      )
                  (    -1          0          0      )
                  (     0          0         -1      )

 cart.    s(10) = (  0.5000000 -0.8660254  0.0000000 )
                  (  0.8660254  0.5000000  0.0000000 )
                  (  0.0000000  0.0000000 -1.0000000 )


      isym = 11     inv. 180 deg rotation - cryst. axis [0,1,0]  

 cryst.   s(11) = (     1          1          0      )
                  (     0         -1          0      )
                  (     0          0          1      )

 cart.    s(11) = (  0.5000000  0.8660254  0.0000000 )
                  (  0.8660254 -0.5000000  0.0000000 )
                  (  0.0000000  0.0000000  1.0000000 )


      isym = 12     inv. 180 deg rotation - cryst. axis [1,1,0]  

 cryst.   s(12) = (     0         -1          0      )
                  (    -1          0          0      )
                  (     0          0          1      )

 cart.    s(12) = (  0.5000000 -0.8660254  0.0000000 )
                  ( -0.8660254 -0.5000000  0.0000000 )
                  (  0.0000000  0.0000000  1.0000000 )


     point group D_3d (-3m) 
     there are  6 classes
     the character table:

       E     2C3   3C2'  i     2S6   3s_d 
A_1g   1.00  1.00  1.00  1.00  1.00  1.00
A_2g   1.00  1.00 -1.00  1.00  1.00 -1.00
E_g    2.00 -1.00  0.00  2.00 -1.00  0.00
A_1u   1.00  1.00  1.00 -1.00 -1.00 -1.00
A_2u   1.00  1.00 -1.00 -1.00 -1.00  1.00
E_u    2.00 -1.00  0.00 -2.00  1.00  0.00

     the symmetry operations in each class and the name of the first element:

     E        1
          identity                                               
     2C3      3    4
          120 deg rotation - cryst. axis [0,0,1]                 
     3C2'     2    5    6
          180 deg rotation - cart. axis [1,0,0]                  
     i        7
          inversion                                              
     2S6      9   10
          inv. 120 deg rotation - cryst. axis [0,0,1]            
     3s_d     8   11   12
          inv. 180 deg rotation - cart. axis [1,0,0]             

   Cartesian axes

     site n.     atom                  positions (alat units)
         1        Co     tau(   1) = (   0.0000000   0.0000000   0.0000000  )
         2        O      tau(   2) = (  -0.0000000   0.5773503   0.3310345  )
         3        O      tau(   3) = (   0.5000000   0.2886751   2.5655172  )
         4        K      tau(   4) = (   0.0000000   0.0000000   1.4482759  )

   Crystallographic axes

     site n.     atom                  positions (cryst. coord.)
         1        Co     tau(   1) = (  0.0000000  0.0000000  0.0000000  )
         2        O      tau(   2) = (  0.3333333  0.6666667  0.1142857  )
         3        O      tau(   3) = (  0.6666667  0.3333333  0.8857143  )
         4        K      tau(   4) = (  0.0000000  0.0000000  0.5000000  )

     number of k points=    25  Marzari-Vanderbilt smearing, width (Ry)=  0.0200
                       cart. coord. in units 2pi/alat
        k(    1) = (   0.0000000   0.0000000   0.0000000), wk =   0.0052083
        k(    2) = (   0.0000000   0.0000000   0.1150794), wk =   0.0104167
        k(    3) = (   0.0000000   0.1443376   0.0000000), wk =   0.0312500
        k(    4) = (   0.0000000   0.1443376   0.1150794), wk =   0.0312500
        k(    5) = (   0.0000000   0.2886751   0.0000000), wk =   0.0312500
        k(    6) = (   0.0000000   0.2886751   0.1150794), wk =   0.0312500
        k(    7) = (   0.0000000   0.4330127   0.0000000), wk =   0.0312500
        k(    8) = (   0.0000000   0.4330127   0.1150794), wk =   0.0312500
        k(    9) = (   0.0000000  -0.5773503   0.0000000), wk =   0.0156250
        k(   10) = (   0.0000000  -0.5773503   0.1150794), wk =   0.0312500
        k(   11) = (   0.1250000   0.2165064   0.0000000), wk =   0.0312500
        k(   12) = (   0.1250000   0.2165064   0.1150794), wk =   0.0625000
        k(   13) = (   0.1250000   0.3608439   0.0000000), wk =   0.0625000
        k(   14) = (   0.1250000   0.3608439   0.1150794), wk =   0.0625000
        k(   15) = (   0.1250000   0.5051815   0.0000000), wk =   0.0625000
        k(   16) = (   0.1250000   0.5051815   0.1150794), wk =   0.0625000
        k(   17) = (   0.2500000   0.4330127   0.0000000), wk =   0.0312500
        k(   18) = (   0.2500000   0.4330127   0.1150794), wk =   0.0625000
        k(   19) = (   0.2500000   0.5773503   0.0000000), wk =   0.0312500
        k(   20) = (   0.2500000   0.5773503   0.1150794), wk =   0.0625000
        k(   21) = (   0.0000000   0.1443376  -0.1150794), wk =   0.0312500
        k(   22) = (   0.0000000   0.2886751  -0.1150794), wk =   0.0312500
        k(   23) = (   0.0000000   0.4330127  -0.1150794), wk =   0.0312500
        k(   24) = (  -0.1250000   0.3608439  -0.1150794), wk =   0.0625000
        k(   25) = (  -0.1250000   0.5051815  -0.1150794), wk =   0.0625000

                       cryst. coord.
        k(    1) = (   0.0000000   0.0000000   0.0000000), wk =   0.0052083
        k(    2) = (   0.0000000   0.0000000   0.3333333), wk =   0.0104167
        k(    3) = (   0.0000000   0.1250000   0.0000000), wk =   0.0312500
        k(    4) = (   0.0000000   0.1250000   0.3333333), wk =   0.0312500
        k(    5) = (   0.0000000   0.2500000   0.0000000), wk =   0.0312500
        k(    6) = (   0.0000000   0.2500000   0.3333333), wk =   0.0312500
        k(    7) = (   0.0000000   0.3750000   0.0000000), wk =   0.0312500
        k(    8) = (   0.0000000   0.3750000   0.3333333), wk =   0.0312500
        k(    9) = (   0.0000000  -0.5000000   0.0000000), wk =   0.0156250
        k(   10) = (   0.0000000  -0.5000000   0.3333333), wk =   0.0312500
        k(   11) = (   0.1250000   0.1250000   0.0000000), wk =   0.0312500
        k(   12) = (   0.1250000   0.1250000   0.3333333), wk =   0.0625000
        k(   13) = (   0.1250000   0.2500000   0.0000000), wk =   0.0625000
        k(   14) = (   0.1250000   0.2500000   0.3333333), wk =   0.0625000
        k(   15) = (   0.1250000   0.3750000   0.0000000), wk =   0.0625000
        k(   16) = (   0.1250000   0.3750000   0.3333333), wk =   0.0625000
        k(   17) = (   0.2500000   0.2500000   0.0000000), wk =   0.0312500
        k(   18) = (   0.2500000   0.2500000   0.3333333), wk =   0.0625000
        k(   19) = (   0.2500000   0.3750000   0.0000000), wk =   0.0312500
        k(   20) = (   0.2500000   0.3750000   0.3333333), wk =   0.0625000
        k(   21) = (   0.0000000   0.1250000  -0.3333333), wk =   0.0312500
        k(   22) = (   0.0000000   0.2500000  -0.3333333), wk =   0.0312500
        k(   23) = (   0.0000000   0.3750000  -0.3333333), wk =   0.0312500
        k(   24) = (  -0.1250000   0.3750000  -0.3333333), wk =   0.0625000
        k(   25) = (  -0.1250000   0.5000000  -0.3333333), wk =   0.0625000

     Dense  grid:    73353 G-vectors     FFT dimensions: (  40,  40, 120)

     Smooth grid:    26017 G-vectors     FFT dimensions: (  27,  27,  80)

     Dynamical RAM for                 wfc:       1.33 MB

     Dynamical RAM for     wfc (w. buffer):      68.08 MB

     Dynamical RAM for           str. fact:       3.36 MB

     Dynamical RAM for           local pot:       0.00 MB

     Dynamical RAM for          nlocal pot:       2.57 MB

     Dynamical RAM for                qrad:       5.27 MB

     Dynamical RAM for          rho,v,vnew:      15.50 MB

     Dynamical RAM for               rhoin:       5.17 MB

     Dynamical RAM for            rho*nmix:      35.82 MB

     Dynamical RAM for           G-vectors:       4.40 MB

     Dynamical RAM for          h,s,v(r/c):       0.13 MB

     Dynamical RAM for          <psi|beta>:       0.02 MB

     Dynamical RAM for                 psi:       2.67 MB

     Dynamical RAM for                hpsi:       2.67 MB

     Dynamical RAM for                spsi:       2.67 MB

     Dynamical RAM for      wfcinit/wfcrot:       2.69 MB

     Dynamical RAM for           addusdens:     211.54 MB

     Dynamical RAM for          addusforce:     213.80 MB

     Estimated static dynamical RAM per process >     117.61 MB

     Estimated max dynamical RAM per process >     367.23 MB

     Check: negative core charge=   -0.000007
     Generating pointlists ...
     new r_m :   0.2745 (alat units)  1.5045 (a.u.) for type    1
     new r_m :   0.2745 (alat units)  1.5045 (a.u.) for type    2
     new r_m :   0.4125 (alat units)  2.2606 (a.u.) for type    3

     Initial potential from superposition of free atoms

     starting charge      37.9809, renormalised to      38.0000
     Starting wfcs are   26 randomized atomic wfcs +    1 random wfcs
     Checking if some PAW data can be deallocated... 

     total cpu time spent up to now is        4.4 secs

     Self-consistent Calculation
[tb_dev] Currently allocated     6.58E-01 Mbytes, locked:    0 /   6
[tb_pin] Currently allocated     0.00E+00 Mbytes, locked:    0 /   0

     iteration #  1     ecut=    60.00 Ry     beta= 0.30
     Davidson diagonalization with overlap

---- Real-time Memory Report at c_bands before calling an iterative solver
           710 MiB given to the printing process from OS
             0 MiB allocation reported by mallinfo(arena+hblkhd)
       1360157 MiB available memory on the node where the printing process lives
     GPU memory used/free/total (MiB): 1060 / 80090 / 81151
------------------
     ethr =  1.00E-02,  avg # of iterations =  7.8

     total cpu time spent up to now is        6.6 secs

     total energy              =    -572.75317165 Ry
     estimated scf accuracy    <       1.77793530 Ry

     total magnetization       =     4.00 Bohr mag/cell
     absolute magnetization    =     4.00 Bohr mag/cell
[tb_dev] Currently allocated     3.05E-05 Mbytes, locked:    0 /   2
[tb_pin] Currently allocated     0.00E+00 Mbytes, locked:    0 /   0

     iteration #  2     ecut=    60.00 Ry     beta= 0.30
     Davidson diagonalization with overlap

---- Real-time Memory Report at c_bands before calling an iterative solver
           753 MiB given to the printing process from OS
             0 MiB allocation reported by mallinfo(arena+hblkhd)
       1358247 MiB available memory on the node where the printing process lives
     GPU memory used/free/total (MiB): 1078 / 80072 / 81151
------------------
     ethr =  4.68E-03,  avg # of iterations =  2.0

     total cpu time spent up to now is        8.0 secs

     total energy              =    -572.70785926 Ry
     estimated scf accuracy    <       0.77403245 Ry

     total magnetization       =     3.95 Bohr mag/cell
     absolute magnetization    =     3.95 Bohr mag/cell
[tb_dev] Currently allocated     3.05E-05 Mbytes, locked:    0 /   2
[tb_pin] Currently allocated     0.00E+00 Mbytes, locked:    0 /   0

     iteration #  3     ecut=    60.00 Ry     beta= 0.30
     Davidson diagonalization with overlap

---- Real-time Memory Report at c_bands before calling an iterative solver
           755 MiB given to the printing process from OS
             0 MiB allocation reported by mallinfo(arena+hblkhd)
       1356798 MiB available memory on the node where the printing process lives
     GPU memory used/free/total (MiB): 1078 / 80072 / 81151
------------------
     ethr =  2.04E-03,  avg # of iterations =  2.5

     total cpu time spent up to now is        9.5 secs

     total energy              =    -572.97518225 Ry
     estimated scf accuracy    <       1.33000266 Ry

     total magnetization       =     1.35 Bohr mag/cell
     absolute magnetization    =     1.49 Bohr mag/cell
[tb_dev] Currently allocated     3.05E-05 Mbytes, locked:    0 /   2
[tb_pin] Currently allocated     0.00E+00 Mbytes, locked:    0 /   0

     iteration #  4     ecut=    60.00 Ry     beta= 0.30
     Davidson diagonalization with overlap

---- Real-time Memory Report at c_bands before calling an iterative solver
           757 MiB given to the printing process from OS
             0 MiB allocation reported by mallinfo(arena+hblkhd)
       1355393 MiB available memory on the node where the printing process lives
     GPU memory used/free/total (MiB): 1078 / 80072 / 81151
------------------
     ethr =  2.04E-03,  avg # of iterations =  2.1

     total cpu time spent up to now is       10.9 secs

     total energy              =    -572.99882653 Ry
     estimated scf accuracy    <       2.69073561 Ry

     total magnetization       =     0.76 Bohr mag/cell
     absolute magnetization    =     1.13 Bohr mag/cell
[tb_dev] Currently allocated     3.05E-05 Mbytes, locked:    0 /   2
[tb_pin] Currently allocated     0.00E+00 Mbytes, locked:    0 /   0

     iteration #  5     ecut=    60.00 Ry     beta= 0.30
     Davidson diagonalization with overlap

---- Real-time Memory Report at c_bands before calling an iterative solver
           758 MiB given to the printing process from OS
             0 MiB allocation reported by mallinfo(arena+hblkhd)
       1354528 MiB available memory on the node where the printing process lives
     GPU memory used/free/total (MiB): 1078 / 80072 / 81151
------------------
     ethr =  2.04E-03,  avg # of iterations =  1.3

     total cpu time spent up to now is       12.3 secs

     total energy              =    -572.57097035 Ry
     estimated scf accuracy    <       2.10685036 Ry

     total magnetization       =     0.45 Bohr mag/cell
     absolute magnetization    =     1.10 Bohr mag/cell
[tb_dev] Currently allocated     3.05E-05 Mbytes, locked:    0 /   2
[tb_pin] Currently allocated     0.00E+00 Mbytes, locked:    0 /   0

     iteration #  6     ecut=    60.00 Ry     beta= 0.30
     Davidson diagonalization with overlap

---- Real-time Memory Report at c_bands before calling an iterative solver
           759 MiB given to the printing process from OS
             0 MiB allocation reported by mallinfo(arena+hblkhd)
       1353211 MiB available memory on the node where the printing process lives
     GPU memory used/free/total (MiB): 1078 / 80072 / 81151
------------------
     ethr =  2.04E-03,  avg # of iterations =  3.3

     total cpu time spent up to now is       13.8 secs

     total energy              =    -572.68442746 Ry
     estimated scf accuracy    <       3.73421496 Ry

     total magnetization       =    -0.13 Bohr mag/cell
     absolute magnetization    =     0.52 Bohr mag/cell
[tb_dev] Currently allocated     3.05E-05 Mbytes, locked:    0 /   2
[tb_pin] Currently allocated     0.00E+00 Mbytes, locked:    0 /   0

     iteration #  7     ecut=    60.00 Ry     beta= 0.30
     Davidson diagonalization with overlap

---- Real-time Memory Report at c_bands before calling an iterative solver
           760 MiB given to the printing process from OS
             0 MiB allocation reported by mallinfo(arena+hblkhd)
       1351532 MiB available memory on the node where the printing process lives
     GPU memory used/free/total (MiB): 1078 / 80072 / 81151
------------------
     ethr =  2.04E-03,  avg # of iterations =  1.1

     total cpu time spent up to now is       15.1 secs

     total energy              =    -572.89261557 Ry
     estimated scf accuracy    <       0.11528349 Ry

     total magnetization       =     0.27 Bohr mag/cell
     absolute magnetization    =     0.69 Bohr mag/cell
[tb_dev] Currently allocated     3.05E-05 Mbytes, locked:    0 /   2
[tb_pin] Currently allocated     0.00E+00 Mbytes, locked:    0 /   0

     iteration #  8     ecut=    60.00 Ry     beta= 0.30
     Davidson diagonalization with overlap

---- Real-time Memory Report at c_bands before calling an iterative solver
           761 MiB given to the printing process from OS
             0 MiB allocation reported by mallinfo(arena+hblkhd)
       1349989 MiB available memory on the node where the printing process lives
     GPU memory used/free/total (MiB): 1078 / 80072 / 81151
------------------
     ethr =  3.03E-04,  avg # of iterations =  4.0

     total cpu time spent up to now is       16.8 secs

     total energy              =    -572.91254802 Ry
     estimated scf accuracy    <       0.09906389 Ry

     total magnetization       =     0.27 Bohr mag/cell
     absolute magnetization    =     0.68 Bohr mag/cell
[tb_dev] Currently allocated     3.05E-05 Mbytes, locked:    0 /   2
[tb_pin] Currently allocated     0.00E+00 Mbytes, locked:    0 /   0

     iteration #  9     ecut=    60.00 Ry     beta= 0.30
     Davidson diagonalization with overlap

---- Real-time Memory Report at c_bands before calling an iterative solver
           761 MiB given to the printing process from OS
             0 MiB allocation reported by mallinfo(arena+hblkhd)
       1347632 MiB available memory on the node where the printing process lives
     GPU memory used/free/total (MiB): 1078 / 80072 / 81151
------------------
     ethr =  2.61E-04,  avg # of iterations =  2.4

     total cpu time spent up to now is       18.2 secs

     total energy              =    -572.89436505 Ry
     estimated scf accuracy    <       0.57460769 Ry

     total magnetization       =     0.08 Bohr mag/cell
     absolute magnetization    =     0.63 Bohr mag/cell
[tb_dev] Currently allocated     3.05E-05 Mbytes, locked:    0 /   2
[tb_pin] Currently allocated     0.00E+00 Mbytes, locked:    0 /   0

     iteration # 10     ecut=    60.00 Ry     beta= 0.30
     Davidson diagonalization with overlap

---- Real-time Memory Report at c_bands before calling an iterative solver
           764 MiB given to the printing process from OS
             0 MiB allocation reported by mallinfo(arena+hblkhd)
       1345171 MiB available memory on the node where the printing process lives
     GPU memory used/free/total (MiB): 1078 / 80072 / 81151
------------------
     ethr =  2.61E-04,  avg # of iterations =  1.4

     total cpu time spent up to now is       19.5 secs

     total energy              =    -572.91746981 Ry
     estimated scf accuracy    <       0.05830016 Ry

     total magnetization       =     0.30 Bohr mag/cell
     absolute magnetization    =     0.45 Bohr mag/cell
[tb_dev] Currently allocated     3.05E-05 Mbytes, locked:    0 /   2
[tb_pin] Currently allocated     0.00E+00 Mbytes, locked:    0 /   0

     iteration # 11     ecut=    60.00 Ry     beta= 0.30
     Davidson diagonalization with overlap

---- Real-time Memory Report at c_bands before calling an iterative solver
           765 MiB given to the printing process from OS
             0 MiB allocation reported by mallinfo(arena+hblkhd)
       1343402 MiB available memory on the node where the printing process lives
     GPU memory used/free/total (MiB): 1078 / 80072 / 81151
------------------
     ethr =  1.53E-04,  avg # of iterations =  1.7

     total cpu time spent up to now is       20.9 secs

     total energy              =    -572.90913261 Ry
     estimated scf accuracy    <       0.17002006 Ry

     total magnetization       =     0.21 Bohr mag/cell
     absolute magnetization    =     0.47 Bohr mag/cell
[tb_dev] Currently allocated     3.05E-05 Mbytes, locked:    0 /   2
[tb_pin] Currently allocated     0.00E+00 Mbytes, locked:    0 /   0

     iteration # 12     ecut=    60.00 Ry     beta= 0.30
     Davidson diagonalization with overlap

---- Real-time Memory Report at c_bands before calling an iterative solver
           765 MiB given to the printing process from OS
             0 MiB allocation reported by mallinfo(arena+hblkhd)
       1340066 MiB available memory on the node where the printing process lives
     GPU memory used/free/total (MiB): 1078 / 80072 / 81151
------------------
     ethr =  1.53E-04,  avg # of iterations =  1.5

     total cpu time spent up to now is       22.3 secs

     total energy              =    -572.91217902 Ry
     estimated scf accuracy    <       0.03648674 Ry

     total magnetization       =     0.36 Bohr mag/cell
     absolute magnetization    =     0.44 Bohr mag/cell
[tb_dev] Currently allocated     3.05E-05 Mbytes, locked:    0 /   2
[tb_pin] Currently allocated     0.00E+00 Mbytes, locked:    0 /   0

     iteration # 13     ecut=    60.00 Ry     beta= 0.30
     Davidson diagonalization with overlap

---- Real-time Memory Report at c_bands before calling an iterative solver
           765 MiB given to the printing process from OS
             0 MiB allocation reported by mallinfo(arena+hblkhd)
       1359054 MiB available memory on the node where the printing process lives
     GPU memory used/free/total (MiB): 1078 / 80072 / 81151
------------------
     c_bands:  1 eigenvalues not converged
     ethr =  9.60E-05,  avg # of iterations =  1.8

     total cpu time spent up to now is       23.9 secs

     total energy              =    -572.91392632 Ry
     estimated scf accuracy    <       0.02462922 Ry

     total magnetization       =     0.40 Bohr mag/cell
     absolute magnetization    =     0.45 Bohr mag/cell
[tb_dev] Currently allocated     3.05E-05 Mbytes, locked:    0 /   2
[tb_pin] Currently allocated     0.00E+00 Mbytes, locked:    0 /   0

     iteration # 14     ecut=    60.00 Ry     beta= 0.30
     Davidson diagonalization with overlap

---- Real-time Memory Report at c_bands before calling an iterative solver
           765 MiB given to the printing process from OS
             0 MiB allocation reported by mallinfo(arena+hblkhd)
       1357891 MiB available memory on the node where the printing process lives
     GPU memory used/free/total (MiB): 1078 / 80072 / 81151
------------------
     c_bands:  1 eigenvalues not converged
     c_bands:  2 eigenvalues not converged
     c_bands:  2 eigenvalues not converged
     ethr =  6.48E-05,  avg # of iterations =  2.8

     total cpu time spent up to now is       25.5 secs

     total energy              =    -572.91279286 Ry
     estimated scf accuracy    <       0.02781426 Ry

     total magnetization       =     0.38 Bohr mag/cell
     absolute magnetization    =     0.43 Bohr mag/cell
[tb_dev] Currently allocated     3.05E-05 Mbytes, locked:    0 /   2
[tb_pin] Currently allocated     0.00E+00 Mbytes, locked:    0 /   0

     iteration # 15     ecut=    60.00 Ry     beta= 0.30
     Davidson diagonalization with overlap

---- Real-time Memory Report at c_bands before calling an iterative solver
           765 MiB given to the printing process from OS
             0 MiB allocation reported by mallinfo(arena+hblkhd)
       1356397 MiB available memory on the node where the printing process lives
     GPU memory used/free/total (MiB): 1078 / 80072 / 81151
------------------
     ethr =  6.48E-05,  avg # of iterations =  1.5

     total cpu time spent up to now is       26.8 secs

     total energy              =    -572.91261273 Ry
     estimated scf accuracy    <       0.02096664 Ry

     total magnetization       =     0.41 Bohr mag/cell
     absolute magnetization    =     0.47 Bohr mag/cell
[tb_dev] Currently allocated     3.05E-05 Mbytes, locked:    0 /   2
[tb_pin] Currently allocated     0.00E+00 Mbytes, locked:    0 /   0

     iteration # 16     ecut=    60.00 Ry     beta= 0.30
     Davidson diagonalization with overlap

---- Real-time Memory Report at c_bands before calling an iterative solver
           765 MiB given to the printing process from OS
             0 MiB allocation reported by mallinfo(arena+hblkhd)
       1355546 MiB available memory on the node where the printing process lives
     GPU memory used/free/total (MiB): 1078 / 80072 / 81151
------------------
     ethr =  5.52E-05,  avg # of iterations =  1.6

     total cpu time spent up to now is       28.1 secs

     total energy              =    -572.90761265 Ry
     estimated scf accuracy    <       0.01754722 Ry

     total magnetization       =     0.42 Bohr mag/cell
     absolute magnetization    =     0.47 Bohr mag/cell
[tb_dev] Currently allocated     3.05E-05 Mbytes, locked:    0 /   2
[tb_pin] Currently allocated     0.00E+00 Mbytes, locked:    0 /   0

     iteration # 17     ecut=    60.00 Ry     beta= 0.30
     Davidson diagonalization with overlap

---- Real-time Memory Report at c_bands before calling an iterative solver
           765 MiB given to the printing process from OS
             0 MiB allocation reported by mallinfo(arena+hblkhd)
       1354450 MiB available memory on the node where the printing process lives
     GPU memory used/free/total (MiB): 1078 / 80072 / 81151
------------------
     ethr =  4.62E-05,  avg # of iterations =  3.0

     total cpu time spent up to now is       29.6 secs

     total energy              =    -572.90908778 Ry
     estimated scf accuracy    <       0.00311411 Ry

     total magnetization       =     0.46 Bohr mag/cell
     absolute magnetization    =     0.50 Bohr mag/cell
[tb_dev] Currently allocated     3.05E-05 Mbytes, locked:    0 /   2
[tb_pin] Currently allocated     0.00E+00 Mbytes, locked:    0 /   0

     iteration # 18     ecut=    60.00 Ry     beta= 0.30
     Davidson diagonalization with overlap

---- Real-time Memory Report at c_bands before calling an iterative solver
           765 MiB given to the printing process from OS
             0 MiB allocation reported by mallinfo(arena+hblkhd)
       1353439 MiB available memory on the node where the printing process lives
     GPU memory used/free/total (MiB): 1078 / 80072 / 81151
------------------
     ethr =  8.20E-06,  avg # of iterations =  7.0

     total cpu time spent up to now is       31.6 secs

     total energy              =    -572.90973394 Ry
     estimated scf accuracy    <       0.00106661 Ry

     total magnetization       =     0.46 Bohr mag/cell
     absolute magnetization    =     0.51 Bohr mag/cell
[tb_dev] Currently allocated     3.05E-05 Mbytes, locked:    0 /   2
[tb_pin] Currently allocated     0.00E+00 Mbytes, locked:    0 /   0

     iteration # 19     ecut=    60.00 Ry     beta= 0.30
     Davidson diagonalization with overlap

---- Real-time Memory Report at c_bands before calling an iterative solver
           765 MiB given to the printing process from OS
             0 MiB allocation reported by mallinfo(arena+hblkhd)
       1351745 MiB available memory on the node where the printing process lives
     GPU memory used/free/total (MiB): 1078 / 80072 / 81151
------------------
     ethr =  2.81E-06,  avg # of iterations =  3.0

     total cpu time spent up to now is       33.2 secs

     total energy              =    -572.90986254 Ry
     estimated scf accuracy    <       0.00012955 Ry

     total magnetization       =     0.44 Bohr mag/cell
     absolute magnetization    =     0.49 Bohr mag/cell
[tb_dev] Currently allocated     3.05E-05 Mbytes, locked:    0 /   2
[tb_pin] Currently allocated     0.00E+00 Mbytes, locked:    0 /   0

     iteration # 20     ecut=    60.00 Ry     beta= 0.30
     Davidson diagonalization with overlap

---- Real-time Memory Report at c_bands before calling an iterative solver
           765 MiB given to the printing process from OS
             0 MiB allocation reported by mallinfo(arena+hblkhd)
       1350505 MiB available memory on the node where the printing process lives
     GPU memory used/free/total (MiB): 1078 / 80072 / 81151
------------------
     ethr =  3.41E-07,  avg # of iterations =  3.6

     total cpu time spent up to now is       34.7 secs

     total energy              =    -572.90988044 Ry
     estimated scf accuracy    <       0.00006699 Ry

     total magnetization       =     0.44 Bohr mag/cell
     absolute magnetization    =     0.49 Bohr mag/cell
[tb_dev] Currently allocated     3.05E-05 Mbytes, locked:    0 /   2
[tb_pin] Currently allocated     0.00E+00 Mbytes, locked:    0 /   0

     iteration # 21     ecut=    60.00 Ry     beta= 0.30
     Davidson diagonalization with overlap

---- Real-time Memory Report at c_bands before calling an iterative solver
           765 MiB given to the printing process from OS
             0 MiB allocation reported by mallinfo(arena+hblkhd)
       1349437 MiB available memory on the node where the printing process lives
     GPU memory used/free/total (MiB): 1078 / 80072 / 81151
------------------
     c_bands:  1 eigenvalues not converged
     ethr =  1.76E-07,  avg # of iterations =  3.0

     total cpu time spent up to now is       36.3 secs

     total energy              =    -572.90987658 Ry
     estimated scf accuracy    <       0.00005119 Ry

     total magnetization       =     0.44 Bohr mag/cell
     absolute magnetization    =     0.49 Bohr mag/cell
[tb_dev] Currently allocated     3.05E-05 Mbytes, locked:    0 /   2
[tb_pin] Currently allocated     0.00E+00 Mbytes, locked:    0 /   0

     iteration # 22     ecut=    60.00 Ry     beta= 0.30
     Davidson diagonalization with overlap

---- Real-time Memory Report at c_bands before calling an iterative solver
           765 MiB given to the printing process from OS
             0 MiB allocation reported by mallinfo(arena+hblkhd)
       1346900 MiB available memory on the node where the printing process lives
     GPU memory used/free/total (MiB): 1078 / 80072 / 81151
------------------
     ethr =  1.35E-07,  avg # of iterations =  3.0

     total cpu time spent up to now is       37.8 secs

     total energy              =    -572.90987820 Ry
     estimated scf accuracy    <       0.00002135 Ry

     total magnetization       =     0.44 Bohr mag/cell
     absolute magnetization    =     0.49 Bohr mag/cell
[tb_dev] Currently allocated     3.05E-05 Mbytes, locked:    0 /   2
[tb_pin] Currently allocated     0.00E+00 Mbytes, locked:    0 /   0

     iteration # 23     ecut=    60.00 Ry     beta= 0.30
     Davidson diagonalization with overlap

---- Real-time Memory Report at c_bands before calling an iterative solver
           765 MiB given to the printing process from OS
             0 MiB allocation reported by mallinfo(arena+hblkhd)
       1362245 MiB available memory on the node where the printing process lives
     GPU memory used/free/total (MiB): 1078 / 80072 / 81151
------------------
     ethr =  5.62E-08,  avg # of iterations =  3.5

     total cpu time spent up to now is       39.4 secs

     total energy              =    -572.90988093 Ry
     estimated scf accuracy    <       0.00001152 Ry

     total magnetization       =     0.44 Bohr mag/cell
     absolute magnetization    =     0.49 Bohr mag/cell
[tb_dev] Currently allocated     3.05E-05 Mbytes, locked:    0 /   2
[tb_pin] Currently allocated     0.00E+00 Mbytes, locked:    0 /   0

     iteration # 24     ecut=    60.00 Ry     beta= 0.30
     Davidson diagonalization with overlap

---- Real-time Memory Report at c_bands before calling an iterative solver
           765 MiB given to the printing process from OS
             0 MiB allocation reported by mallinfo(arena+hblkhd)
       1361323 MiB available memory on the node where the printing process lives
     GPU memory used/free/total (MiB): 1078 / 80072 / 81151
------------------
     ethr =  3.03E-08,  avg # of iterations =  2.1

     total cpu time spent up to now is       40.8 secs

     total energy              =    -572.90988241 Ry
     estimated scf accuracy    <       0.00000586 Ry

     total magnetization       =     0.44 Bohr mag/cell
     absolute magnetization    =     0.49 Bohr mag/cell
[tb_dev] Currently allocated     3.05E-05 Mbytes, locked:    0 /   2
[tb_pin] Currently allocated     0.00E+00 Mbytes, locked:    0 /   0

     iteration # 25     ecut=    60.00 Ry     beta= 0.30
     Davidson diagonalization with overlap

---- Real-time Memory Report at c_bands before calling an iterative solver
           765 MiB given to the printing process from OS
             0 MiB allocation reported by mallinfo(arena+hblkhd)
       1360101 MiB available memory on the node where the printing process lives
     GPU memory used/free/total (MiB): 1078 / 80072 / 81151
------------------
     ethr =  1.54E-08,  avg # of iterations =  2.8

     total cpu time spent up to now is       42.3 secs

     total energy              =    -572.90988243 Ry
     estimated scf accuracy    <       0.00000294 Ry

     total magnetization       =     0.44 Bohr mag/cell
     absolute magnetization    =     0.49 Bohr mag/cell
[tb_dev] Currently allocated     3.05E-05 Mbytes, locked:    0 /   2
[tb_pin] Currently allocated     0.00E+00 Mbytes, locked:    0 /   0

     iteration # 26     ecut=    60.00 Ry     beta= 0.30
     Davidson diagonalization with overlap

---- Real-time Memory Report at c_bands before calling an iterative solver
           765 MiB given to the printing process from OS
             0 MiB allocation reported by mallinfo(arena+hblkhd)
       1358903 MiB available memory on the node where the printing process lives
     GPU memory used/free/total (MiB): 1078 / 80072 / 81151
------------------
     ethr =  7.73E-09,  avg # of iterations =  3.9

     total cpu time spent up to now is       43.9 secs

     total energy              =    -572.90988274 Ry
     estimated scf accuracy    <       0.00000081 Ry

     total magnetization       =     0.44 Bohr mag/cell
     absolute magnetization    =     0.49 Bohr mag/cell
[tb_dev] Currently allocated     3.05E-05 Mbytes, locked:    0 /   2
[tb_pin] Currently allocated     0.00E+00 Mbytes, locked:    0 /   0

     iteration # 27     ecut=    60.00 Ry     beta= 0.30
     Davidson diagonalization with overlap

---- Real-time Memory Report at c_bands before calling an iterative solver
           765 MiB given to the printing process from OS
             0 MiB allocation reported by mallinfo(arena+hblkhd)
       1357708 MiB available memory on the node where the printing process lives
     GPU memory used/free/total (MiB): 1078 / 80072 / 81151
------------------
     ethr =  2.12E-09,  avg # of iterations =  5.0

     total cpu time spent up to now is       45.7 secs

     total energy              =    -572.90988297 Ry
     estimated scf accuracy    <       0.00000013 Ry

     total magnetization       =     0.44 Bohr mag/cell
     absolute magnetization    =     0.49 Bohr mag/cell
[tb_dev] Currently allocated     3.05E-05 Mbytes, locked:    0 /   2
[tb_pin] Currently allocated     0.00E+00 Mbytes, locked:    0 /   0

     iteration # 28     ecut=    60.00 Ry     beta= 0.30
     Davidson diagonalization with overlap

---- Real-time Memory Report at c_bands before calling an iterative solver
           765 MiB given to the printing process from OS
             0 MiB allocation reported by mallinfo(arena+hblkhd)
       1356235 MiB available memory on the node where the printing process lives
     GPU memory used/free/total (MiB): 1078 / 80072 / 81151
------------------
     c_bands:  1 eigenvalues not converged
     ethr =  3.55E-10,  avg # of iterations =  5.5
 
     Magnetic moment per site  (integrated on atomic sphere of radius R)
     atom   1 (R=0.275)  charge= 14.1319  magn=  0.3724
     atom   2 (R=0.275)  charge=  5.2416  magn=  0.0252
     atom   3 (R=0.275)  charge=  5.2416  magn=  0.0252
     atom   4 (R=0.413)  charge=  7.8029  magn= -0.0111

     total cpu time spent up to now is       47.6 secs

     End of self-consistent calculation

 ------ SPIN UP ------------


          k = 0.0000 0.0000 0.0000 (  3279 PWs)   bands (ev):

   -87.1762 -50.4198 -50.3902 -50.3902 -26.0476 -11.0900  -9.3698  -9.0990
    -8.0112  -8.0112   2.4840   3.2471   3.2471   5.7735   6.7062   6.7062
     6.9651   6.9651   6.9849   8.1712  10.5662  10.6177  10.6177  11.8931
    12.3967  12.3967  15.8967

     occupation numbers 
     1.0000   1.0000   1.0000   1.0000   1.0000   1.0000   1.0000   1.0000
     1.0000   1.0000   1.0000   1.0000   1.0000   1.0000   1.0000   1.0000
     1.0000   1.0000   1.0000   0.9252   0.0000   0.0000   0.0000   0.0000
     0.0000   0.0000   0.0000

          k = 0.0000 0.0000 0.1151 (  3249 PWs)   bands (ev):

   -87.1762 -50.4198 -50.3901 -50.3901 -26.0476 -11.0935  -9.3068  -9.1601
    -8.0112  -8.0112   2.5396   3.2471   3.2471   5.4583   6.7061   6.7061
     6.9651   6.9651   7.3877   8.0811  10.6185  10.6185  10.7962  11.4963
    12.3961  12.3962  15.8959

     occupation numbers 
     1.0000   1.0000   1.0000   1.0000   1.0000   1.0000   1.0000   1.0000
     1.0000   1.0000   1.0000   1.0000   1.0000   1.0000   1.0000   1.0000
     1.0000   1.0000   1.0001   1.0496   0.0000   0.0000   0.0000   0.0000
     0.0000   0.0000   0.0000

          k = 0.0000 0.1443 0.0000 (  3241 PWs)   bands (ev):

   -87.1755 -50.4186 -50.3979 -50.3919 -25.9608 -10.9223  -9.3348  -9.0562
    -8.4575  -8.1022   2.6965   3.0239   3.3537   5.6053   6.0774   6.1543
     7.2885   7.4963   7.4967   8.3641  10.0938  10.5200  10.9537  11.6261
    11.7708  12.9561  15.6920

     occupation numbers 
     1.0000   1.0000   1.0000   1.0000   1.0000   1.0000   1.0000   1.0000
     1.0000   1.0000   1.0000   1.0000   1.0000   1.0000   1.0000   1.0000
     1.0000   1.0005   1.0005   0.4327   0.0000   0.0000   0.0000   0.0000
     0.0000   0.0000   0.0000

          k = 0.0000 0.1443 0.1151 (  3236 PWs)   bands (ev):

   -87.1755 -50.4186 -50.3979 -50.3919 -25.9608 -10.9255  -9.2879  -9.1013
    -8.4572  -8.1022   2.7388   3.0142   3.3537   5.6137   5.9396   6.0773
     7.2718   7.4962   7.8622   8.2248  10.0939  10.5203  11.1232  11.4039
    11.7777  12.9561  15.4288

     occupation numbers 
     1.0000   1.0000   1.0000   1.0000   1.0000   1.0000   1.0000   1.0000
     1.0000   1.0000   1.0000   1.0000   1.0000   1.0000   1.0000   1.0000
     1.0000   1.0005   1.0512   0.8069   0.0000   0.0000   0.0000   0.0000
     0.0000   0.0000   0.0000

          k = 0.0000 0.2887 0.0000 (  3230 PWs)   bands (ev):

   -87.1738 -50.4172 -50.4156 -50.3964 -25.7426 -10.4823  -9.4457  -9.3009
    -8.9097  -8.3139   2.7053   3.1978   3.6083   4.2412   5.4899   6.4713
     7.3777   7.7551   7.9017   8.8218   9.4233  10.3990  10.7988  11.0483
    12.2475  14.4924  15.2176

     occupation numbers 
     1.0000   1.0000   1.0000   1.0000   1.0000   1.0000   1.0000   1.0000
     1.0000   1.0000   1.0000   1.0000   1.0000   1.0000   1.0000   1.0000
     1.0000   1.0203   1.0647   0.0021   0.0000   0.0000   0.0000   0.0000
     0.0000   0.0000   0.0000

          k = 0.0000 0.2887 0.1151 (  3236 PWs)   bands (ev):

   -87.1738 -50.4172 -50.4156 -50.3965 -25.7426 -10.4846  -9.4497  -9.2805
    -8.9242  -8.3139   2.6930   3.2163   3.6083   4.2540   5.4896   6.4312
     7.3647   7.7549   7.9688   8.6775   9.5835  10.3996  10.6045  11.1858
    12.3280  14.4934  15.4770

     occupation numbers 
     1.0000   1.0000   1.0000   1.0000   1.0000   1.0000   1.0000   1.0000
     1.0000   1.0000   1.0000   1.0000   1.0000   1.0000   1.0000   1.0000
     1.0000   1.0202   1.0817   0.0201   0.0000   0.0000   0.0000   0.0000
     0.0000   0.0000   0.0000

          k = 0.0000 0.4330 0.0000 (  3242 PWs)   bands (ev):

   -87.1722 -50.4360 -50.4131 -50.4012 -25.5108 -10.3497  -9.9467  -9.3493
    -8.7245  -8.5153   2.2298   3.2399   3.8152   4.2317   5.2475   6.0052
     7.2687   7.5831   7.7830   8.4240   9.3375  10.1389  10.4340  12.2262
    13.6711  14.8027  15.9711

     occupation numbers 
     1.0000   1.0000   1.0000   1.0000   1.0000   1.0000   1.0000   1.0000
     1.0000   1.0000   1.0000   1.0000   1.0000   1.0000   1.0000   1.0000
     1.0000   1.0021   1.0268   0.2901   0.0000   0.0000   0.0000   0.0000
     0.0000   0.0000   0.0000

          k = 0.0000 0.4330 0.1151 (  3243 PWs)   bands (ev):

   -87.1722 -50.4360 -50.4130 -50.4012 -25.5108 -10.3493  -9.9492  -9.3452
    -8.7267  -8.5153   2.2336   3.2295   3.8154   4.2474   5.2471   5.9789
     7.2819   7.5831   7.7771   8.4059   9.6325   9.8114  10.4355  12.3221
    13.6493  14.7991  15.9418

     occupation numbers 
     1.0000   1.0000   1.0000   1.0000   1.0000   1.0000   1.0000   1.0000
     1.0000   1.0000   1.0000   1.0000   1.0000   1.0000   1.0000   1.0000
     1.0000   1.0021   1.0253   0.3302   0.0000   0.0000   0.0000   0.0000
     0.0000   0.0000   0.0000

          k = 0.0000-0.5774 0.0000 (  3254 PWs)   bands (ev):

   -87.1715 -50.4439 -50.4119 -50.4030 -25.4103 -10.7034  -9.5781  -9.5082
    -8.6410  -8.5959   1.8485   3.3841   3.8619   4.4471   5.2554   5.7027
     7.0711   7.4154   7.7259   8.1368   9.2608  10.0912  10.4819  13.3719
    13.8913  14.6426  16.1422

     occupation numbers 
     1.0000   1.0000   1.0000   1.0000   1.0000   1.0000   1.0000   1.0000
     1.0000   1.0000   1.0000   1.0000   1.0000   1.0000   1.0000   1.0000
     1.0000   1.0001   1.0148   0.9845   0.0000   0.0000   0.0000   0.0000
     0.0000   0.0000   0.0000

          k = 0.0000-0.5774 0.1151 (  3256 PWs)   bands (ev):

   -87.1715 -50.4439 -50.4119 -50.4031 -25.4103 -10.7033  -9.5785  -9.5080
    -8.6407  -8.5959   1.8532   3.3731   3.8621   4.4668   5.2549   5.6560
     7.0821   7.4154   7.7398   8.1426   9.4072   9.9567  10.4834  13.2681
    13.8787  14.6387  16.3791

     occupation numbers 
     1.0000   1.0000   1.0000   1.0000   1.0000   1.0000   1.0000   1.0000
     1.0000   1.0000   1.0000   1.0000   1.0000   1.0000   1.0000   1.0000
     1.0000   1.0001   1.0172   0.9754   0.0000   0.0000   0.0000   0.0000
     0.0000   0.0000   0.0000

          k = 0.1250 0.2165 0.0000 (  3241 PWs)   bands (ev):

   -87.1743 -50.4167 -50.4105 -50.3960 -25.8079 -10.6183  -9.3032  -9.1157
    -8.9578  -8.3134   2.8167   3.0598   3.4927   4.7134   5.3711   6.5045
     7.3844   7.7902   7.8846   8.9517   9.6497  10.2653  10.9076  11.1077
    11.6011  14.1950  15.0915

     occupation numbers 
     1.0000   1.0000   1.0000   1.0000   1.0000   1.0000   1.0000   1.0000
     1.0000   1.0000   1.0000   1.0000   1.0000   1.0000   1.0000   1.0000
     1.0001   1.0287   1.0589   0.0002   0.0000   0.0000   0.0000   0.0000
     0.0000   0.0000   0.0000

          k = 0.1250 0.2165 0.1151 (  3233 PWs)   bands (ev):

   -87.1743 -50.4166 -50.4105 -50.3960 -25.8079 -10.6209  -9.2840  -9.1119
    -8.9787  -8.3134   2.8025   3.0842   3.4931   4.7265   5.3714   6.4306
     7.3846   7.7619   7.9762   8.9015   9.7834  10.1794  10.9089  10.9871
    11.7506  14.1949  15.0921

     occupation numbers 
     1.0000   1.0000   1.0000   1.0000   1.0000   1.0000   1.0000   1.0000
     1.0000   1.0000   1.0000   1.0000   1.0000   1.0000   1.0000   1.0000
     1.0001   1.0218   1.0826   0.0005   0.0000   0.0000   0.0000   0.0000
     0.0000   0.0000   0.0000

          k = 0.1250 0.3608 0.0000 (  3230 PWs)   bands (ev):

   -87.1726 -50.4276 -50.4139 -50.4025 -25.5808 -10.1375  -9.9442  -9.3119
    -8.7816  -8.6396   2.6411   3.1377   3.7708   4.1377   4.9064   6.3028
     7.4121   7.6868   7.9336   9.2901   9.5395  10.0900  10.4410  11.2310
    12.6442  14.1501  16.2006

     occupation numbers 
     1.0000   1.0000   1.0000   1.0000   1.0000   1.0000   1.0000   1.0000
     1.0000   1.0000   1.0000   1.0000   1.0000   1.0000   1.0000   1.0000
     1.0001   1.0092   1.0744   0.0000   0.0000   0.0000   0.0000   0.0000
     0.0000   0.0000   0.0000

          k = 0.1250 0.3608 0.1151 (  3231 PWs)   bands (ev):

   -87.1726 -50.4276 -50.4139 -50.4025 -25.5808 -10.1367  -9.9482  -9.3042
    -8.7863  -8.6396   2.6378   3.1353   3.7709   4.1509   4.9061   6.2998
     7.4134   7.6900   7.9314   9.2006   9.7446   9.8859  10.4714  11.2735
    12.6842  14.1502  16.2420

     occupation numbers 
     1.0000   1.0000   1.0000   1.0000   1.0000   1.0000   1.0000   1.0000
     1.0000   1.0000   1.0000   1.0000   1.0000   1.0000   1.0000   1.0000
     1.0001   1.0096   1.0738   0.0000   0.0000   0.0000   0.0000   0.0000
     0.0000   0.0000   0.0000

          k = 0.1250 0.5052 0.0000 (  3243 PWs)   bands (ev):

   -87.1715 -50.4396 -50.4119 -50.4073 -25.4115 -10.5096  -9.6808  -9.4065
    -8.8615  -8.6417   2.1346   3.1349   4.0251   4.4105   4.8171   5.7237
     7.1759   7.5157   7.8774   8.8705   9.5070  10.0881  10.2289  12.8561
    13.4950  13.5669  16.9140

     occupation numbers 
     1.0000   1.0000   1.0000   1.0000   1.0000   1.0000   1.0000   1.0000
     1.0000   1.0000   1.0000   1.0000   1.0000   1.0000   1.0000   1.0000
     1.0000   1.0007   1.0564   0.0009   0.0000   0.0000   0.0000   0.0000
     0.0000   0.0000   0.0000

          k = 0.1250 0.5052 0.1151 (  3244 PWs)   bands (ev):

   -87.1715 -50.4396 -50.4119 -50.4073 -25.4115 -10.5095  -9.6820  -9.4052
    -8.8615  -8.6420   2.1396   3.1304   4.0190   4.4256   4.8166   5.6948
     7.1822   7.5127   7.8890   8.8750   9.6539   9.8532  10.3257  12.8380
    13.5201  13.5326  16.9895

     occupation numbers 
     1.0000   1.0000   1.0000   1.0000   1.0000   1.0000   1.0000   1.0000
     1.0000   1.0000   1.0000   1.0000   1.0000   1.0000   1.0000   1.0000
     1.0000   1.0007   1.0604   0.0008   0.0000   0.0000   0.0000   0.0000
     0.0000   0.0000   0.0000

          k = 0.2500 0.4330 0.0000 (  3245 PWs)   bands (ev):

   -87.1715 -50.4336 -50.4134 -50.4117 -25.4127 -10.2280  -9.7341  -9.3555
    -9.2121  -8.6424   2.7040   2.8127   3.7740   4.4767   4.5205   5.7765
     7.2498   7.5920   8.0341   9.7620   9.8029  10.2009  10.4251  11.4686
    12.5984  13.3036  17.3088

     occupation numbers 
     1.0000   1.0000   1.0000   1.0000   1.0000   1.0000   1.0000   1.0000
     1.0000   1.0000   1.0000   1.0000   1.0000   1.0000   1.0000   1.0000
     1.0000   1.0025   1.0767   0.0000   0.0000   0.0000   0.0000   0.0000
     0.0000   0.0000   0.0000

          k = 0.2500 0.4330 0.1151 (  3234 PWs)   bands (ev):

   -87.1715 -50.4336 -50.4133 -50.4117 -25.4127 -10.2273  -9.7370  -9.3516
    -9.2133  -8.6428   2.7058   2.8133   3.7759   4.4735   4.5160   5.7804
     7.2473   7.5875   8.0543   9.5961   9.8527  10.3441  10.4138  11.4311
    12.6188  13.2881  17.4353

     occupation numbers 
     1.0000   1.0000   1.0000   1.0000   1.0000   1.0000   1.0000   1.0000
     1.0000   1.0000   1.0000   1.0000   1.0000   1.0000   1.0000   1.0000
     1.0000   1.0023   1.0679   0.0000   0.0000   0.0000   0.0000   0.0000
     0.0000   0.0000   0.0000

          k = 0.2500 0.5774 0.0000 (  3233 PWs)   bands (ev):

   -87.1710 -50.4341 -50.4196 -50.4110 -25.3411 -10.2558  -9.5441  -9.5002
    -9.4301  -8.5823   2.5410   2.9311   3.5728   4.5781   4.7943   5.3251
     7.0106   7.7695   7.9748   9.8169   9.8947  10.2749  10.4975  11.7646
    12.1986  13.7344  17.9898

     occupation numbers 
     1.0000   1.0000   1.0000   1.0000   1.0000   1.0000   1.0000   1.0000
     1.0000   1.0000   1.0000   1.0000   1.0000   1.0000   1.0000   1.0000
     1.0000   1.0235   1.0824   0.0000   0.0000   0.0000   0.0000   0.0000
     0.0000   0.0000   0.0000

          k = 0.2500 0.5774 0.1151 (  3249 PWs)   bands (ev):

   -87.1710 -50.4342 -50.4196 -50.4111 -25.3411 -10.2557  -9.5476  -9.4945
    -9.4325  -8.5823   2.5448   2.9319   3.5775   4.5687   4.7966   5.3144
     7.0121   7.7648   7.9898   9.7314   9.8463  10.3990  10.5074  11.8148
    12.1755  13.7232  17.9855

     occupation numbers 
     1.0000   1.0000   1.0000   1.0000   1.0000   1.0000   1.0000   1.0000
     1.0000   1.0000   1.0000   1.0000   1.0000   1.0000   1.0000   1.0000
     1.0000   1.0224   1.0833   0.0000   0.0000   0.0000   0.0000   0.0000
     0.0000   0.0000   0.0000

          k = 0.0000 0.1443-0.1151 (  3236 PWs)   bands (ev):

   -87.1755 -50.4186 -50.3979 -50.3919 -25.9608 -10.9255  -9.2880  -9.1013
    -8.4571  -8.1022   2.7409   3.0112   3.3537   5.5913   5.9702   6.0774
     7.2690   7.4962   7.8355   8.2595  10.0843  10.5204  11.0514  11.4715
    11.7728  12.9556  15.4578

     occupation numbers 
     1.0000   1.0000   1.0000   1.0000   1.0000   1.0000   1.0000   1.0000
     1.0000   1.0000   1.0000   1.0000   1.0000   1.0000   1.0000   1.0000
     1.0000   1.0005   1.0422   0.7175   0.0000   0.0000   0.0000   0.0000
     0.0000   0.0000   0.0000

          k = 0.0000 0.2887-0.1151 (  3236 PWs)   bands (ev):

   -87.1738 -50.4172 -50.4156 -50.3965 -25.7426 -10.4844  -9.4520  -9.2788
    -8.9237  -8.3139   2.6958   3.2041   3.6082   4.2611   5.4899   6.4456
     7.3680   7.7549   7.9199   8.8351   9.4093  10.3992  10.7330  11.1066
    12.2588  14.4924  15.2169

     occupation numbers 
     1.0000   1.0000   1.0000   1.0000   1.0000   1.0000   1.0000   1.0000
     1.0000   1.0000   1.0000   1.0000   1.0000   1.0000   1.0000   1.0000
     1.0000   1.0203   1.0705   0.0017   0.0000   0.0000   0.0000   0.0000
     0.0000   0.0000   0.0000

          k = 0.0000 0.4330-0.1151 (  3243 PWs)   bands (ev):

   -87.1722 -50.4360 -50.4130 -50.4012 -25.5108 -10.3484  -9.9506  -9.3453
    -8.7259  -8.5153   2.2294   3.2308   3.8152   4.2402   5.2474   6.0107
     7.2696   7.5831   7.7813   8.4415   9.3415  10.1306  10.4349  12.1331
    13.6560  14.8000  16.2141

     occupation numbers 
     1.0000   1.0000   1.0000   1.0000   1.0000   1.0000   1.0000   1.0000
     1.0000   1.0000   1.0000   1.0000   1.0000   1.0000   1.0000   1.0000
     1.0000   1.0021   1.0264   0.2539   0.0000   0.0000   0.0000   0.0000
     0.0000   0.0000   0.0000

          k =-0.1250 0.3608-0.1151 (  3231 PWs)   bands (ev):

   -87.1726 -50.4276 -50.4139 -50.4025 -25.5808 -10.1350  -9.9504  -9.3040
    -8.7858  -8.6397   2.6354   3.1342   3.7681   4.1554   4.9048   6.3148
     7.4080   7.6864   7.9326   9.3016   9.5163  10.0118  10.5002  11.2430
    12.6250  14.1625  16.2014

     occupation numbers 
     1.0000   1.0000   1.0000   1.0000   1.0000   1.0000   1.0000   1.0000
     1.0000   1.0000   1.0000   1.0000   1.0000   1.0000   1.0000   1.0000
     1.0001   1.0092   1.0741   0.0000   0.0000   0.0000   0.0000   0.0000
     0.0000   0.0000   0.0000

          k =-0.1250 0.5052-0.1151 (  3244 PWs)   bands (ev):

   -87.1715 -50.4396 -50.4119 -50.4073 -25.4115 -10.5093  -9.6825  -9.4051
    -8.8616  -8.6416   2.1376   3.1315   4.0243   4.4117   4.8159   5.7151
     7.1747   7.5106   7.9003   8.8928   9.5021  10.0089  10.3044  12.7766
    13.4993  13.5614  17.1281

     occupation numbers 
     1.0000   1.0000   1.0000   1.0000   1.0000   1.0000   1.0000   1.0000
     1.0000   1.0000   1.0000   1.0000   1.0000   1.0000   1.0000   1.0000
     1.0000   1.0006   1.0643   0.0006   0.0000   0.0000   0.0000   0.0000
     0.0000   0.0000   0.0000

 ------ SPIN DOWN ----------


          k = 0.0000 0.0000 0.0000 (  3279 PWs)   bands (ev):

   -86.7238 -49.9872 -49.9872 -49.9020 -26.0574 -11.0466  -9.3465  -9.0822
    -8.0206  -8.0206   2.6421   3.3755   3.3755   5.8440   6.7329   6.7329
     7.0038   7.3217   7.3217   8.6699  10.5778  10.8115  10.8115  11.9106
    12.3721  12.3721  15.8921

     occupation numbers 
     1.0000   1.0000   1.0000   1.0000   1.0000   1.0000   1.0000   1.0000
     1.0000   1.0000   1.0000   1.0000   1.0000   1.0000   1.0000   1.0000
     1.0000   1.0000   1.0000   0.0223   0.0000   0.0000   0.0000   0.0000
     0.0000   0.0000   0.0000

          k = 0.0000 0.0000 0.1151 (  3249 PWs)   bands (ev):

   -86.7238 -49.9871 -49.9871 -49.9020 -26.0574 -11.0502  -9.2797  -9.1471
    -8.0206  -8.0206   2.7026   3.3755   3.3755   5.5103   6.7328   6.7328
     7.3217   7.3217   7.3870   8.6115  10.8099  10.8124  10.8124  11.5146
    12.3715  12.3715  15.9105

     occupation numbers 
     1.0000   1.0000   1.0000   1.0000   1.0000   1.0000   1.0000   1.0000
     1.0000   1.0000   1.0000   1.0000   1.0000   1.0000   1.0000   1.0000
     1.0000   1.0000   1.0001   0.0471   0.0000   0.0000   0.0000   0.0000
     0.0000   0.0000   0.0000

          k = 0.0000 0.1443 0.0000 (  3241 PWs)   bands (ev):

   -86.7231 -49.9951 -49.9890 -49.9007 -25.9703 -10.8788  -9.3039  -9.0465
    -8.4687  -8.1118   2.8545   3.1414   3.4775   5.6955   6.1945   6.2256
     7.5779   7.6339   7.7756   8.7582  10.2755  10.7087  10.9645  11.6496
    11.7417  12.9323  15.7002

     occupation numbers 
     1.0000   1.0000   1.0000   1.0000   1.0000   1.0000   1.0000   1.0000
     1.0000   1.0000   1.0000   1.0000   1.0000   1.0000   1.0000   1.0000
     1.0020   1.0046   1.0250   0.0061   0.0000   0.0000   0.0000   0.0000
     0.0000   0.0000   0.0000

          k = 0.0000 0.1443 0.1151 (  3236 PWs)   bands (ev):

   -86.7230 -49.9951 -49.9890 -49.9007 -25.9703 -10.8821  -9.2501  -9.0985
    -8.4683  -8.1118   2.9000   3.1312   3.4775   5.7073   5.9984   6.1943
     7.5818   7.7755   7.9566   8.6457  10.2653  10.7091  11.1466  11.4279
    11.7499  12.9322  15.4394

     occupation numbers 
     1.0000   1.0000   1.0000   1.0000   1.0000   1.0000   1.0000   1.0000
     1.0000   1.0000   1.0000   1.0000   1.0000   1.0000   1.0000   1.0000
     1.0021   1.0249   1.0797   0.0308   0.0000   0.0000   0.0000   0.0000
     0.0000   0.0000   0.0000

          k = 0.0000 0.2887 0.0000 (  3230 PWs)   bands (ev):

   -86.7213 -50.0146 -49.9935 -49.8979 -25.7515 -10.4383  -9.4601  -9.2578
    -8.9110  -8.3240   2.8095   3.3306   3.7210   4.3411   5.5951   6.5452
     7.7276   8.0783   8.3425   8.8763   9.5914  10.5749  10.8192  11.0533
    12.2298  14.4720  15.7386

     occupation numbers 
     1.0000   1.0000   1.0000   1.0000   1.0000   1.0000   1.0000   1.0000
     1.0000   1.0000   1.0000   1.0000   1.0000   1.0000   1.0000   1.0000
     1.0151   1.0519   0.4900   0.0008   0.0000   0.0000   0.0000   0.0000
     0.0000   0.0000   0.0000

          k = 0.0000 0.2887 0.1151 (  3236 PWs)   bands (ev):

   -86.7213 -50.0145 -49.9937 -49.8979 -25.7515 -10.4407  -9.4632  -9.2359
    -8.9278  -8.3240   2.7968   3.3489   3.7211   4.3570   5.5948   6.5010
     7.7146   8.0781   8.4752   8.6913   9.7333  10.5755  10.6073  11.1946
    12.3226  14.4716  15.4930

     occupation numbers 
     1.0000   1.0000   1.0000   1.0000   1.0000   1.0000   1.0000   1.0000
     1.0000   1.0000   1.0000   1.0000   1.0000   1.0000   1.0000   1.0000
     1.0130   1.0520   0.1926   0.0166   0.0000   0.0000   0.0000   0.0000
     0.0000   0.0000   0.0000

          k = 0.0000 0.4330 0.0000 (  3242 PWs)   bands (ev):

   -86.7196 -50.0340 -49.9984 -49.8950 -25.5189 -10.3666  -9.9023  -9.3026
    -8.7283  -8.5258   2.3124   3.2998   3.9234   4.3920   5.3101   6.0870
     7.6992   7.9679   8.2347   8.3932   9.4406  10.2591  10.6040  12.2292
    13.6452  14.7970  15.9854

     occupation numbers 
     1.0000   1.0000   1.0000   1.0000   1.0000   1.0000   1.0000   1.0000
     1.0000   1.0000   1.0000   1.0000   1.0000   1.0000   1.0000   1.0000
     1.0108   1.0816   0.7822   0.3600   0.0000   0.0000   0.0000   0.0000
     0.0000   0.0000   0.0000

          k = 0.0000 0.4330 0.1151 (  3243 PWs)   bands (ev):

   -86.7196 -50.0340 -49.9984 -49.8949 -25.5189 -10.3663  -9.9047  -9.2982
    -8.7307  -8.5258   2.3165   3.2891   3.9235   4.4088   5.3097   6.0597
     7.7168   7.9678   8.2218   8.3799   9.8016   9.8531  10.6055  12.3362
    13.6236  14.7936  15.9558

     occupation numbers 
     1.0000   1.0000   1.0000   1.0000   1.0000   1.0000   1.0000   1.0000
     1.0000   1.0000   1.0000   1.0000   1.0000   1.0000   1.0000   1.0000
     1.0133   1.0816   0.8140   0.3926   0.0000   0.0000   0.0000   0.0000
     0.0000   0.0000   0.0000

          k = 0.0000-0.5774 0.0000 (  3254 PWs)   bands (ev):

   -86.7189 -50.0421 -50.0003 -49.8938 -25.4181 -10.7215  -9.5335  -9.4604
    -8.6449  -8.6067   1.9228   3.4241   3.9728   4.6177   5.2833   5.7712
     7.5848   7.8353   8.0899   8.1401   9.2925  10.2893  10.6523  13.3804
    13.8681  14.6369  16.1501

     occupation numbers 
     1.0000   1.0000   1.0000   1.0000   1.0000   1.0000   1.0000   1.0000
     1.0000   1.0000   1.0000   1.0000   1.0000   1.0000   1.0000   1.0000
     1.0022   1.0422   1.0419   0.9794   0.0000   0.0000   0.0000   0.0000
     0.0000   0.0000   0.0000

          k = 0.0000-0.5774 0.1151 (  3256 PWs)   bands (ev):

   -86.7189 -50.0421 -50.0003 -49.8938 -25.4181 -10.7214  -9.5338  -9.4604
    -8.6446  -8.6067   1.9278   3.4131   3.9730   4.6397   5.2828   5.7226
     7.6032   7.8353   8.0967   8.1477   9.4137  10.1762  10.6540  13.2733
    13.8584  14.6328  16.3890

     occupation numbers 
     1.0000   1.0000   1.0000   1.0000   1.0000   1.0000   1.0000   1.0000
     1.0000   1.0000   1.0000   1.0000   1.0000   1.0000   1.0000   1.0000
     1.0029   1.0422   1.0352   0.9672   0.0000   0.0000   0.0000   0.0000
     0.0000   0.0000   0.0000

          k = 0.1250 0.2165 0.0000 (  3241 PWs)   bands (ev):

   -86.7218 -50.0080 -49.9932 -49.8987 -25.8170 -10.5744  -9.2625  -9.1291
    -8.9570  -8.3236   2.9233   3.2097   3.6072   4.7993   5.4864   6.5715
     7.7595   8.0707   8.3099   9.0299   9.8243  10.4388  10.8726  11.1365
    11.6104  14.1724  15.0857

     occupation numbers 
     1.0000   1.0000   1.0000   1.0000   1.0000   1.0000   1.0000   1.0000
     1.0000   1.0000   1.0000   1.0000   1.0000   1.0000   1.0000   1.0000
     1.0213   1.0577   0.5793   0.0000   0.0000   0.0000   0.0000   0.0000
     0.0000   0.0000   0.0000

          k = 0.1250 0.2165 0.1151 (  3233 PWs)   bands (ev):

   -86.7218 -50.0080 -49.9932 -49.8986 -25.8170 -10.5772  -9.2415  -9.1233
    -8.9816  -8.3236   2.9085   3.2351   3.6078   4.8149   5.4868   6.4941
     7.7594   8.0345   8.4675   8.9341   9.9452  10.3354  10.8746  11.0235
    11.7731  14.1722  15.0863

     occupation numbers 
     1.0000   1.0000   1.0000   1.0000   1.0000   1.0000   1.0000   1.0000
     1.0000   1.0000   1.0000   1.0000   1.0000   1.0000   1.0000   1.0000
     1.0212   1.0765   0.2056   0.0002   0.0000   0.0000   0.0000   0.0000
     0.0000   0.0000   0.0000

          k = 0.1250 0.3608 0.0000 (  3230 PWs)   bands (ev):

   -86.7201 -50.0254 -49.9998 -49.8958 -25.5892 -10.0954  -9.9579  -9.2659
    -8.7850  -8.6508   2.7339   3.2145   3.8842   4.2714   4.9986   6.3795
     7.8174   8.1580   8.3063   9.3020   9.6455  10.2397  10.5108  11.2210
    12.6386  14.1425  16.1836

     occupation numbers 
     1.0000   1.0000   1.0000   1.0000   1.0000   1.0000   1.0000   1.0000
     1.0000   1.0000   1.0000   1.0000   1.0000   1.0000   1.0000   1.0000
     1.0365   0.9496   0.5893   0.0000   0.0000   0.0000   0.0000   0.0000
     0.0000   0.0000   0.0000

          k = 0.1250 0.3608 0.1151 (  3231 PWs)   bands (ev):

   -86.7201 -50.0254 -49.9998 -49.8958 -25.5892 -10.0934  -9.9630  -9.2575
    -8.7903  -8.6509   2.7307   3.2118   3.8834   4.2865   4.9983   6.3764
     7.8196   8.1627   8.3004   9.2321   9.8679   9.9638  10.5676  11.2682
    12.6851  14.1424  16.2600

     occupation numbers 
     1.0000   1.0000   1.0000   1.0000   1.0000   1.0000   1.0000   1.0000
     1.0000   1.0000   1.0000   1.0000   1.0000   1.0000   1.0000   1.0000
     1.0372   0.9411   0.6056   0.0000   0.0000   0.0000   0.0000   0.0000
     0.0000   0.0000   0.0000

          k = 0.1250 0.5052 0.0000 (  3243 PWs)   bands (ev):

   -86.7189 -50.0377 -50.0047 -49.8937 -25.4193 -10.5271  -9.6356  -9.3595
    -8.8734  -8.6455   2.2090   3.1980   4.1188   4.5430   4.8968   5.8018
     7.7368   7.9223   8.2304   8.8330   9.5621  10.2481  10.4026  12.8439
    13.4866  13.5562  16.9264

     occupation numbers 
     1.0000   1.0000   1.0000   1.0000   1.0000   1.0000   1.0000   1.0000
     1.0000   1.0000   1.0000   1.0000   1.0000   1.0000   1.0000   1.0000
     1.0167   1.0712   0.7928   0.0017   0.0000   0.0000   0.0000   0.0000
     0.0000   0.0000   0.0000

          k = 0.1250 0.5052 0.1151 (  3244 PWs)   bands (ev):

   -86.7189 -50.0377 -50.0046 -49.8938 -25.4193 -10.5270  -9.6368  -9.3581
    -8.8734  -8.6458   2.2142   3.1932   4.1128   4.5583   4.8974   5.7712
     7.7491   7.9185   8.2387   8.8368   9.6681  10.0690  10.4819  12.8267
    13.5069  13.5263  17.0046

     occupation numbers 
     1.0000   1.0000   1.0000   1.0000   1.0000   1.0000   1.0000   1.0000
     1.0000   1.0000   1.0000   1.0000   1.0000   1.0000   1.0000   1.0000
     1.0191   1.0701   0.7719   0.0016   0.0000   0.0000   0.0000   0.0000
     0.0000   0.0000   0.0000

          k = 0.2500 0.4330 0.0000 (  3245 PWs)   bands (ev):

   -86.7189 -50.0316 -50.0107 -49.8938 -25.4205 -10.2445  -9.6891  -9.3098
    -9.2240  -8.6462   2.7694   2.8981   3.8354   4.6131   4.6267   5.8590
     7.8504   7.9825   8.3561   9.8824   9.9860  10.2131  10.4478  11.4436
    12.5872  13.3076  17.3256

     occupation numbers 
     1.0000   1.0000   1.0000   1.0000   1.0000   1.0000   1.0000   1.0000
     1.0000   1.0000   1.0000   1.0000   1.0000   1.0000   1.0000   1.0000
     1.0472   1.0830   0.4538   0.0000   0.0000   0.0000   0.0000   0.0000
     0.0000   0.0000   0.0000

          k = 0.2500 0.4330 0.1151 (  3234 PWs)   bands (ev):

   -86.7189 -50.0316 -50.0106 -49.8937 -25.4205 -10.2440  -9.6919  -9.3048
    -9.2261  -8.6467   2.7713   2.8987   3.8373   4.6078   4.6230   5.8641
     7.8476   7.9779   8.3800   9.7053  10.0390  10.3174  10.4804  11.4051
    12.6079  13.2916  17.4564

     occupation numbers 
     1.0000   1.0000   1.0000   1.0000   1.0000   1.0000   1.0000   1.0000
     1.0000   1.0000   1.0000   1.0000   1.0000   1.0000   1.0000   1.0000
     1.0462   1.0827   0.3923   0.0000   0.0000   0.0000   0.0000   0.0000
     0.0000   0.0000   0.0000

          k = 0.2500 0.5774 0.0000 (  3233 PWs)   bands (ev):

   -86.7184 -50.0321 -50.0172 -49.8928 -25.3487 -10.2725  -9.5570  -9.4544
    -9.3845  -8.5861   2.6108   3.0017   3.6290   4.6766   4.9355   5.3917
     7.6461   8.1469   8.3192   9.9819  10.0811  10.2585  10.5022  11.7523
    12.1648  13.7411  18.0012

     occupation numbers 
     1.0000   1.0000   1.0000   1.0000   1.0000   1.0000   1.0000   1.0000
     1.0000   1.0000   1.0000   1.0000   1.0000   1.0000   1.0000   1.0000
     1.0054   0.9686   0.5536   0.0000   0.0000   0.0000   0.0000   0.0000
     0.0000   0.0000   0.0000

          k = 0.2500 0.5774 0.1151 (  3249 PWs)   bands (ev):

   -86.7184 -50.0321 -50.0173 -49.8929 -25.3487 -10.2724  -9.5580  -9.4522
    -9.3859  -8.5860   2.6147   3.0025   3.6336   4.6669   4.9383   5.3803
     7.6484   8.1412   8.3365   9.8610  10.0340  10.3780  10.5470  11.8058
    12.1415  13.7268  17.9990

     occupation numbers 
     1.0000   1.0000   1.0000   1.0000   1.0000   1.0000   1.0000   1.0000
     1.0000   1.0000   1.0000   1.0000   1.0000   1.0000   1.0000   1.0000
     1.0056   0.9777   0.5063   0.0000   0.0000   0.0000   0.0000   0.0000
     0.0000   0.0000   0.0000

          k = 0.0000 0.1443-0.1151 (  3236 PWs)   bands (ev):

   -86.7231 -49.9951 -49.9890 -49.9007 -25.9703 -10.8821  -9.2502  -9.0984
    -8.4683  -8.1118   2.9024   3.1280   3.4775   5.6787   6.0366   6.1944
     7.5654   7.7755   7.9621   8.6588  10.2626  10.7092  11.0628  11.5026
    11.7444  12.9318  15.4685

     occupation numbers 
     1.0000   1.0000   1.0000   1.0000   1.0000   1.0000   1.0000   1.0000
     1.0000   1.0000   1.0000   1.0000   1.0000   1.0000   1.0000   1.0000
     1.0016   1.0249   1.0807   0.0259   0.0000   0.0000   0.0000   0.0000
     0.0000   0.0000   0.0000

          k = 0.0000 0.2887-0.1151 (  3236 PWs)   bands (ev):

   -86.7213 -50.0145 -49.9937 -49.8979 -25.7515 -10.4405  -9.4650  -9.2349
    -8.9272  -8.3240   2.7989   3.3369   3.7210   4.3643   5.5950   6.5172
     7.7109   8.0782   8.3871   8.8705   9.5705  10.5750  10.7544  11.1147
    12.2460  14.4734  15.6746

     occupation numbers 
     1.0000   1.0000   1.0000   1.0000   1.0000   1.0000   1.0000   1.0000
     1.0000   1.0000   1.0000   1.0000   1.0000   1.0000   1.0000   1.0000
     1.0124   1.0520   0.3749   0.0009   0.0000   0.0000   0.0000   0.0000
     0.0000   0.0000   0.0000

          k = 0.0000 0.4330-0.1151 (  3243 PWs)   bands (ev):

   -86.7196 -50.0340 -49.9984 -49.8949 -25.5189 -10.3655  -9.9059  -9.2985
    -8.7298  -8.5258   2.3121   3.2905   3.9234   4.4004   5.3100   6.0945
     7.7069   7.9678   8.2058   8.4293   9.4428  10.2513  10.6050  12.1395
    13.6280  14.7946  16.2287

     occupation numbers 
     1.0000   1.0000   1.0000   1.0000   1.0000   1.0000   1.0000   1.0000
     1.0000   1.0000   1.0000   1.0000   1.0000   1.0000   1.0000   1.0000
     1.0118   1.0816   0.8520   0.2788   0.0000   0.0000   0.0000   0.0000
     0.0000   0.0000   0.0000

          k =-0.1250 0.3608-0.1151 (  3231 PWs)   bands (ev):

   -86.7201 -50.0254 -49.9998 -49.8958 -25.5892 -10.0910  -9.9659  -9.2574
    -8.7898  -8.6509   2.7279   3.2110   3.8811   4.2902   4.9970   6.3926
     7.8144   8.1603   8.2973   9.3209   9.6093  10.1505  10.5842  11.2370
    12.6218  14.1550  16.1847

     occupation numbers 
     1.0000   1.0000   1.0000   1.0000   1.0000   1.0000   1.0000   1.0000
     1.0000   1.0000   1.0000   1.0000   1.0000   1.0000   1.0000   1.0000
     1.0356   0.9454   0.6143   0.0000   0.0000   0.0000   0.0000   0.0000
     0.0000   0.0000   0.0000

          k =-0.1250 0.5052-0.1151 (  3244 PWs)   bands (ev):

   -86.7189 -50.0377 -50.0046 -49.8938 -25.4193 -10.5269  -9.6372  -9.3581
    -8.8734  -8.6454   2.2121   3.1944   4.1179   4.5438   4.8959   5.7937
     7.7385   7.9180   8.2531   8.8502   9.5554  10.1902  10.4596  12.7672
    13.4897  13.5482  17.1413

     occupation numbers 
     1.0000   1.0000   1.0000   1.0000   1.0000   1.0000   1.0000   1.0000
     1.0000   1.0000   1.0000   1.0000   1.0000   1.0000   1.0000   1.0000
     1.0170   1.0699   0.7344   0.0013   0.0000   0.0000   0.0000   0.0000
     0.0000   0.0000   0.0000

     the Fermi energy is     8.3767 ev

!    total energy              =    -572.90988304 Ry
     total all-electron energy =     -4292.020719 Ry
     estimated scf accuracy    <       0.00000001 Ry
     smearing contrib. (-TS)   =       0.00362291 Ry
     internal energy E=F+TS    =    -572.91350595 Ry

     The total energy is F=E-TS. E is the sum of the following terms:
     one-electron contribution =    -480.53779432 Ry
     hartree contribution      =     257.71925651 Ry
     xc contribution           =     -56.66687025 Ry
     ewald contribution        =    -131.23336882 Ry
     one-center paw contrib.   =    -162.19472908 Ry
      -> PAW hartree energy AE =     309.52733159 Ry
      -> PAW hartree energy PS =    -308.17435506 Ry
      -> PAW xc energy AE      =    -216.97956718 Ry
      -> PAW xc energy PS      =      53.43186157 Ry
      -> total E_H with PAW    =     259.07223304 Ry
      -> total E_XC with PAW   =    -220.21457586 Ry

     total magnetization       =     0.44 Bohr mag/cell
     absolute magnetization    =     0.49 Bohr mag/cell

     convergence has been achieved in  28 iterations

     Forces acting on atoms (cartesian axes, Ry/au):

     atom    1 type  1   force =     0.00000000    0.00000000    0.00000000
     atom    2 type  2   force =     0.00000000    0.00000000    0.00721651
     atom    3 type  2   force =     0.00000000    0.00000000   -0.00721651
     atom    4 type  3   force =     0.00000000    0.00000000    0.00000000
     The non-local contrib.  to forces
     atom    1 type  1   force =    -0.00000000   -0.00000000    0.00000000
     atom    2 type  2   force =    -0.00000000   -0.00000000   -0.83461968
     atom    3 type  2   force =     0.00000000    0.00000000    0.83461968
     atom    4 type  3   force =     0.00000000    0.00000000    0.00000000
     The ionic contribution  to forces
     atom    1 type  1   force =    -0.00000000   -0.00000000    0.00000000
     atom    2 type  2   force =     0.00000000   -0.00000000   30.84341947
     atom    3 type  2   force =    -0.00000000    0.00000000  -30.84341947
     atom    4 type  3   force =     0.00000000   -0.00000000    0.00000000
     The local contribution  to forces
     atom    1 type  1   force =    -0.00000000   -0.00000000    0.00000000
     atom    2 type  2   force =     0.00000001   -0.00000001  -30.00856677
     atom    3 type  2   force =    -0.00000001    0.00000001   30.00856677
     atom    4 type  3   force =     0.00000000    0.00000000    0.00000000
     The core correction contribution to forces
     atom    1 type  1   force =    -0.00000000   -0.00000000    0.00000000
     atom    2 type  2   force =    -0.00000000    0.00000000    0.00701533
     atom    3 type  2   force =     0.00000000   -0.00000000   -0.00701533
     atom    4 type  3   force =     0.00000000   -0.00000000   -0.00000000
     The Hubbard contrib.    to forces
     atom    1 type  1   force =     0.00000000    0.00000000    0.00000000
     atom    2 type  2   force =     0.00000000    0.00000000    0.00000000
     atom    3 type  2   force =     0.00000000    0.00000000    0.00000000
     atom    4 type  3   force =     0.00000000    0.00000000    0.00000000
     The SCF correction term to forces
     atom    1 type  1   force =     0.00000000    0.00000000   -0.00000000
     atom    2 type  2   force =    -0.00000000    0.00000000   -0.00003184
     atom    3 type  2   force =     0.00000000   -0.00000000    0.00003184
     atom    4 type  3   force =    -0.00000000    0.00000000   -0.00000000

     Total force =     0.010206     Total SCF correction =     0.000045

     Writing all to output data dir ./out/pw.save/ :
     XML data file, charge density, pseudopotentials, collected wavefunctions
 
     init_run     :     14.49s CPU      3.86s WALL (       1 calls)
     electrons    :    174.44s CPU     43.13s WALL (       1 calls)
     forces       :      0.66s CPU      0.59s WALL (       1 calls)

     Called by init_run:
     wfcinit      :      0.31s CPU      0.36s WALL (       1 calls)
     wfcinit:atom :      0.05s CPU      0.05s WALL (      50 calls)
     wfcinit:wfcr :      0.20s CPU      0.23s WALL (      50 calls)
     potinit      :     13.52s CPU      2.62s WALL (       1 calls)
     hinit0       :      0.56s CPU      0.66s WALL (       1 calls)

     Called by electrons:
     c_bands      :     16.17s CPU     16.39s WALL (      28 calls)
     sum_band     :      3.70s CPU      3.71s WALL (      28 calls)
     v_of_rho     :      0.48s CPU      0.25s WALL (      29 calls)
     v_h          :      0.34s CPU      0.05s WALL (      29 calls)
     v_xc         :      0.14s CPU      0.21s WALL (      30 calls)
     newd         :      0.91s CPU      0.76s WALL (      29 calls)
                                        0.76s GPU  (      29 calls)
     PAW_pot      :    157.17s CPU     21.83s WALL (      29 calls)
     mix_rho      :      0.88s CPU      0.89s WALL (      28 calls)

     Called by c_bands:
     init_us_2    :      1.18s CPU      1.17s WALL (    2900 calls)
     cegterg      :     13.84s CPU     14.06s WALL (    1400 calls)

     Called by sum_band:
     sum_band:wei :      0.04s CPU      0.04s WALL (      28 calls)
                                        0.04s GPU  (      28 calls)
     sum_band:loo :      1.97s CPU      1.97s WALL (      28 calls)
                                        1.97s GPU  (      28 calls)
     sum_band:buf :      0.24s CPU      0.27s WALL (    1400 calls)
                                        0.26s GPU  (    1400 calls)
     sum_band:ini :      0.56s CPU      0.58s WALL (    1400 calls)
                                        0.56s GPU  (    1400 calls)
     sum_band:cal :      0.05s CPU      0.09s WALL (    1400 calls)
                                        0.07s GPU  (    1400 calls)
     sum_band:bec :      0.31s CPU      0.34s WALL (    1400 calls)
                                        0.32s GPU  (    1400 calls)
     addusdens    :      1.51s CPU      1.51s WALL (      28 calls)
                                        1.51s GPU  (      28 calls)
     addusd:skk   :      0.00s CPU      0.01s WALL (      84 calls)
                                        0.00s GPU  (      84 calls)

     Called by *egterg:
     cdiaghg      :      4.67s CPU      4.83s WALL (    5613 calls)
                                        4.77s GPU  (    5613 calls)
     cegterg:over :      1.06s CPU      1.10s WALL (    4213 calls)
     cegterg:upda :      0.79s CPU      0.80s WALL (    4213 calls)
     cegterg:last :      0.14s CPU      0.14s WALL (    2412 calls)
     h_psi        :      5.21s CPU      5.40s WALL (    5663 calls)
                                        5.33s GPU  (    5663 calls)
     s_psi        :      0.88s CPU      0.93s WALL (    5663 calls)
     g_psi        :      0.02s CPU      0.11s WALL (    4213 calls)
                                        0.05s GPU  (    4213 calls)

     Called by h_psi:
     h_psi:calbec :      0.17s CPU      0.32s WALL (    5663 calls)
                                        0.24s GPU  (    5663 calls)
     vloc_psi     :      3.63s CPU      3.72s WALL (    5663 calls)
                                        3.65s GPU  (    5663 calls)
     add_vuspsi   :      0.80s CPU      0.95s WALL (    5663 calls)
                                        0.88s GPU  (    5663 calls)

     General routines
     calbec       :      0.20s CPU      0.22s WALL (    7263 calls)
     fft          :      3.72s CPU      1.03s WALL (     738 calls)
                                        0.08s GPU  (     680 calls)
     ffts         :      4.65s CPU      0.85s WALL (    1037 calls)
                                        0.03s GPU  (     979 calls)
     fftw         :      0.38s CPU      1.30s WALL (   19826 calls)
                                        1.07s GPU  (   19826 calls)
     interpolate  :      8.51s CPU      1.79s WALL (      58 calls)
 
     Parallel routines

     PAW routines
     PAW_pot      :    157.17s CPU     21.83s WALL (      29 calls)
     PAW_symme    :      0.02s CPU      0.02s WALL (      57 calls)
 
     PWSCF        :   3m10.58s CPU     48.23s WALL

 
   This run was terminated on:   5:38:33  12Jul2026            

=------------------------------------------------------------------------------=
   JOB DONE.
=------------------------------------------------------------------------------=
Warning: ieee_divide_by_zero is signaling
Warning: ieee_inexact is signaling
FORTRAN STOP
