CRYSTAL
PRIMVEC
   2.84290   0.00000   0.00000
  -1.42145   2.46202   0.00000
   0.00000   0.00000  15.00001
PRIMCOORD
    4    1
  27    -1.42145   0.82067   2.66185
   8     0.00000   1.64135   1.80852
   8    -0.00000  -0.00000   3.71828
   3     0.00000   1.64135   4.84286
BEGIN_BLOCK_DATAGRID_3D
charge_density_spin_1
BEGIN_DATAGRID_3D_isp_1
  25  25 135
   0.00000   0.00000   0.00000
   2.84290   0.00000   0.00000
  -1.42145   2.46202   0.00000
   0.00000   0.00000  15.00001
  9.034521E-06  5.945409E-06  4.611066E-06  1.065259E-05  9.313168E-06  5.004388E-06  3.018958E-06  4.948562E-06
  7.351369E-06  1.065589E-05  1.356461E-05  1.212210E-05  1.171302E-05  1.171367E-05  1.212293E-05  1.356479E-05
  1.065662E-05  7.353006E-06  4.949850E-06  3.019536E-06  5.005260E-06  9.314863E-06  1.065437E-05  4.611690E-06
  5.945038E-06  5.944053E-06  5.944039E-06  4.211171E-06  5.113391E-06  7.879626E-06  8.059417E-06  7.274428E-06
  4.857734E-06  5.477079E-06  4.499278E-06  7.259308E-06  1.066295E-05  9.555229E-06  9.394073E-06  9.555953E-06
  1.066359E-05  7.260151E-06  4.500647E-06  5.478369E-06  4.858554E-06  7.274730E-06  8.059229E-06  7.879676E-06
  5.114025E-06  4.211566E-06  4.611715E-06  3.166117E-06  4.610662E-06  5.114640E-06  7.885727E-07  3.117202E-06
  7.558324E-06  7.153741E-06  6.558252E-06  5.476118E-06  4.154868E-06  4.704733E-06  5.611486E-06  6.650565E-06
  6.650778E-06  5.612338E-06  4.706528E-06  4.156955E-06  5.477294E-06  6.558691E-06  7.154048E-06  7.557599E-06
  3.115247E-06  7.873591E-07  5.115246E-06  1.065657E-05  7.570521E-06  7.569716E-06  1.065527E-05  7.882148E-06
  3.117683E-06  5.378706E-06  4.083793E-06  7.560719E-06  7.397634E-06  7.749684E-06  5.767764E-06  2.684583E-06
  4.078379E-06  5.762148E-06  4.078672E-06  2.686032E-06  5.769997E-06  7.750896E-06  7.397335E-06  7.560395E-06
  4.083641E-06  5.377500E-06  3.116021E-06  7.881939E-06  9.316629E-06  7.364515E-06  8.076294E-06  7.364074E-06
  9.315983E-06  8.059980E-06  7.557760E-06  4.083525E-06  4.978734E-06  5.650296E-06  6.842138E-06  8.742770E-06
  6.642668E-06  5.848585E-06  4.730598E-06  4.730636E-06  5.848997E-06  6.643615E-06  8.743465E-06  6.841862E-06
  5.649523E-06  4.978351E-06  4.083445E-06  7.557795E-06  8.060352E-06  5.005701E-06  3.544709E-06  4.813938E-06
  4.814560E-06  3.545265E-06  5.004806E-06  7.273708E-06  7.153651E-06  7.560560E-06  5.649744E-06  3.970193E-06
  5.113482E-06  5.259812E-06  9.919678E-06  6.685811E-06  3.259836E-06  6.686246E-06  9.919850E-06  5.259646E-06
  5.113504E-06  3.970358E-06  5.649435E-06  7.559995E-06  7.153877E-06  7.275018E-06  3.020270E-06  3.958381E-06
  6.218016E-06  5.851019E-06  6.219654E-06  3.958856E-06  3.019193E-06  4.858746E-06  6.559465E-06  7.397413E-06
  6.841008E-06  5.112671E-06 -5.314458E-07  2.095434E-06  4.283936E-06  1.995711E-06  1.996465E-06  4.284917E-06
  2.095466E-06 -5.313098E-07  5.113817E-06  6.842033E-06  7.397135E-06  6.558732E-06  4.859178E-06  4.950357E-06
  6.460938E-06  1.020303E-05  8.961475E-06  8.962541E-06  1.020444E-05  6.460771E-06  4.949646E-06  5.478823E-06
  5.477070E-06  7.749218E-06  8.741495E-06  5.258431E-06  2.094687E-06  3.164322E-07  2.242113E-06  3.383471E-06
  2.243741E-06  3.176467E-07  2.095407E-06  5.259909E-06  8.743484E-06  7.750636E-06  5.477528E-06  5.479047E-06
  7.352499E-06  9.814231E-06  1.161914E-05  1.249542E-05  1.104645E-05  1.249648E-05  1.161955E-05  9.813660E-06
  7.351394E-06  4.499344E-06  4.154608E-06  5.767051E-06  6.641275E-06  9.918154E-06  4.283210E-06  2.242043E-06
  3.409577E-06  3.410429E-06  2.243634E-06  4.284615E-06  9.919871E-06  6.643301E-06  5.769167E-06  4.156881E-06
  4.501196E-06  1.065640E-05  1.324757E-05  1.061710E-05  1.148602E-05  1.195566E-05  1.195578E-05  1.148613E-05
  1.061706E-05  1.324724E-05  1.065495E-05  7.258194E-06  4.704047E-06  2.683824E-06  5.847256E-06  6.684798E-06
  1.995483E-06  3.383435E-06  3.410336E-06  3.384188E-06  1.996750E-06  6.686523E-06  5.849044E-06  2.685407E-06
  4.706137E-06  7.260621E-06  1.356508E-05  1.375936E-05  1.074290E-05  9.418657E-06  1.170572E-05  9.764112E-06
  1.170449E-05  9.418033E-06  1.074344E-05  1.375961E-05  1.356392E-05  1.066224E-05  5.611412E-06  4.077766E-06
  4.729308E-06  3.258944E-06  1.995903E-06  2.243059E-06  2.243180E-06  1.996654E-06  3.260549E-06  4.731034E-06
  4.079039E-06  5.612770E-06  1.066401E-05  1.212273E-05  9.647506E-06  8.286025E-06  8.820539E-06  1.031938E-05
  8.591197E-06  8.589475E-06  1.031686E-05  8.820241E-06  8.286774E-06  9.647253E-06  1.212144E-05  9.555316E-06
  6.650782E-06  5.761028E-06  4.728803E-06  6.684744E-06  4.283446E-06  3.162553E-07  4.284018E-06  6.686486E-06
  4.730929E-06  5.762637E-06  6.652228E-06  9.556893E-06  1.171309E-05  1.001461E-05  8.988660E-06  9.640585E-06
  1.057940E-05  1.044841E-05  1.117489E-05  1.044521E-05  1.057750E-05  9.640635E-06  8.988371E-06  1.001382E-05
  1.171210E-05  9.393839E-06  6.649971E-06  4.076800E-06  5.846983E-06  9.918094E-06  2.093634E-06  2.094058E-06
  9.919759E-06  5.849444E-06  4.078907E-06  6.651794E-06  9.395382E-06  1.171267E-05  1.009620E-05  9.870992E-06
  1.000616E-05  1.165194E-05  1.431222E-05  1.649117E-05  1.648950E-05  1.430985E-05  1.165122E-05  1.000559E-05
  9.870460E-06  1.009653E-05  1.171232E-05  9.554384E-06  5.610698E-06  2.684297E-06  6.641928E-06  5.258121E-06
 -5.326756E-07  5.259353E-06  6.644031E-06  2.686377E-06  5.612774E-06  9.556208E-06  1.212237E-05  1.001453E-05
  9.871156E-06  9.801595E-06  1.187276E-05  1.655120E-05  1.917062E-05  1.898092E-05  1.916910E-05  1.655004E-05
  1.187172E-05  9.800489E-06  9.871365E-06  1.001506E-05  1.212098E-05  1.066166E-05  4.705076E-06  5.768158E-06
  8.741715E-06  5.112648E-06  5.113455E-06  8.743499E-06  5.769861E-06  4.706894E-06  1.066407E-05  1.356542E-05
  9.648007E-06  8.989355E-06  1.000651E-05  1.187248E-05  1.632312E-05  1.995470E-05  2.141520E-05  2.141475E-05
  1.995376E-05  1.632182E-05  1.187077E-05  1.000533E-05  8.988979E-06  9.646848E-06  1.356316E-05  7.258796E-06
  4.155086E-06  7.748366E-06  6.840765E-06  3.971020E-06  6.842514E-06  7.750255E-06  4.156507E-06  7.260701E-06
  1.065658E-05  1.376040E-05  8.287241E-06  9.641660E-06  1.165212E-05  1.655062E-05  1.995483E-05  2.337598E-05
  2.512927E-05  2.337558E-05  1.995394E-05  1.654932E-05  1.165070E-05  9.640454E-06  8.286254E-06  1.375929E-05
  1.065537E-05  4.498939E-06  5.474740E-06  7.395451E-06  5.650135E-06  5.651256E-06  7.397723E-06  5.476573E-06
  4.500249E-06  7.352150E-06  1.324863E-05  1.074424E-05  8.821528E-06  1.058035E-05  1.431267E-05  1.917113E-05
  2.141738E-05  2.513168E-05  2.513158E-05  2.141705E-05  1.917060E-05  1.431195E-05  1.057949E-05  8.821146E-06
  1.074447E-05  1.324851E-05  7.350952E-06  5.476172E-06  6.556704E-06  7.559700E-06  4.979455E-06  7.561591E-06
  6.559090E-06  5.478154E-06  4.949762E-06  9.814929E-06  1.061865E-05  9.419128E-06  1.031937E-05  1.044928E-05
  1.649222E-05  1.898232E-05  2.141784E-05  2.337878E-05  2.141802E-05  1.898263E-05  1.649207E-05  1.044849E-05
  1.031913E-05  9.419964E-06  1.061892E-05  9.813530E-06  4.947557E-06  4.856899E-06  7.152716E-06  4.083074E-06
  4.084127E-06  7.154946E-06  4.859174E-06  3.019558E-06  6.460748E-06  1.162056E-05  1.148694E-05  1.170477E-05
  8.590673E-06  1.117589E-05  1.649004E-05  1.916900E-05  1.995464E-05  1.995499E-05  1.917019E-05  1.649105E-05
  1.117524E-05  8.589662E-06  1.170526E-05  1.148736E-05  1.161917E-05  6.458866E-06  3.018149E-06  7.273443E-06
  7.556542E-06  5.377372E-06  7.558497E-06  7.275327E-06  5.005052E-06  3.957527E-06  1.020336E-05  1.249656E-05
  1.195554E-05  9.763044E-06  8.589757E-06  1.044626E-05  1.430941E-05  1.654873E-05  1.632151E-05  1.654957E-05
  1.431125E-05  1.044687E-05  8.588549E-06  9.762639E-06  1.195608E-05  1.249595E-05  1.020237E-05  3.957433E-06
  5.004277E-06  8.058332E-06  3.115279E-06  3.116565E-06  8.060516E-06  9.316198E-06  3.544129E-06  6.217369E-06
  8.961267E-06  1.104655E-05  1.195572E-05  1.170477E-05  1.031779E-05  1.057830E-05  1.165148E-05  1.187208E-05
  1.187188E-05  1.165199E-05  1.057946E-05  1.031764E-05  1.170411E-05  1.195597E-05  1.104660E-05  8.960977E-06
  6.217797E-06  3.543982E-06  9.314274E-06  7.879935E-06  7.879674E-07  7.881893E-06  1.065665E-05  7.364753E-06
  4.813285E-06  5.849294E-06  8.960987E-06  1.249622E-05  1.148706E-05  9.418749E-06  8.820171E-06  9.641243E-06
  1.000742E-05  9.802211E-06  1.000662E-05  9.641360E-06  8.820852E-06  9.419141E-06  1.148755E-05  1.249648E-05
  8.960888E-06  5.849643E-06  4.813220E-06  7.363088E-06  1.065476E-05  5.114840E-06  5.115505E-06  4.613180E-06
  7.571954E-06  8.076041E-06  4.812283E-06  6.216948E-06  1.020281E-05  1.161988E-05  1.061827E-05  1.074314E-05
  8.285760E-06  8.989349E-06  9.872501E-06  9.872221E-06  8.989151E-06  8.286299E-06  1.074441E-05  1.061987E-05
  1.162086E-05  1.020292E-05  6.217399E-06  4.813061E-06  8.075667E-06  7.570764E-06  4.612555E-06  4.212701E-06
  5.946059E-06  3.168592E-06  7.569901E-06  7.361473E-06  3.542671E-06  3.957419E-06  6.460007E-06  9.814107E-06
  1.324801E-05  1.375920E-05  9.647118E-06  1.001522E-05  1.009794E-05  1.001584E-05  9.647610E-06  1.375992E-05
  1.324976E-05  9.815949E-06  6.460743E-06  3.957913E-06  3.544180E-06  7.363177E-06  7.570502E-06  3.168285E-06
  5.945816E-06  2.283867E-06  6.980509E-06  7.871303E-06  5.903379E-06  6.431493E-06  9.496295E-06  1.240828E-05
  1.386119E-05  8.991323E-06  7.408681E-06  7.373285E-06  8.439300E-06  8.972657E-06  8.973338E-06  8.439769E-06
  7.372335E-06  7.408195E-06  8.992013E-06  1.386117E-05  1.240701E-05  9.495643E-06  6.432423E-06  5.904749E-06
  7.871888E-06  6.980468E-06  6.978635E-06  6.978615E-06  6.005615E-06  6.724027E-06  7.081593E-06  3.675322E-06
  6.694619E-06  9.817098E-06  1.135264E-05  1.215174E-05  1.075414E-05  8.427934E-06  7.779950E-06  7.211374E-06
  7.780853E-06  8.428132E-06  1.075388E-05  1.215212E-05  1.135304E-05  9.816704E-06  6.693824E-06  3.674637E-06
  7.081254E-06  6.724082E-06  6.005720E-06  7.870380E-06  1.099659E-05  7.869983E-06  6.724683E-06  1.022205E-05
  9.281913E-06  6.381083E-06  5.464233E-06  4.193461E-06  9.014768E-06  1.111633E-05  9.596564E-06  1.001565E-05
  1.000577E-05  1.000619E-05  1.001668E-05  9.597903E-06  1.111764E-05  9.015472E-06  4.193561E-06  5.464292E-06
  6.380772E-06  9.280780E-06  1.022102E-05  6.724622E-06  5.905483E-06  6.565174E-06  6.564872E-06  5.904941E-06
  7.083425E-06  9.282441E-06  1.117102E-05  8.612670E-06  6.075921E-06  3.745898E-06  5.168903E-06  5.546982E-06
  8.241349E-06  8.335897E-06  8.301037E-06  8.336510E-06  8.243042E-06  5.549031E-06  5.169852E-06  3.745718E-06
  6.075811E-06  8.613012E-06  1.117114E-05  9.282272E-06  7.083557E-06  6.434077E-06  4.858005E-06  4.682987E-06
  4.858053E-06  6.433284E-06  3.675586E-06  6.380905E-06  8.612710E-06  9.351251E-06  6.431653E-06  4.433000E-06
  2.122814E-06  2.817388E-06  3.851070E-06  3.248992E-06  3.249261E-06  3.852083E-06  2.818879E-06  2.123642E-06
  4.432946E-06  6.431365E-06  9.351139E-06  8.613101E-06  6.382224E-06  3.677206E-06  9.497115E-06  1.030911E-05
  9.371583E-06  9.372359E-06  1.030968E-05  9.495644E-06  6.693393E-06  5.464125E-06  6.075913E-06  6.431196E-06
  6.771731E-06  7.795797E-06  4.123214E-06  4.389227E-06  3.923951E-06  5.039565E-06  3.924947E-06  4.390234E-06
  4.123560E-06  7.796053E-06  6.772429E-06  6.431438E-06  6.075393E-06  5.464486E-06  6.695406E-06  1.240819E-05
  1.134069E-05  1.248693E-05  1.355617E-05  1.248876E-05  1.134119E-05  1.240707E-05  9.816891E-06  4.194038E-06
  3.745586E-06  4.431983E-06  7.795114E-06  8.779766E-06  7.172129E-06  5.354813E-06  7.826016E-06  7.827025E-06
  5.356382E-06  7.172606E-06  8.780005E-06  7.796469E-06  4.433562E-06  3.745648E-06  4.193061E-06  9.817054E-06
  1.386095E-05  1.097701E-05  9.545633E-06  1.087800E-05  1.087926E-05  9.547305E-06  1.097704E-05  1.386070E-05
  1.135299E-05  9.014981E-06  5.168339E-06  2.121821E-06  4.122211E-06  7.171564E-06  4.435214E-06  4.689726E-06
  7.212311E-06  4.691549E-06  4.436589E-06  7.172309E-06  4.123723E-06  2.124035E-06  5.170053E-06  9.015372E-06
  1.135268E-05  8.990782E-06  1.077462E-05  1.026523E-05  1.010280E-05  8.594727E-06  1.010405E-05  1.026556E-05
  1.077402E-05  8.989988E-06  1.215063E-05  1.111544E-05  5.546296E-06  2.816428E-06  4.388034E-06  5.354128E-06
  4.689626E-06  3.371539E-06  3.372363E-06  4.691166E-06  5.355688E-06  4.390182E-06  2.818873E-06  5.548651E-06
  1.111778E-05  1.215228E-05  7.408169E-06  9.471941E-06  1.110186E-05  1.229710E-05  1.199622E-05  1.199645E-05
  1.229706E-05  1.110117E-05  9.471104E-06  7.406414E-06  1.075195E-05  9.595376E-06  8.240672E-06  3.849916E-06
  3.922799E-06  7.825505E-06  7.212114E-06  3.372192E-06  7.212658E-06  7.826852E-06  3.925278E-06  3.852623E-06
  8.242723E-06  9.597683E-06  1.075468E-05  7.373202E-06  1.030547E-05  1.457813E-05  1.393284E-05  1.743720E-05
  1.810691E-05  1.743617E-05  1.393184E-05  1.457785E-05  1.030491E-05  7.371315E-06  8.426401E-06  1.001533E-05
  8.335367E-06  3.247659E-06  5.038317E-06  7.825934E-06  4.690381E-06  4.690315E-06  7.826434E-06  5.040170E-06
  3.250055E-06  8.336993E-06  1.001672E-05  8.428529E-06  8.439393E-06  1.039669E-05  1.669691E-05  2.060394E-05
  2.171256E-05  2.392727E-05  2.392579E-05  2.171026E-05  2.060335E-05  1.669706E-05  1.039577E-05  8.437614E-06
  7.779422E-06  1.000587E-05  8.300158E-06  3.247597E-06  3.923060E-06  5.354019E-06  4.434348E-06  5.354398E-06
  3.924474E-06  3.249421E-06  8.301429E-06  1.000693E-05  7.780978E-06  8.971974E-06  1.436417E-05  1.889983E-05
  2.341558E-05  2.528493E-05  2.476303E-05  2.582275E-05  2.475994E-05  2.528296E-05  2.341528E-05  1.889910E-05
  1.436302E-05  8.970683E-06  7.210345E-06  1.000524E-05  8.335039E-06  3.850255E-06  4.387873E-06  7.169901E-06
  7.170483E-06  4.389578E-06  3.852163E-06  8.336294E-06  1.000657E-05  7.211982E-06  8.972016E-06  1.378460E-05
  1.969340E-05  2.263776E-05  2.324041E-05  2.337485E-05  2.444888E-05  2.444705E-05  2.337207E-05  2.323903E-05
  2.263642E-05  1.969242E-05  1.378456E-05  8.970858E-06  7.778466E-06  1.001492E-05  8.241565E-06  2.817180E-06
  4.121726E-06  8.778680E-06  4.123528E-06  2.819472E-06  8.243147E-06  1.001669E-05  7.780894E-06  8.439585E-06
  1.436449E-05  1.969370E-05  2.367159E-05  2.505403E-05  2.371488E-05  2.374364E-05  2.381249E-05  2.374170E-05
  2.371302E-05  2.505200E-05  2.366971E-05  1.969374E-05  1.436463E-05  8.437283E-06  8.425986E-06  9.596658E-06
  5.547639E-06  2.122396E-06  7.795752E-06  7.796805E-06  2.124558E-06  5.549291E-06  9.598252E-06  8.428856E-06
  7.373507E-06  1.039713E-05  1.890047E-05  2.263804E-05  2.505363E-05  2.562182E-05  2.383132E-05  2.266289E-05
  2.266229E-05  2.383010E-05  2.562012E-05  2.505147E-05  2.263697E-05  1.890060E-05  1.039600E-05  7.371006E-06
  1.075308E-05  1.111663E-05  5.168486E-06  4.432955E-06  6.773758E-06  4.434391E-06  5.169890E-06  1.111748E-05
  1.075475E-05  7.408424E-06  1.030617E-05  1.669767E-05  2.341625E-05  2.324022E-05  2.371404E-05  2.383142E-05
  2.232434E-05  2.171328E-05  2.232383E-05  2.383053E-05  2.371288E-05  2.323925E-05  2.341581E-05  1.669713E-05
  1.030504E-05  7.407380E-06  1.215120E-05  9.014014E-06  3.744992E-06  6.432682E-06  6.433442E-06  3.746428E-06
  9.014928E-06  1.215183E-05  8.991132E-06  9.473064E-06  1.457923E-05  2.060467E-05  2.528566E-05  2.337528E-05
  2.374445E-05  2.266563E-05  2.171621E-05  2.171599E-05  2.266505E-05  2.374386E-05  2.337492E-05  2.528537E-05
  2.060430E-05  1.457877E-05  9.472373E-06  8.990021E-06  1.135126E-05  4.192018E-06  6.075370E-06  9.352326E-06
  6.077184E-06  4.194064E-06  1.135278E-05  1.386118E-05  1.077568E-05  1.110344E-05  1.393355E-05  2.171307E-05
  2.476473E-05  2.445113E-05  2.381529E-05  2.266683E-05  2.232838E-05  2.266679E-05  2.381507E-05  2.445065E-05
  2.476410E-05  2.171271E-05  1.393342E-05  1.110268E-05  1.077392E-05  1.385905E-05  9.815243E-06  5.462829E-06
  8.612197E-06  8.613683E-06  5.465751E-06  9.817714E-06  1.240804E-05  1.097745E-05  1.026687E-05  1.229829E-05
  1.743703E-05  2.392809E-05  2.582556E-05  2.444952E-05  2.374343E-05  2.383295E-05  2.383343E-05  2.374448E-05
  2.444985E-05  2.582449E-05  2.392701E-05  1.743715E-05  1.229824E-05  1.026547E-05  1.097582E-05  1.240666E-05
  6.693308E-06  6.380095E-06  1.117112E-05  6.382751E-06  6.695693E-06  9.496861E-06  1.134092E-05  9.546974E-06
  1.010455E-05  1.199669E-05  1.810683E-05  2.392761E-05  2.476273E-05  2.337319E-05  2.371337E-05  2.562176E-05
  2.371463E-05  2.337478E-05  2.476258E-05  2.392593E-05  1.810622E-05  1.199715E-05  1.010416E-05  9.546229E-06
  1.134085E-05  9.496064E-06  3.675124E-06  9.282078E-06  9.283471E-06  3.677405E-06  6.434115E-06  1.030946E-05
  1.248780E-05  1.087921E-05  8.595790E-06  1.199716E-05  1.743757E-05  2.171268E-05  2.528509E-05  2.324051E-05
  2.505390E-05  2.505399E-05  2.324116E-05  2.528561E-05  2.171164E-05  1.743623E-05  1.199689E-05  8.595429E-06
  1.087848E-05  1.248759E-05  1.030886E-05  6.432228E-06  7.082722E-06  1.022328E-05  7.084532E-06  5.906529E-06
  4.858648E-06  9.371748E-06  1.355584E-05  1.087910E-05  1.010478E-05  1.229900E-05  1.393410E-05  2.060499E-05
  2.341728E-05  2.263961E-05  2.367272E-05  2.263884E-05  2.341687E-05  2.060471E-05  1.393362E-05  1.229870E-05
  1.010406E-05  1.087784E-05  1.355510E-05  9.370881E-06  4.856633E-06  5.904591E-06  6.725896E-06  6.726552E-06
  7.873205E-06  6.567181E-06  4.682976E-06  9.370832E-06  1.248733E-05  9.546918E-06  1.026690E-05  1.110370E-05
  1.457938E-05  1.669784E-05  1.890156E-05  1.969578E-05  1.969541E-05  1.890084E-05  1.669735E-05  1.457970E-05
  1.110467E-05  1.026702E-05  9.545644E-06  1.248650E-05  9.370991E-06  4.682432E-06  6.565914E-06  7.872549E-06
  6.007988E-06  6.981615E-06  1.100006E-05  6.565766E-06  4.856214E-06  1.030821E-05  1.134114E-05  1.097761E-05
  1.077567E-05  9.473292E-06  1.030615E-05  1.039709E-05  1.436568E-05  1.378711E-05  1.436601E-05  1.039666E-05
  1.030565E-05  9.474192E-06  1.077675E-05  1.097695E-05  1.133994E-05  1.030874E-05  4.857730E-06  6.566431E-06
  1.099996E-05  6.981536E-06  6.740844E-06  8.436382E-06  7.487974E-06  6.737710E-06  9.704398E-06  1.119780E-05
  7.719247E-06  8.598081E-06  1.101209E-05  1.513841E-05  1.683698E-05  1.853656E-05  1.869038E-05  1.869103E-05
  1.853670E-05  1.683541E-05  1.513753E-05  1.101239E-05  8.596964E-06  7.716739E-06  1.119657E-05  9.704376E-06
  6.737102E-06  7.487326E-06  8.436535E-06  8.434813E-06  8.434791E-06  1.061010E-05  8.534803E-06  7.660656E-06
  9.284466E-06  1.070174E-05  8.599688E-06  8.011024E-06  9.702740E-06  1.065176E-05  1.073337E-05  1.364333E-05
  1.469675E-05  1.364426E-05  1.073324E-05  1.065084E-05  9.702278E-06  8.010188E-06  8.598057E-06  1.070076E-05
  9.284104E-06  7.659252E-06  8.532799E-06  1.060924E-05  7.485984E-06  6.132081E-06  7.486300E-06  8.534842E-06
  9.526540E-06  7.523571E-06  8.333026E-06  1.208243E-05  1.076581E-05  8.472351E-06  5.898965E-06  6.568836E-06
  7.460804E-06  6.815330E-06  6.815638E-06  7.461439E-06  6.569394E-06  5.899039E-06  8.471485E-06  1.076450E-05
  1.208209E-05  8.333581E-06  7.523117E-06  9.524683E-06  8.533338E-06  6.737626E-06  8.247695E-06  8.247835E-06
  6.738060E-06  7.661806E-06  7.524341E-06  3.948558E-06  5.275075E-06  9.769817E-06  1.166205E-05  9.609198E-06
  9.936610E-06  1.100717E-05  6.679750E-06  6.176773E-06  6.679606E-06  1.100770E-05  9.937165E-06  9.608347E-06
  1.166026E-05  9.768737E-06  5.275251E-06  3.949070E-06  7.524323E-06  7.661312E-06  9.705449E-06  1.146448E-05
  1.457403E-05  1.146507E-05  9.705075E-06  9.284669E-06  8.333411E-06  5.275309E-06  4.652076E-06  7.408557E-06
  9.003424E-06  9.080143E-06  1.082470E-05  8.185424E-06  1.025925E-05  1.025896E-05  8.185166E-06  1.082471E-05
  9.079348E-06  9.001792E-06  7.407152E-06  4.651145E-06  5.274991E-06  8.334331E-06  9.286125E-06  1.119738E-05
  1.090012E-05  1.071189E-05  1.071293E-05  1.090111E-05  1.119615E-05  1.070003E-05  1.208201E-05  9.769575E-06
  7.408080E-06  5.032507E-06  4.624972E-06  4.682907E-06  3.014299E-06  4.071420E-06  7.738680E-06  4.071592E-06
  3.014120E-06  4.681951E-06  4.623781E-06  5.031815E-06  7.407271E-06  9.768172E-06  1.208164E-05  1.070165E-05
  7.717377E-06  9.691781E-06  8.185341E-06  6.964391E-06  8.187832E-06  9.692994E-06  7.716811E-06  8.598340E-06
  1.076566E-05  1.166163E-05  9.002624E-06  4.624513E-06  4.542709E-06  4.213407E-06  2.368587E-06  4.977639E-07
  4.984129E-07  2.369160E-06  4.212475E-06  4.541334E-06  4.623978E-06  9.002236E-06  1.166016E-05  1.076374E-05
  8.597906E-06  8.596456E-06  1.061737E-05  1.174973E-05  1.304262E-05  1.304445E-05  1.175248E-05  1.061832E-05
  8.597199E-06  8.011193E-06  8.472781E-06  9.609058E-06  9.079595E-06  4.682491E-06  4.213372E-06  6.464035E-06
  4.249330E-06  7.498225E-07  4.250264E-06  6.463585E-06  4.211899E-06  4.681720E-06  9.079164E-06  9.607953E-06
  8.470873E-06  8.009352E-06  1.101070E-05  1.413854E-05  1.578941E-05  1.851259E-05  2.064293E-05  1.851469E-05
  1.579041E-05  1.413877E-05  1.101184E-05  9.702769E-06  5.898952E-06  9.936435E-06  1.082430E-05  3.014100E-06
  2.368921E-06  4.249733E-06  3.451114E-06  3.451411E-06  4.249490E-06  2.367885E-06  3.013753E-06  1.082422E-05
  9.935716E-06  5.897928E-06  9.701456E-06  1.513666E-05  1.672121E-05  2.004142E-05  2.195596E-05  2.207666E-05
  2.207728E-05  2.195626E-05  2.004082E-05  1.672159E-05  1.513757E-05  1.065072E-05  6.568284E-06  1.100693E-05
  8.185033E-06  4.071478E-06  4.984378E-07  7.504802E-07  3.451800E-06  7.498653E-07  4.976068E-07  4.071677E-06
  8.185585E-06  1.100640E-05  6.567562E-06  1.065029E-05  1.683562E-05  1.960452E-05  2.099244E-05  2.227996E-05
  2.185191E-05  2.041364E-05  2.185130E-05  2.227899E-05  2.099263E-05  1.960574E-05  1.683607E-05  1.073256E-05
  7.461018E-06  6.679927E-06  1.025905E-05  7.738898E-06  4.987844E-07  4.250497E-06  4.249909E-06  4.978570E-07
  7.739047E-06  1.025973E-05  6.679293E-06  7.459808E-06  1.073230E-05  1.853606E-05  2.171072E-05  2.015750E-05
  1.966848E-05  2.049042E-05  2.159746E-05  2.159627E-05  2.048854E-05  1.966843E-05  2.015897E-05  2.171158E-05
  1.853597E-05  1.364360E-05  6.816276E-06  6.177116E-06  1.025900E-05  4.071597E-06  2.368589E-06  6.463099E-06
  2.368094E-06  4.071711E-06  1.025942E-05  6.176427E-06  6.814816E-06  1.364305E-05  1.868953E-05  2.132685E-05
  2.062807E-05  1.951772E-05  2.319871E-05  2.473764E-05  2.583328E-05  2.473481E-05  2.319736E-05  1.951862E-05
  2.062889E-05  2.132710E-05  1.868973E-05  1.469676E-05  6.815846E-06  6.679737E-06  8.185338E-06  3.013721E-06
  4.211513E-06  4.211724E-06  3.014449E-06  8.185921E-06  6.679218E-06  6.814883E-06  1.469628E-05  1.868967E-05
  1.749393E-05  1.857710E-05  2.105680E-05  2.649113E-05  3.103030E-05  3.133251E-05  3.133073E-05  3.102802E-05
  2.649087E-05  2.105671E-05  1.857721E-05  1.749507E-05  1.869011E-05  1.364313E-05  7.460862E-06  1.100766E-05
  1.082472E-05  4.681710E-06  4.541451E-06  4.682980E-06  1.082602E-05  1.100768E-05  7.460559E-06  1.364349E-05
  1.853641E-05  2.132700E-05  1.857736E-05  2.283564E-05  2.853354E-05  3.357629E-05  3.820946E-05  3.915507E-05
  3.820822E-05  3.357594E-05  2.853293E-05  2.283459E-05  1.857838E-05  2.132873E-05  1.853608E-05  1.073239E-05
  6.569073E-06  9.936955E-06  9.079561E-06  4.624677E-06  4.625393E-06  9.081031E-06  9.937615E-06  6.569015E-06
  1.073322E-05  1.683629E-05  2.171094E-05  2.062844E-05  2.105727E-05  2.853347E-05  3.308414E-05  3.982461E-05
  4.472089E-05  4.472087E-05  3.982512E-05  3.308445E-05  2.853245E-05  2.105711E-05  2.063023E-05  2.171202E-05
  1.683589E-05  1.065128E-05  5.899179E-06  9.608591E-06  9.003240E-06  5.033803E-06  9.003737E-06  9.609122E-06
  5.899030E-06  1.065130E-05  1.513781E-05  1.960534E-05  2.015780E-05  1.951801E-05  2.649101E-05  3.357551E-05
  3.982441E-05  4.583701E-05  4.746890E-05  4.583744E-05  3.982518E-05  3.357569E-05  2.649095E-05  1.951902E-05
  2.015933E-05  1.960620E-05  1.513837E-05  9.702984E-06  8.471939E-06  1.166155E-05  7.409608E-06  7.409569E-06
  1.166164E-05  8.471898E-06  9.702467E-06  1.101217E-05  1.672281E-05  2.099335E-05  1.966860E-05  2.319863E-05
  3.102985E-05  3.820916E-05  4.472230E-05  4.747092E-05  4.747083E-05  4.472229E-05  3.820938E-05  3.103017E-05
  2.319928E-05  1.966962E-05  2.099428E-05  1.672334E-05  1.101230E-05  8.010443E-06  1.076498E-05  9.770023E-06
  4.653392E-06  9.770712E-06  1.076586E-05  8.010869E-06  8.597738E-06  1.414017E-05  2.004310E-05  2.228054E-05
  2.049030E-05  2.473790E-05  3.133283E-05  3.915581E-05  4.472344E-05  4.584059E-05  4.472356E-05  3.915615E-05
  3.133307E-05  2.473801E-05  2.049079E-05  2.228123E-05  2.004305E-05  1.413928E-05  8.596669E-06  8.598153E-06
  1.208187E-05  5.275679E-06  5.276807E-06  1.208405E-05  8.599741E-06  7.718280E-06  1.061867E-05  1.579138E-05
  2.195735E-05  2.185190E-05  2.159754E-05  2.583421E-05  3.133096E-05  3.820791E-05  3.982617E-05  3.982681E-05
  3.820964E-05  3.133245E-05  2.583427E-05  2.159737E-05  2.185285E-05  2.195807E-05  1.579057E-05  1.061762E-05
  7.717516E-06  1.070099E-05  8.333472E-06  3.949835E-06  8.335721E-06  1.070283E-05  1.119787E-05  9.693146E-06
  1.175181E-05  1.851455E-05  2.207736E-05  2.041359E-05  2.159712E-05  2.473575E-05  3.102723E-05  3.357465E-05
  3.308451E-05  3.357618E-05  3.102972E-05  2.473687E-05  2.159655E-05  2.041398E-05  2.207899E-05  1.851521E-05
  1.175155E-05  9.693366E-06  1.119770E-05  9.285184E-06  7.524852E-06  7.525817E-06  9.286597E-06  9.705583E-06
  1.090121E-05  8.187049E-06  1.304407E-05  2.064380E-05  2.207781E-05  2.185245E-05  2.049020E-05  2.319812E-05
  2.649081E-05  2.853327E-05  2.853316E-05  2.649131E-05  2.319907E-05  2.049001E-05  2.185208E-05  2.207877E-05
  2.064494E-05  1.304459E-05  8.187586E-06  1.090151E-05  9.705138E-06  7.661687E-06  9.527468E-06  7.662290E-06
  6.738302E-06  1.146502E-05  1.071244E-05  6.964355E-06  1.304412E-05  1.851489E-05  2.195771E-05  2.228108E-05
  1.966970E-05  1.951949E-05  2.105830E-05  2.283575E-05  2.105687E-05  1.951848E-05  1.966951E-05  2.228136E-05
  2.195842E-05  1.851532E-05  1.304432E-05  6.965119E-06  1.071300E-05  1.146468E-05  6.738065E-06  8.535532E-06
  8.535437E-06  7.488094E-06  8.249023E-06  1.457401E-05  1.071184E-05  8.186838E-06  1.175213E-05  1.579113E-05
  2.004261E-05  2.099381E-05  2.015911E-05  2.062989E-05  1.857869E-05  1.857796E-05  2.062832E-05  2.015804E-05
  2.099440E-05  2.004435E-05  1.579171E-05  1.175123E-05  8.186927E-06  1.071314E-05  1.457452E-05  8.249004E-06
  7.488546E-06  1.061151E-05  8.437085E-06  6.134823E-06  8.248895E-06  1.146411E-05  1.090065E-05  9.693938E-06
  1.061924E-05  1.413960E-05  1.672260E-05  1.960608E-05  2.171175E-05  2.132811E-05  1.749576E-05  2.132800E-05
  2.171057E-05  1.960518E-05  1.672374E-05  1.414068E-05  1.061783E-05  9.692176E-06  1.090109E-05  1.146516E-05
  8.249095E-06  6.135177E-06  8.437493E-06  1.286196E-05  8.847033E-06  1.016900E-05  1.387987E-05  1.121340E-05
  9.785368E-06  1.167237E-05  1.652450E-05  1.840559E-05  1.817444E-05  1.671836E-05  1.462479E-05  1.557036E-05
  1.557088E-05  1.462485E-05  1.671730E-05  1.817458E-05  1.840691E-05  1.652418E-05  1.167094E-05  9.785154E-06
  1.121304E-05  1.387815E-05  1.016880E-05  8.848799E-06  8.847570E-06  8.846473E-06  7.190489E-06  8.568897E-06
  1.078415E-05  1.261300E-05  9.908506E-06  1.097845E-05  1.391482E-05  1.414318E-05  1.681289E-05  1.739558E-05
  1.602646E-05  1.480086E-05  1.602719E-05  1.739571E-05  1.681288E-05  1.414367E-05  1.391453E-05  1.097741E-05
  9.908542E-06  1.261310E-05  1.078189E-05  8.566412E-06  7.190973E-06  1.016882E-05  7.668020E-06  1.016799E-05
  8.568877E-06  6.035018E-06  9.576300E-06  1.140653E-05  8.848812E-06  9.286023E-06  9.949453E-06  1.096750E-05
  1.289130E-05  1.380454E-05  1.460223E-05  1.460240E-05  1.380518E-05  1.289246E-05  1.096836E-05  9.948876E-06
  9.284634E-06  8.848637E-06  1.140739E-05  9.575541E-06  6.032497E-06  8.567740E-06  1.388022E-05  1.039199E-05
  1.039173E-05  1.388022E-05  1.078549E-05  9.577502E-06  1.161005E-05  1.206894E-05  6.929532E-06  6.460086E-06
  7.470595E-06  6.192506E-06  4.269535E-06  6.790516E-06  9.888230E-06  6.789957E-06  4.270043E-06  6.193541E-06
  7.470043E-06  6.458097E-06  6.928095E-06  1.206868E-05  1.160976E-05  9.576452E-06  1.078455E-05  1.121483E-05
  9.726146E-06  8.642253E-06  9.726534E-06  1.121471E-05  1.261431E-05  1.140763E-05  1.206909E-05  1.032376E-05
  7.672863E-06  6.888406E-06  6.251451E-06  4.984090E-06  3.854592E-06  3.814119E-06  3.813319E-06  3.853654E-06
  4.984204E-06  6.251154E-06  6.886890E-06  7.671322E-06  1.032266E-05  1.206811E-05  1.140723E-05  1.261467E-05
  9.785649E-06  8.781187E-06  1.092782E-05  1.092882E-05  8.782323E-06  9.785048E-06  9.907884E-06  8.848416E-06
  6.928658E-06  7.672033E-06  7.870171E-06  6.642443E-06  7.365588E-06  8.809168E-06  7.494767E-06  3.172741E-06
  7.494163E-06  8.808690E-06  7.365213E-06  6.641782E-06  7.869438E-06  7.671372E-06  6.927758E-06  8.847992E-06
  9.908725E-06  1.167145E-05  1.552641E-05  1.733124E-05  1.798801E-05  1.733398E-05  1.552801E-05  1.167103E-05
  1.097755E-05  9.285599E-06  6.459232E-06  6.887314E-06  6.641845E-06  6.086236E-06  4.136455E-06  7.833675E-06
  6.340363E-06  6.340756E-06  7.833894E-06  4.135777E-06  6.085625E-06  6.641568E-06  6.886755E-06  6.458397E-06
  9.285026E-06  1.097788E-05  1.652473E-05  1.992317E-05  2.159152E-05  1.996703E-05  1.996915E-05  2.159472E-05
  1.992411E-05  1.652465E-05  1.391569E-05  9.950207E-06  7.470353E-06  6.250436E-06  7.364926E-06  4.136572E-06
  1.637400E-06  4.234749E-06  4.738510E-06  4.235734E-06  1.636892E-06  4.135480E-06  7.364902E-06  6.250242E-06
  7.469402E-06  9.949351E-06  1.391528E-05  1.840630E-05  1.968848E-05  1.833791E-05  1.762976E-05  1.821339E-05
  1.763242E-05  1.833897E-05  1.968816E-05  1.840682E-05  1.414433E-05  1.096784E-05  6.191805E-06  4.982885E-06