
     Program PWSCF v.7.3.1 starts on 12Jul2026 at  2:16: 4 

     This program is part of the open-source Quantum ESPRESSO suite
     for quantum simulation of materials; please cite
         "P. Giannozzi et al., J. Phys.:Condens. Matter 21 395502 (2009);
         "P. Giannozzi et al., J. Phys.:Condens. Matter 29 465901 (2017);
         "P. Giannozzi et al., J. Chem. Phys. 152 154105 (2020);
          URL http://www.quantum-espresso.org", 
     in publications or presentations arising from this work. More details at
     http://www.quantum-espresso.org/quote

     Parallel version (MPI & OpenMP), running on      14 processor cores
     Number of MPI processes:                 1
     Threads/MPI process:                    14

     MPI processes distributed on     1 nodes
     851273 MiB available memory on the printing compute node when the environment starts
 
     Reading input from pw.in

     Current dimensions of program PWSCF are:
     Max number of different atomic species (ntypx) = 10
     Max number of k-points (npk) =  40000
     Max angular momentum in pseudopotentials (lmaxx) =  4
     file Co.pbe-spn-kjpaw_psl.0.3.1.UPF: wavefunction(s)  3P 3D renormalized
     file O.pbe-n-kjpaw_psl.1.0.0.UPF: wavefunction(s)  2S 2P renormalized
     file Na.pbe-spn-kjpaw_psl.1.0.0.UPF: wavefunction(s)  2P renormalized
 
     Subspace diagonalization in iterative solution of the eigenvalue problem:
     a serial algorithm will be used

 
     G-vector sticks info
     --------------------
     sticks:   dense  smooth     PW     G-vecs:    dense   smooth      PW
     Sum         979     499    151                72573    25753    4225
 
     Using Slab Decomposition
 


     bravais-lattice index     =            4
     lattice parameter (alat)  =       5.4575  a.u.
     unit-cell volume          =     409.4500 (a.u.)^3
     number of atoms/cell      =            4
     number of atomic types    =            3
     number of electrons       =        38.00
     number of Kohn-Sham states=           27
     kinetic-energy cutoff     =      60.0000  Ry
     charge density cutoff     =     480.0000  Ry
     scf convergence threshold =      1.0E-08
     mixing beta               =       0.3000
     number of iterations used =            8  plain     mixing
     Exchange-correlation= SLA  PW   PBX  PBC
                           (   1   4   3   4   0   0   0)

     GPU acceleration is ACTIVE.  1 visible GPUs per MPI rank
     GPU-aware MPI enabled


     GPU used by master process:

        Device Number: 0
        Device name: NVIDIA A100-SXM4-80GB
        Compute capability : 80
        Ratio of single to double precision performance  : 2
        Memory Clock Rate (KHz): 1593000
        Memory Bus Width (bits): 5120
        Peak Memory Bandwidth (GB/s): ******

     celldm(1)=   5.457529  celldm(2)=   0.000000  celldm(3)=   2.908587
     celldm(4)=   0.000000  celldm(5)=   0.000000  celldm(6)=   0.000000

     crystal axes: (cart. coord. in units of alat)
               a(1) = (   1.000000   0.000000   0.000000 )  
               a(2) = (  -0.500000   0.866025   0.000000 )  
               a(3) = (   0.000000   0.000000   2.908587 )  

     reciprocal axes: (cart. coord. in units 2 pi/alat)
               b(1) = (  1.000000  0.577350 -0.000000 )  
               b(2) = (  0.000000  1.154701  0.000000 )  
               b(3) = (  0.000000 -0.000000  0.343810 )  


     PseudoPot. # 1 for Co read from file:
     ../../pseudo/Co.pbe-spn-kjpaw_psl.0.3.1.UPF
     MD5 check sum: 3c0a43779828c046024e4f3be63f8e67
     Pseudo is Projector augmented-wave + core cor, Zval = 17.0
     Generated using &quot;atomic&quot; code by A. Dal Corso  v.6.2.2
     Shape of augmentation charge: PSQ
     Using radial grid of 1193 points,  6 beta functions with: 
                l(1) =   0
                l(2) =   0
                l(3) =   1
                l(4) =   1
                l(5) =   2
                l(6) =   2
     Q(r) pseudized with 0 coefficients 


     PseudoPot. # 2 for O  read from file:
     ../../pseudo/O.pbe-n-kjpaw_psl.1.0.0.UPF
     MD5 check sum: e99d9cef9b487d1ca56f5b95ecd0fd7a
     Pseudo is Projector augmented-wave + core cor, Zval =  6.0
     Generated using &quot;atomic&quot; code by A. Dal Corso  v.6.3
     Shape of augmentation charge: PSQ
     Using radial grid of 1095 points,  4 beta functions with: 
                l(1) =   0
                l(2) =   0
                l(3) =   1
                l(4) =   1
     Q(r) pseudized with 0 coefficients 


     PseudoPot. # 3 for Na read from file:
     ../../pseudo/Na.pbe-spn-kjpaw_psl.1.0.0.UPF
     MD5 check sum: 05b4deb74e3932c23ab016979dc8b5d4
     Pseudo is Projector augmented-wave + core cor, Zval =  9.0
     Generated using &quot;atomic&quot; code by A. Dal Corso  v.6.3
     Shape of augmentation charge: PSQ
     Using radial grid of 1121 points,  4 beta functions with: 
                l(1) =   0
                l(2) =   0
                l(3) =   1
                l(4) =   1
     Q(r) pseudized with 0 coefficients 


     atomic species   valence    mass     pseudopotential
     Co               17.00    58.93300     Co( 1.00)
     O                 6.00    15.99900     O ( 1.00)
     Na                9.00    22.98977     Na( 1.00)

     Starting magnetic structure 
     atomic species   magnetization
     Co              0.300
     O               0.000
     Na              0.000

      6 Sym. Ops. (no inversion) found


                                    s                        frac. trans.

      isym =  1     identity                                     

 cryst.   s( 1) = (     1          0          0      )
                  (     0          1          0      )
                  (     0          0          1      )

 cart.    s( 1) = (  1.0000000  0.0000000  0.0000000 )
                  (  0.0000000  1.0000000  0.0000000 )
                  (  0.0000000  0.0000000  1.0000000 )


      isym =  2     120 deg rotation - cryst. axis [0,0,1]       

 cryst.   s( 2) = (     0          1          0      )
                  (    -1         -1          0      )
                  (     0          0          1      )

 cart.    s( 2) = ( -0.5000000 -0.8660254  0.0000000 )
                  (  0.8660254 -0.5000000  0.0000000 )
                  (  0.0000000  0.0000000  1.0000000 )


      isym =  3     120 deg rotation - cryst. axis [0,0,-1]      

 cryst.   s( 3) = (    -1         -1          0      )
                  (     1          0          0      )
                  (     0          0          1      )

 cart.    s( 3) = ( -0.5000000  0.8660254  0.0000000 )
                  ( -0.8660254 -0.5000000  0.0000000 )
                  (  0.0000000  0.0000000  1.0000000 )


      isym =  4     inv. 180 deg rotation - cart. axis [1,0,0]   

 cryst.   s( 4) = (    -1          0          0      )
                  (     1          1          0      )
                  (     0          0          1      )

 cart.    s( 4) = ( -1.0000000  0.0000000  0.0000000 )
                  (  0.0000000  1.0000000  0.0000000 )
                  (  0.0000000  0.0000000  1.0000000 )


      isym =  5     inv. 180 deg rotation - cryst. axis [0,1,0]  

 cryst.   s( 5) = (     1          1          0      )
                  (     0         -1          0      )
                  (     0          0          1      )

 cart.    s( 5) = (  0.5000000  0.8660254  0.0000000 )
                  (  0.8660254 -0.5000000  0.0000000 )
                  (  0.0000000  0.0000000  1.0000000 )


      isym =  6     inv. 180 deg rotation - cryst. axis [1,1,0]  

 cryst.   s( 6) = (     0         -1          0      )
                  (    -1          0          0      )
                  (     0          0          1      )

 cart.    s( 6) = (  0.5000000 -0.8660254  0.0000000 )
                  ( -0.8660254 -0.5000000  0.0000000 )
                  (  0.0000000  0.0000000  1.0000000 )


     point group C_3v (3m)  
     there are  3 classes
     the character table:

       E     2C3   3s_v 
A_1    1.00  1.00  1.00
A_2    1.00  1.00 -1.00
E      2.00 -1.00  0.00

     the symmetry operations in each class and the name of the first element:

     E        1
          identity                                               
     2C3      2    3
          120 deg rotation - cryst. axis [0,0,1]                 
     3s_v     4    5    6
          inv. 180 deg rotation - cart. axis [1,0,0]             

   Cartesian axes

     site n.     atom                  positions (alat units)
         1        Co     tau(   1) = (   0.0000000   0.0000000   0.0000000  )
         2        O      tau(   2) = (  -0.0000000   0.5773503   0.3324100  )
         3        O      tau(   3) = (   0.5000000   0.2886751   2.5761773  )
         4        Na     tau(   4) = (  -0.0000000   0.5773503   1.8005540  )

   Crystallographic axes

     site n.     atom                  positions (cryst. coord.)
         1        Co     tau(   1) = (  0.0000000  0.0000000  0.0000000  )
         2        O      tau(   2) = (  0.3333333  0.6666667  0.1142857  )
         3        O      tau(   3) = (  0.6666667  0.3333333  0.8857143  )
         4        Na     tau(   4) = (  0.3333333  0.6666667  0.6190476  )

     number of k points=    25  Marzari-Vanderbilt smearing, width (Ry)=  0.0200
                       cart. coord. in units 2pi/alat
        k(    1) = (   0.0000000   0.0000000   0.0000000), wk =   0.0052083
        k(    2) = (   0.0000000   0.0000000   0.1146032), wk =   0.0104167
        k(    3) = (   0.0000000   0.1443376   0.0000000), wk =   0.0312500
        k(    4) = (   0.0000000   0.1443376   0.1146032), wk =   0.0312500
        k(    5) = (   0.0000000   0.2886751   0.0000000), wk =   0.0312500
        k(    6) = (   0.0000000   0.2886751   0.1146032), wk =   0.0312500
        k(    7) = (   0.0000000   0.4330127   0.0000000), wk =   0.0312500
        k(    8) = (   0.0000000   0.4330127   0.1146032), wk =   0.0312500
        k(    9) = (   0.0000000  -0.5773503   0.0000000), wk =   0.0156250
        k(   10) = (   0.0000000  -0.5773503   0.1146032), wk =   0.0312500
        k(   11) = (   0.1250000   0.2165064   0.0000000), wk =   0.0312500
        k(   12) = (   0.1250000   0.2165064   0.1146032), wk =   0.0625000
        k(   13) = (   0.1250000   0.3608439   0.0000000), wk =   0.0625000
        k(   14) = (   0.1250000   0.3608439   0.1146032), wk =   0.0625000
        k(   15) = (   0.1250000   0.5051815   0.0000000), wk =   0.0625000
        k(   16) = (   0.1250000   0.5051815   0.1146032), wk =   0.0625000
        k(   17) = (   0.2500000   0.4330127   0.0000000), wk =   0.0312500
        k(   18) = (   0.2500000   0.4330127   0.1146032), wk =   0.0625000
        k(   19) = (   0.2500000   0.5773503   0.0000000), wk =   0.0312500
        k(   20) = (   0.2500000   0.5773503   0.1146032), wk =   0.0625000
        k(   21) = (   0.0000000  -0.1443376   0.1146032), wk =   0.0312500
        k(   22) = (   0.0000000  -0.2886751   0.1146032), wk =   0.0312500
        k(   23) = (   0.0000000  -0.4330127   0.1146032), wk =   0.0312500
        k(   24) = (  -0.1250000  -0.3608439   0.1146032), wk =   0.0625000
        k(   25) = (  -0.1250000  -0.5051815   0.1146032), wk =   0.0625000

                       cryst. coord.
        k(    1) = (   0.0000000   0.0000000   0.0000000), wk =   0.0052083
        k(    2) = (   0.0000000   0.0000000   0.3333333), wk =   0.0104167
        k(    3) = (   0.0000000   0.1250000   0.0000000), wk =   0.0312500
        k(    4) = (   0.0000000   0.1250000   0.3333333), wk =   0.0312500
        k(    5) = (   0.0000000   0.2500000   0.0000000), wk =   0.0312500
        k(    6) = (   0.0000000   0.2500000   0.3333333), wk =   0.0312500
        k(    7) = (   0.0000000   0.3750000   0.0000000), wk =   0.0312500
        k(    8) = (   0.0000000   0.3750000   0.3333333), wk =   0.0312500
        k(    9) = (   0.0000000  -0.5000000   0.0000000), wk =   0.0156250
        k(   10) = (   0.0000000  -0.5000000   0.3333333), wk =   0.0312500
        k(   11) = (   0.1250000   0.1250000   0.0000000), wk =   0.0312500
        k(   12) = (   0.1250000   0.1250000   0.3333333), wk =   0.0625000
        k(   13) = (   0.1250000   0.2500000   0.0000000), wk =   0.0625000
        k(   14) = (   0.1250000   0.2500000   0.3333333), wk =   0.0625000
        k(   15) = (   0.1250000   0.3750000   0.0000000), wk =   0.0625000
        k(   16) = (   0.1250000   0.3750000   0.3333333), wk =   0.0625000
        k(   17) = (   0.2500000   0.2500000   0.0000000), wk =   0.0312500
        k(   18) = (   0.2500000   0.2500000   0.3333333), wk =   0.0625000
        k(   19) = (   0.2500000   0.3750000   0.0000000), wk =   0.0312500
        k(   20) = (   0.2500000   0.3750000   0.3333333), wk =   0.0625000
        k(   21) = (   0.0000000  -0.1250000   0.3333333), wk =   0.0312500
        k(   22) = (   0.0000000  -0.2500000   0.3333333), wk =   0.0312500
        k(   23) = (   0.0000000  -0.3750000   0.3333333), wk =   0.0312500
        k(   24) = (  -0.1250000  -0.2500000   0.3333333), wk =   0.0625000
        k(   25) = (  -0.1250000  -0.3750000   0.3333333), wk =   0.0625000

     Dense  grid:    72573 G-vectors     FFT dimensions: (  40,  40, 120)

     Smooth grid:    25753 G-vectors     FFT dimensions: (  27,  27,  80)

     Dynamical RAM for                 wfc:       1.32 MB

     Dynamical RAM for     wfc (w. buffer):      67.51 MB

     Dynamical RAM for           str. fact:       3.32 MB

     Dynamical RAM for           local pot:       0.00 MB

     Dynamical RAM for          nlocal pot:       2.06 MB

     Dynamical RAM for                qrad:       5.27 MB

     Dynamical RAM for          rho,v,vnew:      15.43 MB

     Dynamical RAM for               rhoin:       5.14 MB

     Dynamical RAM for            rho*nmix:      35.44 MB

     Dynamical RAM for           G-vectors:       4.35 MB

     Dynamical RAM for          h,s,v(r/c):       0.13 MB

     Dynamical RAM for          <psi|beta>:       0.02 MB

     Dynamical RAM for                 psi:       2.65 MB

     Dynamical RAM for                hpsi:       2.65 MB

     Dynamical RAM for                spsi:       2.65 MB

     Dynamical RAM for      wfcinit/wfcrot:       2.66 MB

     Dynamical RAM for           addusdens:     209.29 MB

     Dynamical RAM for          addusforce:     211.52 MB

     Estimated static dynamical RAM per process >     116.31 MB

     Estimated max dynamical RAM per process >     363.27 MB

     Check: negative core charge=   -0.000007
     Generating pointlists ...
     new r_m :   0.2748 (alat units)  1.4998 (a.u.) for type    1
     new r_m :   0.2748 (alat units)  1.4998 (a.u.) for type    2
     new r_m :   0.3989 (alat units)  2.1767 (a.u.) for type    3

     Initial potential from superposition of free atoms

     starting charge      37.9934, renormalised to      38.0000
     Starting wfcs are   23 randomized atomic wfcs +    4 random wfcs
     Checking if some PAW data can be deallocated... 

     total cpu time spent up to now is        3.9 secs

     Self-consistent Calculation
[tb_dev] Currently allocated     6.54E-01 Mbytes, locked:    0 /   6
[tb_pin] Currently allocated     0.00E+00 Mbytes, locked:    0 /   0

     iteration #  1     ecut=    60.00 Ry     beta= 0.30
     Davidson diagonalization with overlap

---- Real-time Memory Report at c_bands before calling an iterative solver
           691 MiB given to the printing process from OS
             0 MiB allocation reported by mallinfo(arena+hblkhd)
        850869 MiB available memory on the node where the printing process lives
     GPU memory used/free/total (MiB): 1056 / 80094 / 81151
------------------
     ethr =  1.00E-02,  avg # of iterations =  9.2

     total cpu time spent up to now is        6.0 secs

     total energy              =    -568.58284248 Ry
     estimated scf accuracy    <       1.73712555 Ry

     total magnetization       =     4.08 Bohr mag/cell
     absolute magnetization    =     4.08 Bohr mag/cell
[tb_dev] Currently allocated     3.05E-05 Mbytes, locked:    0 /   2
[tb_pin] Currently allocated     0.00E+00 Mbytes, locked:    0 /   0

     iteration #  2     ecut=    60.00 Ry     beta= 0.30
     Davidson diagonalization with overlap

---- Real-time Memory Report at c_bands before calling an iterative solver
           738 MiB given to the printing process from OS
             0 MiB allocation reported by mallinfo(arena+hblkhd)
        850804 MiB available memory on the node where the printing process lives
     GPU memory used/free/total (MiB): 1074 / 80076 / 81151
------------------
     ethr =  4.57E-03,  avg # of iterations =  2.0

     total cpu time spent up to now is        7.2 secs

     total energy              =    -568.69069485 Ry
     estimated scf accuracy    <       3.05594611 Ry

     total magnetization       =     0.84 Bohr mag/cell
     absolute magnetization    =     1.38 Bohr mag/cell
[tb_dev] Currently allocated     3.05E-05 Mbytes, locked:    0 /   2
[tb_pin] Currently allocated     0.00E+00 Mbytes, locked:    0 /   0

     iteration #  3     ecut=    60.00 Ry     beta= 0.30
     Davidson diagonalization with overlap

---- Real-time Memory Report at c_bands before calling an iterative solver
           740 MiB given to the printing process from OS
             0 MiB allocation reported by mallinfo(arena+hblkhd)
        850797 MiB available memory on the node where the printing process lives
     GPU memory used/free/total (MiB): 1074 / 80076 / 81151
------------------
     ethr =  4.57E-03,  avg # of iterations =  1.1

     total cpu time spent up to now is        8.2 secs

     total energy              =    -568.99362920 Ry
     estimated scf accuracy    <       1.00997198 Ry

     total magnetization       =     3.59 Bohr mag/cell
     absolute magnetization    =     3.61 Bohr mag/cell
[tb_dev] Currently allocated     3.05E-05 Mbytes, locked:    0 /   2
[tb_pin] Currently allocated     0.00E+00 Mbytes, locked:    0 /   0

     iteration #  4     ecut=    60.00 Ry     beta= 0.30
     Davidson diagonalization with overlap

---- Real-time Memory Report at c_bands before calling an iterative solver
           743 MiB given to the printing process from OS
             0 MiB allocation reported by mallinfo(arena+hblkhd)
        850774 MiB available memory on the node where the printing process lives
     GPU memory used/free/total (MiB): 1074 / 80076 / 81151
------------------
     ethr =  2.66E-03,  avg # of iterations =  1.1

     total cpu time spent up to now is        9.3 secs

     total energy              =    -569.10078882 Ry
     estimated scf accuracy    <       0.43919957 Ry

     total magnetization       =     2.21 Bohr mag/cell
     absolute magnetization    =     2.25 Bohr mag/cell
[tb_dev] Currently allocated     3.05E-05 Mbytes, locked:    0 /   2
[tb_pin] Currently allocated     0.00E+00 Mbytes, locked:    0 /   0

     iteration #  5     ecut=    60.00 Ry     beta= 0.30
     Davidson diagonalization with overlap

---- Real-time Memory Report at c_bands before calling an iterative solver
           744 MiB given to the printing process from OS
             0 MiB allocation reported by mallinfo(arena+hblkhd)
        850774 MiB available memory on the node where the printing process lives
     GPU memory used/free/total (MiB): 1074 / 80076 / 81151
------------------
     ethr =  1.16E-03,  avg # of iterations =  1.7

     total cpu time spent up to now is       10.4 secs

     total energy              =    -569.14315033 Ry
     estimated scf accuracy    <       0.14636125 Ry

     total magnetization       =     2.25 Bohr mag/cell
     absolute magnetization    =     2.31 Bohr mag/cell
[tb_dev] Currently allocated     3.05E-05 Mbytes, locked:    0 /   2
[tb_pin] Currently allocated     0.00E+00 Mbytes, locked:    0 /   0

     iteration #  6     ecut=    60.00 Ry     beta= 0.30
     Davidson diagonalization with overlap

---- Real-time Memory Report at c_bands before calling an iterative solver
           744 MiB given to the printing process from OS
             0 MiB allocation reported by mallinfo(arena+hblkhd)
        850808 MiB available memory on the node where the printing process lives
     GPU memory used/free/total (MiB): 1074 / 80076 / 81151
------------------
     ethr =  3.85E-04,  avg # of iterations =  3.6

     total cpu time spent up to now is       11.7 secs

     total energy              =    -569.18022796 Ry
     estimated scf accuracy    <       0.22226608 Ry

     total magnetization       =     1.39 Bohr mag/cell
     absolute magnetization    =     1.65 Bohr mag/cell
[tb_dev] Currently allocated     3.05E-05 Mbytes, locked:    0 /   2
[tb_pin] Currently allocated     0.00E+00 Mbytes, locked:    0 /   0

     iteration #  7     ecut=    60.00 Ry     beta= 0.30
     Davidson diagonalization with overlap

---- Real-time Memory Report at c_bands before calling an iterative solver
           748 MiB given to the printing process from OS
             0 MiB allocation reported by mallinfo(arena+hblkhd)
        850808 MiB available memory on the node where the printing process lives
     GPU memory used/free/total (MiB): 1074 / 80076 / 81151
------------------
     ethr =  3.85E-04,  avg # of iterations =  1.5

     total cpu time spent up to now is       12.8 secs

     total energy              =    -569.21910610 Ry
     estimated scf accuracy    <       0.07689756 Ry

     total magnetization       =     0.65 Bohr mag/cell
     absolute magnetization    =     1.05 Bohr mag/cell
[tb_dev] Currently allocated     3.05E-05 Mbytes, locked:    0 /   2
[tb_pin] Currently allocated     0.00E+00 Mbytes, locked:    0 /   0

     iteration #  8     ecut=    60.00 Ry     beta= 0.30
     Davidson diagonalization with overlap

---- Real-time Memory Report at c_bands before calling an iterative solver
           749 MiB given to the printing process from OS
             0 MiB allocation reported by mallinfo(arena+hblkhd)
        850823 MiB available memory on the node where the printing process lives
     GPU memory used/free/total (MiB): 1074 / 80076 / 81151
------------------
     ethr =  2.02E-04,  avg # of iterations =  3.2

     total cpu time spent up to now is       14.1 secs

     total energy              =    -569.22065503 Ry
     estimated scf accuracy    <       0.06784973 Ry

     total magnetization       =     0.36 Bohr mag/cell
     absolute magnetization    =     0.58 Bohr mag/cell
[tb_dev] Currently allocated     3.05E-05 Mbytes, locked:    0 /   2
[tb_pin] Currently allocated     0.00E+00 Mbytes, locked:    0 /   0

     iteration #  9     ecut=    60.00 Ry     beta= 0.30
     Davidson diagonalization with overlap

---- Real-time Memory Report at c_bands before calling an iterative solver
           753 MiB given to the printing process from OS
             0 MiB allocation reported by mallinfo(arena+hblkhd)
        851312 MiB available memory on the node where the printing process lives
     GPU memory used/free/total (MiB): 1074 / 80076 / 81151
------------------
     ethr =  1.79E-04,  avg # of iterations =  1.7

     total cpu time spent up to now is       15.2 secs

     total energy              =    -569.23041686 Ry
     estimated scf accuracy    <       0.01670851 Ry

     total magnetization       =     0.61 Bohr mag/cell
     absolute magnetization    =     0.79 Bohr mag/cell
[tb_dev] Currently allocated     3.05E-05 Mbytes, locked:    0 /   2
[tb_pin] Currently allocated     0.00E+00 Mbytes, locked:    0 /   0

     iteration # 10     ecut=    60.00 Ry     beta= 0.30
     Davidson diagonalization with overlap

---- Real-time Memory Report at c_bands before calling an iterative solver
           755 MiB given to the printing process from OS
             0 MiB allocation reported by mallinfo(arena+hblkhd)
        851144 MiB available memory on the node where the printing process lives
     GPU memory used/free/total (MiB): 1074 / 80076 / 81151
------------------
     ethr =  4.40E-05,  avg # of iterations =  6.1

     total cpu time spent up to now is       16.9 secs

     total energy              =    -569.23355128 Ry
     estimated scf accuracy    <       0.00141289 Ry

     total magnetization       =     0.52 Bohr mag/cell
     absolute magnetization    =     0.60 Bohr mag/cell
[tb_dev] Currently allocated     3.05E-05 Mbytes, locked:    0 /   2
[tb_pin] Currently allocated     0.00E+00 Mbytes, locked:    0 /   0

     iteration # 11     ecut=    60.00 Ry     beta= 0.30
     Davidson diagonalization with overlap

---- Real-time Memory Report at c_bands before calling an iterative solver
           755 MiB given to the printing process from OS
             0 MiB allocation reported by mallinfo(arena+hblkhd)
        851010 MiB available memory on the node where the printing process lives
     GPU memory used/free/total (MiB): 1074 / 80076 / 81151
------------------
     c_bands:  1 eigenvalues not converged
     c_bands:  1 eigenvalues not converged
     c_bands:  1 eigenvalues not converged
     c_bands:  1 eigenvalues not converged
     ethr =  3.72E-06,  avg # of iterations =  8.8

     total cpu time spent up to now is       19.1 secs

     total energy              =    -569.23356283 Ry
     estimated scf accuracy    <       0.00056915 Ry

     total magnetization       =     0.50 Bohr mag/cell
     absolute magnetization    =     0.57 Bohr mag/cell
[tb_dev] Currently allocated     3.05E-05 Mbytes, locked:    0 /   2
[tb_pin] Currently allocated     0.00E+00 Mbytes, locked:    0 /   0

     iteration # 12     ecut=    60.00 Ry     beta= 0.30
     Davidson diagonalization with overlap

---- Real-time Memory Report at c_bands before calling an iterative solver
           755 MiB given to the printing process from OS
             0 MiB allocation reported by mallinfo(arena+hblkhd)
        850831 MiB available memory on the node where the printing process lives
     GPU memory used/free/total (MiB): 1074 / 80076 / 81151
------------------
     ethr =  1.50E-06,  avg # of iterations =  5.1

     total cpu time spent up to now is       20.8 secs

     total energy              =    -569.23431442 Ry
     estimated scf accuracy    <       0.00193499 Ry

     total magnetization       =     0.43 Bohr mag/cell
     absolute magnetization    =     0.49 Bohr mag/cell
[tb_dev] Currently allocated     3.05E-05 Mbytes, locked:    0 /   2
[tb_pin] Currently allocated     0.00E+00 Mbytes, locked:    0 /   0

     iteration # 13     ecut=    60.00 Ry     beta= 0.30
     Davidson diagonalization with overlap

---- Real-time Memory Report at c_bands before calling an iterative solver
           755 MiB given to the printing process from OS
             0 MiB allocation reported by mallinfo(arena+hblkhd)
        850802 MiB available memory on the node where the printing process lives
     GPU memory used/free/total (MiB): 1074 / 80076 / 81151
------------------
     ethr =  1.50E-06,  avg # of iterations =  1.1

     total cpu time spent up to now is       21.8 secs

     total energy              =    -569.23435779 Ry
     estimated scf accuracy    <       0.00128542 Ry

     total magnetization       =     0.45 Bohr mag/cell
     absolute magnetization    =     0.51 Bohr mag/cell
[tb_dev] Currently allocated     3.05E-05 Mbytes, locked:    0 /   2
[tb_pin] Currently allocated     0.00E+00 Mbytes, locked:    0 /   0

     iteration # 14     ecut=    60.00 Ry     beta= 0.30
     Davidson diagonalization with overlap

---- Real-time Memory Report at c_bands before calling an iterative solver
           755 MiB given to the printing process from OS
             0 MiB allocation reported by mallinfo(arena+hblkhd)
        850806 MiB available memory on the node where the printing process lives
     GPU memory used/free/total (MiB): 1074 / 80076 / 81151
------------------
     ethr =  1.50E-06,  avg # of iterations =  1.0

     total cpu time spent up to now is       22.8 secs

     total energy              =    -569.23428273 Ry
     estimated scf accuracy    <       0.00098275 Ry

     total magnetization       =     0.47 Bohr mag/cell
     absolute magnetization    =     0.52 Bohr mag/cell
[tb_dev] Currently allocated     3.05E-05 Mbytes, locked:    0 /   2
[tb_pin] Currently allocated     0.00E+00 Mbytes, locked:    0 /   0

     iteration # 15     ecut=    60.00 Ry     beta= 0.30
     Davidson diagonalization with overlap

---- Real-time Memory Report at c_bands before calling an iterative solver
           755 MiB given to the printing process from OS
             0 MiB allocation reported by mallinfo(arena+hblkhd)
        850838 MiB available memory on the node where the printing process lives
     GPU memory used/free/total (MiB): 1074 / 80076 / 81151
------------------
     ethr =  1.50E-06,  avg # of iterations =  1.5

     total cpu time spent up to now is       23.9 secs

     total energy              =    -569.23442189 Ry
     estimated scf accuracy    <       0.00005465 Ry

     total magnetization       =     0.50 Bohr mag/cell
     absolute magnetization    =     0.56 Bohr mag/cell
[tb_dev] Currently allocated     3.05E-05 Mbytes, locked:    0 /   2
[tb_pin] Currently allocated     0.00E+00 Mbytes, locked:    0 /   0

     iteration # 16     ecut=    60.00 Ry     beta= 0.30
     Davidson diagonalization with overlap

---- Real-time Memory Report at c_bands before calling an iterative solver
           755 MiB given to the printing process from OS
             0 MiB allocation reported by mallinfo(arena+hblkhd)
        850837 MiB available memory on the node where the printing process lives
     GPU memory used/free/total (MiB): 1074 / 80076 / 81151
------------------
     ethr =  1.44E-07,  avg # of iterations =  4.9

     total cpu time spent up to now is       25.4 secs

     total energy              =    -569.23445163 Ry
     estimated scf accuracy    <       0.00001286 Ry

     total magnetization       =     0.50 Bohr mag/cell
     absolute magnetization    =     0.55 Bohr mag/cell
[tb_dev] Currently allocated     3.05E-05 Mbytes, locked:    0 /   2
[tb_pin] Currently allocated     0.00E+00 Mbytes, locked:    0 /   0

     iteration # 17     ecut=    60.00 Ry     beta= 0.30
     Davidson diagonalization with overlap

---- Real-time Memory Report at c_bands before calling an iterative solver
           755 MiB given to the printing process from OS
             0 MiB allocation reported by mallinfo(arena+hblkhd)
        851375 MiB available memory on the node where the printing process lives
     GPU memory used/free/total (MiB): 1074 / 80076 / 81151
------------------
     ethr =  3.39E-08,  avg # of iterations =  5.8

     total cpu time spent up to now is       27.1 secs

     total energy              =    -569.23445773 Ry
     estimated scf accuracy    <       0.00000550 Ry

     total magnetization       =     0.49 Bohr mag/cell
     absolute magnetization    =     0.55 Bohr mag/cell
[tb_dev] Currently allocated     3.05E-05 Mbytes, locked:    0 /   2
[tb_pin] Currently allocated     0.00E+00 Mbytes, locked:    0 /   0

     iteration # 18     ecut=    60.00 Ry     beta= 0.30
     Davidson diagonalization with overlap

---- Real-time Memory Report at c_bands before calling an iterative solver
           755 MiB given to the printing process from OS
             0 MiB allocation reported by mallinfo(arena+hblkhd)
        851098 MiB available memory on the node where the printing process lives
     GPU memory used/free/total (MiB): 1074 / 80076 / 81151
------------------
     ethr =  1.45E-08,  avg # of iterations =  2.8

     total cpu time spent up to now is       28.3 secs

     total energy              =    -569.23446061 Ry
     estimated scf accuracy    <       0.00000354 Ry

     total magnetization       =     0.49 Bohr mag/cell
     absolute magnetization    =     0.55 Bohr mag/cell
[tb_dev] Currently allocated     3.05E-05 Mbytes, locked:    0 /   2
[tb_pin] Currently allocated     0.00E+00 Mbytes, locked:    0 /   0

     iteration # 19     ecut=    60.00 Ry     beta= 0.30
     Davidson diagonalization with overlap

---- Real-time Memory Report at c_bands before calling an iterative solver
           755 MiB given to the printing process from OS
             0 MiB allocation reported by mallinfo(arena+hblkhd)
        851542 MiB available memory on the node where the printing process lives
     GPU memory used/free/total (MiB): 1074 / 80076 / 81151
------------------
     ethr =  9.32E-09,  avg # of iterations =  3.1

     total cpu time spent up to now is       29.6 secs

     total energy              =    -569.23446255 Ry
     estimated scf accuracy    <       0.00000073 Ry

     total magnetization       =     0.49 Bohr mag/cell
     absolute magnetization    =     0.55 Bohr mag/cell
[tb_dev] Currently allocated     3.05E-05 Mbytes, locked:    0 /   2
[tb_pin] Currently allocated     0.00E+00 Mbytes, locked:    0 /   0

     iteration # 20     ecut=    60.00 Ry     beta= 0.30
     Davidson diagonalization with overlap

---- Real-time Memory Report at c_bands before calling an iterative solver
           755 MiB given to the printing process from OS
             0 MiB allocation reported by mallinfo(arena+hblkhd)
        851120 MiB available memory on the node where the printing process lives
     GPU memory used/free/total (MiB): 1074 / 80076 / 81151
------------------
     ethr =  1.93E-09,  avg # of iterations =  4.9

     total cpu time spent up to now is       31.1 secs

     total energy              =    -569.23446302 Ry
     estimated scf accuracy    <       0.00000026 Ry

     total magnetization       =     0.49 Bohr mag/cell
     absolute magnetization    =     0.55 Bohr mag/cell
[tb_dev] Currently allocated     3.05E-05 Mbytes, locked:    0 /   2
[tb_pin] Currently allocated     0.00E+00 Mbytes, locked:    0 /   0

     iteration # 21     ecut=    60.00 Ry     beta= 0.30
     Davidson diagonalization with overlap

---- Real-time Memory Report at c_bands before calling an iterative solver
           755 MiB given to the printing process from OS
             0 MiB allocation reported by mallinfo(arena+hblkhd)
        850997 MiB available memory on the node where the printing process lives
     GPU memory used/free/total (MiB): 1074 / 80076 / 81151
------------------
     ethr =  6.84E-10,  avg # of iterations =  2.8

     total cpu time spent up to now is       32.3 secs

     total energy              =    -569.23446318 Ry
     estimated scf accuracy    <       0.00000017 Ry

     total magnetization       =     0.49 Bohr mag/cell
     absolute magnetization    =     0.55 Bohr mag/cell
[tb_dev] Currently allocated     3.05E-05 Mbytes, locked:    0 /   2
[tb_pin] Currently allocated     0.00E+00 Mbytes, locked:    0 /   0

     iteration # 22     ecut=    60.00 Ry     beta= 0.30
     Davidson diagonalization with overlap

---- Real-time Memory Report at c_bands before calling an iterative solver
           755 MiB given to the printing process from OS
             0 MiB allocation reported by mallinfo(arena+hblkhd)
        850770 MiB available memory on the node where the printing process lives
     GPU memory used/free/total (MiB): 1074 / 80076 / 81151
------------------
     ethr =  4.35E-10,  avg # of iterations =  4.6

     total cpu time spent up to now is       33.9 secs

     total energy              =    -569.23446348 Ry
     estimated scf accuracy    <       0.00000010 Ry

     total magnetization       =     0.49 Bohr mag/cell
     absolute magnetization    =     0.54 Bohr mag/cell
[tb_dev] Currently allocated     3.05E-05 Mbytes, locked:    0 /   2
[tb_pin] Currently allocated     0.00E+00 Mbytes, locked:    0 /   0

     iteration # 23     ecut=    60.00 Ry     beta= 0.30
     Davidson diagonalization with overlap

---- Real-time Memory Report at c_bands before calling an iterative solver
           756 MiB given to the printing process from OS
             0 MiB allocation reported by mallinfo(arena+hblkhd)
        850749 MiB available memory on the node where the printing process lives
     GPU memory used/free/total (MiB): 1074 / 80076 / 81151
------------------
     ethr =  2.74E-10,  avg # of iterations =  2.0

     total cpu time spent up to now is       35.0 secs

     total energy              =    -569.23446352 Ry
     estimated scf accuracy    <       0.00000004 Ry

     total magnetization       =     0.49 Bohr mag/cell
     absolute magnetization    =     0.54 Bohr mag/cell
[tb_dev] Currently allocated     3.05E-05 Mbytes, locked:    0 /   2
[tb_pin] Currently allocated     0.00E+00 Mbytes, locked:    0 /   0

     iteration # 24     ecut=    60.00 Ry     beta= 0.30
     Davidson diagonalization with overlap

---- Real-time Memory Report at c_bands before calling an iterative solver
           757 MiB given to the printing process from OS
             0 MiB allocation reported by mallinfo(arena+hblkhd)
        850736 MiB available memory on the node where the printing process lives
     GPU memory used/free/total (MiB): 1074 / 80076 / 81151
------------------
     ethr =  1.06E-10,  avg # of iterations =  4.6

     total cpu time spent up to now is       36.5 secs

     total energy              =    -569.23446357 Ry
     estimated scf accuracy    <       0.00000001 Ry

     total magnetization       =     0.49 Bohr mag/cell
     absolute magnetization    =     0.54 Bohr mag/cell
[tb_dev] Currently allocated     3.05E-05 Mbytes, locked:    0 /   2
[tb_pin] Currently allocated     0.00E+00 Mbytes, locked:    0 /   0

     iteration # 25     ecut=    60.00 Ry     beta= 0.30
     Davidson diagonalization with overlap

---- Real-time Memory Report at c_bands before calling an iterative solver
           757 MiB given to the printing process from OS
             0 MiB allocation reported by mallinfo(arena+hblkhd)
        850730 MiB available memory on the node where the printing process lives
     GPU memory used/free/total (MiB): 1074 / 80076 / 81151
------------------
     ethr =  3.42E-11,  avg # of iterations =  4.4
 
     Magnetic moment per site  (integrated on atomic sphere of radius R)
     atom   1 (R=0.275)  charge= 14.1145  magn=  0.3950
     atom   2 (R=0.275)  charge=  5.2060  magn=  0.0471
     atom   3 (R=0.275)  charge=  5.2609  magn=  0.0302
     atom   4 (R=0.399)  charge=  8.1784  magn= -0.0077

     total cpu time spent up to now is       37.9 secs

     End of self-consistent calculation

 ------ SPIN UP ------------


          k = 0.0000 0.0000 0.0000 (  3231 PWs)   bands (ev):

   -90.3107 -53.5505 -53.5230 -53.5230 -48.1092 -19.9510 -19.9246 -19.9246
   -14.2332 -12.3006  -0.6421   0.1275   0.1275   2.6037   3.6626   3.6626
     3.8020   3.8325   3.8325   5.1359   7.5853   7.5853   9.0947  11.7972
    14.7789  16.6762  20.5550

     occupation numbers 
     1.0000   1.0000   1.0000   1.0000   1.0000   1.0000   1.0000   1.0000
     1.0000   1.0000   1.0000   1.0000   1.0000   1.0000   1.0000   1.0000
     1.0000   1.0000   1.0000   0.8799   0.0000   0.0000   0.0000   0.0000
     0.0000   0.0000   0.0000

          k = 0.0000 0.0000 0.1146 (  3237 PWs)   bands (ev):

   -90.3107 -53.5506 -53.5230 -53.5230 -48.1092 -19.9511 -19.9246 -19.9246
   -14.2331 -12.3010  -0.6211   0.1275   0.1275   2.3841   3.6625   3.6625
     3.8325   3.8325   4.1672   5.0606   7.5854   7.5854   8.7048  12.6239
    14.1857  16.5857  20.5439

     occupation numbers 
     1.0000   1.0000   1.0000   1.0000   1.0000   1.0000   1.0000   1.0000
     1.0000   1.0000   1.0000   1.0000   1.0000   1.0000   1.0000   1.0000
     1.0000   1.0000   1.0000   1.0107   0.0000   0.0000   0.0000   0.0000
     0.0000   0.0000   0.0000

          k = 0.0000 0.1443 0.0000 (  3229 PWs)   bands (ev):

   -90.3099 -53.5493 -53.5313 -53.5250 -48.1040 -19.9687 -19.9434 -19.9341
   -14.0648 -12.2980  -0.4893  -0.0276   0.2342   2.5310   2.9956   3.0190
     4.0466   4.2495   4.4022   5.2266   7.1036   7.4852   9.4432  12.3875
    15.3904  16.9347  19.3017

     occupation numbers 
     1.0000   1.0000   1.0000   1.0000   1.0000   1.0000   1.0000   1.0000
     1.0000   1.0000   1.0000   1.0000   1.0000   1.0000   1.0000   1.0000
     1.0000   1.0000   1.0002   0.6510   0.0000   0.0000   0.0000   0.0000
     0.0000   0.0000   0.0000

          k = 0.0000 0.1443 0.1146 (  3219 PWs)   bands (ev):

   -90.3099 -53.5493 -53.5312 -53.5250 -48.1040 -19.9687 -19.9433 -19.9340
   -14.0647 -12.2982  -0.4762  -0.0271   0.2343   2.5364   2.8355   2.9957
     4.1208   4.4022   4.4939   5.1220   7.1520   7.4852   9.1053  13.1321
    14.6898  17.0881  19.2445

     occupation numbers 
     1.0000   1.0000   1.0000   1.0000   1.0000   1.0000   1.0000   1.0000
     1.0000   1.0000   1.0000   1.0000   1.0000   1.0000   1.0000   1.0000
     1.0000   1.0002   1.0013   0.9089   0.0000   0.0000   0.0000   0.0000
     0.0000   0.0000   0.0000

          k = 0.0000 0.2887 0.0000 (  3212 PWs)   bands (ev):

   -90.3081 -53.5512 -53.5463 -53.5297 -48.0915 -20.0737 -19.9566 -19.9252
   -13.6265 -12.3009  -0.4875   0.1275   0.4855   1.2039   2.4154   3.4452
     4.2784   4.6578   4.7519   5.3790   6.5649   7.3610  10.2869  13.7276
    15.4513  16.7490  17.5954

     occupation numbers 
     1.0000   1.0000   1.0000   1.0000   1.0000   1.0000   1.0000   1.0000
     1.0000   1.0000   1.0000   1.0000   1.0000   1.0000   1.0000   1.0000
     1.0000   1.0130   1.0341   0.2641   0.0000   0.0000   0.0000   0.0000
     0.0000   0.0000   0.0000

          k = 0.0000 0.2887 0.1146 (  3212 PWs)   bands (ev):

   -90.3081 -53.5512 -53.5464 -53.5297 -48.0915 -20.0736 -19.9567 -19.9252
   -13.6264 -12.3010  -0.4917   0.1352   0.4855   1.2115   2.4154   3.4038
     4.2449   4.6578   4.8886   5.2354   6.7124   7.3609  10.0751  14.2058
    15.5768  15.8457  18.1301

     occupation numbers 
     1.0000   1.0000   1.0000   1.0000   1.0000   1.0000   1.0000   1.0000
     1.0000   1.0000   1.0000   1.0000   1.0000   1.0000   1.0000   1.0000
     1.0000   1.0130   1.0775   0.6266   0.0000   0.0000   0.0000   0.0000
     0.0000   0.0000   0.0000

          k = 0.0000 0.4330 0.0000 (  3198 PWs)   bands (ev):

   -90.3063 -53.5711 -53.5434 -53.5345 -48.0789 -20.1767 -19.9792 -19.9068
   -13.1194 -12.3320  -0.9210   0.0860   0.6798   1.2364   2.2006   2.9822
     4.2116   4.4713   4.7098   6.4281   7.1407   7.3946  11.4988  12.3126
    15.2546  16.3454  17.3923

     occupation numbers 
     1.0000   1.0000   1.0000   1.0000   1.0000   1.0000   1.0000   1.0000
     1.0000   1.0000   1.0000   1.0000   1.0000   1.0000   1.0000   1.0000
     1.0000   1.0009   1.0230   0.0000   0.0000   0.0000   0.0000   0.0000
     0.0000   0.0000   0.0000

          k = 0.0000 0.4330 0.1146 (  3216 PWs)   bands (ev):

   -90.3064 -53.5711 -53.5434 -53.5346 -48.0789 -20.1768 -19.9795 -19.9069
   -13.1194 -12.3320  -0.9221   0.0850   0.6797   1.2410   2.2005   2.9863
     4.2090   4.4713   4.7128   6.3174   7.2748   7.3946  11.4203  12.2986
    15.5501  16.3862  16.9947

     occupation numbers 
     1.0000   1.0000   1.0000   1.0000   1.0000   1.0000   1.0000   1.0000
     1.0000   1.0000   1.0000   1.0000   1.0000   1.0000   1.0000   1.0000
     1.0000   1.0009   1.0237   0.0000   0.0000   0.0000   0.0000   0.0000
     0.0000   0.0000   0.0000

          k = 0.0000-0.5774 0.0000 (  3214 PWs)   bands (ev):

   -90.3056 -53.5794 -53.5422 -53.5365 -48.0737 -20.2189 -19.9888 -19.8994
   -12.8654 -12.3735  -1.3024   0.2350   0.7191   1.4399   2.2274   2.6811
     4.0070   4.2917   4.6541   6.8334   7.4423   8.6901   9.9302  13.0212
    14.1978  16.5230  17.4239

     occupation numbers 
     1.0000   1.0000   1.0000   1.0000   1.0000   1.0000   1.0000   1.0000
     1.0000   1.0000   1.0000   1.0000   1.0000   1.0000   1.0000   1.0000
     1.0000   1.0000   1.0125   0.0000   0.0000   0.0000   0.0000   0.0000
     0.0000   0.0000   0.0000

          k = 0.0000-0.5774 0.1146 (  3216 PWs)   bands (ev):

   -90.3056 -53.5794 -53.5422 -53.5365 -48.0737 -20.2192 -19.9888 -19.8993
   -12.8654 -12.3735  -1.3028   0.2341   0.7191   1.4400   2.2274   2.6867
     4.0061   4.2917   4.6530   6.8338   7.4423   8.6647   9.9207  13.1814
    14.2022  16.3133  17.0403

     occupation numbers 
     1.0000   1.0000   1.0000   1.0000   1.0000   1.0000   1.0000   1.0000
     1.0000   1.0000   1.0000   1.0000   1.0000   1.0000   1.0000   1.0000
     1.0000   1.0000   1.0123   0.0000   0.0000   0.0000   0.0000   0.0000
     0.0000   0.0000   0.0000

          k = 0.1250 0.2165 0.0000 (  3225 PWs)   bands (ev):

   -90.3087 -53.5473 -53.5444 -53.5293 -48.0952 -20.0383 -19.9552 -19.9305
   -13.7612 -12.2974  -0.4219   0.0534   0.3770   1.6536   2.2889   3.4542
     4.2815   4.5146   4.7940   5.2826   6.7078   7.2455  10.0289  13.3578
    16.1462  16.9538  17.4483

     occupation numbers 
     1.0000   1.0000   1.0000   1.0000   1.0000   1.0000   1.0000   1.0000
     1.0000   1.0000   1.0000   1.0000   1.0000   1.0000   1.0000   1.0000
     1.0000   1.0018   1.0475   0.4967   0.0000   0.0000   0.0000   0.0000
     0.0000   0.0000   0.0000

          k = 0.1250 0.2165 0.1146 (  3212 PWs)   bands (ev):

   -90.3087 -53.5472 -53.5444 -53.5292 -48.0951 -20.0383 -19.9550 -19.9304
   -13.7611 -12.2975  -0.4240   0.0619   0.3775   1.6603   2.2890   3.3599
     4.2779   4.5578   4.9136   5.2036   6.7914   7.2201   9.8386  13.8484
    15.5354  16.8127  18.0241

     occupation numbers 
     1.0000   1.0000   1.0000   1.0000   1.0000   1.0000   1.0000   1.0000
     1.0000   1.0000   1.0000   1.0000   1.0000   1.0000   1.0000   1.0000
     1.0000   1.0035   1.0820   0.7135   0.0000   0.0000   0.0000   0.0000
     0.0000   0.0000   0.0000

          k = 0.1250 0.3608 0.0000 (  3216 PWs)   bands (ev):

   -90.3069 -53.5623 -53.5444 -53.5360 -48.0826 -20.1312 -19.9887 -19.9123
   -13.2875 -12.3087  -0.5329   0.0150   0.6536   1.1065   1.8577   3.2909
     4.3226   4.5939   4.8811   6.0642   6.7611   7.1647  11.0782  13.7823
    14.8394  17.0149  17.7800

     occupation numbers 
     1.0000   1.0000   1.0000   1.0000   1.0000   1.0000   1.0000   1.0000
     1.0000   1.0000   1.0000   1.0000   1.0000   1.0000   1.0000   1.0000
     1.0000   1.0058   1.0757   0.0000   0.0000   0.0000   0.0000   0.0000
     0.0000   0.0000   0.0000

          k = 0.1250 0.3608 0.1146 (  3205 PWs)   bands (ev):

   -90.3069 -53.5623 -53.5443 -53.5360 -48.0826 -20.1310 -19.9886 -19.9122
   -13.2874 -12.3087  -0.5355   0.0151   0.6551   1.1133   1.8579   3.2872
     4.3219   4.5986   4.8708   5.9700   6.9374   7.1179  10.9998  13.7561
    15.1326  16.6455  17.7433

     occupation numbers 
     1.0000   1.0000   1.0000   1.0000   1.0000   1.0000   1.0000   1.0000
     1.0000   1.0000   1.0000   1.0000   1.0000   1.0000   1.0000   1.0000
     1.0000   1.0062   1.0729   0.0000   0.0000   0.0000   0.0000   0.0000
     0.0000   0.0000   0.0000

          k = 0.1250 0.5052 0.0000 (  3220 PWs)   bands (ev):

   -90.3056 -53.5749 -53.5423 -53.5409 -48.0737 -20.1954 -20.0130 -19.8995
   -12.9009 -12.3388  -1.0219   0.0191   0.8005   1.4666   1.7594   2.7153
     4.0993   4.4000   4.8232   6.7756   7.1663   8.2193  10.9558  12.6946
    15.1128  16.1938  17.0461

     occupation numbers 
     1.0000   1.0000   1.0000   1.0000   1.0000   1.0000   1.0000   1.0000
     1.0000   1.0000   1.0000   1.0000   1.0000   1.0000   1.0000   1.0000
     1.0000   1.0002   1.0576   0.0000   0.0000   0.0000   0.0000   0.0000
     0.0000   0.0000   0.0000

          k = 0.1250 0.5052 0.1146 (  3217 PWs)   bands (ev):

   -90.3056 -53.5749 -53.5423 -53.5409 -48.0737 -20.1953 -20.0130 -19.8994
   -12.9009 -12.3388  -1.0223   0.0184   0.8004   1.4677   1.7591   2.7191
     4.0988   4.4004   4.8213   6.7598   7.1753   8.2275  10.9295  12.7179
    15.2274  16.2176  16.9920

     occupation numbers 
     1.0000   1.0000   1.0000   1.0000   1.0000   1.0000   1.0000   1.0000
     1.0000   1.0000   1.0000   1.0000   1.0000   1.0000   1.0000   1.0000
     1.0000   1.0002   1.0569   0.0000   0.0000   0.0000   0.0000   0.0000
     0.0000   0.0000   0.0000

          k = 0.2500 0.4330 0.0000 (  3215 PWs)   bands (ev):

   -90.3056 -53.5686 -53.5472 -53.5422 -48.0737 -20.1621 -20.0464 -19.8996
   -12.9323 -12.3081  -0.5455  -0.2018   0.6161   1.2664   1.6543   2.7629
     4.1658   4.4817   4.9911   6.7442   6.8513   7.9680  11.9868  12.6180
    14.9109  16.5908  17.0936

     occupation numbers 
     1.0000   1.0000   1.0000   1.0000   1.0000   1.0000   1.0000   1.0000
     1.0000   1.0000   1.0000   1.0000   1.0000   1.0000   1.0000   1.0000
     1.0000   1.0010   1.0708   0.0000   0.0000   0.0000   0.0000   0.0000
     0.0000   0.0000   0.0000

          k = 0.2500 0.4330 0.1146 (  3206 PWs)   bands (ev):

   -90.3056 -53.5686 -53.5472 -53.5422 -48.0737 -20.1621 -20.0464 -19.8994
   -12.9323 -12.3081  -0.5460  -0.2026   0.6162   1.2681   1.6558   2.7627
     4.1662   4.4826   4.9851   6.7652   6.8400   7.9527  12.0059  12.6349
    14.9061  16.4753  17.2029

     occupation numbers 
     1.0000   1.0000   1.0000   1.0000   1.0000   1.0000   1.0000   1.0000
     1.0000   1.0000   1.0000   1.0000   1.0000   1.0000   1.0000   1.0000
     1.0000   1.0011   1.0735   0.0000   0.0000   0.0000   0.0000   0.0000
     0.0000   0.0000   0.0000

          k = 0.2500 0.5774 0.0000 (  3210 PWs)   bands (ev):

   -90.3051 -53.5691 -53.5539 -53.5414 -48.0700 -20.1632 -20.0820 -19.8941
   -12.7864 -12.2980  -0.6521  -0.1403   0.4233   1.4142   1.8475   2.3351
     3.9151   4.6607   4.9201   6.8290   6.8721   9.5135  10.5407  13.7747
    14.2572  15.3260  17.1217

     occupation numbers 
     1.0000   1.0000   1.0000   1.0000   1.0000   1.0000   1.0000   1.0000
     1.0000   1.0000   1.0000   1.0000   1.0000   1.0000   1.0000   1.0000
     1.0000   1.0135   1.0827   0.0000   0.0000   0.0000   0.0000   0.0000
     0.0000   0.0000   0.0000

          k = 0.2500 0.5774 0.1146 (  3215 PWs)   bands (ev):

   -90.3051 -53.5691 -53.5539 -53.5414 -48.0700 -20.1634 -20.0819 -19.8942
   -12.7864 -12.2980  -0.6524  -0.1405   0.4234   1.4145   1.8473   2.3358
     3.9152   4.6608   4.9187   6.8321   6.8778   9.5013  10.5251  13.7860
    14.2810  15.3880  17.0610

     occupation numbers 
     1.0000   1.0000   1.0000   1.0000   1.0000   1.0000   1.0000   1.0000
     1.0000   1.0000   1.0000   1.0000   1.0000   1.0000   1.0000   1.0000
     1.0000   1.0135   1.0826   0.0000   0.0000   0.0000   0.0000   0.0000
     0.0000   0.0000   0.0000

          k = 0.0000-0.1443 0.1146 (  3219 PWs)   bands (ev):

   -90.3099 -53.5493 -53.5312 -53.5250 -48.1040 -19.9687 -19.9433 -19.9340
   -14.0647 -12.2982  -0.4755  -0.0276   0.2342   2.5182   2.8585   2.9956
     4.1142   4.4022   4.4873   5.1414   7.1160   7.4853   9.1484  13.0782
    14.7209  17.0927  19.2978

     occupation numbers 
     1.0000   1.0000   1.0000   1.0000   1.0000   1.0000   1.0000   1.0000
     1.0000   1.0000   1.0000   1.0000   1.0000   1.0000   1.0000   1.0000
     1.0000   1.0002   1.0011   0.8678   0.0000   0.0000   0.0000   0.0000
     0.0000   0.0000   0.0000

          k = 0.0000-0.2887 0.1146 (  3212 PWs)   bands (ev):

   -90.3081 -53.5512 -53.5463 -53.5298 -48.0915 -20.0736 -19.9567 -19.9252
   -13.6264 -12.3010  -0.4901   0.1329   0.4855   1.2128   2.4153   3.3927
     4.2552   4.6578   4.8121   5.4030   6.5677   7.3609  10.2069  13.9875
    15.4185  16.1126  18.4683

     occupation numbers 
     1.0000   1.0000   1.0000   1.0000   1.0000   1.0000   1.0000   1.0000
     1.0000   1.0000   1.0000   1.0000   1.0000   1.0000   1.0000   1.0000
     1.0000   1.0130   1.0537   0.2180   0.0000   0.0000   0.0000   0.0000
     0.0000   0.0000   0.0000

          k = 0.0000-0.4330 0.1146 (  3216 PWs)   bands (ev):

   -90.3064 -53.5711 -53.5434 -53.5346 -48.0789 -20.1768 -19.9795 -19.9069
   -13.1194 -12.3321  -0.9222   0.0847   0.6798   1.2437   2.2005   2.9798
     4.2119   4.4713   4.7027   6.4527   7.0992   7.3946  11.5913  12.3305
    15.0637  16.3065  17.2757

     occupation numbers 
     1.0000   1.0000   1.0000   1.0000   1.0000   1.0000   1.0000   1.0000
     1.0000   1.0000   1.0000   1.0000   1.0000   1.0000   1.0000   1.0000
     1.0000   1.0009   1.0214   0.0000   0.0000   0.0000   0.0000   0.0000
     0.0000   0.0000   0.0000

          k =-0.1250-0.3608 0.1146 (  3205 PWs)   bands (ev):

   -90.3069 -53.5623 -53.5443 -53.5360 -48.0826 -20.1310 -19.9886 -19.9122
   -13.2874 -12.3088  -0.5353   0.0147   0.6544   1.1155   1.8577   3.2819
     4.3252   4.6019   4.8517   6.0802   6.7735   7.1600  11.0892  13.7582
    14.9164  16.7625  17.8160

     occupation numbers 
     1.0000   1.0000   1.0000   1.0000   1.0000   1.0000   1.0000   1.0000
     1.0000   1.0000   1.0000   1.0000   1.0000   1.0000   1.0000   1.0000
     1.0001   1.0065   1.0672   0.0000   0.0000   0.0000   0.0000   0.0000
     0.0000   0.0000   0.0000

          k =-0.1250-0.5052 0.1146 (  3217 PWs)   bands (ev):

   -90.3056 -53.5749 -53.5423 -53.5409 -48.0737 -20.1953 -20.0130 -19.8994
   -12.9009 -12.3389  -1.0224   0.0185   0.8004   1.4687   1.7595   2.7168
     4.0995   4.4003   4.8195   6.7899   7.1663   8.1806  10.9524  12.8406
    15.0689  16.0629  16.8689

     occupation numbers 
     1.0000   1.0000   1.0000   1.0000   1.0000   1.0000   1.0000   1.0000
     1.0000   1.0000   1.0000   1.0000   1.0000   1.0000   1.0000   1.0000
     1.0000   1.0002   1.0563   0.0000   0.0000   0.0000   0.0000   0.0000
     0.0000   0.0000   0.0000

 ------ SPIN DOWN ----------


          k = 0.0000 0.0000 0.0000 (  3231 PWs)   bands (ev):

   -89.8293 -53.0935 -53.0935 -53.0016 -48.1130 -19.9540 -19.9288 -19.9288
   -14.1739 -12.2291  -0.4787   0.2685   0.2685   2.7068   3.7130   3.7130
     3.8014   4.2377   4.2377   5.6667   7.7911   7.7911   9.0828  11.8399
    14.8351  16.7398  20.5626

     occupation numbers 
     1.0000   1.0000   1.0000   1.0000   1.0000   1.0000   1.0000   1.0000
     1.0000   1.0000   1.0000   1.0000   1.0000   1.0000   1.0000   1.0000
     1.0000   1.0000   1.0000   0.0103   0.0000   0.0000   0.0000   0.0000
     0.0000   0.0000   0.0000

          k = 0.0000 0.0000 0.1146 (  3237 PWs)   bands (ev):

   -89.8293 -53.0935 -53.0935 -53.0016 -48.1130 -19.9541 -19.9288 -19.9288
   -14.1738 -12.2294  -0.4547   0.2685   0.2685   2.4577   3.7129   3.7129
     4.1807   4.2377   4.2377   5.6049   7.7911   7.7911   8.6930  12.6682
    14.2421  16.6326  20.5816

     occupation numbers 
     1.0000   1.0000   1.0000   1.0000   1.0000   1.0000   1.0000   1.0000
     1.0000   1.0000   1.0000   1.0000   1.0000   1.0000   1.0000   1.0000
     1.0000   1.0000   1.0000   0.0247   0.0000   0.0000   0.0000   0.0000
     0.0000   0.0000   0.0000

          k = 0.0000 0.1443 0.0000 (  3229 PWs)   bands (ev):

   -89.8285 -53.1019 -53.0955 -53.0003 -48.1078 -19.9731 -19.9464 -19.9383
   -14.0055 -12.2257  -0.3406   0.1218   0.3708   2.6482   3.1286   3.1505
     4.1103   4.5631   4.7155   5.7138   7.3069   7.6863   9.4384  12.4264
    15.4440  17.0011  19.2438

     occupation numbers 
     1.0000   1.0000   1.0000   1.0000   1.0000   1.0000   1.0000   1.0000
     1.0000   1.0000   1.0000   1.0000   1.0000   1.0000   1.0000   1.0000
     1.0000   1.0038   1.0243   0.0049   0.0000   0.0000   0.0000   0.0000
     0.0000   0.0000   0.0000

          k = 0.0000 0.1443 0.1146 (  3219 PWs)   bands (ev):

   -89.8285 -53.1019 -53.0955 -53.0003 -48.1078 -19.9730 -19.9463 -19.9382
   -14.0054 -12.2260  -0.3270   0.1240   0.3708   2.6563   2.9158   3.1505
     4.3545   4.6381   4.7155   5.6341   7.3609   7.6863   9.0934  13.1740
    14.7436  17.1405  19.1906

     occupation numbers 
     1.0000   1.0000   1.0000   1.0000   1.0000   1.0000   1.0000   1.0000
     1.0000   1.0000   1.0000   1.0000   1.0000   1.0000   1.0000   1.0000
     1.0001   1.0103   1.0243   0.0165   0.0000   0.0000   0.0000   0.0000
     0.0000   0.0000   0.0000

          k = 0.0000 0.2887 0.0000 (  3212 PWs)   bands (ev):

   -89.8266 -53.1223 -53.1003 -52.9973 -48.0952 -20.0784 -19.9609 -19.9281
   -13.5671 -12.2266  -0.3754   0.2762   0.6120   1.3322   2.5526   3.5734
     4.6352   4.9923   5.0170   5.6458   6.7827   7.5524  10.2790  13.7572
    15.4025  16.7870  17.6655

     occupation numbers 
     1.0000   1.0000   1.0000   1.0000   1.0000   1.0000   1.0000   1.0000
     1.0000   1.0000   1.0000   1.0000   1.0000   1.0000   1.0000   1.0000
     1.0099   1.0702   1.0549   0.0140   0.0000   0.0000   0.0000   0.0000
     0.0000   0.0000   0.0000

          k = 0.0000 0.2887 0.1146 (  3212 PWs)   bands (ev):

   -89.8266 -53.1223 -53.1004 -52.9973 -48.0952 -20.0783 -19.9610 -19.9281
   -13.5671 -12.2267  -0.3798   0.2842   0.6120   1.3422   2.5526   3.5198
     4.5940   5.0170   5.1358   5.5240   6.9266   7.5523  10.0578  14.2331
    15.5358  15.8824  18.1899

     occupation numbers 
     1.0000   1.0000   1.0000   1.0000   1.0000   1.0000   1.0000   1.0000
     1.0000   1.0000   1.0000   1.0000   1.0000   1.0000   1.0000   1.0000
     1.0058   1.0549   0.8801   0.0669   0.0000   0.0000   0.0000   0.0000
     0.0000   0.0000   0.0000

          k = 0.0000 0.4330 0.0000 (  3198 PWs)   bands (ev):

   -89.8248 -53.1427 -53.1052 -52.9941 -48.0826 -20.1818 -19.9835 -19.9097
   -13.0614 -12.2541  -0.8223   0.1630   0.8046   1.4135   2.2877   3.1138
     4.6703   4.8918   5.1855   6.5472   7.2153   7.5857  11.4752  12.2591
    15.2788  16.3380  17.4444

     occupation numbers 
     1.0000   1.0000   1.0000   1.0000   1.0000   1.0000   1.0000   1.0000
     1.0000   1.0000   1.0000   1.0000   1.0000   1.0000   1.0000   1.0000
     1.0151   1.0783   0.7612   0.0000   0.0000   0.0000   0.0000   0.0000
     0.0000   0.0000   0.0000

          k = 0.0000 0.4330 0.1146 (  3216 PWs)   bands (ev):

   -89.8248 -53.1427 -53.1053 -52.9942 -48.0826 -20.1819 -19.9838 -19.9098
   -13.0614 -12.2541  -0.8235   0.1619   0.8046   1.4187   2.2876   3.1181
     4.6659   4.8918   5.1897   6.4234   7.3658   7.5856  11.3937  12.2449
    15.5717  16.3952  17.0167

     occupation numbers 
     1.0000   1.0000   1.0000   1.0000   1.0000   1.0000   1.0000   1.0000
     1.0000   1.0000   1.0000   1.0000   1.0000   1.0000   1.0000   1.0000
     1.0143   1.0782   0.7503   0.0000   0.0000   0.0000   0.0000   0.0000
     0.0000   0.0000   0.0000

          k = 0.0000-0.5774 0.0000 (  3214 PWs)   bands (ev):

   -89.8241 -53.1512 -53.1073 -52.9929 -48.0774 -20.2242 -19.9931 -19.9023
   -12.8107 -12.2914  -1.2114   0.2942   0.8482   1.6166   2.2743   2.8039
     4.5439   4.7492   5.0911   7.0843   7.6361   8.6264   9.8796  12.9917
    14.1912  16.5416  17.4520

     occupation numbers 
     1.0000   1.0000   1.0000   1.0000   1.0000   1.0000   1.0000   1.0000
     1.0000   1.0000   1.0000   1.0000   1.0000   1.0000   1.0000   1.0000
     1.0028   1.0333   0.9659   0.0000   0.0000   0.0000   0.0000   0.0000
     0.0000   0.0000   0.0000

          k = 0.0000-0.5774 0.1146 (  3216 PWs)   bands (ev):

   -89.8241 -53.1513 -53.1073 -52.9929 -48.0774 -20.2244 -19.9931 -19.9022
   -12.8107 -12.2914  -1.2118   0.2933   0.8482   1.6166   2.2743   2.8098
     4.5427   4.7492   5.0902   7.0846   7.6361   8.5996   9.8718  13.1519
    14.1936  16.3385  17.0806

     occupation numbers 
     1.0000   1.0000   1.0000   1.0000   1.0000   1.0000   1.0000   1.0000
     1.0000   1.0000   1.0000   1.0000   1.0000   1.0000   1.0000   1.0000
     1.0028   1.0333   0.9673   0.0000   0.0000   0.0000   0.0000   0.0000
     0.0000   0.0000   0.0000

          k = 0.1250 0.2165 0.0000 (  3225 PWs)   bands (ev):

   -89.8272 -53.1154 -53.0999 -52.9982 -48.0989 -20.0429 -19.9595 -19.9335
   -13.7018 -12.2238  -0.3063   0.2180   0.5069   1.7655   2.4369   3.5720
     4.6426   4.6994   5.0787   5.6679   6.9132   7.4437  10.0232  13.3913
    16.1656  16.9223  17.5138

     occupation numbers 
     1.0000   1.0000   1.0000   1.0000   1.0000   1.0000   1.0000   1.0000
     1.0000   1.0000   1.0000   1.0000   1.0000   1.0000   1.0000   1.0000
     1.0109   1.0207   0.9854   0.0101   0.0000   0.0000   0.0000   0.0000
     0.0000   0.0000   0.0000

          k = 0.1250 0.2165 0.1146 (  3212 PWs)   bands (ev):

   -89.8272 -53.1154 -53.0999 -52.9981 -48.0989 -20.0429 -19.9593 -19.9334
   -13.7017 -12.2239  -0.3089   0.2276   0.5078   1.7744   2.4368   3.4591
     4.6736   4.7478   5.1786   5.5881   6.9990   7.4173   9.8266  13.8822
    15.5856  16.7558  18.0769

     occupation numbers 
     1.0000   1.0000   1.0000   1.0000   1.0000   1.0000   1.0000   1.0000
     1.0000   1.0000   1.0000   1.0000   1.0000   1.0000   1.0000   1.0000
     1.0156   1.0329   0.7789   0.0308   0.0000   0.0000   0.0000   0.0000
     0.0000   0.0000   0.0000

          k = 0.1250 0.3608 0.0000 (  3216 PWs)   bands (ev):

   -89.8254 -53.1337 -53.1068 -52.9951 -48.0863 -20.1361 -19.9931 -19.9152
   -13.2287 -12.2323  -0.4277   0.1103   0.7753   1.2677   1.9785   3.4162
     4.7577   5.0860   5.2702   6.0722   6.9526   7.3474  11.0635  13.7218
    14.8621  17.0267  17.8145

     occupation numbers 
     1.0000   1.0000   1.0000   1.0000   1.0000   1.0000   1.0000   1.0000
     1.0000   1.0000   1.0000   1.0000   1.0000   1.0000   1.0000   1.0000
     1.0358   0.9741   0.5304   0.0000   0.0000   0.0000   0.0000   0.0000
     0.0000   0.0000   0.0000

          k = 0.1250 0.3608 0.1146 (  3205 PWs)   bands (ev):

   -89.8254 -53.1337 -53.1068 -52.9951 -48.0863 -20.1359 -19.9930 -19.9151
   -13.2286 -12.2323  -0.4304   0.1104   0.7766   1.2762   1.9788   3.4111
     4.7554   5.0747   5.2752   5.9962   7.1150   7.3028  10.9802  13.6968
    15.1513  16.6787  17.7796

     occupation numbers 
     1.0000   1.0000   1.0000   1.0000   1.0000   1.0000   1.0000   1.0000
     1.0000   1.0000   1.0000   1.0000   1.0000   1.0000   1.0000   1.0000
     1.0351   0.9913   0.5168   0.0000   0.0000   0.0000   0.0000   0.0000
     0.0000   0.0000   0.0000

          k = 0.1250 0.5052 0.0000 (  3220 PWs)   bands (ev):

   -89.8241 -53.1466 -53.1119 -52.9930 -48.0774 -20.2005 -20.0174 -19.9024
   -12.8449 -12.2580  -0.9307   0.1002   0.9093   1.6194   1.8548   2.8420
     4.6724   4.8434   5.2136   7.0048   7.3637   8.1724  10.8975  12.6696
    15.0984  16.1941  17.0654

     occupation numbers 
     1.0000   1.0000   1.0000   1.0000   1.0000   1.0000   1.0000   1.0000
     1.0000   1.0000   1.0000   1.0000   1.0000   1.0000   1.0000   1.0000
     1.0154   1.0644   0.6864   0.0000   0.0000   0.0000   0.0000   0.0000
     0.0000   0.0000   0.0000

          k = 0.1250 0.5052 0.1146 (  3217 PWs)   bands (ev):

   -89.8241 -53.1466 -53.1119 -52.9929 -48.0774 -20.2004 -20.0174 -19.9023
   -12.8449 -12.2580  -0.9311   0.0994   0.9092   1.6206   1.8546   2.8462
     4.6714   4.8439   5.2117   6.9833   7.3751   8.1847  10.8716  12.6932
    15.2091  16.2210  17.0033

     occupation numbers 
     1.0000   1.0000   1.0000   1.0000   1.0000   1.0000   1.0000   1.0000
     1.0000   1.0000   1.0000   1.0000   1.0000   1.0000   1.0000   1.0000
     1.0153   1.0646   0.6917   0.0000   0.0000   0.0000   0.0000   0.0000
     0.0000   0.0000   0.0000

          k = 0.2500 0.4330 0.0000 (  3215 PWs)   bands (ev):

   -89.8241 -53.1402 -53.1182 -52.9930 -48.0774 -20.1671 -20.0510 -19.9025
   -12.8755 -12.2280  -0.4564  -0.1049   0.6928   1.4002   1.8034   2.8887
     4.7678   4.9092   5.3605   6.9256   7.0781   7.9328  11.9285  12.5841
    14.8898  16.6090  17.0859

     occupation numbers 
     1.0000   1.0000   1.0000   1.0000   1.0000   1.0000   1.0000   1.0000
     1.0000   1.0000   1.0000   1.0000   1.0000   1.0000   1.0000   1.0000
     1.0389   1.0814   0.3033   0.0000   0.0000   0.0000   0.0000   0.0000
     0.0000   0.0000   0.0000

          k = 0.2500 0.4330 0.1146 (  3206 PWs)   bands (ev):

   -89.8241 -53.1402 -53.1181 -52.9929 -48.0774 -20.1671 -20.0509 -19.9023
   -12.8755 -12.2281  -0.4569  -0.1058   0.6929   1.4019   1.8054   2.8885
     4.7681   4.9101   5.3532   6.9484   7.0655   7.9189  11.9457  12.6021
    14.8846  16.4841  17.2001

     occupation numbers 
     1.0000   1.0000   1.0000   1.0000   1.0000   1.0000   1.0000   1.0000
     1.0000   1.0000   1.0000   1.0000   1.0000   1.0000   1.0000   1.0000
     1.0390   1.0815   0.3195   0.0000   0.0000   0.0000   0.0000   0.0000
     0.0000   0.0000   0.0000

          k = 0.2500 0.5774 0.0000 (  3210 PWs)   bands (ev):

   -89.8235 -53.1406 -53.1251 -52.9920 -48.0737 -20.1683 -20.0867 -19.8970
   -12.7312 -12.2155  -0.5644  -0.0505   0.4970   1.5277   1.9900   2.4608
     4.5521   5.0733   5.3131   7.0596   7.0779   9.4444  10.4778  13.7482
    14.2253  15.3139  17.1161

     occupation numbers 
     1.0000   1.0000   1.0000   1.0000   1.0000   1.0000   1.0000   1.0000
     1.0000   1.0000   1.0000   1.0000   1.0000   1.0000   1.0000   1.0000
     1.0032   0.9935   0.4163   0.0000   0.0000   0.0000   0.0000   0.0000
     0.0000   0.0000   0.0000

          k = 0.2500 0.5774 0.1146 (  3215 PWs)   bands (ev):

   -89.8235 -53.1407 -53.1251 -52.9921 -48.0737 -20.1684 -20.0866 -19.8971
   -12.7312 -12.2155  -0.5648  -0.0507   0.4971   1.5280   1.9897   2.4618
     4.5522   5.0734   5.3116   7.0630   7.0844   9.4311  10.4618  13.7601
    14.2491  15.3771  17.0598

     occupation numbers 
     1.0000   1.0000   1.0000   1.0000   1.0000   1.0000   1.0000   1.0000
     1.0000   1.0000   1.0000   1.0000   1.0000   1.0000   1.0000   1.0000
     1.0032   0.9933   0.4200   0.0000   0.0000   0.0000   0.0000   0.0000
     0.0000   0.0000   0.0000

          k = 0.0000-0.1443 0.1146 (  3219 PWs)   bands (ev):

   -89.8285 -53.1019 -53.0955 -53.0003 -48.1078 -19.9730 -19.9463 -19.9382
   -14.0054 -12.2260  -0.3263   0.1235   0.3708   2.6306   2.9484   3.1505
     4.3300   4.6560   4.7155   5.6449   7.3211   7.6864   9.1404  13.1187
    14.7768  17.1439  19.2419

     occupation numbers 
     1.0000   1.0000   1.0000   1.0000   1.0000   1.0000   1.0000   1.0000
     1.0000   1.0000   1.0000   1.0000   1.0000   1.0000   1.0000   1.0000
     1.0001   1.0128   1.0243   0.0142   0.0000   0.0000   0.0000   0.0000
     0.0000   0.0000   0.0000

          k = 0.0000-0.2887 0.1146 (  3212 PWs)   bands (ev):

   -89.8266 -53.1223 -53.1004 -52.9973 -48.0952 -20.0783 -19.9610 -19.9281
   -13.5671 -12.2267  -0.3784   0.2820   0.6120   1.3436   2.5525   3.5081
     4.5962   5.0170   5.1132   5.6379   6.7857   7.5523  10.1945  14.0134
    15.3839  16.1525  18.5246

     occupation numbers 
     1.0000   1.0000   1.0000   1.0000   1.0000   1.0000   1.0000   1.0000
     1.0000   1.0000   1.0000   1.0000   1.0000   1.0000   1.0000   1.0000
     1.0060   1.0549   0.9262   0.0157   0.0000   0.0000   0.0000   0.0000
     0.0000   0.0000   0.0000

          k = 0.0000-0.4330 0.1146 (  3216 PWs)   bands (ev):

   -89.8248 -53.1427 -53.1053 -52.9942 -48.0826 -20.1819 -19.9838 -19.9098
   -13.0614 -12.2542  -0.8236   0.1616   0.8046   1.4220   2.2876   3.1105
     4.6676   4.8918   5.1781   6.5726   7.1771   7.5856  11.5639  12.2786
    15.0820  16.3089  17.3302

     occupation numbers 
     1.0000   1.0000   1.0000   1.0000   1.0000   1.0000   1.0000   1.0000
     1.0000   1.0000   1.0000   1.0000   1.0000   1.0000   1.0000   1.0000
     1.0146   1.0782   0.7800   0.0000   0.0000   0.0000   0.0000   0.0000
     0.0000   0.0000   0.0000

          k =-0.1250-0.3608 0.1146 (  3205 PWs)   bands (ev):

   -89.8253 -53.1337 -53.1068 -52.9951 -48.0863 -20.1359 -19.9930 -19.9151
   -13.2286 -12.2324  -0.4302   0.1099   0.7759   1.2787   1.9786   3.4050
     4.7589   5.0843   5.2411   6.1010   6.9653   7.3435  11.0710  13.6991
    14.9329  16.8059  17.8172

     occupation numbers 
     1.0000   1.0000   1.0000   1.0000   1.0000   1.0000   1.0000   1.0000
     1.0000   1.0000   1.0000   1.0000   1.0000   1.0000   1.0000   1.0000
     1.0362   0.9768   0.6109   0.0000   0.0000   0.0000   0.0000   0.0000
     0.0000   0.0000   0.0000

          k =-0.1250-0.5052 0.1146 (  3217 PWs)   bands (ev):

   -89.8241 -53.1466 -53.1119 -52.9929 -48.0774 -20.2004 -20.0174 -19.9023
   -12.8449 -12.2580  -0.9312   0.0995   0.9092   1.6215   1.8553   2.8436
     4.6722   4.8437   5.2097   7.0235   7.3625   8.1311  10.8938  12.8150
    15.0555  16.0695  16.8717

     occupation numbers 
     1.0000   1.0000   1.0000   1.0000   1.0000   1.0000   1.0000   1.0000
     1.0000   1.0000   1.0000   1.0000   1.0000   1.0000   1.0000   1.0000
     1.0154   1.0645   0.6971   0.0000   0.0000   0.0000   0.0000   0.0000
     0.0000   0.0000   0.0000

     the Fermi energy is     5.3193 ev

!    total energy              =    -569.23446358 Ry
     total all-electron energy =     -3412.725019 Ry
     estimated scf accuracy    <          7.6E-09 Ry
     smearing contrib. (-TS)   =       0.00314416 Ry
     internal energy E=F+TS    =    -569.23760774 Ry

     The total energy is F=E-TS. E is the sum of the following terms:
     one-electron contribution =    -598.86666158 Ry
     hartree contribution      =     313.95399081 Ry
     xc contribution           =     -60.07118638 Ry
     ewald contribution        =    -102.30911915 Ry
     one-center paw contrib.   =    -121.94463142 Ry
      -> PAW hartree energy AE =     343.33918009 Ry
      -> PAW hartree energy PS =    -343.33375095 Ry
      -> PAW xc energy AE      =    -178.98777835 Ry
      -> PAW xc energy PS      =      57.03771779 Ry
      -> total E_H with PAW    =     313.95941994 Ry
      -> total E_XC with PAW   =    -182.02124695 Ry

     total magnetization       =     0.49 Bohr mag/cell
     absolute magnetization    =     0.54 Bohr mag/cell

     convergence has been achieved in  25 iterations

     Forces acting on atoms (cartesian axes, Ry/au):

     atom    1 type  1   force =     0.00000000    0.00000000    0.03943596
     atom    2 type  2   force =     0.00000000    0.00000000   -0.03362121
     atom    3 type  2   force =     0.00000000    0.00000000   -0.03334661
     atom    4 type  3   force =     0.00000000    0.00000000    0.02753185
     The non-local contrib.  to forces
     atom    1 type  1   force =     0.00000000    0.00000000    0.03978339
     atom    2 type  2   force =     0.00000000    0.00000000   -1.23457571
     atom    3 type  2   force =    -0.00000000   -0.00000000    0.66032181
     atom    4 type  3   force =     0.00000000   -0.00000000   -0.06190811
     The ionic contribution  to forces
     atom    1 type  1   force =    -0.00000000    0.00000000   17.67588321
     atom    2 type  2   force =     0.00000000   -0.00000000   37.43428145
     atom    3 type  2   force =    -0.00000000    0.00000000  -25.18183875
     atom    4 type  3   force =     0.00000000   -0.00000000  -29.92832592
     The local contribution  to forces
     atom    1 type  1   force =    -0.00000000    0.00000000  -17.67571399
     atom    2 type  2   force =     0.00000001   -0.00000001  -36.24431799
     atom    3 type  2   force =    -0.00000001    0.00000001   24.49362354
     atom    4 type  3   force =     0.00000006   -0.00000004   30.01782178
     The core correction contribution to forces
     atom    1 type  1   force =     0.00000000   -0.00000000   -0.00053644
     atom    2 type  2   force =    -0.00000000    0.00000000    0.01098635
     atom    3 type  2   force =     0.00000000   -0.00000000   -0.00541303
     atom    4 type  3   force =     0.00000000   -0.00000000   -0.00001530
     The Hubbard contrib.    to forces
     atom    1 type  1   force =     0.00000000    0.00000000    0.00000000
     atom    2 type  2   force =     0.00000000    0.00000000    0.00000000
     atom    3 type  2   force =     0.00000000    0.00000000    0.00000000
     atom    4 type  3   force =     0.00000000    0.00000000    0.00000000
     The SCF correction term to forces
     atom    1 type  1   force =    -0.00000000    0.00000000    0.00002806
     atom    2 type  2   force =     0.00000000   -0.00000000    0.00001296
     atom    3 type  2   force =    -0.00000000    0.00000000   -0.00003192
     atom    4 type  3   force =     0.00000000   -0.00000000   -0.00003234

     Total force =     0.067495     Total SCF correction =     0.000055

     Writing all to output data dir ./out/pw.save/ :
     XML data file, charge density, pseudopotentials, collected wavefunctions
 
     init_run     :     14.43s CPU      3.41s WALL (       1 calls)
     electrons    :    122.26s CPU     34.06s WALL (       1 calls)
     forces       :      0.65s CPU      0.63s WALL (       1 calls)

     Called by init_run:
     wfcinit      :      0.25s CPU      0.36s WALL (       1 calls)
     wfcinit:atom :      0.04s CPU      0.04s WALL (      50 calls)
     wfcinit:wfcr :      0.15s CPU      0.22s WALL (      50 calls)
     potinit      :     13.65s CPU      2.49s WALL (       1 calls)
     hinit0       :      0.44s CPU      0.43s WALL (       1 calls)

     Called by electrons:
     c_bands      :     16.50s CPU     16.81s WALL (      25 calls)
     sum_band     :      2.84s CPU      2.87s WALL (      25 calls)
     v_of_rho     :      0.42s CPU      0.21s WALL (      26 calls)
     v_h          :      0.29s CPU      0.04s WALL (      26 calls)
     v_xc         :      0.14s CPU      0.17s WALL (      27 calls)
     newd         :      0.61s CPU      0.47s WALL (      26 calls)
                                        0.47s GPU  (      26 calls)
     PAW_pot      :    105.43s CPU     13.78s WALL (      26 calls)
     mix_rho      :      0.43s CPU      0.43s WALL (      25 calls)

     Called by c_bands:
     init_us_2    :      1.06s CPU      1.06s WALL (    2600 calls)
     cegterg      :     14.41s CPU     14.69s WALL (    1250 calls)

     Called by sum_band:
     sum_band:wei :      0.03s CPU      0.03s WALL (      25 calls)
                                        0.03s GPU  (      25 calls)
     sum_band:loo :      1.76s CPU      1.78s WALL (      25 calls)
                                        1.78s GPU  (      25 calls)
     sum_band:buf :      0.22s CPU      0.26s WALL (    1250 calls)
                                        0.24s GPU  (    1250 calls)
     sum_band:ini :      0.50s CPU      0.52s WALL (    1250 calls)
                                        0.51s GPU  (    1250 calls)
     sum_band:cal :      0.05s CPU      0.08s WALL (    1250 calls)
                                        0.06s GPU  (    1250 calls)
     sum_band:bec :      0.27s CPU      0.30s WALL (    1250 calls)
                                        0.28s GPU  (    1250 calls)
     addusdens    :      0.87s CPU      0.87s WALL (      25 calls)
                                        0.87s GPU  (      25 calls)
     addusd:skk   :      0.00s CPU      0.01s WALL (      75 calls)
                                        0.00s GPU  (      75 calls)

     Called by *egterg:
     cdiaghg      :      5.00s CPU      5.18s WALL (    5672 calls)
                                        5.11s GPU  (    5672 calls)
     cegterg:over :      1.15s CPU      1.20s WALL (    4422 calls)
     cegterg:upda :      0.87s CPU      0.89s WALL (    4422 calls)
     cegterg:last :      0.15s CPU      0.15s WALL (    2368 calls)
     h_psi        :      5.15s CPU      5.39s WALL (    5722 calls)
                                        5.32s GPU  (    5722 calls)
     s_psi        :      0.91s CPU      0.96s WALL (    5722 calls)
     g_psi        :      0.02s CPU      0.11s WALL (    4422 calls)
                                        0.06s GPU  (    4422 calls)

     Called by h_psi:
     h_psi:calbec :      0.18s CPU      0.33s WALL (    5722 calls)
                                        0.26s GPU  (    5722 calls)
     vloc_psi     :      3.53s CPU      3.66s WALL (    5722 calls)
                                        3.59s GPU  (    5722 calls)
     add_vuspsi   :      0.82s CPU      0.98s WALL (    5722 calls)
                                        0.90s GPU  (    5722 calls)

     General routines
     calbec       :      0.19s CPU      0.23s WALL (    7172 calls)
     fft          :      4.16s CPU      1.01s WALL (     663 calls)
                                        0.02s GPU  (     611 calls)
     ffts         :      5.15s CPU      0.85s WALL (     102 calls)
                                        0.00s GPU  (      50 calls)
     fftw         :      0.35s CPU      1.23s WALL (   19082 calls)
                                        1.00s GPU  (   19082 calls)
     interpolate  :      9.50s CPU      1.86s WALL (      52 calls)
 
     Parallel routines

     PAW routines
     PAW_pot      :    105.43s CPU     13.78s WALL (      26 calls)
     PAW_symme    :      0.03s CPU      0.00s WALL (      51 calls)
 
     PWSCF        :   2m18.25s CPU     38.62s WALL

 
   This run was terminated on:   2:16:42  12Jul2026            

=------------------------------------------------------------------------------=
   JOB DONE.
=------------------------------------------------------------------------------=
Warning: ieee_divide_by_zero is signaling
Warning: ieee_inexact is signaling
FORTRAN STOP
