
     Program PWSCF v.7.3.1 starts on 12Jul2026 at  5:48:19 

     This program is part of the open-source Quantum ESPRESSO suite
     for quantum simulation of materials; please cite
         "P. Giannozzi et al., J. Phys.:Condens. Matter 21 395502 (2009);
         "P. Giannozzi et al., J. Phys.:Condens. Matter 29 465901 (2017);
         "P. Giannozzi et al., J. Chem. Phys. 152 154105 (2020);
          URL http://www.quantum-espresso.org", 
     in publications or presentations arising from this work. More details at
     http://www.quantum-espresso.org/quote

     Parallel version (MPI & OpenMP), running on      14 processor cores
     Number of MPI processes:                 1
     Threads/MPI process:                    14

     MPI processes distributed on     1 nodes
     1341377 MiB available memory on the printing compute node when the environment starts
 
     Reading input from pw.in

     Current dimensions of program PWSCF are:
     Max number of different atomic species (ntypx) = 10
     Max number of k-points (npk) =  40000
     Max angular momentum in pseudopotentials (lmaxx) =  4
     file Na.pbe-spn-kjpaw_psl.1.0.0.UPF: wavefunction(s)  2P renormalized
     file Co.pbe-spn-kjpaw_psl.0.3.1.UPF: wavefunction(s)  3P 3D renormalized
     file Se.pbe-dn-kjpaw_psl.1.0.0.UPF: wavefunction(s)  4S 4P 3D renormalized
     file O.pbe-n-kjpaw_psl.1.0.0.UPF: wavefunction(s)  2S 2P renormalized
 
     Subspace diagonalization in iterative solution of the eigenvalue problem:
     a serial algorithm will be used

 
     G-vector sticks info
     --------------------
     sticks:   dense  smooth     PW     G-vecs:    dense   smooth      PW
     Sum        4625    2317    731               122743    43535    7725
 
     Using Slab Decomposition
 


     bravais-lattice index     =            5
     lattice parameter (alat)  =      18.5086  a.u.
     unit-cell volume          =     692.2942 (a.u.)^3
     number of atoms/cell      =            6
     number of atomic types    =            4
     number of electrons       =        73.00
     number of Kohn-Sham states=           48
     kinetic-energy cutoff     =      60.0000  Ry
     charge density cutoff     =     480.0000  Ry
     scf convergence threshold =      1.0E-07
     mixing beta               =       0.3000
     number of iterations used =            8  local-TF  mixing
     Exchange-correlation= SLA  PW   PBX  PBC
                           (   1   4   3   4   0   0   0)

     GPU acceleration is ACTIVE.  1 visible GPUs per MPI rank
     GPU-aware MPI enabled


     GPU used by master process:

        Device Number: 0
        Device name: NVIDIA A100-SXM4-80GB
        Compute capability : 80
        Ratio of single to double precision performance  : 2
        Memory Clock Rate (KHz): 1593000
        Memory Bus Width (bits): 5120
        Peak Memory Bandwidth (GB/s): ******

     celldm(1)=  18.508642  celldm(2)=   0.000000  celldm(3)=   0.000000
     celldm(4)=   0.935562  celldm(5)=   0.000000  celldm(6)=   0.000000

     crystal axes: (cart. coord. in units of alat)
               a(1) = (   0.179496  -0.103632   0.978285 )  
               a(2) = (   0.000000   0.207264   0.978285 )  
               a(3) = (  -0.179496  -0.103632   0.978285 )  

     reciprocal axes: (cart. coord. in units 2 pi/alat)
               b(1) = (  2.785573 -1.608251  0.340732 )  
               b(2) = ( -0.000000  3.216502  0.340732 )  
               b(3) = ( -2.785573 -1.608251  0.340732 )  


     PseudoPot. # 1 for Na read from file:
     ../../pseudo/Na.pbe-spn-kjpaw_psl.1.0.0.UPF
     MD5 check sum: 05b4deb74e3932c23ab016979dc8b5d4
     Pseudo is Projector augmented-wave + core cor, Zval =  9.0
     Generated using &quot;atomic&quot; code by A. Dal Corso  v.6.3
     Shape of augmentation charge: PSQ
     Using radial grid of 1121 points,  4 beta functions with: 
                l(1) =   0
                l(2) =   0
                l(3) =   1
                l(4) =   1
     Q(r) pseudized with 0 coefficients 


     PseudoPot. # 2 for Co read from file:
     ../../pseudo/Co.pbe-spn-kjpaw_psl.0.3.1.UPF
     MD5 check sum: 3c0a43779828c046024e4f3be63f8e67
     Pseudo is Projector augmented-wave + core cor, Zval = 17.0
     Generated using &quot;atomic&quot; code by A. Dal Corso  v.6.2.2
     Shape of augmentation charge: PSQ
     Using radial grid of 1193 points,  6 beta functions with: 
                l(1) =   0
                l(2) =   0
                l(3) =   1
                l(4) =   1
                l(5) =   2
                l(6) =   2
     Q(r) pseudized with 0 coefficients 


     PseudoPot. # 3 for Se read from file:
     ../../pseudo/Se.pbe-dn-kjpaw_psl.1.0.0.UPF
     MD5 check sum: ac240dd2bae32a30e0bf3a38df9c8785
     Pseudo is Projector augmented-wave + core cor, Zval = 16.0
     Generated using &quot;atomic&quot; code by A. Dal Corso  v.6.3
     Shape of augmentation charge: PSQ
     Using radial grid of 1211 points,  6 beta functions with: 
                l(1) =   0
                l(2) =   0
                l(3) =   1
                l(4) =   1
                l(5) =   2
                l(6) =   2
     Q(r) pseudized with 0 coefficients 


     PseudoPot. # 4 for O  read from file:
     ../../pseudo/O.pbe-n-kjpaw_psl.1.0.0.UPF
     MD5 check sum: e99d9cef9b487d1ca56f5b95ecd0fd7a
     Pseudo is Projector augmented-wave + core cor, Zval =  6.0
     Generated using &quot;atomic&quot; code by A. Dal Corso  v.6.3
     Shape of augmentation charge: PSQ
     Using radial grid of 1095 points,  4 beta functions with: 
                l(1) =   0
                l(2) =   0
                l(3) =   1
                l(4) =   1
     Q(r) pseudized with 0 coefficients 


     atomic species   valence    mass     pseudopotential
     Na                9.00    22.98977     Na( 1.00)
     Co               17.00    58.93300     Co( 1.00)
     Se               16.00    78.97100     Se( 1.00)
     O                 6.00    15.99900     O ( 1.00)

     Starting magnetic structure 
     atomic species   magnetization
     Na              0.000
     Co              0.300
     Se              0.000
     O               0.000

     12 Sym. Ops., with inversion, found


                                    s                        frac. trans.

      isym =  1     identity                                     

 cryst.   s( 1) = (     1          0          0      )
                  (     0          1          0      )
                  (     0          0          1      )

 cart.    s( 1) = (  1.0000000 -0.0000000  0.0000000 )
                  (  0.0000000  1.0000000 -0.0000000 )
                  ( -0.0000000  0.0000000  1.0000000 )


      isym =  2     180 deg rotation - cart. axis [1,0,0]        

 cryst.   s( 2) = (     0          0         -1      )
                  (     0         -1          0      )
                  (    -1          0          0      )

 cart.    s( 2) = (  1.0000000  0.0000000 -0.0000000 )
                  (  0.0000000 -1.0000000  0.0000000 )
                  ( -0.0000000 -0.0000000 -1.0000000 )


      isym =  3     120 deg rotation - cryst. axis [0,0,1]       

 cryst.   s( 3) = (     0          1          0      )
                  (     0          0          1      )
                  (     1          0          0      )

 cart.    s( 3) = ( -0.5000000 -0.8660254 -0.0000000 )
                  (  0.8660254 -0.5000000 -0.0000000 )
                  (  0.0000000 -0.0000000  1.0000000 )


      isym =  4     120 deg rotation - cryst. axis [0,0,-1]      

 cryst.   s( 4) = (     0          0          1      )
                  (     1          0          0      )
                  (     0          1          0      )

 cart.    s( 4) = ( -0.5000000  0.8660254  0.0000000 )
                  ( -0.8660254 -0.5000000 -0.0000000 )
                  ( -0.0000000  0.0000000  1.0000000 )


      isym =  5     180 deg rotation - cryst. axis [0,1,0]       

 cryst.   s( 5) = (     0         -1          0      )
                  (    -1          0          0      )
                  (     0          0         -1      )

 cart.    s( 5) = ( -0.5000000 -0.8660254 -0.0000000 )
                  ( -0.8660254  0.5000000  0.0000000 )
                  (  0.0000000 -0.0000000 -1.0000000 )


      isym =  6     180 deg rotation - cryst. axis [1,1,0]       

 cryst.   s( 6) = (    -1          0          0      )
                  (     0          0         -1      )
                  (     0         -1          0      )

 cart.    s( 6) = ( -0.5000000  0.8660254  0.0000000 )
                  (  0.8660254  0.5000000  0.0000000 )
                  (  0.0000000  0.0000000 -1.0000000 )


      isym =  7     inversion                                    

 cryst.   s( 7) = (    -1          0          0      )
                  (     0         -1          0      )
                  (     0          0         -1      )

 cart.    s( 7) = ( -1.0000000  0.0000000 -0.0000000 )
                  ( -0.0000000 -1.0000000  0.0000000 )
                  (  0.0000000 -0.0000000 -1.0000000 )


      isym =  8     inv. 180 deg rotation - cart. axis [1,0,0]   

 cryst.   s( 8) = (     0          0          1      )
                  (     0          1          0      )
                  (     1          0          0      )

 cart.    s( 8) = ( -1.0000000 -0.0000000  0.0000000 )
                  ( -0.0000000  1.0000000 -0.0000000 )
                  (  0.0000000  0.0000000  1.0000000 )


      isym =  9     inv. 120 deg rotation - cryst. axis [0,0,1]  

 cryst.   s( 9) = (     0         -1          0      )
                  (     0          0         -1      )
                  (    -1          0          0      )

 cart.    s( 9) = (  0.5000000  0.8660254  0.0000000 )
                  ( -0.8660254  0.5000000  0.0000000 )
                  ( -0.0000000  0.0000000 -1.0000000 )


      isym = 10     inv. 120 deg rotation - cryst. axis [0,0,-1] 

 cryst.   s(10) = (     0          0         -1      )
                  (    -1          0          0      )
                  (     0         -1          0      )

 cart.    s(10) = (  0.5000000 -0.8660254 -0.0000000 )
                  (  0.8660254  0.5000000  0.0000000 )
                  (  0.0000000 -0.0000000 -1.0000000 )


      isym = 11     inv. 180 deg rotation - cryst. axis [0,1,0]  

 cryst.   s(11) = (     0          1          0      )
                  (     1          0          0      )
                  (     0          0          1      )

 cart.    s(11) = (  0.5000000  0.8660254  0.0000000 )
                  (  0.8660254 -0.5000000 -0.0000000 )
                  ( -0.0000000  0.0000000  1.0000000 )


      isym = 12     inv. 180 deg rotation - cryst. axis [1,1,0]  

 cryst.   s(12) = (     1          0          0      )
                  (     0          0          1      )
                  (     0          1          0      )

 cart.    s(12) = (  0.5000000 -0.8660254 -0.0000000 )
                  ( -0.8660254 -0.5000000 -0.0000000 )
                  ( -0.0000000 -0.0000000  1.0000000 )


     point group D_3d (-3m) 
     there are  6 classes
     the character table:

       E     2C3   3C2'  i     2S6   3s_d 
A_1g   1.00  1.00  1.00  1.00  1.00  1.00
A_2g   1.00  1.00 -1.00  1.00  1.00 -1.00
E_g    2.00 -1.00  0.00  2.00 -1.00  0.00
A_1u   1.00  1.00  1.00 -1.00 -1.00 -1.00
A_2u   1.00  1.00 -1.00 -1.00 -1.00  1.00
E_u    2.00 -1.00  0.00 -2.00  1.00  0.00

     the symmetry operations in each class and the name of the first element:

     E        1
          identity                                               
     2C3      3    4
          120 deg rotation - cryst. axis [0,0,1]                 
     3C2'     2    5    6
          180 deg rotation - cart. axis [1,0,0]                  
     i        7
          inversion                                              
     2S6      9   10
          inv. 120 deg rotation - cryst. axis [0,0,1]            
     3s_d     8   11   12
          inv. 180 deg rotation - cart. axis [1,0,0]             

   Cartesian axes

     site n.     atom                  positions (alat units)
         1        Co     tau(   1) = (   0.0000000   0.0000000   0.0000000  )
         2        O      tau(   2) = (   0.0000000  -0.0000000   1.4674274  )
         3        Se     tau(   3) = (   0.0000000  -0.0000000   0.8477035  )
         4        Se     tau(   4) = (  -0.0000000  -0.0000000   2.0871514  )
         5        Na     tau(   5) = (  -0.0000000  -0.0000000   0.3671503  )
         6        Na     tau(   6) = (   0.0000000  -0.0000000   2.5677045  )

   Crystallographic axes

     site n.     atom                  positions (cryst. coord.)
         1        Co     tau(   1) = (  0.0000000  0.0000000  0.0000000  )
         2        O      tau(   2) = (  0.5000000  0.5000000  0.5000000  )
         3        Se     tau(   3) = (  0.2888400  0.2888400  0.2888400  )
         4        Se     tau(   4) = (  0.7111600  0.7111600  0.7111600  )
         5        Na     tau(   5) = (  0.1251000  0.1251000  0.1251000  )
         6        Na     tau(   6) = (  0.8749000  0.8749000  0.8749000  )

     number of k points=    65  Marzari-Vanderbilt smearing, width (Ry)=  0.0200
                       cart. coord. in units 2pi/alat
        k(    1) = (   0.0000000   0.0000000   0.0000000), wk =   0.0019531
        k(    2) = (  -0.3481966  -0.2010314   0.0425915), wk =   0.0117188
        k(    3) = (  -0.6963931  -0.4020628   0.0851831), wk =   0.0117188
        k(    4) = (  -1.0445897  -0.6030942   0.1277746), wk =   0.0117188
        k(    5) = (   1.3927863   0.8041255  -0.1703662), wk =   0.0058594
        k(    6) = (  -0.3481966   0.2010314   0.0851831), wk =   0.0117188
        k(    7) = (  -0.6963931   0.0000000   0.1277746), wk =   0.0234375
        k(    8) = (  -1.0445897  -0.2010314   0.1703662), wk =   0.0234375
        k(    9) = (   1.3927863   1.2061883  -0.1277746), wk =   0.0234375
        k(   10) = (   1.0445897   1.0051569  -0.0851831), wk =   0.0234375
        k(   11) = (   0.6963931   0.8041255  -0.0425915), wk =   0.0234375
        k(   12) = (   0.3481966   0.6030942   0.0000000), wk =   0.0117188
        k(   13) = (  -0.6963931   0.4020628   0.1703662), wk =   0.0117188
        k(   14) = (  -1.0445897   0.2010314   0.2129577), wk =   0.0234375
        k(   15) = (   1.3927863   1.6082511  -0.0851831), wk =   0.0234375
        k(   16) = (   1.0445897   1.4072197  -0.0425915), wk =   0.0234375
        k(   17) = (   0.6963931   1.2061883   0.0000000), wk =   0.0117188
        k(   18) = (  -1.0445897   0.6030942   0.2555493), wk =   0.0117188
        k(   19) = (   1.3927863   2.0103139  -0.0425915), wk =   0.0234375
        k(   20) = (   1.0445897   1.8092825   0.0000000), wk =   0.0117188
        k(   21) = (   1.3927863  -0.8041255  -0.3407324), wk =   0.0058594
        k(   22) = (   0.0000000   0.0000000   0.1277746), wk =   0.0039063
        k(   23) = (  -0.3481966  -0.2010314   0.1703662), wk =   0.0117188
        k(   24) = (  -0.6963931  -0.4020628   0.2129577), wk =   0.0117188
        k(   25) = (   1.7409829   1.0051569  -0.0851831), wk =   0.0117188
        k(   26) = (   1.3927863   0.8041255  -0.0425915), wk =   0.0117188
        k(   27) = (   1.0445897   0.6030942   0.0000000), wk =   0.0117188
        k(   28) = (   0.6963931   0.4020628   0.0425915), wk =   0.0117188
        k(   29) = (  -0.3481966   0.2010314   0.2129577), wk =   0.0117188
        k(   30) = (  -0.6963931   0.0000000   0.2555493), wk =   0.0234375
        k(   31) = (   1.7409829   1.4072197  -0.0425915), wk =   0.0234375
        k(   32) = (   1.3927863   1.2061883   0.0000000), wk =   0.0234375
        k(   33) = (   1.0445897   1.0051569   0.0425915), wk =   0.0234375
        k(   34) = (   0.6963931   0.8041255   0.0851831), wk =   0.0234375
        k(   35) = (  -0.6963931   0.4020628   0.2981408), wk =   0.0117188
        k(   36) = (   1.7409829   1.8092825   0.0000000), wk =   0.0234375
        k(   37) = (   1.3927863   1.6082511   0.0425915), wk =   0.0234375
        k(   38) = (   1.0445897   1.4072197   0.0851831), wk =   0.0234375
        k(   39) = (   0.6963931   1.2061883   0.1277746), wk =   0.0234375
        k(   40) = (   1.7409829  -1.0051569  -0.2981408), wk =   0.0117188
        k(   41) = (   1.3927863  -1.2061883  -0.2555493), wk =   0.0234375
        k(   42) = (   1.0445897  -1.4072197  -0.2129577), wk =   0.0234375
        k(   43) = (   0.6963931  -1.6082511  -0.1703662), wk =   0.0117188
        k(   44) = (   1.3927863  -0.8041255  -0.2129577), wk =   0.0117188
        k(   45) = (   1.0445897  -1.0051569  -0.1703662), wk =   0.0234375
        k(   46) = (   1.0445897  -0.6030942  -0.1277746), wk =   0.0117188
        k(   47) = (   0.0000000   0.0000000   0.2555493), wk =   0.0039063
        k(   48) = (  -0.3481966  -0.2010314   0.2981408), wk =   0.0117188
        k(   49) = (   2.0891794   1.2061883   0.0000000), wk =   0.0117188
        k(   50) = (   1.7409829   1.0051569   0.0425915), wk =   0.0117188
        k(   51) = (   1.3927863   0.8041255   0.0851831), wk =   0.0117188
        k(   52) = (  -0.3481966   0.2010314   0.3407324), wk =   0.0117188
        k(   53) = (   2.0891794   1.6082511   0.0425915), wk =   0.0234375
        k(   54) = (   1.7409829   1.4072197   0.0851831), wk =   0.0234375
        k(   55) = (   1.3927863   1.2061883   0.1277746), wk =   0.0234375
        k(   56) = (   2.0891794  -1.2061883  -0.2555493), wk =   0.0117188
        k(   57) = (   1.7409829  -1.4072197  -0.2129577), wk =   0.0234375
        k(   58) = (   1.3927863  -1.6082511  -0.1703662), wk =   0.0117188
        k(   59) = (   1.7409829  -1.0051569  -0.1703662), wk =   0.0117188
        k(   60) = (   0.0000000   0.0000000   0.3833239), wk =   0.0039063
        k(   61) = (   2.4373760   1.4072197   0.0851831), wk =   0.0117188
        k(   62) = (   2.0891794   1.2061883   0.1277746), wk =   0.0117188
        k(   63) = (   2.4373760  -1.4072197  -0.2129577), wk =   0.0117188
        k(   64) = (   2.0891794  -1.6082511  -0.1703662), wk =   0.0117188
        k(   65) = (   0.0000000   0.0000000  -0.5110985), wk =   0.0019531

                       cryst. coord.
        k(    1) = (   0.0000000   0.0000000   0.0000000), wk =   0.0019531
        k(    2) = (   0.0000000   0.0000000   0.1250000), wk =   0.0117188
        k(    3) = (   0.0000000   0.0000000   0.2500000), wk =   0.0117188
        k(    4) = (  -0.0000000  -0.0000000   0.3750000), wk =   0.0117188
        k(    5) = (  -0.0000000  -0.0000000  -0.5000000), wk =   0.0058594
        k(    6) = (   0.0000000   0.1250000   0.1250000), wk =   0.0117188
        k(    7) = (  -0.0000000   0.1250000   0.2500000), wk =   0.0234375
        k(    8) = (  -0.0000000   0.1250000   0.3750000), wk =   0.0234375
        k(    9) = (  -0.0000000   0.1250000  -0.5000000), wk =   0.0234375
        k(   10) = (  -0.0000000   0.1250000  -0.3750000), wk =   0.0234375
        k(   11) = (  -0.0000000   0.1250000  -0.2500000), wk =   0.0234375
        k(   12) = (  -0.0000000   0.1250000  -0.1250000), wk =   0.0117188
        k(   13) = (   0.0000000   0.2500000   0.2500000), wk =   0.0117188
        k(   14) = (  -0.0000000   0.2500000   0.3750000), wk =   0.0234375
        k(   15) = (  -0.0000000   0.2500000  -0.5000000), wk =   0.0234375
        k(   16) = (  -0.0000000   0.2500000  -0.3750000), wk =   0.0234375
        k(   17) = (  -0.0000000   0.2500000  -0.2500000), wk =   0.0117188
        k(   18) = (  -0.0000000   0.3750000   0.3750000), wk =   0.0117188
        k(   19) = (  -0.0000000   0.3750000  -0.5000000), wk =   0.0234375
        k(   20) = (  -0.0000000   0.3750000  -0.3750000), wk =   0.0117188
        k(   21) = (  -0.0000000  -0.5000000  -0.5000000), wk =   0.0058594
        k(   22) = (   0.1250000   0.1250000   0.1250000), wk =   0.0039063
        k(   23) = (   0.1250000   0.1250000   0.2500000), wk =   0.0117188
        k(   24) = (   0.1250000   0.1250000   0.3750000), wk =   0.0117188
        k(   25) = (   0.1250000   0.1250000  -0.5000000), wk =   0.0117188
        k(   26) = (   0.1250000   0.1250000  -0.3750000), wk =   0.0117188
        k(   27) = (   0.1250000   0.1250000  -0.2500000), wk =   0.0117188
        k(   28) = (   0.1250000   0.1250000  -0.1250000), wk =   0.0117188
        k(   29) = (   0.1250000   0.2500000   0.2500000), wk =   0.0117188
        k(   30) = (   0.1250000   0.2500000   0.3750000), wk =   0.0234375
        k(   31) = (   0.1250000   0.2500000  -0.5000000), wk =   0.0234375
        k(   32) = (   0.1250000   0.2500000  -0.3750000), wk =   0.0234375
        k(   33) = (   0.1250000   0.2500000  -0.2500000), wk =   0.0234375
        k(   34) = (   0.1250000   0.2500000  -0.1250000), wk =   0.0234375
        k(   35) = (   0.1250000   0.3750000   0.3750000), wk =   0.0117188
        k(   36) = (   0.1250000   0.3750000  -0.5000000), wk =   0.0234375
        k(   37) = (   0.1250000   0.3750000  -0.3750000), wk =   0.0234375
        k(   38) = (   0.1250000   0.3750000  -0.2500000), wk =   0.0234375
        k(   39) = (   0.1250000   0.3750000  -0.1250000), wk =   0.0234375
        k(   40) = (   0.1250000  -0.5000000  -0.5000000), wk =   0.0117188
        k(   41) = (   0.1250000  -0.5000000  -0.3750000), wk =   0.0234375
        k(   42) = (   0.1250000  -0.5000000  -0.2500000), wk =   0.0234375
        k(   43) = (   0.1250000  -0.5000000  -0.1250000), wk =   0.0117188
        k(   44) = (   0.1250000  -0.3750000  -0.3750000), wk =   0.0117188
        k(   45) = (   0.1250000  -0.3750000  -0.2500000), wk =   0.0234375
        k(   46) = (   0.1250000  -0.2500000  -0.2500000), wk =   0.0117188
        k(   47) = (   0.2500000   0.2500000   0.2500000), wk =   0.0039063
        k(   48) = (   0.2500000   0.2500000   0.3750000), wk =   0.0117188
        k(   49) = (   0.2500000   0.2500000  -0.5000000), wk =   0.0117188
        k(   50) = (   0.2500000   0.2500000  -0.3750000), wk =   0.0117188
        k(   51) = (   0.2500000   0.2500000  -0.2500000), wk =   0.0117188
        k(   52) = (   0.2500000   0.3750000   0.3750000), wk =   0.0117188
        k(   53) = (   0.2500000   0.3750000  -0.5000000), wk =   0.0234375
        k(   54) = (   0.2500000   0.3750000  -0.3750000), wk =   0.0234375
        k(   55) = (   0.2500000   0.3750000  -0.2500000), wk =   0.0234375
        k(   56) = (   0.2500000  -0.5000000  -0.5000000), wk =   0.0117188
        k(   57) = (   0.2500000  -0.5000000  -0.3750000), wk =   0.0234375
        k(   58) = (   0.2500000  -0.5000000  -0.2500000), wk =   0.0117188
        k(   59) = (   0.2500000  -0.3750000  -0.3750000), wk =   0.0117188
        k(   60) = (   0.3750000   0.3750000   0.3750000), wk =   0.0039063
        k(   61) = (   0.3750000   0.3750000  -0.5000000), wk =   0.0117188
        k(   62) = (   0.3750000   0.3750000  -0.3750000), wk =   0.0117188
        k(   63) = (   0.3750000  -0.5000000  -0.5000000), wk =   0.0117188
        k(   64) = (   0.3750000  -0.5000000  -0.3750000), wk =   0.0117188
        k(   65) = (  -0.5000000  -0.5000000  -0.5000000), wk =   0.0019531

     Dense  grid:   122743 G-vectors     FFT dimensions: ( 135, 135, 135)

     Smooth grid:    43535 G-vectors     FFT dimensions: (  96,  96,  96)

     Dynamical RAM for                 wfc:       3.98 MB

     Dynamical RAM for     wfc (w. buffer):     521.28 MB

     Dynamical RAM for           str. fact:       7.49 MB

     Dynamical RAM for           local pot:       0.00 MB

     Dynamical RAM for          nlocal pot:       6.47 MB

     Dynamical RAM for                qrad:       7.03 MB

     Dynamical RAM for          rho,v,vnew:     123.86 MB

     Dynamical RAM for               rhoin:      41.29 MB

     Dynamical RAM for            rho*nmix:      59.93 MB

     Dynamical RAM for           G-vectors:       7.36 MB

     Dynamical RAM for          h,s,v(r/c):       0.42 MB

     Dynamical RAM for          <psi|beta>:       0.06 MB

     Dynamical RAM for                 psi:       7.96 MB

     Dynamical RAM for                hpsi:       7.96 MB

     Dynamical RAM for                spsi:       7.96 MB

     Dynamical RAM for      wfcinit/wfcrot:       8.01 MB

     Dynamical RAM for           addusdens:     353.98 MB

     Dynamical RAM for          addusforce:     357.74 MB

     Estimated static dynamical RAM per process >     836.77 MB

     Estimated max dynamical RAM per process >       1.23 GB

     Check: negative core charge=   -0.000004
     Generating pointlists ...
     new r_m :   0.0992 (alat units)  1.8362 (a.u.) for type    1
     new r_m :   0.1010 (alat units)  1.8703 (a.u.) for type    2
     new r_m :   0.1010 (alat units)  1.8703 (a.u.) for type    3
     new r_m :   0.0992 (alat units)  1.8362 (a.u.) for type    4

     Initial potential from superposition of free atoms

     starting charge      72.9870, renormalised to      73.0000
     Starting wfcs are   42 randomized atomic wfcs +    6 random wfcs
     Checking if some PAW data can be deallocated... 

     total cpu time spent up to now is        9.4 secs

     Self-consistent Calculation
[tb_dev] Currently allocated     8.25E-01 Mbytes, locked:    0 /   6
[tb_pin] Currently allocated     0.00E+00 Mbytes, locked:    0 /   0

     iteration #  1     ecut=    60.00 Ry     beta= 0.30
     Davidson diagonalization with overlap

---- Real-time Memory Report at c_bands before calling an iterative solver
          1395 MiB given to the printing process from OS
             0 MiB allocation reported by mallinfo(arena+hblkhd)
       1347015 MiB available memory on the node where the printing process lives
     GPU memory used/free/total (MiB): 2022 / 79128 / 81151
------------------
     ethr =  1.00E-02,  avg # of iterations =  6.9

     total cpu time spent up to now is       18.6 secs

     total energy              =   -1440.64395985 Ry
     estimated scf accuracy    <       1.81174466 Ry

     total magnetization       =     2.57 Bohr mag/cell
     absolute magnetization    =     2.72 Bohr mag/cell
[tb_dev] Currently allocated     4.58E-05 Mbytes, locked:    0 /   2
[tb_pin] Currently allocated     0.00E+00 Mbytes, locked:    0 /   0

     iteration #  2     ecut=    60.00 Ry     beta= 0.30
     Davidson diagonalization with overlap

---- Real-time Memory Report at c_bands before calling an iterative solver
          1509 MiB given to the printing process from OS
             0 MiB allocation reported by mallinfo(arena+hblkhd)
       1340017 MiB available memory on the node where the printing process lives
     GPU memory used/free/total (MiB): 2124 / 79026 / 81151
------------------
     ethr =  2.48E-03,  avg # of iterations =  1.6

     total cpu time spent up to now is       24.3 secs

     total energy              =   -1440.60377749 Ry
     estimated scf accuracy    <       1.19325319 Ry

     total magnetization       =     1.40 Bohr mag/cell
     absolute magnetization    =     2.08 Bohr mag/cell
[tb_dev] Currently allocated     4.58E-05 Mbytes, locked:    0 /   2
[tb_pin] Currently allocated     0.00E+00 Mbytes, locked:    0 /   0

     iteration #  3     ecut=    60.00 Ry     beta= 0.30
     Davidson diagonalization with overlap

---- Real-time Memory Report at c_bands before calling an iterative solver
          1513 MiB given to the printing process from OS
             0 MiB allocation reported by mallinfo(arena+hblkhd)
       1349585 MiB available memory on the node where the printing process lives
     GPU memory used/free/total (MiB): 2124 / 79026 / 81151
------------------
     ethr =  1.63E-03,  avg # of iterations =  2.0

     total cpu time spent up to now is       30.2 secs

     total energy              =   -1440.59444727 Ry
     estimated scf accuracy    <       0.56885981 Ry

     total magnetization       =     1.36 Bohr mag/cell
     absolute magnetization    =     2.00 Bohr mag/cell
[tb_dev] Currently allocated     4.58E-05 Mbytes, locked:    0 /   2
[tb_pin] Currently allocated     0.00E+00 Mbytes, locked:    0 /   0

     iteration #  4     ecut=    60.00 Ry     beta= 0.30
     Davidson diagonalization with overlap

---- Real-time Memory Report at c_bands before calling an iterative solver
          1516 MiB given to the printing process from OS
             0 MiB allocation reported by mallinfo(arena+hblkhd)
       1345787 MiB available memory on the node where the printing process lives
     GPU memory used/free/total (MiB): 2124 / 79026 / 81151
------------------
     ethr =  7.79E-04,  avg # of iterations =  3.2

     total cpu time spent up to now is       36.6 secs

     total energy              =   -1440.56487730 Ry
     estimated scf accuracy    <       0.38834272 Ry

     total magnetization       =     0.45 Bohr mag/cell
     absolute magnetization    =     1.16 Bohr mag/cell
[tb_dev] Currently allocated     4.58E-05 Mbytes, locked:    0 /   2
[tb_pin] Currently allocated     0.00E+00 Mbytes, locked:    0 /   0

     iteration #  5     ecut=    60.00 Ry     beta= 0.30
     Davidson diagonalization with overlap

---- Real-time Memory Report at c_bands before calling an iterative solver
          1521 MiB given to the printing process from OS
             0 MiB allocation reported by mallinfo(arena+hblkhd)
       1341226 MiB available memory on the node where the printing process lives
     GPU memory used/free/total (MiB): 2124 / 79026 / 81151
------------------
     ethr =  5.32E-04,  avg # of iterations =  2.2

     total cpu time spent up to now is       42.5 secs

     total energy              =   -1440.62775981 Ry
     estimated scf accuracy    <       0.41930291 Ry

     total magnetization       =     0.95 Bohr mag/cell
     absolute magnetization    =     1.60 Bohr mag/cell
[tb_dev] Currently allocated     4.58E-05 Mbytes, locked:    0 /   2
[tb_pin] Currently allocated     0.00E+00 Mbytes, locked:    0 /   0

     iteration #  6     ecut=    60.00 Ry     beta= 0.30
     Davidson diagonalization with overlap

---- Real-time Memory Report at c_bands before calling an iterative solver
          1525 MiB given to the printing process from OS
             0 MiB allocation reported by mallinfo(arena+hblkhd)
       1332048 MiB available memory on the node where the printing process lives
     GPU memory used/free/total (MiB): 2124 / 79026 / 81151
------------------
     ethr =  5.32E-04,  avg # of iterations =  3.2

     total cpu time spent up to now is       49.0 secs

     total energy              =   -1440.64105499 Ry
     estimated scf accuracy    <       0.49642110 Ry

     total magnetization       =     0.05 Bohr mag/cell
     absolute magnetization    =     0.36 Bohr mag/cell
[tb_dev] Currently allocated     4.58E-05 Mbytes, locked:    0 /   2
[tb_pin] Currently allocated     0.00E+00 Mbytes, locked:    0 /   0

     iteration #  7     ecut=    60.00 Ry     beta= 0.30
     Davidson diagonalization with overlap

---- Real-time Memory Report at c_bands before calling an iterative solver
          1527 MiB given to the printing process from OS
             0 MiB allocation reported by mallinfo(arena+hblkhd)
       1345408 MiB available memory on the node where the printing process lives
     GPU memory used/free/total (MiB): 2124 / 79026 / 81151
------------------
     ethr =  5.32E-04,  avg # of iterations =  1.0

     total cpu time spent up to now is       54.4 secs

     total energy              =   -1440.64937100 Ry
     estimated scf accuracy    <       0.00490615 Ry

     total magnetization       =    -0.06 Bohr mag/cell
     absolute magnetization    =     0.31 Bohr mag/cell
[tb_dev] Currently allocated     4.58E-05 Mbytes, locked:    0 /   2
[tb_pin] Currently allocated     0.00E+00 Mbytes, locked:    0 /   0

     iteration #  8     ecut=    60.00 Ry     beta= 0.30
     Davidson diagonalization with overlap

---- Real-time Memory Report at c_bands before calling an iterative solver
          1531 MiB given to the printing process from OS
             0 MiB allocation reported by mallinfo(arena+hblkhd)
       1341945 MiB available memory on the node where the printing process lives
     GPU memory used/free/total (MiB): 2124 / 79026 / 81151
------------------
     c_bands:  1 eigenvalues not converged
     c_bands:  1 eigenvalues not converged
     c_bands:  1 eigenvalues not converged
     c_bands:  1 eigenvalues not converged
     c_bands:  1 eigenvalues not converged
     c_bands:  1 eigenvalues not converged
     c_bands:  1 eigenvalues not converged
     c_bands:  1 eigenvalues not converged
     c_bands:  1 eigenvalues not converged
     c_bands:  1 eigenvalues not converged
     c_bands:  1 eigenvalues not converged
     c_bands:  1 eigenvalues not converged
     c_bands:  1 eigenvalues not converged
     c_bands:  1 eigenvalues not converged
     c_bands:  1 eigenvalues not converged
     c_bands:  1 eigenvalues not converged
     c_bands:  1 eigenvalues not converged
     c_bands:  1 eigenvalues not converged
     c_bands:  1 eigenvalues not converged
     c_bands:  1 eigenvalues not converged
     c_bands:  1 eigenvalues not converged
     c_bands:  1 eigenvalues not converged
     c_bands:  1 eigenvalues not converged
     ethr =  6.72E-06,  avg # of iterations = 11.8

     total cpu time spent up to now is       66.0 secs

     total energy              =   -1440.65390986 Ry
     estimated scf accuracy    <       0.01043793 Ry

     total magnetization       =     0.22 Bohr mag/cell
     absolute magnetization    =     0.46 Bohr mag/cell
[tb_dev] Currently allocated     4.58E-05 Mbytes, locked:    0 /   2
[tb_pin] Currently allocated     0.00E+00 Mbytes, locked:    0 /   0

     iteration #  9     ecut=    60.00 Ry     beta= 0.30
     Davidson diagonalization with overlap

---- Real-time Memory Report at c_bands before calling an iterative solver
          1534 MiB given to the printing process from OS
             0 MiB allocation reported by mallinfo(arena+hblkhd)
       1349595 MiB available memory on the node where the printing process lives
     GPU memory used/free/total (MiB): 2124 / 79026 / 81151
------------------
     c_bands:  1 eigenvalues not converged
     ethr =  6.72E-06,  avg # of iterations =  1.8

     total cpu time spent up to now is       71.8 secs

     total energy              =   -1440.65312879 Ry
     estimated scf accuracy    <       0.01738693 Ry

     total magnetization       =     0.18 Bohr mag/cell
     absolute magnetization    =     0.39 Bohr mag/cell
[tb_dev] Currently allocated     4.58E-05 Mbytes, locked:    0 /   2
[tb_pin] Currently allocated     0.00E+00 Mbytes, locked:    0 /   0

     iteration # 10     ecut=    60.00 Ry     beta= 0.30
     Davidson diagonalization with overlap

---- Real-time Memory Report at c_bands before calling an iterative solver
          1538 MiB given to the printing process from OS
             0 MiB allocation reported by mallinfo(arena+hblkhd)
       1344872 MiB available memory on the node where the printing process lives
     GPU memory used/free/total (MiB): 2124 / 79026 / 81151
------------------
     ethr =  6.72E-06,  avg # of iterations =  2.3

     total cpu time spent up to now is       77.8 secs

     total energy              =   -1440.65472556 Ry
     estimated scf accuracy    <       0.00458647 Ry

     total magnetization       =    -0.06 Bohr mag/cell
     absolute magnetization    =     0.29 Bohr mag/cell
[tb_dev] Currently allocated     4.58E-05 Mbytes, locked:    0 /   2
[tb_pin] Currently allocated     0.00E+00 Mbytes, locked:    0 /   0

     iteration # 11     ecut=    60.00 Ry     beta= 0.30
     Davidson diagonalization with overlap

---- Real-time Memory Report at c_bands before calling an iterative solver
          1539 MiB given to the printing process from OS
             0 MiB allocation reported by mallinfo(arena+hblkhd)
       1337619 MiB available memory on the node where the printing process lives
     GPU memory used/free/total (MiB): 2124 / 79026 / 81151
------------------
     ethr =  6.28E-06,  avg # of iterations =  1.0

     total cpu time spent up to now is       83.3 secs

     total energy              =   -1440.65445696 Ry
     estimated scf accuracy    <       0.01039938 Ry

     total magnetization       =    -0.07 Bohr mag/cell
     absolute magnetization    =     0.28 Bohr mag/cell
[tb_dev] Currently allocated     4.58E-05 Mbytes, locked:    0 /   2
[tb_pin] Currently allocated     0.00E+00 Mbytes, locked:    0 /   0

     iteration # 12     ecut=    60.00 Ry     beta= 0.30
     Davidson diagonalization with overlap

---- Real-time Memory Report at c_bands before calling an iterative solver
          1539 MiB given to the printing process from OS
             0 MiB allocation reported by mallinfo(arena+hblkhd)
       1349037 MiB available memory on the node where the printing process lives
     GPU memory used/free/total (MiB): 2124 / 79026 / 81151
------------------
     ethr =  6.28E-06,  avg # of iterations =  1.2

     total cpu time spent up to now is       88.8 secs

     total energy              =   -1440.65445476 Ry
     estimated scf accuracy    <       0.00137635 Ry

     total magnetization       =    -0.03 Bohr mag/cell
     absolute magnetization    =     0.25 Bohr mag/cell
[tb_dev] Currently allocated     4.58E-05 Mbytes, locked:    0 /   2
[tb_pin] Currently allocated     0.00E+00 Mbytes, locked:    0 /   0

     iteration # 13     ecut=    60.00 Ry     beta= 0.30
     Davidson diagonalization with overlap

---- Real-time Memory Report at c_bands before calling an iterative solver
          1539 MiB given to the printing process from OS
             0 MiB allocation reported by mallinfo(arena+hblkhd)
       1344060 MiB available memory on the node where the printing process lives
     GPU memory used/free/total (MiB): 2124 / 79026 / 81151
------------------
     c_bands:  1 eigenvalues not converged
     c_bands:  1 eigenvalues not converged
     ethr =  1.89E-06,  avg # of iterations =  2.3

     total cpu time spent up to now is       94.8 secs

     total energy              =   -1440.65441332 Ry
     estimated scf accuracy    <       0.00030787 Ry

     total magnetization       =     0.03 Bohr mag/cell
     absolute magnetization    =     0.21 Bohr mag/cell
[tb_dev] Currently allocated     4.58E-05 Mbytes, locked:    0 /   2
[tb_pin] Currently allocated     0.00E+00 Mbytes, locked:    0 /   0

     iteration # 14     ecut=    60.00 Ry     beta= 0.30
     Davidson diagonalization with overlap

---- Real-time Memory Report at c_bands before calling an iterative solver
          1539 MiB given to the printing process from OS
             0 MiB allocation reported by mallinfo(arena+hblkhd)
       1340654 MiB available memory on the node where the printing process lives
     GPU memory used/free/total (MiB): 2124 / 79026 / 81151
------------------
     ethr =  4.22E-07,  avg # of iterations =  3.4

     total cpu time spent up to now is      101.3 secs

     total energy              =   -1440.65457430 Ry
     estimated scf accuracy    <       0.00079757 Ry

     total magnetization       =     0.09 Bohr mag/cell
     absolute magnetization    =     0.11 Bohr mag/cell
[tb_dev] Currently allocated     4.58E-05 Mbytes, locked:    0 /   2
[tb_pin] Currently allocated     0.00E+00 Mbytes, locked:    0 /   0

     iteration # 15     ecut=    60.00 Ry     beta= 0.30
     Davidson diagonalization with overlap

---- Real-time Memory Report at c_bands before calling an iterative solver
          1539 MiB given to the printing process from OS
             0 MiB allocation reported by mallinfo(arena+hblkhd)
       1329397 MiB available memory on the node where the printing process lives
     GPU memory used/free/total (MiB): 2124 / 79026 / 81151
------------------
     ethr =  4.22E-07,  avg # of iterations =  3.6

     total cpu time spent up to now is      108.0 secs

     total energy              =   -1440.65441084 Ry
     estimated scf accuracy    <       0.00599210 Ry

     total magnetization       =     0.08 Bohr mag/cell
     absolute magnetization    =     0.09 Bohr mag/cell
[tb_dev] Currently allocated     4.58E-05 Mbytes, locked:    0 /   2
[tb_pin] Currently allocated     0.00E+00 Mbytes, locked:    0 /   0

     iteration # 16     ecut=    60.00 Ry     beta= 0.30
     Davidson diagonalization with overlap

---- Real-time Memory Report at c_bands before calling an iterative solver
          1539 MiB given to the printing process from OS
             0 MiB allocation reported by mallinfo(arena+hblkhd)
       1344163 MiB available memory on the node where the printing process lives
     GPU memory used/free/total (MiB): 2124 / 79026 / 81151
------------------
     ethr =  4.22E-07,  avg # of iterations =  2.0

     total cpu time spent up to now is      113.9 secs

     total energy              =   -1440.65456205 Ry
     estimated scf accuracy    <       0.00001928 Ry

     total magnetization       =     0.05 Bohr mag/cell
     absolute magnetization    =     0.05 Bohr mag/cell
[tb_dev] Currently allocated     4.58E-05 Mbytes, locked:    0 /   2
[tb_pin] Currently allocated     0.00E+00 Mbytes, locked:    0 /   0

     iteration # 17     ecut=    60.00 Ry     beta= 0.30
     Davidson diagonalization with overlap

---- Real-time Memory Report at c_bands before calling an iterative solver
          1539 MiB given to the printing process from OS
             0 MiB allocation reported by mallinfo(arena+hblkhd)
       1339176 MiB available memory on the node where the printing process lives
     GPU memory used/free/total (MiB): 2124 / 79026 / 81151
------------------
     c_bands:  1 eigenvalues not converged
     ethr =  2.64E-08,  avg # of iterations =  6.3

     total cpu time spent up to now is      122.8 secs

     total energy              =   -1440.65457045 Ry
     estimated scf accuracy    <       0.00001825 Ry

     total magnetization       =     0.03 Bohr mag/cell
     absolute magnetization    =     0.04 Bohr mag/cell
[tb_dev] Currently allocated     4.58E-05 Mbytes, locked:    0 /   2
[tb_pin] Currently allocated     0.00E+00 Mbytes, locked:    0 /   0

     iteration # 18     ecut=    60.00 Ry     beta= 0.30
     Davidson diagonalization with overlap

---- Real-time Memory Report at c_bands before calling an iterative solver
          1539 MiB given to the printing process from OS
             0 MiB allocation reported by mallinfo(arena+hblkhd)
       1346852 MiB available memory on the node where the printing process lives
     GPU memory used/free/total (MiB): 2124 / 79026 / 81151
------------------
     ethr =  2.50E-08,  avg # of iterations =  2.4

     total cpu time spent up to now is      129.0 secs

     total energy              =   -1440.65457505 Ry
     estimated scf accuracy    <       0.00000484 Ry

     total magnetization       =     0.03 Bohr mag/cell
     absolute magnetization    =     0.03 Bohr mag/cell
[tb_dev] Currently allocated     4.58E-05 Mbytes, locked:    0 /   2
[tb_pin] Currently allocated     0.00E+00 Mbytes, locked:    0 /   0

     iteration # 19     ecut=    60.00 Ry     beta= 0.30
     Davidson diagonalization with overlap

---- Real-time Memory Report at c_bands before calling an iterative solver
          1539 MiB given to the printing process from OS
             0 MiB allocation reported by mallinfo(arena+hblkhd)
       1341891 MiB available memory on the node where the printing process lives
     GPU memory used/free/total (MiB): 2124 / 79026 / 81151
------------------
     ethr =  6.63E-09,  avg # of iterations =  4.8

     total cpu time spent up to now is      136.7 secs

     total energy              =   -1440.65457612 Ry
     estimated scf accuracy    <       0.00000775 Ry

     total magnetization       =     0.01 Bohr mag/cell
     absolute magnetization    =     0.02 Bohr mag/cell
[tb_dev] Currently allocated     4.58E-05 Mbytes, locked:    0 /   2
[tb_pin] Currently allocated     0.00E+00 Mbytes, locked:    0 /   0

     iteration # 20     ecut=    60.00 Ry     beta= 0.30
     Davidson diagonalization with overlap

---- Real-time Memory Report at c_bands before calling an iterative solver
          1540 MiB given to the printing process from OS
             0 MiB allocation reported by mallinfo(arena+hblkhd)
       1349697 MiB available memory on the node where the printing process lives
     GPU memory used/free/total (MiB): 2124 / 79026 / 81151
------------------
     ethr =  6.63E-09,  avg # of iterations =  4.0

     total cpu time spent up to now is      143.8 secs

     total energy              =   -1440.65457692 Ry
     estimated scf accuracy    <       0.00000141 Ry

     total magnetization       =     0.02 Bohr mag/cell
     absolute magnetization    =     0.02 Bohr mag/cell
[tb_dev] Currently allocated     4.58E-05 Mbytes, locked:    0 /   2
[tb_pin] Currently allocated     0.00E+00 Mbytes, locked:    0 /   0

     iteration # 21     ecut=    60.00 Ry     beta= 0.30
     Davidson diagonalization with overlap

---- Real-time Memory Report at c_bands before calling an iterative solver
          1541 MiB given to the printing process from OS
             0 MiB allocation reported by mallinfo(arena+hblkhd)
       1344907 MiB available memory on the node where the printing process lives
     GPU memory used/free/total (MiB): 2124 / 79026 / 81151
------------------
     ethr =  1.92E-09,  avg # of iterations =  3.4

     total cpu time spent up to now is      150.4 secs

     total energy              =   -1440.65457703 Ry
     estimated scf accuracy    <       0.00000104 Ry

     total magnetization       =     0.02 Bohr mag/cell
     absolute magnetization    =     0.02 Bohr mag/cell
[tb_dev] Currently allocated     4.58E-05 Mbytes, locked:    0 /   2
[tb_pin] Currently allocated     0.00E+00 Mbytes, locked:    0 /   0

     iteration # 22     ecut=    60.00 Ry     beta= 0.30
     Davidson diagonalization with overlap

---- Real-time Memory Report at c_bands before calling an iterative solver
          1541 MiB given to the printing process from OS
             0 MiB allocation reported by mallinfo(arena+hblkhd)
       1339795 MiB available memory on the node where the printing process lives
     GPU memory used/free/total (MiB): 2124 / 79026 / 81151
------------------
     ethr =  1.42E-09,  avg # of iterations =  1.9

     total cpu time spent up to now is      156.2 secs

     total energy              =   -1440.65457742 Ry
     estimated scf accuracy    <       0.00000119 Ry

     total magnetization       =     0.02 Bohr mag/cell
     absolute magnetization    =     0.02 Bohr mag/cell
[tb_dev] Currently allocated     4.58E-05 Mbytes, locked:    0 /   2
[tb_pin] Currently allocated     0.00E+00 Mbytes, locked:    0 /   0

     iteration # 23     ecut=    60.00 Ry     beta= 0.30
     Davidson diagonalization with overlap

---- Real-time Memory Report at c_bands before calling an iterative solver
          1542 MiB given to the printing process from OS
             0 MiB allocation reported by mallinfo(arena+hblkhd)
       1329467 MiB available memory on the node where the printing process lives
     GPU memory used/free/total (MiB): 2124 / 79026 / 81151
------------------
     ethr =  1.42E-09,  avg # of iterations =  1.7

     total cpu time spent up to now is      162.0 secs

     total energy              =   -1440.65457720 Ry
     estimated scf accuracy    <       0.00000135 Ry

     total magnetization       =     0.02 Bohr mag/cell
     absolute magnetization    =     0.02 Bohr mag/cell
[tb_dev] Currently allocated     4.58E-05 Mbytes, locked:    0 /   2
[tb_pin] Currently allocated     0.00E+00 Mbytes, locked:    0 /   0

     iteration # 24     ecut=    60.00 Ry     beta= 0.30
     Davidson diagonalization with overlap

---- Real-time Memory Report at c_bands before calling an iterative solver
          1542 MiB given to the printing process from OS
             0 MiB allocation reported by mallinfo(arena+hblkhd)
       1345446 MiB available memory on the node where the printing process lives
     GPU memory used/free/total (MiB): 2124 / 79026 / 81151
------------------
     ethr =  1.42E-09,  avg # of iterations =  1.0

     total cpu time spent up to now is      167.4 secs

     total energy              =   -1440.65457702 Ry
     estimated scf accuracy    <       0.00000126 Ry

     total magnetization       =     0.02 Bohr mag/cell
     absolute magnetization    =     0.02 Bohr mag/cell
[tb_dev] Currently allocated     4.58E-05 Mbytes, locked:    0 /   2
[tb_pin] Currently allocated     0.00E+00 Mbytes, locked:    0 /   0

     iteration # 25     ecut=    60.00 Ry     beta= 0.30
     Davidson diagonalization with overlap

---- Real-time Memory Report at c_bands before calling an iterative solver
          1542 MiB given to the printing process from OS
             0 MiB allocation reported by mallinfo(arena+hblkhd)
       1341032 MiB available memory on the node where the printing process lives
     GPU memory used/free/total (MiB): 2124 / 79026 / 81151
------------------
     ethr =  1.42E-09,  avg # of iterations =  1.5

     total cpu time spent up to now is      173.1 secs

     total energy              =   -1440.65457700 Ry
     estimated scf accuracy    <       0.00000112 Ry

     total magnetization       =     0.02 Bohr mag/cell
     absolute magnetization    =     0.02 Bohr mag/cell
[tb_dev] Currently allocated     4.58E-05 Mbytes, locked:    0 /   2
[tb_pin] Currently allocated     0.00E+00 Mbytes, locked:    0 /   0

     iteration # 26     ecut=    60.00 Ry     beta= 0.30
     Davidson diagonalization with overlap

---- Real-time Memory Report at c_bands before calling an iterative solver
          1543 MiB given to the printing process from OS
             0 MiB allocation reported by mallinfo(arena+hblkhd)
       1351770 MiB available memory on the node where the printing process lives
     GPU memory used/free/total (MiB): 2124 / 79026 / 81151
------------------
     ethr =  1.42E-09,  avg # of iterations =  1.7

     total cpu time spent up to now is      178.9 secs

     total energy              =   -1440.65457699 Ry
     estimated scf accuracy    <       0.00000117 Ry

     total magnetization       =     0.02 Bohr mag/cell
     absolute magnetization    =     0.03 Bohr mag/cell
[tb_dev] Currently allocated     4.58E-05 Mbytes, locked:    0 /   2
[tb_pin] Currently allocated     0.00E+00 Mbytes, locked:    0 /   0

     iteration # 27     ecut=    60.00 Ry     beta= 0.30
     Davidson diagonalization with overlap

---- Real-time Memory Report at c_bands before calling an iterative solver
          1543 MiB given to the printing process from OS
             0 MiB allocation reported by mallinfo(arena+hblkhd)
       1347127 MiB available memory on the node where the printing process lives
     GPU memory used/free/total (MiB): 2124 / 79026 / 81151
------------------
     ethr =  1.42E-09,  avg # of iterations =  1.0

     total cpu time spent up to now is      184.3 secs

     total energy              =   -1440.65457702 Ry
     estimated scf accuracy    <       0.00000116 Ry

     total magnetization       =     0.02 Bohr mag/cell
     absolute magnetization    =     0.03 Bohr mag/cell
[tb_dev] Currently allocated     4.58E-05 Mbytes, locked:    0 /   2
[tb_pin] Currently allocated     0.00E+00 Mbytes, locked:    0 /   0

     iteration # 28     ecut=    60.00 Ry     beta= 0.30
     Davidson diagonalization with overlap

---- Real-time Memory Report at c_bands before calling an iterative solver
          1543 MiB given to the printing process from OS
             0 MiB allocation reported by mallinfo(arena+hblkhd)
       1342694 MiB available memory on the node where the printing process lives
     GPU memory used/free/total (MiB): 2124 / 79026 / 81151
------------------
     ethr =  1.42E-09,  avg # of iterations =  1.5

     total cpu time spent up to now is      190.0 secs

     total energy              =   -1440.65457734 Ry
     estimated scf accuracy    <       0.00000067 Ry

     total magnetization       =     0.02 Bohr mag/cell
     absolute magnetization    =     0.02 Bohr mag/cell
[tb_dev] Currently allocated     4.58E-05 Mbytes, locked:    0 /   2
[tb_pin] Currently allocated     0.00E+00 Mbytes, locked:    0 /   0

     iteration # 29     ecut=    60.00 Ry     beta= 0.30
     Davidson diagonalization with overlap

---- Real-time Memory Report at c_bands before calling an iterative solver
          1543 MiB given to the printing process from OS
             0 MiB allocation reported by mallinfo(arena+hblkhd)
       1335919 MiB available memory on the node where the printing process lives
     GPU memory used/free/total (MiB): 2124 / 79026 / 81151
------------------
     ethr =  9.22E-10,  avg # of iterations =  2.1

     total cpu time spent up to now is      195.9 secs

     total energy              =   -1440.65457746 Ry
     estimated scf accuracy    <       0.00000071 Ry

     total magnetization       =     0.02 Bohr mag/cell
     absolute magnetization    =     0.02 Bohr mag/cell
[tb_dev] Currently allocated     4.58E-05 Mbytes, locked:    0 /   2
[tb_pin] Currently allocated     0.00E+00 Mbytes, locked:    0 /   0

     iteration # 30     ecut=    60.00 Ry     beta= 0.30
     Davidson diagonalization with overlap

---- Real-time Memory Report at c_bands before calling an iterative solver
          1543 MiB given to the printing process from OS
             0 MiB allocation reported by mallinfo(arena+hblkhd)
       1325716 MiB available memory on the node where the printing process lives
     GPU memory used/free/total (MiB): 2124 / 79026 / 81151
------------------
     ethr =  9.22E-10,  avg # of iterations =  1.4

     total cpu time spent up to now is      201.5 secs

     total energy              =   -1440.65457754 Ry
     estimated scf accuracy    <       0.00000055 Ry

     total magnetization       =     0.01 Bohr mag/cell
     absolute magnetization    =     0.01 Bohr mag/cell
[tb_dev] Currently allocated     4.58E-05 Mbytes, locked:    0 /   2
[tb_pin] Currently allocated     0.00E+00 Mbytes, locked:    0 /   0

     iteration # 31     ecut=    60.00 Ry     beta= 0.30
     Davidson diagonalization with overlap

---- Real-time Memory Report at c_bands before calling an iterative solver
          1543 MiB given to the printing process from OS
             0 MiB allocation reported by mallinfo(arena+hblkhd)
       1342714 MiB available memory on the node where the printing process lives
     GPU memory used/free/total (MiB): 2124 / 79026 / 81151
------------------
     ethr =  7.53E-10,  avg # of iterations =  3.0

     total cpu time spent up to now is      207.9 secs

     total energy              =   -1440.65457756 Ry
     estimated scf accuracy    <       0.00000031 Ry

     total magnetization       =     0.01 Bohr mag/cell
     absolute magnetization    =     0.01 Bohr mag/cell
[tb_dev] Currently allocated     4.58E-05 Mbytes, locked:    0 /   2
[tb_pin] Currently allocated     0.00E+00 Mbytes, locked:    0 /   0

     iteration # 32     ecut=    60.00 Ry     beta= 0.30
     Davidson diagonalization with overlap

---- Real-time Memory Report at c_bands before calling an iterative solver
          1543 MiB given to the printing process from OS
             0 MiB allocation reported by mallinfo(arena+hblkhd)
       1338963 MiB available memory on the node where the printing process lives
     GPU memory used/free/total (MiB): 2124 / 79026 / 81151
------------------
     ethr =  4.28E-10,  avg # of iterations =  4.7

     total cpu time spent up to now is      215.9 secs

     total energy              =   -1440.65457820 Ry
     estimated scf accuracy    <       0.00000032 Ry

     total magnetization       =     0.00 Bohr mag/cell
     absolute magnetization    =     0.00 Bohr mag/cell
[tb_dev] Currently allocated     4.58E-05 Mbytes, locked:    0 /   2
[tb_pin] Currently allocated     0.00E+00 Mbytes, locked:    0 /   0

     iteration # 33     ecut=    60.00 Ry     beta= 0.30
     Davidson diagonalization with overlap

---- Real-time Memory Report at c_bands before calling an iterative solver
          1545 MiB given to the printing process from OS
             0 MiB allocation reported by mallinfo(arena+hblkhd)
       1338452 MiB available memory on the node where the printing process lives
     GPU memory used/free/total (MiB): 2124 / 79026 / 81151
------------------
     ethr =  4.28E-10,  avg # of iterations =  1.2

     total cpu time spent up to now is      221.5 secs

     total energy              =   -1440.65457822 Ry
     estimated scf accuracy    <       0.00000026 Ry

     total magnetization       =     0.00 Bohr mag/cell
     absolute magnetization    =     0.00 Bohr mag/cell
[tb_dev] Currently allocated     4.58E-05 Mbytes, locked:    0 /   2
[tb_pin] Currently allocated     0.00E+00 Mbytes, locked:    0 /   0

     iteration # 34     ecut=    60.00 Ry     beta= 0.30
     Davidson diagonalization with overlap

---- Real-time Memory Report at c_bands before calling an iterative solver
          1546 MiB given to the printing process from OS
             0 MiB allocation reported by mallinfo(arena+hblkhd)
       1337751 MiB available memory on the node where the printing process lives
     GPU memory used/free/total (MiB): 2124 / 79026 / 81151
------------------
     ethr =  3.61E-10,  avg # of iterations =  1.0

     total cpu time spent up to now is      227.1 secs

     total energy              =   -1440.65457816 Ry
     estimated scf accuracy    <       0.00000028 Ry

     total magnetization       =     0.00 Bohr mag/cell
     absolute magnetization    =     0.00 Bohr mag/cell
[tb_dev] Currently allocated     4.58E-05 Mbytes, locked:    0 /   2
[tb_pin] Currently allocated     0.00E+00 Mbytes, locked:    0 /   0

     iteration # 35     ecut=    60.00 Ry     beta= 0.30
     Davidson diagonalization with overlap

---- Real-time Memory Report at c_bands before calling an iterative solver
          1546 MiB given to the printing process from OS
             0 MiB allocation reported by mallinfo(arena+hblkhd)
       1336640 MiB available memory on the node where the printing process lives
     GPU memory used/free/total (MiB): 2124 / 79026 / 81151
------------------
     ethr =  3.61E-10,  avg # of iterations =  1.5

     total cpu time spent up to now is      232.9 secs

     total energy              =   -1440.65457818 Ry
     estimated scf accuracy    <       0.00000022 Ry

     total magnetization       =     0.00 Bohr mag/cell
     absolute magnetization    =     0.01 Bohr mag/cell
[tb_dev] Currently allocated     4.58E-05 Mbytes, locked:    0 /   2
[tb_pin] Currently allocated     0.00E+00 Mbytes, locked:    0 /   0

     iteration # 36     ecut=    60.00 Ry     beta= 0.30
     Davidson diagonalization with overlap

---- Real-time Memory Report at c_bands before calling an iterative solver
          1547 MiB given to the printing process from OS
             0 MiB allocation reported by mallinfo(arena+hblkhd)
       1354722 MiB available memory on the node where the printing process lives
     GPU memory used/free/total (MiB): 2124 / 79026 / 81151
------------------
     ethr =  2.95E-10,  avg # of iterations =  1.5

     total cpu time spent up to now is      238.6 secs

     total energy              =   -1440.65457815 Ry
     estimated scf accuracy    <       0.00000018 Ry

     total magnetization       =     0.00 Bohr mag/cell
     absolute magnetization    =     0.01 Bohr mag/cell
[tb_dev] Currently allocated     4.58E-05 Mbytes, locked:    0 /   2
[tb_pin] Currently allocated     0.00E+00 Mbytes, locked:    0 /   0

     iteration # 37     ecut=    60.00 Ry     beta= 0.30
     Davidson diagonalization with overlap

---- Real-time Memory Report at c_bands before calling an iterative solver
          1547 MiB given to the printing process from OS
             0 MiB allocation reported by mallinfo(arena+hblkhd)
       1355213 MiB available memory on the node where the printing process lives
     GPU memory used/free/total (MiB): 2124 / 79026 / 81151
------------------
     ethr =  2.45E-10,  avg # of iterations =  1.5

     total cpu time spent up to now is      244.4 secs

     total energy              =   -1440.65457816 Ry
     estimated scf accuracy    <       0.00000014 Ry

     total magnetization       =     0.00 Bohr mag/cell
     absolute magnetization    =     0.00 Bohr mag/cell
[tb_dev] Currently allocated     4.58E-05 Mbytes, locked:    0 /   2
[tb_pin] Currently allocated     0.00E+00 Mbytes, locked:    0 /   0

     iteration # 38     ecut=    60.00 Ry     beta= 0.30
     Davidson diagonalization with overlap

---- Real-time Memory Report at c_bands before calling an iterative solver
          1547 MiB given to the printing process from OS
             0 MiB allocation reported by mallinfo(arena+hblkhd)
       1355074 MiB available memory on the node where the printing process lives
     GPU memory used/free/total (MiB): 2124 / 79026 / 81151
------------------
     ethr =  1.92E-10,  avg # of iterations =  1.0

     total cpu time spent up to now is      249.9 secs

     total energy              =   -1440.65457813 Ry
     estimated scf accuracy    <       0.00000013 Ry

     total magnetization       =     0.00 Bohr mag/cell
     absolute magnetization    =     0.00 Bohr mag/cell
[tb_dev] Currently allocated     4.58E-05 Mbytes, locked:    0 /   2
[tb_pin] Currently allocated     0.00E+00 Mbytes, locked:    0 /   0

     iteration # 39     ecut=    60.00 Ry     beta= 0.30
     Davidson diagonalization with overlap

---- Real-time Memory Report at c_bands before calling an iterative solver
          1548 MiB given to the printing process from OS
             0 MiB allocation reported by mallinfo(arena+hblkhd)
       1355058 MiB available memory on the node where the printing process lives
     GPU memory used/free/total (MiB): 2124 / 79026 / 81151
------------------
     ethr =  1.80E-10,  avg # of iterations =  1.0

     total cpu time spent up to now is      255.5 secs

     total energy              =   -1440.65457797 Ry
     estimated scf accuracy    <       0.00000013 Ry

     total magnetization       =     0.00 Bohr mag/cell
     absolute magnetization    =     0.00 Bohr mag/cell
[tb_dev] Currently allocated     4.58E-05 Mbytes, locked:    0 /   2
[tb_pin] Currently allocated     0.00E+00 Mbytes, locked:    0 /   0

     iteration # 40     ecut=    60.00 Ry     beta= 0.30
     Davidson diagonalization with overlap

---- Real-time Memory Report at c_bands before calling an iterative solver
          1548 MiB given to the printing process from OS
             0 MiB allocation reported by mallinfo(arena+hblkhd)
       1354800 MiB available memory on the node where the printing process lives
     GPU memory used/free/total (MiB): 2124 / 79026 / 81151
------------------
     ethr =  1.78E-10,  avg # of iterations =  3.9
 
     Magnetic moment per site  (integrated on atomic sphere of radius R)
     atom   1 (R=0.101)  charge= 15.4302  magn= -0.0020
     atom   2 (R=0.099)  charge=  5.9440  magn=  0.0005
     atom   3 (R=0.101)  charge= 13.4114  magn= -0.0000
     atom   4 (R=0.101)  charge= 13.4114  magn= -0.0000
     atom   5 (R=0.099)  charge=  7.9778  magn=  0.0000
     atom   6 (R=0.099)  charge=  7.9778  magn=  0.0000

     total cpu time spent up to now is      262.6 secs

     End of self-consistent calculation

 ------ SPIN UP ------------


          k = 0.0000 0.0000 0.0000 (  5451 PWs)   bands (ev):

   -87.7879 -51.1023 -51.0534 -51.0534 -42.9459 -42.9359 -40.8264 -40.8264
   -40.8260 -40.8260 -40.7941 -40.7941 -40.7914 -40.7914 -40.7786 -40.7783
   -14.9698 -14.8629 -14.8349 -14.8349 -14.8196 -14.8196  -8.1006  -7.6522
    -6.0261   1.8220   3.6541   3.6541   4.9444   5.6565   5.6565   6.2244
     6.7574   6.8984   6.8984   7.0856   7.0856   9.1629   9.1629  10.9853
    12.3961  13.8990  14.4176  15.1297  15.1297  17.1286  17.7150  17.7150

     occupation numbers 
     1.0000   1.0000   1.0000   1.0000   1.0000   1.0000   1.0000   1.0000
     1.0000   1.0000   1.0000   1.0000   1.0000   1.0000   1.0000   1.0000
     1.0000   1.0000   1.0000   1.0000   1.0000   1.0000   1.0000   1.0000
     1.0000   1.0000   1.0000   1.0000   1.0000   1.0000   1.0000   1.0184
     0.6652   0.2990   0.2990   0.0497   0.0497   0.0000   0.0000   0.0000
     0.0000   0.0000   0.0000   0.0000   0.0000   0.0000   0.0000   0.0000

          k =-0.3482-0.2010 0.0426 (  5417 PWs)   bands (ev):

   -87.7878 -51.1021 -51.0539 -51.0535 -42.9450 -42.9357 -40.8263 -40.8261
   -40.8260 -40.8257 -40.7941 -40.7940 -40.7915 -40.7913 -40.7783 -40.7781
   -14.9653 -14.8688 -14.8398 -14.8386 -14.8278 -14.8197  -8.0650  -7.4846
    -5.9426   1.9956   3.2368   3.7001   5.1452   5.2849   5.4478   5.9655
     6.6066   6.8003   6.8503   6.8680   7.0326   8.3433   9.0089  11.5409
    13.2555  14.0847  14.5313  15.0519  15.7779  16.6392  17.5037  17.8282

     occupation numbers 
     1.0000   1.0000   1.0000   1.0000   1.0000   1.0000   1.0000   1.0000
     1.0000   1.0000   1.0000   1.0000   1.0000   1.0000   1.0000   1.0000
     1.0000   1.0000   1.0000   1.0000   1.0000   1.0000   1.0000   1.0000
     1.0000   1.0000   1.0000   1.0000   1.0000   1.0000   1.0000   1.0004
     0.9973   0.5468   0.4133   0.3692   0.0903   0.0000   0.0000   0.0000
     0.0000   0.0000   0.0000   0.0000   0.0000   0.0000   0.0000   0.0000

          k =-0.6964-0.4021 0.0852 (  5431 PWs)   bands (ev):

   -87.7878 -51.1020 -51.0554 -51.0539 -42.9429 -42.9355 -40.8262 -40.8261
   -40.8255 -40.8251 -40.7939 -40.7938 -40.7922 -40.7915 -40.7779 -40.7778
   -14.9556 -14.8893 -14.8527 -14.8468 -14.8416 -14.8213  -7.9860  -7.0113
    -5.7444   2.3767   2.5141   3.6946   3.8071   5.0779   5.6410   5.7787
     6.0853   6.4336   6.7092   6.7446   6.7991   7.8221   8.8516  12.3004
    12.9350  13.5662  14.5841  15.8920  16.3687  16.6835  17.0613  17.6697

     occupation numbers 
     1.0000   1.0000   1.0000   1.0000   1.0000   1.0000   1.0000   1.0000
     1.0000   1.0000   1.0000   1.0000   1.0000   1.0000   1.0000   1.0000
     1.0000   1.0000   1.0000   1.0000   1.0000   1.0000   1.0000   1.0000
     1.0000   1.0000   1.0000   1.0000   1.0000   1.0000   1.0000   1.0000
     1.0031   1.0794   0.7925   0.7000   0.5499   0.0000   0.0000   0.0000
     0.0000   0.0000   0.0000   0.0000   0.0000   0.0000   0.0000   0.0000

          k =-1.0446-0.6031 0.1278 (  5443 PWs)   bands (ev):

   -87.7877 -51.1018 -51.0570 -51.0543 -42.9406 -42.9357 -40.8265 -40.8258
   -40.8248 -40.8245 -40.7940 -40.7938 -40.7924 -40.7916 -40.7776 -40.7775
   -14.9480 -14.9148 -14.8614 -14.8543 -14.8516 -14.8236  -7.9108  -6.3724
    -5.5979   1.4762   2.3333   3.5048   3.8835   4.8711   5.0442   5.6204
     5.8264   6.2501   6.2683   6.5197   6.7136   8.2470   8.8289  11.7546
    12.9456  13.3302  14.1155  14.7523  15.7670  16.3402  18.4060  18.6970

     occupation numbers 
     1.0000   1.0000   1.0000   1.0000   1.0000   1.0000   1.0000   1.0000
     1.0000   1.0000   1.0000   1.0000   1.0000   1.0000   1.0000   1.0000
     1.0000   1.0000   1.0000   1.0000   1.0000   1.0000   1.0000   1.0000
     1.0000   1.0000   1.0000   1.0000   1.0000   1.0000   1.0000   1.0000
     1.0000   1.0240   1.0286   1.0741   0.7813   0.0000   0.0000   0.0000
     0.0000   0.0000   0.0000   0.0000   0.0000   0.0000   0.0000   0.0000

          k = 1.3928 0.8041-0.1704 (  5448 PWs)   bands (ev):

   -87.7877 -51.1018 -51.0577 -51.0545 -42.9393 -42.9360 -40.8267 -40.8257
   -40.8245 -40.8245 -40.7942 -40.7937 -40.7923 -40.7916 -40.7774 -40.7774
   -14.9466 -14.9250 -14.8598 -14.8595 -14.8574 -14.8245  -7.8802  -5.9418
    -5.6576   0.9585   2.1347   3.8689   3.8924   4.6739   4.8517   5.4924
     5.7439   6.0520   6.1749   6.4470   6.6806   8.5013   8.8336  11.5603
    12.6157  13.3425  13.8436  14.6043  15.5158  16.1269  18.5381  18.8300

     occupation numbers 
     1.0000   1.0000   1.0000   1.0000   1.0000   1.0000   1.0000   1.0000
     1.0000   1.0000   1.0000   1.0000   1.0000   1.0000   1.0000   1.0000
     1.0000   1.0000   1.0000   1.0000   1.0000   1.0000   1.0000   1.0000
     1.0000   1.0000   1.0000   1.0000   1.0000   1.0000   1.0000   1.0000
     1.0000   1.0018   1.0104   1.0817   0.8605   0.0000   0.0000   0.0000
     0.0000   0.0000   0.0000   0.0000   0.0000   0.0000   0.0000   0.0000

          k =-0.3482 0.2010 0.0852 (  5417 PWs)   bands (ev):

   -87.7878 -51.1021 -51.0539 -51.0535 -42.9450 -42.9357 -40.8263 -40.8260
   -40.8260 -40.8257 -40.7940 -40.7940 -40.7916 -40.7913 -40.7783 -40.7781
   -14.9653 -14.8688 -14.8398 -14.8385 -14.8278 -14.8197  -8.0648  -7.4850
    -5.9424   1.9936   3.2373   3.7001   5.1457   5.3025   5.4478   5.9639
     6.6002   6.7641   6.8635   6.8727   7.0271   8.3570   9.0099  11.5477
    13.2327  14.1110  14.6443  14.9077  15.7739  16.6777  17.4441  17.8968

     occupation numbers 
     1.0000   1.0000   1.0000   1.0000   1.0000   1.0000   1.0000   1.0000
     1.0000   1.0000   1.0000   1.0000   1.0000   1.0000   1.0000   1.0000
     1.0000   1.0000   1.0000   1.0000   1.0000   1.0000   1.0000   1.0000
     1.0000   1.0000   1.0000   1.0000   1.0000   1.0000   1.0000   1.0004
     1.0060   0.6468   0.3802   0.3578   0.0957   0.0000   0.0000   0.0000
     0.0000   0.0000   0.0000   0.0000   0.0000   0.0000   0.0000   0.0000

          k =-0.6964 0.0000 0.1278 (  5433 PWs)   bands (ev):

   -87.7878 -51.1020 -51.0549 -51.0539 -42.9436 -42.9356 -40.8261 -40.8261
   -40.8257 -40.8254 -40.7940 -40.7937 -40.7920 -40.7914 -40.7780 -40.7779
   -14.9582 -14.8803 -14.8559 -14.8423 -14.8337 -14.8232  -8.0085  -7.1630
    -5.8001   2.2980   2.7544   3.7179   4.1885   4.8958   5.6523   5.8968
     6.2372   6.5337   6.6961   6.7882   6.9421   8.1597   8.3852  12.2900
    13.7799  14.1194  14.3371  15.6897  15.7448  16.5113  16.8252  17.6808

     occupation numbers 
     1.0000   1.0000   1.0000   1.0000   1.0000   1.0000   1.0000   1.0000
     1.0000   1.0000   1.0000   1.0000   1.0000   1.0000   1.0000   1.0000
     1.0000   1.0000   1.0000   1.0000   1.0000   1.0000   1.0000   1.0000
     1.0000   1.0000   1.0000   1.0000   1.0000   1.0000   1.0000   1.0001
     1.0210   1.0674   0.8244   0.5801   0.2125   0.0000   0.0000   0.0000
     0.0000   0.0000   0.0000   0.0000   0.0000   0.0000   0.0000   0.0000

          k =-1.0446-0.2010 0.1704 (  5441 PWs)   bands (ev):

   -87.7877 -51.1019 -51.0563 -51.0544 -42.9413 -42.9356 -40.8262 -40.8258
   -40.8251 -40.8249 -40.7941 -40.7935 -40.7925 -40.7915 -40.7777 -40.7776
   -14.9489 -14.9006 -14.8731 -14.8470 -14.8434 -14.8272  -7.9329  -6.5998
    -5.6172   2.0764   2.4584   3.3381   3.7137   4.4292   5.4284   5.8163
     5.9913   6.1955   6.3930   6.6426   6.8081   7.9369   8.4438  12.7745
    13.1511  13.7605  14.8721  15.0505  15.8340  16.2981  17.0063  17.7837

     occupation numbers 
     1.0000   1.0000   1.0000   1.0000   1.0000   1.0000   1.0000   1.0000
     1.0000   1.0000   1.0000   1.0000   1.0000   1.0000   1.0000   1.0000
     1.0000   1.0000   1.0000   1.0000   1.0000   1.0000   1.0000   1.0000
     1.0000   1.0000   1.0000   1.0000   1.0000   1.0000   1.0000   1.0000
     1.0007   1.0133   1.0688   0.9387   0.5252   0.0000   0.0000   0.0000
     0.0000   0.0000   0.0000   0.0000   0.0000   0.0000   0.0000   0.0000

          k = 1.3928 1.2062-0.1278 (  5441 PWs)   bands (ev):

   -87.7877 -51.1018 -51.0573 -51.0548 -42.9393 -42.9360 -40.8264 -40.8256
   -40.8247 -40.8246 -40.7944 -40.7935 -40.7925 -40.7915 -40.7774 -40.7774
   -14.9426 -14.9197 -14.8764 -14.8558 -14.8486 -14.8294  -7.8807  -6.0195
    -5.5841   1.2444   2.2182   3.5599   3.8483   4.2197   4.7648   5.6154
     5.9440   6.0980   6.2713   6.5378   6.5779   8.1894   8.4913  12.1638
    13.3155  13.7976  14.2305  14.8022  15.1562  16.1296  17.8815  18.7707

     occupation numbers 
     1.0000   1.0000   1.0000   1.0000   1.0000   1.0000   1.0000   1.0000
     1.0000   1.0000   1.0000   1.0000   1.0000   1.0000   1.0000   1.0000
     1.0000   1.0000   1.0000   1.0000   1.0000   1.0000   1.0000   1.0000
     1.0000   1.0000   1.0000   1.0000   1.0000   1.0000   1.0000   1.0000
     1.0003   1.0037   1.0294   1.0651   1.0325   0.0000   0.0000   0.0000
     0.0000   0.0000   0.0000   0.0000   0.0000   0.0000   0.0000   0.0000

          k = 1.0446 1.0052-0.0852 (  5433 PWs)   bands (ev):

   -87.7877 -51.1017 -51.0573 -51.0548 -42.9392 -42.9360 -40.8263 -40.8256
   -40.8247 -40.8245 -40.7944 -40.7934 -40.7925 -40.7915 -40.7774 -40.7773
   -14.9425 -14.9196 -14.8764 -14.8557 -14.8486 -14.8294  -7.8807  -6.0195
    -5.5841   1.2443   2.2169   3.5591   3.8452   4.2218   4.7755   5.6137
     5.9441   6.1000   6.2795   6.5376   6.5668   8.1825   8.4773  12.1740
    13.3495  13.8842  14.2161  14.9015  14.9535  16.0715  17.8728  18.9661

     occupation numbers 
     1.0000   1.0000   1.0000   1.0000   1.0000   1.0000   1.0000   1.0000
     1.0000   1.0000   1.0000   1.0000   1.0000   1.0000   1.0000   1.0000
     1.0000   1.0000   1.0000   1.0000   1.0000   1.0000   1.0000   1.0000
     1.0000   1.0000   1.0000   1.0000   1.0000   1.0000   1.0000   1.0000
     1.0003   1.0038   1.0317   1.0652   1.0434   0.0000   0.0000   0.0000
     0.0000   0.0000   0.0000   0.0000   0.0000   0.0000   0.0000   0.0000

          k = 0.6964 0.8041-0.0426 (  5444 PWs)   bands (ev):

   -87.7877 -51.1019 -51.0564 -51.0544 -42.9413 -42.9356 -40.8263 -40.8258
   -40.8251 -40.8249 -40.7941 -40.7936 -40.7925 -40.7915 -40.7776 -40.7776
   -14.9489 -14.9006 -14.8731 -14.8470 -14.8434 -14.8272  -7.9329  -6.5995
    -5.6174   2.0747   2.4570   3.3407   3.7147   4.4298   5.4563   5.8074
     5.9752   6.2020   6.3885   6.6431   6.7908   7.9470   8.4353  12.6805
    13.3755  13.7076  14.8515  15.0546  15.8128  16.2389  17.0683  17.6446

     occupation numbers 
     1.0000   1.0000   1.0000   1.0000   1.0000   1.0000   1.0000   1.0000
     1.0000   1.0000   1.0000   1.0000   1.0000   1.0000   1.0000   1.0000
     1.0000   1.0000   1.0000   1.0000   1.0000   1.0000   1.0000   1.0000
     1.0000   1.0000   1.0000   1.0000   1.0000   1.0000   1.0000   1.0000
     1.0005   1.0143   1.0674   0.9378   0.5730   0.0000   0.0000   0.0000
     0.0000   0.0000   0.0000   0.0000   0.0000   0.0000   0.0000   0.0000

          k = 0.3482 0.6031 0.0000 (  5418 PWs)   bands (ev):

   -87.7878 -51.1020 -51.0549 -51.0538 -42.9435 -42.9356 -40.8261 -40.8261
   -40.8257 -40.8253 -40.7940 -40.7937 -40.7920 -40.7914 -40.7780 -40.7778
   -14.9582 -14.8802 -14.8559 -14.8422 -14.8337 -14.8230  -8.0087  -7.1624
    -5.8005   2.3014   2.7522   3.7181   4.1901   4.8959   5.6287   5.8969
     6.2523   6.5370   6.6876   6.7862   6.9576   8.1726   8.3742  12.2611
    13.8043  14.1108  14.3370  15.7116  15.7324  16.6551  16.7662  17.6709

     occupation numbers 
     1.0000   1.0000   1.0000   1.0000   1.0000   1.0000   1.0000   1.0000
     1.0000   1.0000   1.0000   1.0000   1.0000   1.0000   1.0000   1.0000
     1.0000   1.0000   1.0000   1.0000   1.0000   1.0000   1.0000   1.0000
     1.0000   1.0000   1.0000   1.0000   1.0000   1.0000   1.0000   1.0001
     1.0245   1.0656   0.8445   0.5856   0.1862   0.0000   0.0000   0.0000
     0.0000   0.0000   0.0000   0.0000   0.0000   0.0000   0.0000   0.0000

          k =-0.6964 0.4021 0.1704 (  5423 PWs)   bands (ev):

   -87.7878 -51.1020 -51.0554 -51.0539 -42.9429 -42.9355 -40.8262 -40.8261
   -40.8255 -40.8251 -40.7939 -40.7938 -40.7921 -40.7914 -40.7779 -40.7778
   -14.9555 -14.8894 -14.8527 -14.8467 -14.8414 -14.8212  -7.9859  -7.0116
    -5.7442   2.3669   2.5224   3.6899   3.8070   5.0782   5.7359   5.7594
     6.1093   6.3861   6.6256   6.7124   6.7956   7.9124   8.8516  12.0555
    13.0541  13.9669  14.4640  15.7106  16.3569  16.6861  16.9322  17.5858

     occupation numbers 
     1.0000   1.0000   1.0000   1.0000   1.0000   1.0000   1.0000   1.0000
     1.0000   1.0000   1.0000   1.0000   1.0000   1.0000   1.0000   1.0000
     1.0000   1.0000   1.0000   1.0000   1.0000   1.0000   1.0000   1.0000
     1.0000   1.0000   1.0000   1.0000   1.0000   1.0000   1.0000   1.0000
     1.0044   1.0666   0.9683   0.7843   0.5598   0.0000   0.0000   0.0000
     0.0000   0.0000   0.0000   0.0000   0.0000   0.0000   0.0000   0.0000

          k =-1.0446 0.2010 0.2130 (  5436 PWs)   bands (ev):

   -87.7877 -51.1019 -51.0563 -51.0544 -42.9413 -42.9356 -40.8262 -40.8258
   -40.8251 -40.8248 -40.7941 -40.7936 -40.7924 -40.7915 -40.7777 -40.7776
   -14.9489 -14.9006 -14.8730 -14.8469 -14.8433 -14.8272  -7.9329  -6.5998
    -5.6172   2.0764   2.4566   3.3364   3.7144   4.4281   5.4580   5.8536
     5.9220   6.2295   6.4341   6.6413   6.6937   8.0221   8.4170  12.3583
    13.6125  14.0011  14.7911  15.0502  15.5927  16.2843  16.9708  17.7089

     occupation numbers 
     1.0000   1.0000   1.0000   1.0000   1.0000   1.0000   1.0000   1.0000
     1.0000   1.0000   1.0000   1.0000   1.0000   1.0000   1.0000   1.0000
     1.0000   1.0000   1.0000   1.0000   1.0000   1.0000   1.0000   1.0000
     1.0000   1.0000   1.0000   1.0000   1.0000   1.0000   1.0000   1.0000
     1.0002   1.0194   1.0795   0.9411   0.8301   0.0000   0.0000   0.0000
     0.0000   0.0000   0.0000   0.0000   0.0000   0.0000   0.0000   0.0000

          k = 1.3928 1.6083-0.0852 (  5428 PWs)   bands (ev):

   -87.7877 -51.1018 -51.0568 -51.0552 -42.9392 -42.9360 -40.8260 -40.8254
   -40.8249 -40.8247 -40.7945 -40.7932 -40.7927 -40.7914 -40.7774 -40.7773
   -14.9391 -14.9062 -14.8951 -14.8500 -14.8446 -14.8372  -7.8811  -6.0765
    -5.5315   1.8214   2.1054   3.0227   3.8416   3.9142   4.8495   5.7595
     6.0379   6.1231   6.3476   6.3714   6.6533   7.7476   8.4091  12.8630
    13.0895  14.4886  15.2391  15.3925  15.7270  16.0222  17.1512  17.3608

     occupation numbers 
     1.0000   1.0000   1.0000   1.0000   1.0000   1.0000   1.0000   1.0000
     1.0000   1.0000   1.0000   1.0000   1.0000   1.0000   1.0000   1.0000
     1.0000   1.0000   1.0000   1.0000   1.0000   1.0000   1.0000   1.0000
     1.0000   1.0000   1.0000   1.0000   1.0000   1.0000   1.0000   1.0000
     1.0015   1.0053   1.0536   1.0618   0.9183   0.0000   0.0000   0.0000
     0.0000   0.0000   0.0000   0.0000   0.0000   0.0000   0.0000   0.0000

          k = 1.0446 1.4072-0.0426 (  5436 PWs)   bands (ev):

   -87.7876 -51.1017 -51.0569 -51.0558 -42.9380 -42.9366 -40.8258 -40.8253
   -40.8250 -40.8246 -40.7948 -40.7932 -40.7928 -40.7913 -40.7773 -40.7773
   -14.9286 -14.9172 -14.9000 -14.8527 -14.8462 -14.8411  -7.8600  -5.7410
    -5.5865   1.5237   2.2743   2.5801   3.7691   4.2780   4.3383   5.7823
     5.8668   6.1742   6.3364   6.3479   6.5695   7.8415   8.2064  12.6916
    13.7323  13.8954  15.0835  15.4683  15.6881  16.1884  17.1119  18.3273

     occupation numbers 
     1.0000   1.0000   1.0000   1.0000   1.0000   1.0000   1.0000   1.0000
     1.0000   1.0000   1.0000   1.0000   1.0000   1.0000   1.0000   1.0000
     1.0000   1.0000   1.0000   1.0000   1.0000   1.0000   1.0000   1.0000
     1.0000   1.0000   1.0000   1.0000   1.0000   1.0000   1.0000   1.0000
     1.0001   1.0103   1.0497   1.0537   1.0409   0.0000   0.0000   0.0000
     0.0000   0.0000   0.0000   0.0000   0.0000   0.0000   0.0000   0.0000

          k = 0.6964 1.2062 0.0000 (  5430 PWs)   bands (ev):

   -87.7877 -51.1018 -51.0568 -51.0552 -42.9393 -42.9360 -40.8259 -40.8254
   -40.8250 -40.8246 -40.7945 -40.7932 -40.7927 -40.7914 -40.7774 -40.7773
   -14.9391 -14.9062 -14.8951 -14.8500 -14.8446 -14.8373  -7.8811  -6.0764
    -5.5315   1.8224   2.1031   3.0197   3.8420   3.9178   4.8513   5.7550
     6.0488   6.1429   6.3016   6.3801   6.7108   7.6827   8.3909  12.9764
    13.2064  14.5018  14.9850  15.3956  15.6951  15.8623  17.1834  17.4626

[...]

     occupation numbers 
     1.0000   1.0000   1.0000   1.0000   1.0000   1.0000   1.0000   1.0000
     1.0000   1.0000   1.0000   1.0000   1.0000   1.0000   1.0000   1.0000
     1.0000   1.0000   1.0000   1.0000   1.0000   1.0000   1.0000   1.0000
     1.0000   1.0000   1.0000   1.0000   1.0000   1.0000   1.0000   1.0000
     1.0002   1.0034   1.0435   1.0690   1.0567   0.0000   0.0000   0.0000
     0.0000   0.0000   0.0000   0.0000   0.0000   0.0000   0.0000   0.0000

          k = 2.0892-1.2062-0.2555 (  5425 PWs)   bands (ev):

   -87.7906 -51.1048 -51.0582 -51.0567 -42.9429 -42.9355 -40.8262 -40.8261
   -40.8254 -40.8251 -40.7939 -40.7938 -40.7921 -40.7914 -40.7780 -40.7777
   -14.9555 -14.8894 -14.8527 -14.8466 -14.8415 -14.8213  -7.9851  -7.0137
    -5.7426   2.3627   2.5251   3.6786   3.8058   5.0767   5.7076   5.8138
     6.1400   6.3027   6.7018   6.7076   6.8068   7.8430   8.8483  12.1575
    13.0092  13.8099  14.7614  15.4399  16.1933  16.7070  16.8207  17.9793

     occupation numbers 
     1.0000   1.0000   1.0000   1.0000   1.0000   1.0000   1.0000   1.0000
     1.0000   1.0000   1.0000   1.0000   1.0000   1.0000   1.0000   1.0000
     1.0000   1.0000   1.0000   1.0000   1.0000   1.0000   1.0000   1.0000
     1.0000   1.0000   1.0000   1.0000   1.0000   1.0000   1.0000   1.0000
     1.0067   1.0386   0.8106   0.7963   0.5290   0.0000   0.0000   0.0000
     0.0000   0.0000   0.0000   0.0000   0.0000   0.0000   0.0000   0.0000

          k = 1.7410-1.4072-0.2130 (  5431 PWs)   bands (ev):

   -87.7906 -51.1047 -51.0591 -51.0572 -42.9413 -42.9356 -40.8262 -40.8258
   -40.8251 -40.8248 -40.7941 -40.7935 -40.7924 -40.7914 -40.7777 -40.7775
   -14.9488 -14.9006 -14.8730 -14.8469 -14.8433 -14.8272  -7.9327  -6.6005
    -5.6166   2.0802   2.4589   3.3286   3.7113   4.4251   5.4080   5.8727
     5.9411   6.2231   6.4700   6.6475   6.6724   8.0343   8.4244  12.2989
    13.4795  14.0599  14.8429  15.0889  15.5582  16.3934  16.8458  17.9853

     occupation numbers 
     1.0000   1.0000   1.0000   1.0000   1.0000   1.0000   1.0000   1.0000
     1.0000   1.0000   1.0000   1.0000   1.0000   1.0000   1.0000   1.0000
     1.0000   1.0000   1.0000   1.0000   1.0000   1.0000   1.0000   1.0000
     1.0000   1.0000   1.0000   1.0000   1.0000   1.0000   1.0000   1.0001
     1.0003   1.0181   1.0833   0.9295   0.8787   0.0000   0.0000   0.0000
     0.0000   0.0000   0.0000   0.0000   0.0000   0.0000   0.0000   0.0000

          k = 1.3928-1.6083-0.1704 (  5450 PWs)   bands (ev):

   -87.7905 -51.1047 -51.0597 -51.0580 -42.9393 -42.9360 -40.8260 -40.8254
   -40.8250 -40.8247 -40.7946 -40.7933 -40.7928 -40.7914 -40.7774 -40.7774
   -14.9391 -14.9064 -14.8951 -14.8502 -14.8446 -14.8373  -7.8812  -6.0766
    -5.5315   1.8201   2.1075   3.0252   3.8416   3.9086   4.8471   5.7649
     6.0222   6.1090   6.3625   6.4004   6.5842   7.8081   8.4259  12.7020
    13.0690  14.4376  15.3746  15.3958  16.0380  16.0562  17.1074  17.3090

     occupation numbers 
     1.0000   1.0000   1.0000   1.0000   1.0000   1.0000   1.0000   1.0000
     1.0000   1.0000   1.0000   1.0000   1.0000   1.0000   1.0000   1.0000
     1.0000   1.0000   1.0000   1.0000   1.0000   1.0000   1.0000   1.0000
     1.0000   1.0000   1.0000   1.0000   1.0000   1.0000   1.0000   1.0000
     1.0011   1.0043   1.0587   1.0711   1.0256   0.0000   0.0000   0.0000
     0.0000   0.0000   0.0000   0.0000   0.0000   0.0000   0.0000   0.0000

          k = 1.7410-1.0052-0.1704 (  5437 PWs)   bands (ev):

   -87.7905 -51.1047 -51.0598 -51.0571 -42.9405 -42.9357 -40.8264 -40.8259
   -40.8248 -40.8246 -40.7939 -40.7938 -40.7924 -40.7915 -40.7776 -40.7774
   -14.9479 -14.9148 -14.8613 -14.8544 -14.8516 -14.8235  -7.9108  -6.3727
    -5.5977   1.4801   2.3303   3.5045   3.8823   4.8702   4.9892   5.6517
     5.8172   6.2603   6.2652   6.5624   6.7169   8.2601   8.8246  11.5184
    12.9929  13.2518  14.6026  14.7598  15.7751  16.3779  17.8981  18.3707

     occupation numbers 
     1.0000   1.0000   1.0000   1.0000   1.0000   1.0000   1.0000   1.0000
     1.0000   1.0000   1.0000   1.0000   1.0000   1.0000   1.0000   1.0000
     1.0000   1.0000   1.0000   1.0000   1.0000   1.0000   1.0000   1.0000
     1.0000   1.0000   1.0000   1.0000   1.0000   1.0000   1.0000   1.0000
     1.0000   1.0265   1.0278   1.0473   0.7731   0.0000   0.0000   0.0000
     0.0000   0.0000   0.0000   0.0000   0.0000   0.0000   0.0000   0.0000

          k = 0.0000 0.0000 0.3833 (  5432 PWs)   bands (ev):

   -87.7907 -51.1050 -51.0561 -51.0561 -42.9459 -42.9359 -40.8265 -40.8265
   -40.8260 -40.8260 -40.7940 -40.7940 -40.7912 -40.7912 -40.7786 -40.7783
   -14.9696 -14.8627 -14.8347 -14.8347 -14.8196 -14.8196  -8.0926  -7.6645
    -6.0203   1.7832   3.6527   3.6527   5.3431   5.6541   5.6541   5.9266
     6.5442   6.9121   6.9121   7.0711   7.0711   9.1638   9.1638  11.6093
    12.4370  12.8918  15.0212  15.1221  15.1221  16.6390  17.7180  17.7180

     occupation numbers 
     1.0000   1.0000   1.0000   1.0000   1.0000   1.0000   1.0000   1.0000
     1.0000   1.0000   1.0000   1.0000   1.0000   1.0000   1.0000   1.0000
     1.0000   1.0000   1.0000   1.0000   1.0000   1.0000   1.0000   1.0000
     1.0000   1.0000   1.0000   1.0000   1.0000   1.0000   1.0000   1.0002
     1.0611   0.2701   0.2701   0.0589   0.0589   0.0000   0.0000   0.0000
     0.0000   0.0000   0.0000   0.0000   0.0000   0.0000   0.0000   0.0000

          k = 2.4374 1.4072 0.0852 (  5413 PWs)   bands (ev):

   -87.7907 -51.1050 -51.0567 -51.0563 -42.9450 -42.9357 -40.8263 -40.8260
   -40.8260 -40.8257 -40.7940 -40.7939 -40.7916 -40.7913 -40.7783 -40.7781
   -14.9653 -14.8688 -14.8398 -14.8385 -14.8278 -14.8197  -8.0603  -7.4930
    -5.9378   1.9606   3.2508   3.6988   5.1423   5.4458   5.6698   5.9088
     6.1602   6.7386   6.8710   6.9595   7.0297   8.3333   9.0073  12.0790
    13.1643  13.3599  14.6500  15.6542  15.7746  16.0743  16.9373  18.0015

     occupation numbers 
     1.0000   1.0000   1.0000   1.0000   1.0000   1.0000   1.0000   1.0000
     1.0000   1.0000   1.0000   1.0000   1.0000   1.0000   1.0000   1.0000
     1.0000   1.0000   1.0000   1.0000   1.0000   1.0000   1.0000   1.0000
     1.0000   1.0000   1.0000   1.0000   1.0000   1.0000   1.0000   1.0001
     1.0087   0.7162   0.3621   0.1832   0.0931   0.0000   0.0000   0.0000
     0.0000   0.0000   0.0000   0.0000   0.0000   0.0000   0.0000   0.0000

          k = 2.0892 1.2062 0.1278 (  5429 PWs)   bands (ev):

   -87.7906 -51.1049 -51.0582 -51.0567 -42.9429 -42.9355 -40.8262 -40.8261
   -40.8255 -40.8251 -40.7939 -40.7938 -40.7920 -40.7914 -40.7780 -40.7778
   -14.9555 -14.8894 -14.8526 -14.8467 -14.8415 -14.8213  -7.9850  -7.0140
    -5.7424   2.3665   2.5218   3.6787   3.8058   5.0765   5.6743   5.8120
     6.1156   6.3415   6.6989   6.7792   6.8102   7.7793   8.8478  12.3213
    12.9181  13.6180  14.7992  15.5366  16.1759  16.7103  16.8098  18.1855

     occupation numbers 
     1.0000   1.0000   1.0000   1.0000   1.0000   1.0000   1.0000   1.0000
     1.0000   1.0000   1.0000   1.0000   1.0000   1.0000   1.0000   1.0000
     1.0000   1.0000   1.0000   1.0000   1.0000   1.0000   1.0000   1.0000
     1.0000   1.0000   1.0000   1.0000   1.0000   1.0000   1.0000   1.0000
     1.0048   1.0515   0.8178   0.6049   0.5196   0.0000   0.0000   0.0000
     0.0000   0.0000   0.0000   0.0000   0.0000   0.0000   0.0000   0.0000

          k = 2.4374-1.4072-0.2130 (  5420 PWs)   bands (ev):

   -87.7907 -51.1050 -51.0567 -51.0563 -42.9450 -42.9358 -40.8263 -40.8261
   -40.8260 -40.8257 -40.7940 -40.7939 -40.7916 -40.7913 -40.7783 -40.7781
   -14.9653 -14.8689 -14.8398 -14.8386 -14.8278 -14.8197  -8.0600  -7.4934
    -5.9375   1.9587   3.2512   3.6988   5.1424   5.4459   5.7576   5.8521
     6.1262   6.7319   6.8759   6.9580   7.0240   8.3450   9.0084  12.0957
    13.0826  13.4366  14.6866  15.5174  15.7707  16.1837  16.9080  18.0041

     occupation numbers 
     1.0000   1.0000   1.0000   1.0000   1.0000   1.0000   1.0000   1.0000
     1.0000   1.0000   1.0000   1.0000   1.0000   1.0000   1.0000   1.0000
     1.0000   1.0000   1.0000   1.0000   1.0000   1.0000   1.0000   1.0000
     1.0000   1.0000   1.0000   1.0000   1.0000   1.0000   1.0000   1.0000
     1.0055   0.7340   0.3503   0.1855   0.0988   0.0000   0.0000   0.0000
     0.0000   0.0000   0.0000   0.0000   0.0000   0.0000   0.0000   0.0000

          k = 2.0892-1.6083-0.1704 (  5428 PWs)   bands (ev):

   -87.7906 -51.1049 -51.0577 -51.0566 -42.9436 -42.9356 -40.8262 -40.8261
   -40.8257 -40.8253 -40.7940 -40.7938 -40.7919 -40.7914 -40.7781 -40.7779
   -14.9582 -14.8803 -14.8559 -14.8422 -14.8337 -14.8231  -8.0069  -7.1667
    -5.7974   2.2785   2.7660   3.7153   4.1793   4.8935   5.8514   5.8852
     6.0940   6.5183   6.7767   6.7857   6.8295   8.1032   8.4287  12.4869
    13.6140  14.1581  14.3388  15.5947  15.8039  16.0822  16.8550  17.7715

     occupation numbers 
     1.0000   1.0000   1.0000   1.0000   1.0000   1.0000   1.0000   1.0000
     1.0000   1.0000   1.0000   1.0000   1.0000   1.0000   1.0000   1.0000
     1.0000   1.0000   1.0000   1.0000   1.0000   1.0000   1.0000   1.0000
     1.0000   1.0000   1.0000   1.0000   1.0000   1.0000   1.0000   1.0001
     1.0035   1.0746   0.6121   0.5870   0.4675   0.0000   0.0000   0.0000
     0.0000   0.0000   0.0000   0.0000   0.0000   0.0000   0.0000   0.0000

          k = 0.0000 0.0000-0.5111 (  5438 PWs)   bands (ev):

   -87.7907 -51.1050 -51.0562 -51.0562 -42.9458 -42.9359 -40.8265 -40.8265
   -40.8260 -40.8260 -40.7940 -40.7940 -40.7913 -40.7913 -40.7786 -40.7782
   -14.9697 -14.8625 -14.8349 -14.8349 -14.8196 -14.8196  -8.0912  -7.6667
    -6.0193   1.7768   3.6527   3.6527   5.5018   5.6541   5.6541   5.7728
     6.5224   6.9145   6.9145   7.0684   7.0684   9.1642   9.1642  11.7780
    12.5590  12.5777  15.0962  15.1208  15.1208  16.5594  17.7185  17.7185

     occupation numbers 
     1.0000   1.0000   1.0000   1.0000   1.0000   1.0000   1.0000   1.0000
     1.0000   1.0000   1.0000   1.0000   1.0000   1.0000   1.0000   1.0000
     1.0000   1.0000   1.0000   1.0000   1.0000   1.0000   1.0000   1.0000
     1.0000   1.0000   1.0000   1.0000   1.0000   1.0000   1.0000   1.0000
     1.0730   0.2651   0.2651   0.0608   0.0608   0.0000   0.0000   0.0000
     0.0000   0.0000   0.0000   0.0000   0.0000   0.0000   0.0000   0.0000

     the Fermi energy is     6.8553 ev

!    total energy              =   -1440.65457806 Ry
     total all-electron energy =    -13307.662617 Ry
     estimated scf accuracy    <       0.00000008 Ry
     smearing contrib. (-TS)   =       0.00485054 Ry
     internal energy E=F+TS    =   -1440.65942860 Ry

     The total energy is F=E-TS. E is the sum of the following terms:
     one-electron contribution =    -957.38339529 Ry
     hartree contribution      =     502.30566709 Ry
     xc contribution           =    -124.63130761 Ry
     ewald contribution        =    -451.63308185 Ry
     one-center paw contrib.   =    -409.31731094 Ry
      -> PAW hartree energy AE =     812.06907911 Ry
      -> PAW hartree energy PS =    -800.18808159 Ry
      -> PAW xc energy AE      =    -540.46266595 Ry
      -> PAW xc energy PS      =     119.26435748 Ry
      -> total E_H with PAW    =     514.18666462 Ry
      -> total E_XC with PAW   =    -545.82961608 Ry

     total magnetization       =    -0.00 Bohr mag/cell
     absolute magnetization    =     0.00 Bohr mag/cell

     convergence has been achieved in  40 iterations

     Forces acting on atoms (cartesian axes, Ry/au):

     atom    1 type  2   force =     0.00000000    0.00000000    0.00000000
     atom    2 type  4   force =     0.00000000    0.00000000    0.00000000
     atom    3 type  3   force =     0.00000000   -0.00000000    0.01577612
     atom    4 type  3   force =    -0.00000000   -0.00000000   -0.01577612
     atom    5 type  1   force =    -0.00000000    0.00000000    0.01645812
     atom    6 type  1   force =     0.00000000   -0.00000000   -0.01645812
     The non-local contrib.  to forces
     atom    1 type  2   force =     0.00000000   -0.00000000    0.00000000
     atom    2 type  4   force =    -0.00000000   -0.00000000   -0.00000000
     atom    3 type  3   force =    -0.00000000   -0.00000000    0.49127680
     atom    4 type  3   force =     0.00000000    0.00000000   -0.49127680
     atom    5 type  1   force =     0.00000000   -0.00000000   -0.41563912
     atom    6 type  1   force =    -0.00000000    0.00000000    0.41563912
     The ionic contribution  to forces
     atom    1 type  2   force =     0.00000000    0.00000000   -0.00000000
     atom    2 type  4   force =    -0.00000000    0.00000000    0.00000000
     atom    3 type  3   force =     0.00000000   -0.00000000  -55.72214895
     atom    4 type  3   force =     0.00000000    0.00000000   55.72214895
     atom    5 type  1   force =     0.00000000    0.00000000   12.57120132
     atom    6 type  1   force =     0.00000000   -0.00000000  -12.57120132
     The local contribution  to forces
     atom    1 type  2   force =     0.00000000   -0.00000000    0.00000000
     atom    2 type  4   force =     0.00000000   -0.00000000    0.00000000
     atom    3 type  3   force =    -0.00000000    0.00000000   55.24847347
     atom    4 type  3   force =    -0.00000000    0.00000000  -55.24847347
     atom    5 type  1   force =     0.00000000    0.00000000  -12.13931395
     atom    6 type  1   force =    -0.00000000    0.00000000   12.13931395
     The core correction contribution to forces
     atom    1 type  2   force =    -0.00000000   -0.00000000    0.00000000
     atom    2 type  4   force =     0.00000000    0.00000000    0.00000000
     atom    3 type  3   force =    -0.00000000   -0.00000000   -0.00199394
     atom    4 type  3   force =    -0.00000000    0.00000000    0.00199394
     atom    5 type  1   force =     0.00000000    0.00000000    0.00019465
     atom    6 type  1   force =    -0.00000000    0.00000000   -0.00019465
     The Hubbard contrib.    to forces
     atom    1 type  2   force =     0.00000000    0.00000000    0.00000000
     atom    2 type  4   force =     0.00000000    0.00000000    0.00000000
     atom    3 type  3   force =     0.00000000    0.00000000    0.00000000
     atom    4 type  3   force =     0.00000000    0.00000000    0.00000000
     atom    5 type  1   force =     0.00000000    0.00000000    0.00000000
     atom    6 type  1   force =     0.00000000    0.00000000    0.00000000
     The SCF correction term to forces
     atom    1 type  2   force =     0.00000000    0.00000000    0.00000000
     atom    2 type  4   force =    -0.00000000   -0.00000000   -0.00000000
     atom    3 type  3   force =    -0.00000000   -0.00000000    0.00016874
     atom    4 type  3   force =     0.00000000    0.00000000   -0.00016874
     atom    5 type  1   force =    -0.00000000    0.00000000    0.00001522
     atom    6 type  1   force =     0.00000000   -0.00000000   -0.00001522

     Total force =     0.032241     Total SCF correction =     0.000240

     Writing all to output data dir ./out/pw.save/ :
     XML data file, charge density, pseudopotentials, collected wavefunctions
 
     init_run     :     46.12s CPU      8.75s WALL (       1 calls)
     electrons    :    546.90s CPU    253.13s WALL (       1 calls)
     forces       :      3.30s CPU      2.62s WALL (       1 calls)

     Called by init_run:
     wfcinit      :      1.93s CPU      2.17s WALL (       1 calls)
     wfcinit:atom :      0.17s CPU      0.17s WALL (     130 calls)
     wfcinit:wfcr :      1.46s CPU      1.54s WALL (     130 calls)
     potinit      :     43.10s CPU      5.38s WALL (       1 calls)
     hinit0       :      0.90s CPU      0.92s WALL (       1 calls)

     Called by electrons:
     c_bands      :    164.71s CPU    165.18s WALL (      40 calls)
     sum_band     :     32.23s CPU     32.37s WALL (      40 calls)
     v_of_rho     :      1.81s CPU      2.02s WALL (      41 calls)
     v_h          :      0.73s CPU      0.86s WALL (      41 calls)
     v_xc         :      1.10s CPU      1.21s WALL (      42 calls)
     newd         :      1.35s CPU      1.38s WALL (      41 calls)
                                        1.38s GPU  (      41 calls)
     PAW_pot      :    344.24s CPU     47.12s WALL (      41 calls)
     mix_rho      :      1.96s CPU      2.02s WALL (      40 calls)

     Called by c_bands:
     init_us_2    :      5.58s CPU      5.35s WALL (   10660 calls)
     cegterg      :    146.69s CPU    147.30s WALL (    5200 calls)

     Called by sum_band:
     sum_band:wei :      0.22s CPU      0.23s WALL (      40 calls)
                                        0.22s GPU  (      40 calls)
     sum_band:loo :     28.58s CPU     28.66s WALL (      40 calls)
                                       28.66s GPU  (      40 calls)
     sum_band:buf :      2.86s CPU      3.22s WALL (    5200 calls)
                                        3.15s GPU  (    5200 calls)
     sum_band:ini :      2.69s CPU      2.66s WALL (    5200 calls)
                                        2.61s GPU  (    5200 calls)
     sum_band:cal :      1.03s CPU      1.21s WALL (    5200 calls)
                                        0.33s GPU  (    5200 calls)
     sum_band:bec :      1.68s CPU      1.73s WALL (    5200 calls)
                                        1.66s GPU  (    5200 calls)
     addusdens    :      2.40s CPU      2.41s WALL (      40 calls)
                                        2.41s GPU  (      40 calls)
     addusd:skk   :      0.01s CPU      0.01s WALL (     160 calls)
                                        0.01s GPU  (     160 calls)

     Called by *egterg:
     cdiaghg      :     30.15s CPU     30.69s WALL (   18780 calls)
                                       30.45s GPU  (   18780 calls)
     cegterg:over :      4.09s CPU      4.18s WALL (   13580 calls)
     cegterg:upda :      4.33s CPU      4.36s WALL (   13580 calls)
     cegterg:last :      0.73s CPU      0.72s WALL (    8646 calls)
     h_psi        :     99.95s CPU    100.58s WALL (   18910 calls)
                                      100.33s GPU  (   18910 calls)
     s_psi        :      4.10s CPU      4.19s WALL (   18910 calls)
     g_psi        :      0.07s CPU      0.45s WALL (   13580 calls)
                                        0.27s GPU  (   13580 calls)

     Called by h_psi:
     h_psi:calbec :      0.66s CPU      1.28s WALL (   18910 calls)
                                        1.04s GPU  (   18910 calls)
     vloc_psi     :     92.86s CPU     93.36s WALL (   18910 calls)
                                       93.12s GPU  (   18910 calls)
     add_vuspsi   :      3.87s CPU      4.48s WALL (   18910 calls)
                                        4.24s GPU  (   18910 calls)

     General routines
     calbec       :      0.76s CPU      0.79s WALL (   24630 calls)
     fft          :     30.27s CPU      3.38s WALL (    1038 calls)
                                        0.24s GPU  (     956 calls)
     ffts         :     10.61s CPU      1.76s WALL (    1473 calls)
                                        0.10s GPU  (    1391 calls)
     fftw         :      1.75s CPU     81.66s WALL (   96424 calls)
                                       80.50s GPU  (   96424 calls)
     interpolate  :     41.75s CPU      6.38s WALL (      82 calls)
 
     Parallel routines

     PAW routines
     PAW_pot      :    344.24s CPU     47.12s WALL (      41 calls)
     PAW_symme    :      0.08s CPU      0.03s WALL (      81 calls)
 
     PWSCF        :   9m58.44s CPU   4m25.58s WALL

 
   This run was terminated on:   5:52:44  12Jul2026            

=------------------------------------------------------------------------------=
   JOB DONE.
=------------------------------------------------------------------------------=
Warning: ieee_divide_by_zero is signaling
Warning: ieee_inexact is signaling
FORTRAN STOP
