
     Program PWSCF v.7.3.1 starts on 12Jul2026 at  5:35:47 

     This program is part of the open-source Quantum ESPRESSO suite
     for quantum simulation of materials; please cite
         "P. Giannozzi et al., J. Phys.:Condens. Matter 21 395502 (2009);
         "P. Giannozzi et al., J. Phys.:Condens. Matter 29 465901 (2017);
         "P. Giannozzi et al., J. Chem. Phys. 152 154105 (2020);
          URL http://www.quantum-espresso.org", 
     in publications or presentations arising from this work. More details at
     http://www.quantum-espresso.org/quote

     Parallel version (MPI & OpenMP), running on      14 processor cores
     Number of MPI processes:                 1
     Threads/MPI process:                    14

     MPI processes distributed on     1 nodes
     1358814 MiB available memory on the printing compute node when the environment starts
 
     Reading input from pw.in

     Current dimensions of program PWSCF are:
     Max number of different atomic species (ntypx) = 10
     Max number of k-points (npk) =  40000
     Max angular momentum in pseudopotentials (lmaxx) =  4
     file Co.pbe-spn-kjpaw_psl.0.3.1.UPF: wavefunction(s)  3P 3D renormalized
     file O.pbe-n-kjpaw_psl.1.0.0.UPF: wavefunction(s)  2S 2P renormalized
     file K.pbe-spn-kjpaw_psl.1.0.0.UPF: wavefunction(s)  3S renormalized
 
     Subspace diagonalization in iterative solution of the eigenvalue problem:
     a serial algorithm will be used

 
     G-vector sticks info
     --------------------
     sticks:   dense  smooth     PW     G-vecs:    dense   smooth      PW
     Sum        1003     499    151                47935    16953    2771
 
     Using Slab Decomposition
 


     bravais-lattice index     =            4
     lattice parameter (alat)  =       5.4802  a.u.
     unit-cell volume          =     270.3248 (a.u.)^3
     number of atoms/cell      =            4
     number of atomic types    =            3
     number of electrons       =        38.00
     number of Kohn-Sham states=           27
     kinetic-energy cutoff     =      60.0000  Ry
     charge density cutoff     =     480.0000  Ry
     scf convergence threshold =      1.0E-07
     mixing beta               =       0.3000
     number of iterations used =            8  local-TF  mixing
     Exchange-correlation= SLA  PW   PBX  PBC
                           (   1   4   3   4   0   0   0)

     GPU acceleration is ACTIVE.  1 visible GPUs per MPI rank
     GPU-aware MPI enabled


     GPU used by master process:

        Device Number: 0
        Device name: NVIDIA A100-SXM4-80GB
        Compute capability : 80
        Ratio of single to double precision performance  : 2
        Memory Clock Rate (KHz): 1593000
        Memory Bus Width (bits): 5120
        Peak Memory Bandwidth (GB/s): ******

     celldm(1)=   5.480206  celldm(2)=   0.000000  celldm(3)=   1.896552
     celldm(4)=   0.000000  celldm(5)=   0.000000  celldm(6)=   0.000000

     crystal axes: (cart. coord. in units of alat)
               a(1) = (   1.000000   0.000000   0.000000 )  
               a(2) = (  -0.500000   0.866025   0.000000 )  
               a(3) = (   0.000000   0.000000   1.896552 )  

     reciprocal axes: (cart. coord. in units 2 pi/alat)
               b(1) = (  1.000000  0.577350 -0.000000 )  
               b(2) = (  0.000000  1.154701  0.000000 )  
               b(3) = (  0.000000 -0.000000  0.527273 )  


     PseudoPot. # 1 for Co read from file:
     ../../pseudo/Co.pbe-spn-kjpaw_psl.0.3.1.UPF
     MD5 check sum: 3c0a43779828c046024e4f3be63f8e67
     Pseudo is Projector augmented-wave + core cor, Zval = 17.0
     Generated using &quot;atomic&quot; code by A. Dal Corso  v.6.2.2
     Shape of augmentation charge: PSQ
     Using radial grid of 1193 points,  6 beta functions with: 
                l(1) =   0
                l(2) =   0
                l(3) =   1
                l(4) =   1
                l(5) =   2
                l(6) =   2
     Q(r) pseudized with 0 coefficients 


     PseudoPot. # 2 for O  read from file:
     ../../pseudo/O.pbe-n-kjpaw_psl.1.0.0.UPF
     MD5 check sum: e99d9cef9b487d1ca56f5b95ecd0fd7a
     Pseudo is Projector augmented-wave + core cor, Zval =  6.0
     Generated using &quot;atomic&quot; code by A. Dal Corso  v.6.3
     Shape of augmentation charge: PSQ
     Using radial grid of 1095 points,  4 beta functions with: 
                l(1) =   0
                l(2) =   0
                l(3) =   1
                l(4) =   1
     Q(r) pseudized with 0 coefficients 


     PseudoPot. # 3 for K  read from file:
     ../../pseudo/K.pbe-spn-kjpaw_psl.1.0.0.UPF
     MD5 check sum: 34cc42130a09071ebe376fd42eb21491
     Pseudo is Projector augmented-wave + core cor, Zval =  9.0
     Generated using &quot;atomic&quot; code by A. Dal Corso  v.6.2.2
     Shape of augmentation charge: PSQ
     Using radial grid of 1165 points,  6 beta functions with: 
                l(1) =   0
                l(2) =   0
                l(3) =   1
                l(4) =   1
                l(5) =   2
                l(6) =   2
     Q(r) pseudized with 0 coefficients 


     atomic species   valence    mass     pseudopotential
     Co               17.00    58.93300     Co( 1.00)
     O                 6.00    15.99900     O ( 1.00)
     K                 9.00    39.09830     K ( 1.00)

     Starting magnetic structure 
     atomic species   magnetization
     Co              0.300
     O               0.000
     K               0.000

      6 Sym. Ops. (no inversion) found


                                    s                        frac. trans.

      isym =  1     identity                                     

 cryst.   s( 1) = (     1          0          0      )
                  (     0          1          0      )
                  (     0          0          1      )

 cart.    s( 1) = (  1.0000000  0.0000000  0.0000000 )
                  (  0.0000000  1.0000000  0.0000000 )
                  (  0.0000000  0.0000000  1.0000000 )


      isym =  2     120 deg rotation - cryst. axis [0,0,1]       

 cryst.   s( 2) = (     0          1          0      )
                  (    -1         -1          0      )
                  (     0          0          1      )

 cart.    s( 2) = ( -0.5000000 -0.8660254  0.0000000 )
                  (  0.8660254 -0.5000000  0.0000000 )
                  (  0.0000000  0.0000000  1.0000000 )


      isym =  3     120 deg rotation - cryst. axis [0,0,-1]      

 cryst.   s( 3) = (    -1         -1          0      )
                  (     1          0          0      )
                  (     0          0          1      )

 cart.    s( 3) = ( -0.5000000  0.8660254  0.0000000 )
                  ( -0.8660254 -0.5000000  0.0000000 )
                  (  0.0000000  0.0000000  1.0000000 )


      isym =  4     inv. 180 deg rotation - cart. axis [1,0,0]   

 cryst.   s( 4) = (    -1          0          0      )
                  (     1          1          0      )
                  (     0          0          1      )

 cart.    s( 4) = ( -1.0000000  0.0000000  0.0000000 )
                  (  0.0000000  1.0000000  0.0000000 )
                  (  0.0000000  0.0000000  1.0000000 )


      isym =  5     inv. 180 deg rotation - cryst. axis [0,1,0]  

 cryst.   s( 5) = (     1          1          0      )
                  (     0         -1          0      )
                  (     0          0          1      )

 cart.    s( 5) = (  0.5000000  0.8660254  0.0000000 )
                  (  0.8660254 -0.5000000  0.0000000 )
                  (  0.0000000  0.0000000  1.0000000 )


      isym =  6     inv. 180 deg rotation - cryst. axis [1,1,0]  

 cryst.   s( 6) = (     0         -1          0      )
                  (    -1          0          0      )
                  (     0          0          1      )

 cart.    s( 6) = (  0.5000000 -0.8660254  0.0000000 )
                  ( -0.8660254 -0.5000000  0.0000000 )
                  (  0.0000000  0.0000000  1.0000000 )


     point group C_3v (3m)  
     there are  3 classes
     the character table:

       E     2C3   3s_v 
A_1    1.00  1.00  1.00
A_2    1.00  1.00 -1.00
E      2.00 -1.00  0.00

     the symmetry operations in each class and the name of the first element:

     E        1
          identity                                               
     2C3      2    3
          120 deg rotation - cryst. axis [0,0,1]                 
     3s_v     4    5    6
          inv. 180 deg rotation - cart. axis [1,0,0]             

   Cartesian axes

     site n.     atom                  positions (alat units)
         1        Co     tau(   1) = (   0.0000000   0.0000000   0.0000000  )
         2        O      tau(   2) = (  -0.0000000   0.5773503   0.3310345  )
         3        O      tau(   3) = (   0.5000000   0.2886751   1.5655172  )
         4        K      tau(   4) = (   0.0000000   0.0000000   1.0000000  )

   Crystallographic axes

     site n.     atom                  positions (cryst. coord.)
         1        Co     tau(   1) = (  0.0000000  0.0000000  0.0000000  )
         2        O      tau(   2) = (  0.3333333  0.6666667  0.1745455  )
         3        O      tau(   3) = (  0.6666667  0.3333333  0.8254545  )
         4        K      tau(   4) = (  0.0000000  0.0000000  0.5272727  )

     number of k points=    25  Marzari-Vanderbilt smearing, width (Ry)=  0.0200
                       cart. coord. in units 2pi/alat
        k(    1) = (   0.0000000   0.0000000   0.0000000), wk =   0.0052083
        k(    2) = (   0.0000000   0.0000000   0.1757576), wk =   0.0104167
        k(    3) = (   0.0000000   0.1443376   0.0000000), wk =   0.0312500
        k(    4) = (   0.0000000   0.1443376   0.1757576), wk =   0.0312500
        k(    5) = (   0.0000000   0.2886751   0.0000000), wk =   0.0312500
        k(    6) = (   0.0000000   0.2886751   0.1757576), wk =   0.0312500
        k(    7) = (   0.0000000   0.4330127   0.0000000), wk =   0.0312500
        k(    8) = (   0.0000000   0.4330127   0.1757576), wk =   0.0312500
        k(    9) = (   0.0000000  -0.5773503   0.0000000), wk =   0.0156250
        k(   10) = (   0.0000000  -0.5773503   0.1757576), wk =   0.0312500
        k(   11) = (   0.1250000   0.2165064   0.0000000), wk =   0.0312500
        k(   12) = (   0.1250000   0.2165064   0.1757576), wk =   0.0625000
        k(   13) = (   0.1250000   0.3608439   0.0000000), wk =   0.0625000
        k(   14) = (   0.1250000   0.3608439   0.1757576), wk =   0.0625000
        k(   15) = (   0.1250000   0.5051815   0.0000000), wk =   0.0625000
        k(   16) = (   0.1250000   0.5051815   0.1757576), wk =   0.0625000
        k(   17) = (   0.2500000   0.4330127   0.0000000), wk =   0.0312500
        k(   18) = (   0.2500000   0.4330127   0.1757576), wk =   0.0625000
        k(   19) = (   0.2500000   0.5773503   0.0000000), wk =   0.0312500
        k(   20) = (   0.2500000   0.5773503   0.1757576), wk =   0.0625000
        k(   21) = (   0.0000000  -0.1443376   0.1757576), wk =   0.0312500
        k(   22) = (   0.0000000  -0.2886751   0.1757576), wk =   0.0312500
        k(   23) = (   0.0000000  -0.4330127   0.1757576), wk =   0.0312500
        k(   24) = (  -0.1250000  -0.3608439   0.1757576), wk =   0.0625000
        k(   25) = (  -0.1250000  -0.5051815   0.1757576), wk =   0.0625000

                       cryst. coord.
        k(    1) = (   0.0000000   0.0000000   0.0000000), wk =   0.0052083
        k(    2) = (   0.0000000   0.0000000   0.3333333), wk =   0.0104167
        k(    3) = (   0.0000000   0.1250000   0.0000000), wk =   0.0312500
        k(    4) = (   0.0000000   0.1250000   0.3333333), wk =   0.0312500
        k(    5) = (   0.0000000   0.2500000   0.0000000), wk =   0.0312500
        k(    6) = (   0.0000000   0.2500000   0.3333333), wk =   0.0312500
        k(    7) = (   0.0000000   0.3750000   0.0000000), wk =   0.0312500
        k(    8) = (   0.0000000   0.3750000   0.3333333), wk =   0.0312500
        k(    9) = (   0.0000000  -0.5000000   0.0000000), wk =   0.0156250
        k(   10) = (   0.0000000  -0.5000000   0.3333333), wk =   0.0312500
        k(   11) = (   0.1250000   0.1250000   0.0000000), wk =   0.0312500
        k(   12) = (   0.1250000   0.1250000   0.3333333), wk =   0.0625000
        k(   13) = (   0.1250000   0.2500000   0.0000000), wk =   0.0625000
        k(   14) = (   0.1250000   0.2500000   0.3333333), wk =   0.0625000
        k(   15) = (   0.1250000   0.3750000   0.0000000), wk =   0.0625000
        k(   16) = (   0.1250000   0.3750000   0.3333333), wk =   0.0625000
        k(   17) = (   0.2500000   0.2500000   0.0000000), wk =   0.0312500
        k(   18) = (   0.2500000   0.2500000   0.3333333), wk =   0.0625000
        k(   19) = (   0.2500000   0.3750000   0.0000000), wk =   0.0312500
        k(   20) = (   0.2500000   0.3750000   0.3333333), wk =   0.0625000
        k(   21) = (   0.0000000  -0.1250000   0.3333333), wk =   0.0312500
        k(   22) = (   0.0000000  -0.2500000   0.3333333), wk =   0.0312500
        k(   23) = (   0.0000000  -0.3750000   0.3333333), wk =   0.0312500
        k(   24) = (  -0.1250000  -0.2500000   0.3333333), wk =   0.0625000
        k(   25) = (  -0.1250000  -0.3750000   0.3333333), wk =   0.0625000

     Dense  grid:    47935 G-vectors     FFT dimensions: (  40,  40,  75)

     Smooth grid:    16953 G-vectors     FFT dimensions: (  27,  27,  54)

     Dynamical RAM for                 wfc:       0.87 MB

     Dynamical RAM for     wfc (w. buffer):      44.59 MB

     Dynamical RAM for           str. fact:       2.19 MB

     Dynamical RAM for           local pot:       0.00 MB

     Dynamical RAM for          nlocal pot:       1.68 MB

     Dynamical RAM for                qrad:       5.27 MB

     Dynamical RAM for          rho,v,vnew:       9.88 MB

     Dynamical RAM for               rhoin:       3.29 MB

     Dynamical RAM for            rho*nmix:      23.41 MB

     Dynamical RAM for           G-vectors:       2.87 MB

     Dynamical RAM for          h,s,v(r/c):       0.13 MB

     Dynamical RAM for          <psi|beta>:       0.02 MB

     Dynamical RAM for                 psi:       1.75 MB

     Dynamical RAM for                hpsi:       1.75 MB

     Dynamical RAM for                spsi:       1.75 MB

     Dynamical RAM for      wfcinit/wfcrot:       1.77 MB

     Dynamical RAM for           addusdens:     138.24 MB

     Dynamical RAM for          addusforce:     139.72 MB

     Estimated static dynamical RAM per process >      78.20 MB

     Estimated max dynamical RAM per process >     241.33 MB

     Check: negative core charge=   -0.000009
     Generating pointlists ...
     new r_m :   0.2745 (alat units)  1.5045 (a.u.) for type    1
     new r_m :   0.2745 (alat units)  1.5045 (a.u.) for type    2
     new r_m :   0.3334 (alat units)  1.8269 (a.u.) for type    3

     Initial potential from superposition of free atoms

     starting charge      37.9809, renormalised to      38.0000
     Starting wfcs are   26 randomized atomic wfcs +    1 random wfcs
     Checking if some PAW data can be deallocated... 

     total cpu time spent up to now is        3.4 secs

     Self-consistent Calculation
[tb_dev] Currently allocated     6.58E-01 Mbytes, locked:    0 /   6
[tb_pin] Currently allocated     0.00E+00 Mbytes, locked:    0 /   0

     iteration #  1     ecut=    60.00 Ry     beta= 0.30
     Davidson diagonalization with overlap

---- Real-time Memory Report at c_bands before calling an iterative solver
           675 MiB given to the printing process from OS
             0 MiB allocation reported by mallinfo(arena+hblkhd)
       1354034 MiB available memory on the node where the printing process lives
     GPU memory used/free/total (MiB): 926 / 80224 / 81151
------------------
     ethr =  1.00E-02,  avg # of iterations =  9.5

     total cpu time spent up to now is        5.7 secs

     total energy              =    -572.83871122 Ry
     estimated scf accuracy    <       1.53162606 Ry

     total magnetization       =     4.00 Bohr mag/cell
     absolute magnetization    =     4.00 Bohr mag/cell
[tb_dev] Currently allocated     3.05E-05 Mbytes, locked:    0 /   2
[tb_pin] Currently allocated     0.00E+00 Mbytes, locked:    0 /   0

     iteration #  2     ecut=    60.00 Ry     beta= 0.30
     Davidson diagonalization with overlap

---- Real-time Memory Report at c_bands before calling an iterative solver
           718 MiB given to the printing process from OS
             0 MiB allocation reported by mallinfo(arena+hblkhd)
       1351061 MiB available memory on the node where the printing process lives
     GPU memory used/free/total (MiB): 938 / 80212 / 81151
------------------
     ethr =  4.03E-03,  avg # of iterations =  1.9

     total cpu time spent up to now is        7.0 secs

     total energy              =    -572.76288593 Ry
     estimated scf accuracy    <       0.50960187 Ry

     total magnetization       =     4.04 Bohr mag/cell
     absolute magnetization    =     4.04 Bohr mag/cell
[tb_dev] Currently allocated     3.05E-05 Mbytes, locked:    0 /   2
[tb_pin] Currently allocated     0.00E+00 Mbytes, locked:    0 /   0

     iteration #  3     ecut=    60.00 Ry     beta= 0.30
     Davidson diagonalization with overlap

---- Real-time Memory Report at c_bands before calling an iterative solver
           719 MiB given to the printing process from OS
             0 MiB allocation reported by mallinfo(arena+hblkhd)
       1349067 MiB available memory on the node where the printing process lives
     GPU memory used/free/total (MiB): 938 / 80212 / 81151
------------------
     ethr =  1.34E-03,  avg # of iterations =  2.8

     total cpu time spent up to now is        8.4 secs

     total energy              =    -572.98821466 Ry
     estimated scf accuracy    <       1.05524268 Ry

     total magnetization       =     1.41 Bohr mag/cell
     absolute magnetization    =     1.55 Bohr mag/cell
[tb_dev] Currently allocated     3.05E-05 Mbytes, locked:    0 /   2
[tb_pin] Currently allocated     0.00E+00 Mbytes, locked:    0 /   0

     iteration #  4     ecut=    60.00 Ry     beta= 0.30
     Davidson diagonalization with overlap

---- Real-time Memory Report at c_bands before calling an iterative solver
           720 MiB given to the printing process from OS
             0 MiB allocation reported by mallinfo(arena+hblkhd)
       1346538 MiB available memory on the node where the printing process lives
     GPU memory used/free/total (MiB): 938 / 80212 / 81151
------------------
     ethr =  1.34E-03,  avg # of iterations =  1.4

     total cpu time spent up to now is        9.6 secs

     total energy              =    -573.15556233 Ry
     estimated scf accuracy    <       1.25468435 Ry

     total magnetization       =     1.30 Bohr mag/cell
     absolute magnetization    =     1.47 Bohr mag/cell
[tb_dev] Currently allocated     3.05E-05 Mbytes, locked:    0 /   2
[tb_pin] Currently allocated     0.00E+00 Mbytes, locked:    0 /   0

     iteration #  5     ecut=    60.00 Ry     beta= 0.30
     Davidson diagonalization with overlap

---- Real-time Memory Report at c_bands before calling an iterative solver
           722 MiB given to the printing process from OS
             0 MiB allocation reported by mallinfo(arena+hblkhd)
       1344519 MiB available memory on the node where the printing process lives
     GPU memory used/free/total (MiB): 938 / 80212 / 81151
------------------
     ethr =  1.34E-03,  avg # of iterations =  1.9

     total cpu time spent up to now is       11.0 secs

     total energy              =    -573.19287270 Ry
     estimated scf accuracy    <       2.75939387 Ry

     total magnetization       =     0.34 Bohr mag/cell
     absolute magnetization    =     0.99 Bohr mag/cell
[tb_dev] Currently allocated     3.05E-05 Mbytes, locked:    0 /   2
[tb_pin] Currently allocated     0.00E+00 Mbytes, locked:    0 /   0

     iteration #  6     ecut=    60.00 Ry     beta= 0.30
     Davidson diagonalization with overlap

---- Real-time Memory Report at c_bands before calling an iterative solver
           724 MiB given to the printing process from OS
             0 MiB allocation reported by mallinfo(arena+hblkhd)
       1342276 MiB available memory on the node where the printing process lives
     GPU memory used/free/total (MiB): 938 / 80212 / 81151
------------------
     ethr =  1.34E-03,  avg # of iterations =  1.1

     total cpu time spent up to now is       12.2 secs

     total energy              =    -573.08956956 Ry
     estimated scf accuracy    <       2.30668150 Ry

     total magnetization       =     0.19 Bohr mag/cell
     absolute magnetization    =     0.96 Bohr mag/cell
[tb_dev] Currently allocated     3.05E-05 Mbytes, locked:    0 /   2
[tb_pin] Currently allocated     0.00E+00 Mbytes, locked:    0 /   0

     iteration #  7     ecut=    60.00 Ry     beta= 0.30
     Davidson diagonalization with overlap

---- Real-time Memory Report at c_bands before calling an iterative solver
           725 MiB given to the printing process from OS
             0 MiB allocation reported by mallinfo(arena+hblkhd)
       1360563 MiB available memory on the node where the printing process lives
     GPU memory used/free/total (MiB): 938 / 80212 / 81151
------------------
     ethr =  1.34E-03,  avg # of iterations =  1.3

     total cpu time spent up to now is       13.5 secs

     total energy              =    -573.05570071 Ry
     estimated scf accuracy    <       1.24093627 Ry

     total magnetization       =     0.11 Bohr mag/cell
     absolute magnetization    =     0.88 Bohr mag/cell
[tb_dev] Currently allocated     3.05E-05 Mbytes, locked:    0 /   2
[tb_pin] Currently allocated     0.00E+00 Mbytes, locked:    0 /   0

     iteration #  8     ecut=    60.00 Ry     beta= 0.30
     Davidson diagonalization with overlap

---- Real-time Memory Report at c_bands before calling an iterative solver
           725 MiB given to the printing process from OS
             0 MiB allocation reported by mallinfo(arena+hblkhd)
       1360185 MiB available memory on the node where the printing process lives
     GPU memory used/free/total (MiB): 938 / 80212 / 81151
------------------
     ethr =  1.34E-03,  avg # of iterations =  1.1

     total cpu time spent up to now is       14.7 secs

     total energy              =    -572.99531306 Ry
     estimated scf accuracy    <       0.84893310 Ry

     total magnetization       =     0.33 Bohr mag/cell
     absolute magnetization    =     0.93 Bohr mag/cell
[tb_dev] Currently allocated     3.05E-05 Mbytes, locked:    0 /   2
[tb_pin] Currently allocated     0.00E+00 Mbytes, locked:    0 /   0

     iteration #  9     ecut=    60.00 Ry     beta= 0.30
     Davidson diagonalization with overlap

---- Real-time Memory Report at c_bands before calling an iterative solver
           727 MiB given to the printing process from OS
             0 MiB allocation reported by mallinfo(arena+hblkhd)
       1359124 MiB available memory on the node where the printing process lives
     GPU memory used/free/total (MiB): 938 / 80212 / 81151
------------------
     ethr =  1.34E-03,  avg # of iterations =  1.5

     total cpu time spent up to now is       16.0 secs

     total energy              =    -573.02863869 Ry
     estimated scf accuracy    <       0.14044921 Ry

     total magnetization       =    -0.00 Bohr mag/cell
     absolute magnetization    =     0.33 Bohr mag/cell
[tb_dev] Currently allocated     3.05E-05 Mbytes, locked:    0 /   2
[tb_pin] Currently allocated     0.00E+00 Mbytes, locked:    0 /   0

     iteration # 10     ecut=    60.00 Ry     beta= 0.30
     Davidson diagonalization with overlap

---- Real-time Memory Report at c_bands before calling an iterative solver
           728 MiB given to the printing process from OS
             0 MiB allocation reported by mallinfo(arena+hblkhd)
       1357957 MiB available memory on the node where the printing process lives
     GPU memory used/free/total (MiB): 938 / 80212 / 81151
------------------
     ethr =  3.70E-04,  avg # of iterations =  5.1

     total cpu time spent up to now is       17.8 secs

     total energy              =    -573.04739616 Ry
     estimated scf accuracy    <       0.02437216 Ry

     total magnetization       =     0.00 Bohr mag/cell
     absolute magnetization    =     0.23 Bohr mag/cell
[tb_dev] Currently allocated     3.05E-05 Mbytes, locked:    0 /   2
[tb_pin] Currently allocated     0.00E+00 Mbytes, locked:    0 /   0

     iteration # 11     ecut=    60.00 Ry     beta= 0.30
     Davidson diagonalization with overlap

---- Real-time Memory Report at c_bands before calling an iterative solver
           728 MiB given to the printing process from OS
             0 MiB allocation reported by mallinfo(arena+hblkhd)
       1356118 MiB available memory on the node where the printing process lives
     GPU memory used/free/total (MiB): 938 / 80212 / 81151
------------------
     c_bands:  1 eigenvalues not converged
     ethr =  6.41E-05,  avg # of iterations =  4.9

     total cpu time spent up to now is       19.4 secs

     total energy              =    -573.04883953 Ry
     estimated scf accuracy    <       0.03417136 Ry

     total magnetization       =    -0.00 Bohr mag/cell
     absolute magnetization    =     0.22 Bohr mag/cell
[tb_dev] Currently allocated     3.05E-05 Mbytes, locked:    0 /   2
[tb_pin] Currently allocated     0.00E+00 Mbytes, locked:    0 /   0

     iteration # 12     ecut=    60.00 Ry     beta= 0.30
     Davidson diagonalization with overlap

---- Real-time Memory Report at c_bands before calling an iterative solver
           728 MiB given to the printing process from OS
             0 MiB allocation reported by mallinfo(arena+hblkhd)
       1354917 MiB available memory on the node where the printing process lives
     GPU memory used/free/total (MiB): 938 / 80212 / 81151
------------------
     ethr =  6.41E-05,  avg # of iterations =  1.1

     total cpu time spent up to now is       20.7 secs

     total energy              =    -573.04559552 Ry
     estimated scf accuracy    <       0.02726039 Ry

     total magnetization       =     0.00 Bohr mag/cell
     absolute magnetization    =     0.07 Bohr mag/cell
[tb_dev] Currently allocated     3.05E-05 Mbytes, locked:    0 /   2
[tb_pin] Currently allocated     0.00E+00 Mbytes, locked:    0 /   0

     iteration # 13     ecut=    60.00 Ry     beta= 0.30
     Davidson diagonalization with overlap

---- Real-time Memory Report at c_bands before calling an iterative solver
           728 MiB given to the printing process from OS
             0 MiB allocation reported by mallinfo(arena+hblkhd)
       1353625 MiB available memory on the node where the printing process lives
     GPU memory used/free/total (MiB): 938 / 80212 / 81151
------------------
     ethr =  6.41E-05,  avg # of iterations =  2.0

     total cpu time spent up to now is       22.0 secs

     total energy              =    -573.04516141 Ry
     estimated scf accuracy    <       0.00580376 Ry

     total magnetization       =     0.00 Bohr mag/cell
     absolute magnetization    =     0.02 Bohr mag/cell
[tb_dev] Currently allocated     3.05E-05 Mbytes, locked:    0 /   2
[tb_pin] Currently allocated     0.00E+00 Mbytes, locked:    0 /   0

     iteration # 14     ecut=    60.00 Ry     beta= 0.30
     Davidson diagonalization with overlap

---- Real-time Memory Report at c_bands before calling an iterative solver
           728 MiB given to the printing process from OS
             0 MiB allocation reported by mallinfo(arena+hblkhd)
       1351817 MiB available memory on the node where the printing process lives
     GPU memory used/free/total (MiB): 938 / 80212 / 81151
------------------
     ethr =  1.53E-05,  avg # of iterations =  4.6

     total cpu time spent up to now is       23.7 secs

     total energy              =    -573.04602712 Ry
     estimated scf accuracy    <       0.00076039 Ry

     total magnetization       =     0.00 Bohr mag/cell
     absolute magnetization    =     0.02 Bohr mag/cell
[tb_dev] Currently allocated     3.05E-05 Mbytes, locked:    0 /   2
[tb_pin] Currently allocated     0.00E+00 Mbytes, locked:    0 /   0

     iteration # 15     ecut=    60.00 Ry     beta= 0.30
     Davidson diagonalization with overlap

---- Real-time Memory Report at c_bands before calling an iterative solver
           728 MiB given to the printing process from OS
             0 MiB allocation reported by mallinfo(arena+hblkhd)
       1349253 MiB available memory on the node where the printing process lives
     GPU memory used/free/total (MiB): 938 / 80212 / 81151
------------------
     c_bands:  1 eigenvalues not converged
     c_bands:  1 eigenvalues not converged
     ethr =  2.00E-06,  avg # of iterations =  8.1

     total cpu time spent up to now is       25.7 secs

     total energy              =    -573.04632158 Ry
     estimated scf accuracy    <       0.00014871 Ry

     total magnetization       =    -0.00 Bohr mag/cell
     absolute magnetization    =     0.01 Bohr mag/cell
[tb_dev] Currently allocated     3.05E-05 Mbytes, locked:    0 /   2
[tb_pin] Currently allocated     0.00E+00 Mbytes, locked:    0 /   0

     iteration # 16     ecut=    60.00 Ry     beta= 0.30
     Davidson diagonalization with overlap

---- Real-time Memory Report at c_bands before calling an iterative solver
           729 MiB given to the printing process from OS
             0 MiB allocation reported by mallinfo(arena+hblkhd)
       1345664 MiB available memory on the node where the printing process lives
     GPU memory used/free/total (MiB): 938 / 80212 / 81151
------------------
     ethr =  3.91E-07,  avg # of iterations =  4.7

     total cpu time spent up to now is       27.4 secs

     total energy              =    -573.04636731 Ry
     estimated scf accuracy    <       0.00006706 Ry

     total magnetization       =     0.00 Bohr mag/cell
     absolute magnetization    =     0.01 Bohr mag/cell
[tb_dev] Currently allocated     3.05E-05 Mbytes, locked:    0 /   2
[tb_pin] Currently allocated     0.00E+00 Mbytes, locked:    0 /   0

     iteration # 17     ecut=    60.00 Ry     beta= 0.30
     Davidson diagonalization with overlap

---- Real-time Memory Report at c_bands before calling an iterative solver
           729 MiB given to the printing process from OS
             0 MiB allocation reported by mallinfo(arena+hblkhd)
       1342635 MiB available memory on the node where the printing process lives
     GPU memory used/free/total (MiB): 938 / 80212 / 81151
------------------
     ethr =  1.76E-07,  avg # of iterations =  2.3

     total cpu time spent up to now is       28.7 secs

     total energy              =    -573.04637443 Ry
     estimated scf accuracy    <       0.00000812 Ry

     total magnetization       =    -0.00 Bohr mag/cell
     absolute magnetization    =     0.00 Bohr mag/cell
[tb_dev] Currently allocated     3.05E-05 Mbytes, locked:    0 /   2
[tb_pin] Currently allocated     0.00E+00 Mbytes, locked:    0 /   0

     iteration # 18     ecut=    60.00 Ry     beta= 0.30
     Davidson diagonalization with overlap

---- Real-time Memory Report at c_bands before calling an iterative solver
           729 MiB given to the printing process from OS
             0 MiB allocation reported by mallinfo(arena+hblkhd)
       1360290 MiB available memory on the node where the printing process lives
     GPU memory used/free/total (MiB): 938 / 80212 / 81151
------------------
     ethr =  2.14E-08,  avg # of iterations =  6.8

     total cpu time spent up to now is       30.6 secs

     total energy              =    -573.04637606 Ry
     estimated scf accuracy    <       0.00001222 Ry

     total magnetization       =    -0.00 Bohr mag/cell
     absolute magnetization    =     0.00 Bohr mag/cell
[tb_dev] Currently allocated     3.05E-05 Mbytes, locked:    0 /   2
[tb_pin] Currently allocated     0.00E+00 Mbytes, locked:    0 /   0

     iteration # 19     ecut=    60.00 Ry     beta= 0.30
     Davidson diagonalization with overlap

---- Real-time Memory Report at c_bands before calling an iterative solver
           729 MiB given to the printing process from OS
             0 MiB allocation reported by mallinfo(arena+hblkhd)
       1358731 MiB available memory on the node where the printing process lives
     GPU memory used/free/total (MiB): 938 / 80212 / 81151
------------------
     ethr =  2.14E-08,  avg # of iterations =  1.3

     total cpu time spent up to now is       31.9 secs

     total energy              =    -573.04637573 Ry
     estimated scf accuracy    <       0.00000231 Ry

     total magnetization       =    -0.00 Bohr mag/cell
     absolute magnetization    =     0.00 Bohr mag/cell
[tb_dev] Currently allocated     3.05E-05 Mbytes, locked:    0 /   2
[tb_pin] Currently allocated     0.00E+00 Mbytes, locked:    0 /   0

     iteration # 20     ecut=    60.00 Ry     beta= 0.30
     Davidson diagonalization with overlap

---- Real-time Memory Report at c_bands before calling an iterative solver
           729 MiB given to the printing process from OS
             0 MiB allocation reported by mallinfo(arena+hblkhd)
       1357724 MiB available memory on the node where the printing process lives
     GPU memory used/free/total (MiB): 938 / 80212 / 81151
------------------
     ethr =  6.08E-09,  avg # of iterations =  4.1

     total cpu time spent up to now is       33.5 secs

     total energy              =    -573.04637737 Ry
     estimated scf accuracy    <       0.00000082 Ry

     total magnetization       =    -0.00 Bohr mag/cell
     absolute magnetization    =     0.00 Bohr mag/cell
[tb_dev] Currently allocated     3.05E-05 Mbytes, locked:    0 /   2
[tb_pin] Currently allocated     0.00E+00 Mbytes, locked:    0 /   0

     iteration # 21     ecut=    60.00 Ry     beta= 0.30
     Davidson diagonalization with overlap

---- Real-time Memory Report at c_bands before calling an iterative solver
           729 MiB given to the printing process from OS
             0 MiB allocation reported by mallinfo(arena+hblkhd)
       1356509 MiB available memory on the node where the printing process lives
     GPU memory used/free/total (MiB): 938 / 80212 / 81151
------------------
     ethr =  2.15E-09,  avg # of iterations =  2.4

     total cpu time spent up to now is       34.8 secs

     total energy              =    -573.04637755 Ry
     estimated scf accuracy    <       0.00000017 Ry

     total magnetization       =    -0.00 Bohr mag/cell
     absolute magnetization    =     0.00 Bohr mag/cell
[tb_dev] Currently allocated     3.05E-05 Mbytes, locked:    0 /   2
[tb_pin] Currently allocated     0.00E+00 Mbytes, locked:    0 /   0

     iteration # 22     ecut=    60.00 Ry     beta= 0.30
     Davidson diagonalization with overlap

---- Real-time Memory Report at c_bands before calling an iterative solver
           729 MiB given to the printing process from OS
             0 MiB allocation reported by mallinfo(arena+hblkhd)
       1355591 MiB available memory on the node where the printing process lives
     GPU memory used/free/total (MiB): 938 / 80212 / 81151
------------------
     ethr =  4.49E-10,  avg # of iterations =  4.8
 
     Magnetic moment per site  (integrated on atomic sphere of radius R)
     atom   1 (R=0.275)  charge= 14.1934  magn= -0.0001
     atom   2 (R=0.275)  charge=  5.3216  magn=  0.0001
     atom   3 (R=0.275)  charge=  5.3729  magn=  0.0001
     atom   4 (R=0.333)  charge=  7.0486  magn= -0.0000

     total cpu time spent up to now is       36.5 secs

     End of self-consistent calculation

 ------ SPIN UP ------------


          k = 0.0000 0.0000 0.0000 (  2125 PWs)   bands (ev):

   -82.0944 -45.3956 -45.3956 -45.2576 -17.5805  -6.8892  -5.7366  -0.0508
     0.5149   0.5149   6.8982   7.5969   7.5969  10.7888  10.7888  10.9907
    11.7998  11.7998  12.5580  15.0435  15.0435  17.6358  19.4846  21.0654
    21.0654  21.7790  24.0396

     occupation numbers 
     1.0000   1.0000   1.0000   1.0000   1.0000   1.0000   1.0000   1.0000
     1.0000   1.0000   1.0000   1.0000   1.0000   1.0000   1.0000   1.0000
     1.0000   1.0000   1.0000   0.0000   0.0000   0.0000   0.0000   0.0000
     0.0000   0.0000   0.0000

          k = 0.0000 0.0000 0.1758 (  2120 PWs)   bands (ev):

   -82.0944 -45.3957 -45.3957 -45.2573 -17.5764  -7.2104  -5.2332  -0.4141
     0.5127   0.5127   7.4892   7.6399   7.6399  10.3789  10.6813  10.6813
    11.8163  11.8163  12.7320  15.1353  15.1353  17.5610  19.9018  20.9827
    20.9827  21.3904  23.9699

     occupation numbers 
     1.0000   1.0000   1.0000   1.0000   1.0000   1.0000   1.0000   1.0000
     1.0000   1.0000   1.0000   1.0000   1.0000   1.0000   1.0000   1.0000
     1.0000   1.0000   1.0000   0.0000   0.0000   0.0000   0.0000   0.0000
     0.0000   0.0000   0.0000

          k = 0.0000 0.1443 0.0000 (  2127 PWs)   bands (ev):

   -82.0937 -45.4038 -45.3977 -45.2562 -17.4846  -6.7522  -5.6624  -0.1660
     0.0947   0.4146   7.1471   7.5906   7.6947   9.7588  10.3238  10.8803
    12.0487  12.1840  12.7112  14.7872  14.9745  18.1901  20.0587  20.3484
    21.5686  22.6143  23.7136

     occupation numbers 
     1.0000   1.0000   1.0000   1.0000   1.0000   1.0000   1.0000   1.0000
     1.0000   1.0000   1.0000   1.0000   1.0000   1.0000   1.0000   1.0000
     1.0000   1.0000   1.0000   0.0000   0.0000   0.0000   0.0000   0.0000
     0.0000   0.0000   0.0000

          k = 0.0000 0.1443 0.1758 (  2112 PWs)   bands (ev):

   -82.0937 -45.4038 -45.3976 -45.2560 -17.4809  -7.0375  -5.2393  -0.4192
     0.0963   0.4120   7.2923   7.7183   7.7514   9.8835  10.2279  10.5831
    12.0455  12.1754  12.8444  14.7173  15.0403  18.0644  20.2614  20.5056
    21.5558  21.8175  23.8334

     occupation numbers 
     1.0000   1.0000   1.0000   1.0000   1.0000   1.0000   1.0000   1.0000
     1.0000   1.0000   1.0000   1.0000   1.0000   1.0000   1.0000   1.0000
     1.0000   1.0000   1.0002   0.0000   0.0000   0.0000   0.0000   0.0000
     0.0000   0.0000   0.0000

          k = 0.0000 0.2887 0.0000 (  2124 PWs)   bands (ev):

   -82.0919 -45.4236 -45.4024 -45.2532 -17.2424  -6.4138  -5.4896  -0.9288
    -0.2703   0.1827   7.3216   7.6425   7.9152   8.5051   9.7343  10.4907
    12.0645  12.5031  12.8418  14.4951  14.8856  18.2019  20.6136  21.3901
    22.5438  22.9780  23.8744

     occupation numbers 
     1.0000   1.0000   1.0000   1.0000   1.0000   1.0000   1.0000   1.0000
     1.0000   1.0000   1.0000   1.0000   1.0000   1.0000   1.0000   1.0000
     1.0000   1.0000   1.0002   0.0000   0.0000   0.0000   0.0000   0.0000
     0.0000   0.0000   0.0000

          k = 0.0000 0.2887 0.1758 (  2109 PWs)   bands (ev):

   -82.0919 -45.4236 -45.4023 -45.2531 -17.2395  -6.5959  -5.2603  -0.8908
    -0.3871   0.1802   7.1277   7.6163   7.9954   8.9223   9.6271  10.4509
    12.1668  12.4803  12.8729  14.2747  14.9491  18.1160  20.5307  21.5270
    22.2960  23.0149  23.8501

     occupation numbers 
     1.0000   1.0000   1.0000   1.0000   1.0000   1.0000   1.0000   1.0000
     1.0000   1.0000   1.0000   1.0000   1.0000   1.0000   1.0000   1.0000
     1.0000   1.0000   1.0003   0.0009   0.0000   0.0000   0.0000   0.0000
     0.0000   0.0000   0.0000

          k = 0.0000 0.4330 0.0000 (  2116 PWs)   bands (ev):

   -82.0902 -45.4434 -45.4072 -45.2500 -16.9829  -6.0682  -5.3457  -1.6773
    -0.4427  -0.0363   6.3165   7.8441   8.0665   8.5489   9.4651  10.1532
    11.9178  12.4374  12.7163  14.4325  14.9216  17.3303  21.2731  22.5614
    23.0951  23.6523  25.0374

     occupation numbers 
     1.0000   1.0000   1.0000   1.0000   1.0000   1.0000   1.0000   1.0000
     1.0000   1.0000   1.0000   1.0000   1.0000   1.0000   1.0000   1.0000
     1.0000   1.0000   1.0000   0.0000   0.0000   0.0000   0.0000   0.0000
     0.0000   0.0000   0.0000

          k = 0.0000 0.4330 0.1758 (  2127 PWs)   bands (ev):

   -82.0902 -45.4434 -45.4072 -45.2502 -16.9808  -6.1313  -5.2785  -1.7001
    -0.4633  -0.0386   6.7583   7.3373   8.1915   8.9441   9.2974   9.7521
    12.1056  12.4293  12.6985  14.4345  15.0140  17.3394  21.2305  22.0637
    23.2933  23.5417  25.1082

     occupation numbers 
     1.0000   1.0000   1.0000   1.0000   1.0000   1.0000   1.0000   1.0000
     1.0000   1.0000   1.0000   1.0000   1.0000   1.0000   1.0000   1.0000
     1.0000   1.0000   1.0000   0.0000   0.0000   0.0000   0.0000   0.0000
     0.0000   0.0000   0.0000

          k = 0.0000-0.5774 0.0000 (  2126 PWs)   bands (ev):

   -82.0895 -45.4517 -45.4091 -45.2487 -16.8696  -5.9249  -5.3060  -1.9259
    -0.5070  -0.1236   5.8108   7.9855   8.0871   8.5297   9.4460  10.1911
    11.7818  12.3304  12.6006  14.4344  14.9655  17.0017  21.1234  23.1000
    23.5409  23.6202  26.6485

     occupation numbers 
     1.0000   1.0000   1.0000   1.0000   1.0000   1.0000   1.0000   1.0000
     1.0000   1.0000   1.0000   1.0000   1.0000   1.0000   1.0000   1.0000
     1.0000   1.0000   1.0000   0.0000   0.0000   0.0000   0.0000   0.0000
     0.0000   0.0000   0.0000

          k = 0.0000-0.5774 0.1758 (  2130 PWs)   bands (ev):

   -82.0895 -45.4516 -45.4092 -45.2489 -16.8679  -5.9063  -5.3343  -1.9685
    -0.4978  -0.1256   6.2472   7.4385   8.2030   9.0603   9.2840   9.5608
    11.9978  12.3335  12.6241  14.6516  15.0653  16.9907  20.9587  22.2396
    23.4482  23.7416  26.2484

     occupation numbers 
     1.0000   1.0000   1.0000   1.0000   1.0000   1.0000   1.0000   1.0000
     1.0000   1.0000   1.0000   1.0000   1.0000   1.0000   1.0000   1.0000
     1.0000   1.0000   1.0000   0.0000   0.0000   0.0000   0.0000   0.0000
     0.0000   0.0000   0.0000

          k = 0.1250 0.2165 0.0000 (  2125 PWs)   bands (ev):

   -82.0925 -45.4170 -45.4019 -45.2540 -17.3151  -6.5141  -5.5380  -0.6205
    -0.2360   0.2049   7.4187   7.5961   7.8530   8.8495   9.6077  10.6733
    12.1385  12.5263  12.7876  14.6270  14.7915  18.9903  19.4940  21.0440
    22.5490  22.9168  23.7342

     occupation numbers 
     1.0000   1.0000   1.0000   1.0000   1.0000   1.0000   1.0000   1.0000
     1.0000   1.0000   1.0000   1.0000   1.0000   1.0000   1.0000   1.0000
     1.0000   1.0000   1.0000   0.0000   0.0000   0.0000   0.0000   0.0000
     0.0000   0.0000   0.0000

          k = 0.1250 0.2165 0.1758 (  2124 PWs)   bands (ev):

   -82.0925 -45.4170 -45.4019 -45.2540 -17.3120  -6.7222  -5.2678  -0.5968
    -0.3329   0.1874   7.1703   7.5622   7.8501   9.2842   9.6296  10.7481
    12.1541  12.4851  12.8507  14.4525  14.7918  18.8722  19.5189  21.0509
    22.1472  22.8530  23.7102

     occupation numbers 
     1.0000   1.0000   1.0000   1.0000   1.0000   1.0000   1.0000   1.0000
     1.0000   1.0000   1.0000   1.0000   1.0000   1.0000   1.0000   1.0000
     1.0000   1.0000   1.0002   0.0000   0.0000   0.0000   0.0000   0.0000
     0.0000   0.0000   0.0000

          k = 0.1250 0.3608 0.0000 (  2112 PWs)   bands (ev):

   -82.0907 -45.4346 -45.4086 -45.2509 -17.0616  -6.1692  -5.3773  -1.3517
    -0.4315  -0.1109   6.9326   7.4709   8.1737   8.5249   9.2101  10.2271
    12.1468  12.5468  12.7592  14.5183  14.7516  18.3167  20.5987  21.9443
    22.5374  23.3207  24.9016

     occupation numbers 
     1.0000   1.0000   1.0000   1.0000   1.0000   1.0000   1.0000   1.0000
     1.0000   1.0000   1.0000   1.0000   1.0000   1.0000   1.0000   1.0000
     1.0000   1.0000   1.0000   0.0000   0.0000   0.0000   0.0000   0.0000
     0.0000   0.0000   0.0000

          k = 0.1250 0.3608 0.1758 (  2117 PWs)   bands (ev):

   -82.0907 -45.4346 -45.4086 -45.2510 -17.0593  -6.2564  -5.2900  -1.3231
    -0.4539  -0.1368   7.1225   7.2575   8.0426   8.7721   9.2402  10.2325
    12.2088  12.5732  12.7414  14.3873  14.7063  18.3346  20.5685  21.6626
    22.5531  23.4324  24.6965

     occupation numbers 
     1.0000   1.0000   1.0000   1.0000   1.0000   1.0000   1.0000   1.0000
     1.0000   1.0000   1.0000   1.0000   1.0000   1.0000   1.0000   1.0000
     1.0000   1.0000   1.0000   0.0001   0.0000   0.0000   0.0000   0.0000
     0.0000   0.0000   0.0000

          k = 0.1250 0.5052 0.0000 (  2125 PWs)   bands (ev):

   -82.0895 -45.4471 -45.4136 -45.2488 -16.8713  -5.9184  -5.2958  -1.7836
    -0.5064  -0.3536   6.1205   7.3926   8.3656   8.7143   9.1171  10.0592
    11.9710  12.4163  12.6749  14.4970  14.8125  17.7034  21.2555  22.4597
    23.1083  23.3706  25.6946

     occupation numbers 
     1.0000   1.0000   1.0000   1.0000   1.0000   1.0000   1.0000   1.0000
     1.0000   1.0000   1.0000   1.0000   1.0000   1.0000   1.0000   1.0000
     1.0000   1.0000   1.0000   0.0000   0.0000   0.0000   0.0000   0.0000
     0.0000   0.0000   0.0000

          k = 0.1250 0.5052 0.1758 (  2124 PWs)   bands (ev):

   -82.0895 -45.4471 -45.4135 -45.2489 -16.8695  -5.9289  -5.2849  -1.8245
    -0.5127  -0.3697   6.5994   7.2830   8.2192   8.9013   9.1080   9.5580
    12.1309  12.4018  12.7005  14.5485  14.7765  17.7442  21.3008  22.1404
    22.6531  23.7498  25.3170

     occupation numbers 
     1.0000   1.0000   1.0000   1.0000   1.0000   1.0000   1.0000   1.0000
     1.0000   1.0000   1.0000   1.0000   1.0000   1.0000   1.0000   1.0000
     1.0000   1.0000   1.0000   0.0000   0.0000   0.0000   0.0000   0.0000
     0.0000   0.0000   0.0000

          k = 0.2500 0.4330 0.0000 (  2117 PWs)   bands (ev):

   -82.0895 -45.4409 -45.4196 -45.2488 -16.8730  -5.9126  -5.2849  -1.5616
    -0.7410  -0.4252   6.6694   7.0161   7.9109   8.9449   9.0745   9.9338
    12.1238  12.4638  12.7644  14.5569  14.6583  19.0030  20.5709  21.8278
    22.6861  23.1447  26.2435

     occupation numbers 
     1.0000   1.0000   1.0000   1.0000   1.0000   1.0000   1.0000   1.0000
     1.0000   1.0000   1.0000   1.0000   1.0000   1.0000   1.0000   1.0000
     1.0000   1.0000   1.0000   0.0000   0.0000   0.0000   0.0000   0.0000
     0.0000   0.0000   0.0000

          k = 0.2500 0.4330 0.1758 (  2126 PWs)   bands (ev):

   -82.0895 -45.4410 -45.4196 -45.2489 -16.8712  -5.9001  -5.3112  -1.5466
    -0.7698  -0.4500   6.8657   7.1688   8.0447   8.6551   9.0088   9.8934
    12.1826  12.4479  12.8365  14.3882  14.5717  19.0802  20.5118  21.8028
    22.4564  23.3545  25.7824

     occupation numbers 
     1.0000   1.0000   1.0000   1.0000   1.0000   1.0000   1.0000   1.0000
     1.0000   1.0000   1.0000   1.0000   1.0000   1.0000   1.0000   1.0000
     1.0000   1.0000   1.0001   0.0001   0.0000   0.0000   0.0000   0.0000
     0.0000   0.0000   0.0000

          k = 0.2500 0.5774 0.0000 (  2121 PWs)   bands (ev):

   -82.0890 -45.4415 -45.4263 -45.2479 -16.7923  -5.7937  -5.2641  -1.5883
    -0.9701  -0.4912   6.4945   6.9440   7.6230   9.0827   9.1758   9.8540
    11.9599  12.5947  12.7091  14.5763  14.6185  19.1543  21.0226  21.6554
    22.8081  23.0541  26.5695

     occupation numbers 
     1.0000   1.0000   1.0000   1.0000   1.0000   1.0000   1.0000   1.0000
     1.0000   1.0000   1.0000   1.0000   1.0000   1.0000   1.0000   1.0000
     1.0000   1.0000   1.0000   0.0000   0.0000   0.0000   0.0000   0.0000
     0.0000   0.0000   0.0000

          k = 0.2500 0.5774 0.1758 (  2132 PWs)   bands (ev):

   -82.0890 -45.4415 -45.4264 -45.2480 -16.7907  -5.7831  -5.2688  -1.6155
    -0.9956  -0.5368   6.8217   7.1310   7.9548   8.7558   9.0723   9.4449
    12.0702  12.5880  12.7837  14.4072  14.5086  19.1890  20.9898  21.8970
    22.4946  23.2408  26.1087

     occupation numbers 
     1.0000   1.0000   1.0000   1.0000   1.0000   1.0000   1.0000   1.0000
     1.0000   1.0000   1.0000   1.0000   1.0000   1.0000   1.0000   1.0000
     1.0000   1.0000   1.0000   0.0001   0.0000   0.0000   0.0000   0.0000
     0.0000   0.0000   0.0000

          k = 0.0000-0.1443 0.1758 (  2112 PWs)   bands (ev):

   -82.0937 -45.4038 -45.3976 -45.2560 -17.4809  -7.0353  -5.2451  -0.4220
     0.1128   0.4131   7.2958   7.6584   7.7170   9.8170  10.2989  10.7331
    12.0206  12.1519  12.8317  14.7388  15.0419  18.0920  20.3050  20.3581
    21.4832  21.8567  23.9229

     occupation numbers 
     1.0000   1.0000   1.0000   1.0000   1.0000   1.0000   1.0000   1.0000
     1.0000   1.0000   1.0000   1.0000   1.0000   1.0000   1.0000   1.0000
     1.0000   1.0000   1.0001   0.0000   0.0000   0.0000   0.0000   0.0000
     0.0000   0.0000   0.0000

          k = 0.0000-0.2887 0.1758 (  2109 PWs)   bands (ev):

   -82.0919 -45.4236 -45.4023 -45.2531 -17.2395  -6.5724  -5.3092  -0.8623
    -0.3386   0.1815   6.9830   7.3331   7.9239   9.1061   9.7393  10.8309
    12.0703  12.4638  12.8383  14.3524  14.9299  18.2590  20.4350  20.8952
    22.4308  22.9443  23.8053

     occupation numbers 
     1.0000   1.0000   1.0000   1.0000   1.0000   1.0000   1.0000   1.0000
     1.0000   1.0000   1.0000   1.0000   1.0000   1.0000   1.0000   1.0000
     1.0000   1.0000   1.0001   0.0002   0.0000   0.0000   0.0000   0.0000
     0.0000   0.0000   0.0000

          k = 0.0000-0.4330 0.1758 (  2127 PWs)   bands (ev):

   -82.0902 -45.4434 -45.4072 -45.2502 -16.9808  -6.0469  -5.4114  -1.6254
    -0.4241  -0.0378   6.3559   7.3539   8.1141   8.9368   9.4051  10.2629
    12.0064  12.4160  12.7108  14.5192  14.9944  17.3684  20.8178  21.9021
    23.2469  23.5307  24.9989

     occupation numbers 
     1.0000   1.0000   1.0000   1.0000   1.0000   1.0000   1.0000   1.0000
     1.0000   1.0000   1.0000   1.0000   1.0000   1.0000   1.0000   1.0000
     1.0000   1.0000   1.0000   0.0000   0.0000   0.0000   0.0000   0.0000
     0.0000   0.0000   0.0000

          k =-0.1250-0.3608 0.1758 (  2117 PWs)   bands (ev):

   -82.0907 -45.4346 -45.4086 -45.2510 -17.0593  -6.2226  -5.3482  -1.2797
    -0.4343  -0.1374   6.7793   7.3229   7.9913   9.0282   9.1498  10.4918
    12.1427  12.5474  12.7733  14.4134  14.7071  18.3869  20.4979  21.3359
    22.4802  23.4962  24.9981

     occupation numbers 
     1.0000   1.0000   1.0000   1.0000   1.0000   1.0000   1.0000   1.0000
     1.0000   1.0000   1.0000   1.0000   1.0000   1.0000   1.0000   1.0000
     1.0000   1.0000   1.0000   0.0001   0.0000   0.0000   0.0000   0.0000
     0.0000   0.0000   0.0000

          k =-0.1250-0.5052 0.1758 (  2124 PWs)   bands (ev):

   -82.0895 -45.4471 -45.4135 -45.2489 -16.8695  -5.8722  -5.3664  -1.7818
    -0.5126  -0.3597   6.3833   7.3367   8.2651   8.8339   9.0549   9.8475
    12.0817  12.4008  12.7268  14.5252  14.8229  17.7306  21.1482  22.0940
    22.6231  23.7000  25.5763

     occupation numbers 
     1.0000   1.0000   1.0000   1.0000   1.0000   1.0000   1.0000   1.0000
     1.0000   1.0000   1.0000   1.0000   1.0000   1.0000   1.0000   1.0000
     1.0000   1.0000   1.0000   0.0000   0.0000   0.0000   0.0000   0.0000
     0.0000   0.0000   0.0000

 ------ SPIN DOWN ----------


          k = 0.0000 0.0000 0.0000 (  2125 PWs)   bands (ev):

   -82.0945 -45.3957 -45.3957 -45.2578 -17.5805  -6.8888  -5.7362  -0.0507
     0.5149   0.5149   6.8984   7.5969   7.5969  10.7892  10.7892  10.9910
    11.7998  11.7998  12.5581  15.0433  15.0433  17.6359  19.4847  21.0654
    21.0654  21.7791  24.0396

     occupation numbers 
     1.0000   1.0000   1.0000   1.0000   1.0000   1.0000   1.0000   1.0000
     1.0000   1.0000   1.0000   1.0000   1.0000   1.0000   1.0000   1.0000
     1.0000   1.0000   1.0000   0.0000   0.0000   0.0000   0.0000   0.0000
     0.0000   0.0000   0.0000

          k = 0.0000 0.0000 0.1758 (  2120 PWs)   bands (ev):

   -82.0945 -45.3958 -45.3958 -45.2575 -17.5764  -7.2101  -5.2328  -0.4140
     0.5127   0.5127   7.4893   7.6399   7.6399  10.3792  10.6817  10.6817
    11.8164  11.8164  12.7322  15.1351  15.1351  17.5610  19.9019  20.9827
    20.9827  21.3905  23.9699

     occupation numbers 
     1.0000   1.0000   1.0000   1.0000   1.0000   1.0000   1.0000   1.0000
     1.0000   1.0000   1.0000   1.0000   1.0000   1.0000   1.0000   1.0000
     1.0000   1.0000   1.0000   0.0000   0.0000   0.0000   0.0000   0.0000
     0.0000   0.0000   0.0000

          k = 0.0000 0.1443 0.0000 (  2127 PWs)   bands (ev):

   -82.0938 -45.4040 -45.3978 -45.2564 -17.4846  -6.7519  -5.6620  -0.1660
     0.0947   0.4146   7.1473   7.5907   7.6947   9.7592  10.3242  10.8806
    12.0489  12.1842  12.7114  14.7870  14.9743  18.1901  20.0588  20.3484
    21.5686  22.6143  23.7136

     occupation numbers 
     1.0000   1.0000   1.0000   1.0000   1.0000   1.0000   1.0000   1.0000
     1.0000   1.0000   1.0000   1.0000   1.0000   1.0000   1.0000   1.0000
     1.0000   1.0000   1.0000   0.0000   0.0000   0.0000   0.0000   0.0000
     0.0000   0.0000   0.0000

          k = 0.0000 0.1443 0.1758 (  2112 PWs)   bands (ev):

   -82.0938 -45.4040 -45.3978 -45.2562 -17.4809  -7.0372  -5.2389  -0.4192
     0.0963   0.4120   7.2924   7.7184   7.7514   9.8838  10.2283  10.5834
    12.0456  12.1756  12.8446  14.7170  15.0401  18.0644  20.2614  20.5057
    21.5558  21.8176  23.8335

     occupation numbers 
     1.0000   1.0000   1.0000   1.0000   1.0000   1.0000   1.0000   1.0000
     1.0000   1.0000   1.0000   1.0000   1.0000   1.0000   1.0000   1.0000
     1.0000   1.0000   1.0002   0.0000   0.0000   0.0000   0.0000   0.0000
     0.0000   0.0000   0.0000

          k = 0.0000 0.2887 0.0000 (  2124 PWs)   bands (ev):

   -82.0921 -45.4238 -45.4025 -45.2533 -17.2424  -6.4135  -5.4893  -0.9288
    -0.2703   0.1827   7.3218   7.6426   7.9152   8.5053   9.7346  10.4910
    12.0646  12.5034  12.8420  14.4948  14.8854  18.2019  20.6136  21.3902
    22.5439  22.9780  23.8744

     occupation numbers 
     1.0000   1.0000   1.0000   1.0000   1.0000   1.0000   1.0000   1.0000
     1.0000   1.0000   1.0000   1.0000   1.0000   1.0000   1.0000   1.0000
     1.0000   1.0000   1.0002   0.0000   0.0000   0.0000   0.0000   0.0000
     0.0000   0.0000   0.0000

          k = 0.0000 0.2887 0.1758 (  2109 PWs)   bands (ev):

   -82.0920 -45.4237 -45.4025 -45.2532 -17.2395  -6.5956  -5.2599  -0.8908
    -0.3871   0.1802   7.1279   7.6165   7.9954   8.9225   9.6274  10.4512
    12.1669  12.4805  12.8731  14.2744  14.9489  18.1160  20.5307  21.5271
    22.2961  23.0149  23.8501

     occupation numbers 
     1.0000   1.0000   1.0000   1.0000   1.0000   1.0000   1.0000   1.0000
     1.0000   1.0000   1.0000   1.0000   1.0000   1.0000   1.0000   1.0000
     1.0000   1.0000   1.0003   0.0009   0.0000   0.0000   0.0000   0.0000
     0.0000   0.0000   0.0000

          k = 0.0000 0.4330 0.0000 (  2116 PWs)   bands (ev):

   -82.0903 -45.4435 -45.4073 -45.2501 -16.9829  -6.0679  -5.3452  -1.6773
    -0.4427  -0.0363   6.3168   7.8443   8.0665   8.5490   9.4655  10.1535
    11.9178  12.4376  12.7165  14.4322  14.9214  17.3303  21.2732  22.5615
    23.0952  23.6523  25.0374

     occupation numbers 
     1.0000   1.0000   1.0000   1.0000   1.0000   1.0000   1.0000   1.0000
     1.0000   1.0000   1.0000   1.0000   1.0000   1.0000   1.0000   1.0000
     1.0000   1.0000   1.0000   0.0000   0.0000   0.0000   0.0000   0.0000
     0.0000   0.0000   0.0000

          k = 0.0000 0.4330 0.1758 (  2127 PWs)   bands (ev):

   -82.0903 -45.4436 -45.4074 -45.2503 -16.9809  -6.1310  -5.2780  -1.7001
    -0.4632  -0.0386   6.7585   7.3375   8.1915   8.9443   9.2978   9.7523
    12.1056  12.4295  12.6987  14.4341  15.0138  17.3394  21.2305  22.0637
    23.2933  23.5417  25.1086

     occupation numbers 
     1.0000   1.0000   1.0000   1.0000   1.0000   1.0000   1.0000   1.0000
     1.0000   1.0000   1.0000   1.0000   1.0000   1.0000   1.0000   1.0000
     1.0000   1.0000   1.0000   0.0000   0.0000   0.0000   0.0000   0.0000
     0.0000   0.0000   0.0000

          k = 0.0000-0.5774 0.0000 (  2126 PWs)   bands (ev):

   -82.0896 -45.4519 -45.4092 -45.2488 -16.8696  -5.9246  -5.3056  -1.9259
    -0.5069  -0.1236   5.8111   7.9858   8.0871   8.5298   9.4464  10.1914
    11.7819  12.3305  12.6007  14.4341  14.9653  17.0017  21.1234  23.1001
    23.5409  23.6203  26.6487

     occupation numbers 
     1.0000   1.0000   1.0000   1.0000   1.0000   1.0000   1.0000   1.0000
     1.0000   1.0000   1.0000   1.0000   1.0000   1.0000   1.0000   1.0000
     1.0000   1.0000   1.0000   0.0000   0.0000   0.0000   0.0000   0.0000
     0.0000   0.0000   0.0000

          k = 0.0000-0.5774 0.1758 (  2130 PWs)   bands (ev):

   -82.0896 -45.4518 -45.4093 -45.2491 -16.8679  -5.9061  -5.3338  -1.9685
    -0.4978  -0.1256   6.2474   7.4388   8.2030   9.0604   9.2843   9.5610
    11.9979  12.3337  12.6243  14.6513  15.0651  16.9907  20.9588  22.2397
    23.4482  23.7416  26.2484

     occupation numbers 
     1.0000   1.0000   1.0000   1.0000   1.0000   1.0000   1.0000   1.0000
     1.0000   1.0000   1.0000   1.0000   1.0000   1.0000   1.0000   1.0000
     1.0000   1.0000   1.0000   0.0000   0.0000   0.0000   0.0000   0.0000
     0.0000   0.0000   0.0000

          k = 0.1250 0.2165 0.0000 (  2125 PWs)   bands (ev):

   -82.0926 -45.4171 -45.4021 -45.2542 -17.3151  -6.5138  -5.5376  -0.6205
    -0.2360   0.2049   7.4188   7.5962   7.8531   8.8498   9.6079  10.6736
    12.1387  12.5265  12.7878  14.6267  14.7912  18.9903  19.4940  21.0441
    22.5490  22.9169  23.7342

     occupation numbers 
     1.0000   1.0000   1.0000   1.0000   1.0000   1.0000   1.0000   1.0000
     1.0000   1.0000   1.0000   1.0000   1.0000   1.0000   1.0000   1.0000
     1.0000   1.0000   1.0001   0.0000   0.0000   0.0000   0.0000   0.0000
     0.0000   0.0000   0.0000

          k = 0.1250 0.2165 0.1758 (  2124 PWs)   bands (ev):

   -82.0926 -45.4172 -45.4021 -45.2542 -17.3120  -6.7218  -5.2674  -0.5968
    -0.3328   0.1874   7.1704   7.5624   7.8501   9.2845   9.6298  10.7485
    12.1543  12.4853  12.8509  14.4522  14.7916  18.8722  19.5189  21.0510
    22.1472  22.8530  23.7102

     occupation numbers 
     1.0000   1.0000   1.0000   1.0000   1.0000   1.0000   1.0000   1.0000
     1.0000   1.0000   1.0000   1.0000   1.0000   1.0000   1.0000   1.0000
     1.0000   1.0000   1.0002   0.0000   0.0000   0.0000   0.0000   0.0000
     0.0000   0.0000   0.0000

          k = 0.1250 0.3608 0.0000 (  2112 PWs)   bands (ev):

   -82.0908 -45.4348 -45.4088 -45.2511 -17.0616  -6.1689  -5.3769  -1.3517
    -0.4315  -0.1109   6.9329   7.4711   8.1738   8.5251   9.2103  10.2274
    12.1470  12.5470  12.7594  14.5179  14.7514  18.3167  20.5987  21.9443
    22.5375  23.3207  24.9017

     occupation numbers 
     1.0000   1.0000   1.0000   1.0000   1.0000   1.0000   1.0000   1.0000
     1.0000   1.0000   1.0000   1.0000   1.0000   1.0000   1.0000   1.0000
     1.0000   1.0000   1.0000   0.0000   0.0000   0.0000   0.0000   0.0000
     0.0000   0.0000   0.0000

          k = 0.1250 0.3608 0.1758 (  2117 PWs)   bands (ev):

   -82.0908 -45.4348 -45.4088 -45.2512 -17.0593  -6.2560  -5.2895  -1.3231
    -0.4539  -0.1368   7.1227   7.2577   8.0427   8.7723   9.2404  10.2328
    12.2089  12.5733  12.7416  14.3869  14.7060  18.3346  20.5685  21.6627
    22.5532  23.4324  24.6955

     occupation numbers 
     1.0000   1.0000   1.0000   1.0000   1.0000   1.0000   1.0000   1.0000
     1.0000   1.0000   1.0000   1.0000   1.0000   1.0000   1.0000   1.0000
     1.0000   1.0000   1.0000   0.0001   0.0000   0.0000   0.0000   0.0000
     0.0000   0.0000   0.0000

          k = 0.1250 0.5052 0.0000 (  2125 PWs)   bands (ev):

   -82.0896 -45.4473 -45.4137 -45.2490 -16.8713  -5.9181  -5.2954  -1.7836
    -0.5064  -0.3536   6.1207   7.3928   8.3658   8.7145   9.1173  10.0595
    11.9711  12.4164  12.6751  14.4966  14.8122  17.7034  21.2555  22.4597
    23.1084  23.3706  25.6946

     occupation numbers 
     1.0000   1.0000   1.0000   1.0000   1.0000   1.0000   1.0000   1.0000
     1.0000   1.0000   1.0000   1.0000   1.0000   1.0000   1.0000   1.0000
     1.0000   1.0000   1.0000   0.0000   0.0000   0.0000   0.0000   0.0000
     0.0000   0.0000   0.0000

          k = 0.1250 0.5052 0.1758 (  2124 PWs)   bands (ev):

   -82.0896 -45.4473 -45.4137 -45.2491 -16.8695  -5.9286  -5.2844  -1.8245
    -0.5127  -0.3697   6.5996   7.2833   8.2193   8.9015   9.1082   9.5582
    12.1309  12.4019  12.7007  14.5482  14.7763  17.7442  21.3009  22.1404
    22.6532  23.7499  25.3171

     occupation numbers 
     1.0000   1.0000   1.0000   1.0000   1.0000   1.0000   1.0000   1.0000
     1.0000   1.0000   1.0000   1.0000   1.0000   1.0000   1.0000   1.0000
     1.0000   1.0000   1.0000   0.0000   0.0000   0.0000   0.0000   0.0000
     0.0000   0.0000   0.0000

          k = 0.2500 0.4330 0.0000 (  2117 PWs)   bands (ev):

   -82.0896 -45.4411 -45.4198 -45.2490 -16.8730  -5.9123  -5.2845  -1.5616
    -0.7410  -0.4252   6.6696   7.0164   7.9112   8.9450   9.0746   9.9342
    12.1239  12.4639  12.7646  14.5566  14.6579  19.0031  20.5709  21.8278
    22.6861  23.1448  26.2436

     occupation numbers 
     1.0000   1.0000   1.0000   1.0000   1.0000   1.0000   1.0000   1.0000
     1.0000   1.0000   1.0000   1.0000   1.0000   1.0000   1.0000   1.0000
     1.0000   1.0000   1.0000   0.0000   0.0000   0.0000   0.0000   0.0000
     0.0000   0.0000   0.0000

          k = 0.2500 0.4330 0.1758 (  2126 PWs)   bands (ev):

   -82.0896 -45.4411 -45.4198 -45.2491 -16.8712  -5.8998  -5.3108  -1.5466
    -0.7698  -0.4500   6.8659   7.1691   8.0449   8.6552   9.0089   9.8937
    12.1827  12.4481  12.8367  14.3878  14.5714  19.0802  20.5118  21.8029
    22.4565  23.3545  25.7826

     occupation numbers 
     1.0000   1.0000   1.0000   1.0000   1.0000   1.0000   1.0000   1.0000
     1.0000   1.0000   1.0000   1.0000   1.0000   1.0000   1.0000   1.0000
     1.0000   1.0000   1.0001   0.0001   0.0000   0.0000   0.0000   0.0000
     0.0000   0.0000   0.0000

          k = 0.2500 0.5774 0.0000 (  2121 PWs)   bands (ev):

   -82.0891 -45.4417 -45.4265 -45.2481 -16.7923  -5.7935  -5.2636  -1.5883
    -0.9701  -0.4912   6.4947   6.9442   7.6232   9.0827   9.1759   9.8543
    11.9600  12.5949  12.7093  14.5760  14.6182  19.1543  21.0226  21.6555
    22.8082  23.0542  26.5694

     occupation numbers 
     1.0000   1.0000   1.0000   1.0000   1.0000   1.0000   1.0000   1.0000
     1.0000   1.0000   1.0000   1.0000   1.0000   1.0000   1.0000   1.0000
     1.0000   1.0000   1.0000   0.0000   0.0000   0.0000   0.0000   0.0000
     0.0000   0.0000   0.0000

          k = 0.2500 0.5774 0.1758 (  2132 PWs)   bands (ev):

   -82.0891 -45.4416 -45.4266 -45.2482 -16.7907  -5.7828  -5.2684  -1.6155
    -0.9956  -0.5368   6.8219   7.1312   7.9551   8.7560   9.0724   9.4453
    12.0703  12.5881  12.7840  14.4068  14.5082  19.1890  20.9898  21.8970
    22.4946  23.2409  26.1089

     occupation numbers 
     1.0000   1.0000   1.0000   1.0000   1.0000   1.0000   1.0000   1.0000
     1.0000   1.0000   1.0000   1.0000   1.0000   1.0000   1.0000   1.0000
     1.0000   1.0000   1.0000   0.0001   0.0000   0.0000   0.0000   0.0000
     0.0000   0.0000   0.0000

          k = 0.0000-0.1443 0.1758 (  2112 PWs)   bands (ev):

   -82.0938 -45.4040 -45.3978 -45.2562 -17.4809  -7.0350  -5.2447  -0.4220
     0.1128   0.4131   7.2960   7.6586   7.7171   9.8173  10.2992  10.7334
    12.0208  12.1521  12.8319  14.7385  15.0417  18.0920  20.3051  20.3582
    21.4832  21.8567  23.9230

     occupation numbers 
     1.0000   1.0000   1.0000   1.0000   1.0000   1.0000   1.0000   1.0000
     1.0000   1.0000   1.0000   1.0000   1.0000   1.0000   1.0000   1.0000
     1.0000   1.0000   1.0001   0.0000   0.0000   0.0000   0.0000   0.0000
     0.0000   0.0000   0.0000

          k = 0.0000-0.2887 0.1758 (  2109 PWs)   bands (ev):

   -82.0920 -45.4237 -45.4025 -45.2532 -17.2395  -6.5721  -5.3088  -0.8623
    -0.3386   0.1815   6.9832   7.3333   7.9239   9.1063   9.7396  10.8312
    12.0704  12.4641  12.8385  14.3521  14.9296  18.2590  20.4350  20.8953
    22.4309  22.9443  23.8053

     occupation numbers 
     1.0000   1.0000   1.0000   1.0000   1.0000   1.0000   1.0000   1.0000
     1.0000   1.0000   1.0000   1.0000   1.0000   1.0000   1.0000   1.0000
     1.0000   1.0000   1.0001   0.0002   0.0000   0.0000   0.0000   0.0000
     0.0000   0.0000   0.0000

          k = 0.0000-0.4330 0.1758 (  2127 PWs)   bands (ev):

   -82.0903 -45.4436 -45.4073 -45.2503 -16.9808  -6.0466  -5.4109  -1.6254
    -0.4240  -0.0378   6.3561   7.3541   8.1141   8.9370   9.4055  10.2632
    12.0065  12.4162  12.7110  14.5189  14.9941  17.3684  20.8178  21.9021
    23.2468  23.5307  24.9989

     occupation numbers 
     1.0000   1.0000   1.0000   1.0000   1.0000   1.0000   1.0000   1.0000
     1.0000   1.0000   1.0000   1.0000   1.0000   1.0000   1.0000   1.0000
     1.0000   1.0000   1.0000   0.0000   0.0000   0.0000   0.0000   0.0000
     0.0000   0.0000   0.0000

          k =-0.1250-0.3608 0.1758 (  2117 PWs)   bands (ev):

   -82.0908 -45.4348 -45.4088 -45.2512 -17.0593  -6.2223  -5.3478  -1.2797
    -0.4343  -0.1374   6.7795   7.3231   7.9914   9.0285   9.1500  10.4921
    12.1429  12.5475  12.7735  14.4131  14.7068  18.3869  20.4979  21.3359
    22.4803  23.4962  25.0031

     occupation numbers 
     1.0000   1.0000   1.0000   1.0000   1.0000   1.0000   1.0000   1.0000
     1.0000   1.0000   1.0000   1.0000   1.0000   1.0000   1.0000   1.0000
     1.0000   1.0000   1.0000   0.0001   0.0000   0.0000   0.0000   0.0000
     0.0000   0.0000   0.0000

          k =-0.1250-0.5052 0.1758 (  2124 PWs)   bands (ev):

   -82.0896 -45.4473 -45.4136 -45.2491 -16.8695  -5.8719  -5.3660  -1.7818
    -0.5126  -0.3597   6.3835   7.3369   8.2652   8.8342   9.0550   9.8478
    12.0818  12.4010  12.7270  14.5249  14.8227  17.7306  21.1482  22.0940
    22.6231  23.7000  25.5768

     occupation numbers 
     1.0000   1.0000   1.0000   1.0000   1.0000   1.0000   1.0000   1.0000
     1.0000   1.0000   1.0000   1.0000   1.0000   1.0000   1.0000   1.0000
     1.0000   1.0000   1.0000   0.0000   0.0000   0.0000   0.0000   0.0000
     0.0000   0.0000   0.0000

     the Fermi energy is    13.7839 ev

     WARNING: integrated charge=    38.00024122, expected=    38.00000000

!    total energy              =    -573.04637759 Ry
     total all-electron energy =     -4292.157214 Ry
     estimated scf accuracy    <       0.00000003 Ry
     smearing contrib. (-TS)   =       0.00000362 Ry
     internal energy E=F+TS    =    -573.04638121 Ry

     The total energy is F=E-TS. E is the sum of the following terms:
     one-electron contribution =    -252.40791838 Ry
     hartree contribution      =     151.38803656 Ry
     xc contribution           =     -57.18265915 Ry
     ewald contribution        =    -252.65897413 Ry
     one-center paw contrib.   =    -162.18486611 Ry
      -> PAW hartree energy AE =     314.23523340 Ry
      -> PAW hartree energy PS =    -312.86321264 Ry
      -> PAW xc energy AE      =    -217.55261513 Ry
      -> PAW xc energy PS      =      53.99572825 Ry
      -> total E_H with PAW    =     152.76005733 Ry
      -> total E_XC with PAW   =    -220.73954602 Ry

     total magnetization       =    -0.00 Bohr mag/cell
     absolute magnetization    =     0.00 Bohr mag/cell

     convergence has been achieved in  22 iterations

     Forces acting on atoms (cartesian axes, Ry/au):

     atom    1 type  1   force =    -0.00000000   -0.00000000    0.04033416
     atom    2 type  2   force =     0.00000000    0.00000000   -0.01485177
     atom    3 type  2   force =     0.00000000    0.00000000    0.05961874
     atom    4 type  3   force =     0.00000000    0.00000000   -0.08510113
     The non-local contrib.  to forces
     atom    1 type  1   force =     0.00000000    0.00000000   -0.10583492
     atom    2 type  2   force =     0.00000000    0.00000000   -0.78986128
     atom    3 type  2   force =     0.00000000    0.00000000    0.76559003
     atom    4 type  3   force =     0.00000000   -0.00000000   -0.05892988
     The ionic contribution  to forces
     atom    1 type  1   force =    -0.00000000   -0.00000000    4.38744077
     atom    2 type  2   force =     0.00000000   -0.00000000   19.54547137
     atom    3 type  2   force =    -0.00000000    0.00000000  -17.31277195
     atom    4 type  3   force =     0.00000000   -0.00000000   -6.62014019
     The local contribution  to forces
     atom    1 type  1   force =    -0.00000000   -0.00000000   -4.24142799
     atom    2 type  2   force =     0.00000001   -0.00000001  -18.77765938
     atom    3 type  2   force =    -0.00000001    0.00000001   16.61444950
     atom    4 type  3   force =     0.00000000    0.00000000    6.59205804
     The core correction contribution to forces
     atom    1 type  1   force =     0.00000000   -0.00000000    0.00017255
     atom    2 type  2   force =    -0.00000000    0.00000000    0.00740048
     atom    3 type  2   force =     0.00000000   -0.00000000   -0.00774790
     atom    4 type  3   force =    -0.00000000   -0.00000000    0.00183787
     The Hubbard contrib.    to forces
     atom    1 type  1   force =     0.00000000    0.00000000    0.00000000
     atom    2 type  2   force =     0.00000000    0.00000000    0.00000000
     atom    3 type  2   force =     0.00000000    0.00000000    0.00000000
     atom    4 type  3   force =     0.00000000    0.00000000    0.00000000
     The SCF correction term to forces
     atom    1 type  1   force =     0.00000000    0.00000000   -0.00000731
     atom    2 type  2   force =     0.00000000   -0.00000000   -0.00019403
     atom    3 type  2   force =    -0.00000000    0.00000000    0.00010801
     atom    4 type  3   force =     0.00000000   -0.00000000    0.00008197

     Total force =     0.112446     Total SCF correction =     0.000237

     Writing all to output data dir ./out/pw.save/ :
     XML data file, charge density, pseudopotentials, collected wavefunctions
 
     init_run     :     11.12s CPU      2.88s WALL (       1 calls)
     electrons    :    134.46s CPU     33.09s WALL (       1 calls)
     forces       :      0.55s CPU      0.55s WALL (       1 calls)

     Called by init_run:
     wfcinit      :      0.35s CPU      0.43s WALL (       1 calls)
     wfcinit:atom :      0.05s CPU      0.05s WALL (      50 calls)
     wfcinit:wfcr :      0.25s CPU      0.31s WALL (      50 calls)
     potinit      :     10.11s CPU      1.73s WALL (       1 calls)
     hinit0       :      0.57s CPU      0.58s WALL (       1 calls)

     Called by electrons:
     c_bands      :     13.02s CPU     13.02s WALL (      22 calls)
     sum_band     :      2.67s CPU      2.65s WALL (      22 calls)
     v_of_rho     :      0.34s CPU      0.16s WALL (      23 calls)
     v_h          :      0.24s CPU      0.03s WALL (      23 calls)
     v_xc         :      0.10s CPU      0.13s WALL (      24 calls)
     newd         :      0.69s CPU      0.56s WALL (      23 calls)
                                        0.56s GPU  (      23 calls)
     PAW_pot      :    122.24s CPU     16.92s WALL (      23 calls)
     mix_rho      :      0.55s CPU      0.53s WALL (      22 calls)

     Called by c_bands:
     init_us_2    :      0.90s CPU      0.87s WALL (    2300 calls)
     cegterg      :     11.47s CPU     11.49s WALL (    1100 calls)

     Called by sum_band:
     sum_band:wei :      0.03s CPU      0.03s WALL (      22 calls)
                                        0.03s GPU  (      22 calls)
     sum_band:loo :      1.42s CPU      1.39s WALL (      22 calls)
                                        1.39s GPU  (      22 calls)
     sum_band:buf :      0.13s CPU      0.16s WALL (    1100 calls)
                                        0.14s GPU  (    1100 calls)
     sum_band:ini :      0.42s CPU      0.43s WALL (    1100 calls)
                                        0.42s GPU  (    1100 calls)
     sum_band:cal :      0.04s CPU      0.06s WALL (    1100 calls)
                                        0.05s GPU  (    1100 calls)
     sum_band:bec :      0.23s CPU      0.25s WALL (    1100 calls)
                                        0.24s GPU  (    1100 calls)
     addusdens    :      1.10s CPU      1.11s WALL (      22 calls)
                                        1.11s GPU  (      22 calls)
     addusd:skk   :      0.00s CPU      0.00s WALL (      66 calls)
                                        0.00s GPU  (      66 calls)

     Called by *egterg:
     cdiaghg      :      4.18s CPU      4.33s WALL (    4839 calls)
                                        4.27s GPU  (    4839 calls)
     cegterg:over :      0.70s CPU      0.73s WALL (    3739 calls)
     cegterg:upda :      0.68s CPU      0.69s WALL (    3739 calls)
     cegterg:last :      0.12s CPU      0.11s WALL (    1977 calls)
     h_psi        :      4.08s CPU      4.11s WALL (    4889 calls)
                                        4.05s GPU  (    4889 calls)
     s_psi        :      0.73s CPU      0.76s WALL (    4889 calls)
     g_psi        :      0.02s CPU      0.08s WALL (    3739 calls)
                                        0.04s GPU  (    3739 calls)

     Called by h_psi:
     h_psi:calbec :      0.14s CPU      0.26s WALL (    4889 calls)
                                        0.20s GPU  (    4889 calls)
     vloc_psi     :      2.78s CPU      2.74s WALL (    4889 calls)
                                        2.68s GPU  (    4889 calls)
     add_vuspsi   :      0.66s CPU      0.77s WALL (    4889 calls)
                                        0.71s GPU  (    4889 calls)

     General routines
     calbec       :      0.15s CPU      0.18s WALL (    6189 calls)
     fft          :      3.12s CPU      0.67s WALL (     588 calls)
                                        0.09s GPU  (     542 calls)
     ffts         :      1.84s CPU      0.35s WALL (     711 calls)
                                        0.02s GPU  (     665 calls)
     fftw         :      0.35s CPU      0.97s WALL (   16478 calls)
                                        0.78s GPU  (   16478 calls)
     interpolate  :      4.99s CPU      0.92s WALL (      46 calls)
 
     Parallel routines

     PAW routines
     PAW_pot      :    122.24s CPU     16.92s WALL (      23 calls)
     PAW_symme    :      0.01s CPU      0.01s WALL (      45 calls)
 
     PWSCF        :   2m27.04s CPU     37.13s WALL

 
   This run was terminated on:   5:36:25  12Jul2026            

=------------------------------------------------------------------------------=
   JOB DONE.
=------------------------------------------------------------------------------=
Warning: ieee_divide_by_zero is signaling
Warning: ieee_inexact is signaling
FORTRAN STOP
