
     Program PWSCF v.7.3.1 starts on 12Jul2026 at  5:39:34 

     This program is part of the open-source Quantum ESPRESSO suite
     for quantum simulation of materials; please cite
         "P. Giannozzi et al., J. Phys.:Condens. Matter 21 395502 (2009);
         "P. Giannozzi et al., J. Phys.:Condens. Matter 29 465901 (2017);
         "P. Giannozzi et al., J. Chem. Phys. 152 154105 (2020);
          URL http://www.quantum-espresso.org", 
     in publications or presentations arising from this work. More details at
     http://www.quantum-espresso.org/quote

     Parallel version (MPI & OpenMP), running on      14 processor cores
     Number of MPI processes:                 1
     Threads/MPI process:                    14

     MPI processes distributed on     1 nodes
     1348797 MiB available memory on the printing compute node when the environment starts
 
     Reading input from pw.in

     Current dimensions of program PWSCF are:
     Max number of different atomic species (ntypx) = 10
     Max number of k-points (npk) =  40000
     Max angular momentum in pseudopotentials (lmaxx) =  4
     file Co.pbe-spn-kjpaw_psl.0.3.1.UPF: wavefunction(s)  3P 3D renormalized
     file O.pbe-n-kjpaw_psl.1.0.0.UPF: wavefunction(s)  2S 2P renormalized
     file K.pbe-spn-kjpaw_psl.1.0.0.UPF: wavefunction(s)  3S renormalized
 
     Subspace diagonalization in iterative solution of the eigenvalue problem:
     a serial algorithm will be used

 
     G-vector sticks info
     --------------------
     sticks:   dense  smooth     PW     G-vecs:    dense   smooth      PW
     Sum        1003     499    151                86309    30591    5001
 
     Using Slab Decomposition
 


     bravais-lattice index     =            4
     lattice parameter (alat)  =       5.4802  a.u.
     unit-cell volume          =     486.5847 (a.u.)^3
     number of atoms/cell      =            4
     number of atomic types    =            3
     number of electrons       =        38.00
     number of Kohn-Sham states=           27
     kinetic-energy cutoff     =      60.0000  Ry
     charge density cutoff     =     480.0000  Ry
     scf convergence threshold =      1.0E-07
     mixing beta               =       0.3000
     number of iterations used =            8  local-TF  mixing
     Exchange-correlation= SLA  PW   PBX  PBC
                           (   1   4   3   4   0   0   0)

     GPU acceleration is ACTIVE.  1 visible GPUs per MPI rank
     GPU-aware MPI enabled


     GPU used by master process:

        Device Number: 0
        Device name: NVIDIA A100-SXM4-80GB
        Compute capability : 80
        Ratio of single to double precision performance  : 2
        Memory Clock Rate (KHz): 1593000
        Memory Bus Width (bits): 5120
        Peak Memory Bandwidth (GB/s): ******

     celldm(1)=   5.480206  celldm(2)=   0.000000  celldm(3)=   3.413793
     celldm(4)=   0.000000  celldm(5)=   0.000000  celldm(6)=   0.000000

     crystal axes: (cart. coord. in units of alat)
               a(1) = (   1.000000   0.000000   0.000000 )  
               a(2) = (  -0.500000   0.866025   0.000000 )  
               a(3) = (   0.000000   0.000000   3.413793 )  

     reciprocal axes: (cart. coord. in units 2 pi/alat)
               b(1) = (  1.000000  0.577350 -0.000000 )  
               b(2) = (  0.000000  1.154701  0.000000 )  
               b(3) = (  0.000000 -0.000000  0.292929 )  


     PseudoPot. # 1 for Co read from file:
     ../../pseudo/Co.pbe-spn-kjpaw_psl.0.3.1.UPF
     MD5 check sum: 3c0a43779828c046024e4f3be63f8e67
     Pseudo is Projector augmented-wave + core cor, Zval = 17.0
     Generated using &quot;atomic&quot; code by A. Dal Corso  v.6.2.2
     Shape of augmentation charge: PSQ
     Using radial grid of 1193 points,  6 beta functions with: 
                l(1) =   0
                l(2) =   0
                l(3) =   1
                l(4) =   1
                l(5) =   2
                l(6) =   2
     Q(r) pseudized with 0 coefficients 


     PseudoPot. # 2 for O  read from file:
     ../../pseudo/O.pbe-n-kjpaw_psl.1.0.0.UPF
     MD5 check sum: e99d9cef9b487d1ca56f5b95ecd0fd7a
     Pseudo is Projector augmented-wave + core cor, Zval =  6.0
     Generated using &quot;atomic&quot; code by A. Dal Corso  v.6.3
     Shape of augmentation charge: PSQ
     Using radial grid of 1095 points,  4 beta functions with: 
                l(1) =   0
                l(2) =   0
                l(3) =   1
                l(4) =   1
     Q(r) pseudized with 0 coefficients 


     PseudoPot. # 3 for K  read from file:
     ../../pseudo/K.pbe-spn-kjpaw_psl.1.0.0.UPF
     MD5 check sum: 34cc42130a09071ebe376fd42eb21491
     Pseudo is Projector augmented-wave + core cor, Zval =  9.0
     Generated using &quot;atomic&quot; code by A. Dal Corso  v.6.2.2
     Shape of augmentation charge: PSQ
     Using radial grid of 1165 points,  6 beta functions with: 
                l(1) =   0
                l(2) =   0
                l(3) =   1
                l(4) =   1
                l(5) =   2
                l(6) =   2
     Q(r) pseudized with 0 coefficients 


     atomic species   valence    mass     pseudopotential
     Co               17.00    58.93300     Co( 1.00)
     O                 6.00    15.99900     O ( 1.00)
     K                 9.00    39.09830     K ( 1.00)

     Starting magnetic structure 
     atomic species   magnetization
     Co              0.300
     O               0.000
     K               0.000

      6 Sym. Ops. (no inversion) found


                                    s                        frac. trans.

      isym =  1     identity                                     

 cryst.   s( 1) = (     1          0          0      )
                  (     0          1          0      )
                  (     0          0          1      )

 cart.    s( 1) = (  1.0000000  0.0000000  0.0000000 )
                  (  0.0000000  1.0000000  0.0000000 )
                  (  0.0000000  0.0000000  1.0000000 )


      isym =  2     120 deg rotation - cryst. axis [0,0,1]       

 cryst.   s( 2) = (     0          1          0      )
                  (    -1         -1          0      )
                  (     0          0          1      )

 cart.    s( 2) = ( -0.5000000 -0.8660254  0.0000000 )
                  (  0.8660254 -0.5000000  0.0000000 )
                  (  0.0000000  0.0000000  1.0000000 )


      isym =  3     120 deg rotation - cryst. axis [0,0,-1]      

 cryst.   s( 3) = (    -1         -1          0      )
                  (     1          0          0      )
                  (     0          0          1      )

 cart.    s( 3) = ( -0.5000000  0.8660254  0.0000000 )
                  ( -0.8660254 -0.5000000  0.0000000 )
                  (  0.0000000  0.0000000  1.0000000 )


      isym =  4     inv. 180 deg rotation - cart. axis [1,0,0]   

 cryst.   s( 4) = (    -1          0          0      )
                  (     1          1          0      )
                  (     0          0          1      )

 cart.    s( 4) = ( -1.0000000  0.0000000  0.0000000 )
                  (  0.0000000  1.0000000  0.0000000 )
                  (  0.0000000  0.0000000  1.0000000 )


      isym =  5     inv. 180 deg rotation - cryst. axis [0,1,0]  

 cryst.   s( 5) = (     1          1          0      )
                  (     0         -1          0      )
                  (     0          0          1      )

 cart.    s( 5) = (  0.5000000  0.8660254  0.0000000 )
                  (  0.8660254 -0.5000000  0.0000000 )
                  (  0.0000000  0.0000000  1.0000000 )


      isym =  6     inv. 180 deg rotation - cryst. axis [1,1,0]  

 cryst.   s( 6) = (     0         -1          0      )
                  (    -1          0          0      )
                  (     0          0          1      )

 cart.    s( 6) = (  0.5000000 -0.8660254  0.0000000 )
                  ( -0.8660254 -0.5000000  0.0000000 )
                  (  0.0000000  0.0000000  1.0000000 )


     point group C_3v (3m)  
     there are  3 classes
     the character table:

       E     2C3   3s_v 
A_1    1.00  1.00  1.00
A_2    1.00  1.00 -1.00
E      2.00 -1.00  0.00

     the symmetry operations in each class and the name of the first element:

     E        1
          identity                                               
     2C3      2    3
          120 deg rotation - cryst. axis [0,0,1]                 
     3s_v     4    5    6
          inv. 180 deg rotation - cart. axis [1,0,0]             

   Cartesian axes

     site n.     atom                  positions (alat units)
         1        Co     tau(   1) = (   0.0000000   0.0000000   0.0000000  )
         2        O      tau(   2) = (  -0.0000000   0.5773503   0.3310345  )
         3        O      tau(   3) = (   0.5000000   0.2886751   3.0827586  )
         4        K      tau(   4) = (   0.0000000   0.0000000   1.9655172  )

   Crystallographic axes

     site n.     atom                  positions (cryst. coord.)
         1        Co     tau(   1) = (  0.0000000  0.0000000  0.0000000  )
         2        O      tau(   2) = (  0.3333333  0.6666667  0.0969697  )
         3        O      tau(   3) = (  0.6666667  0.3333333  0.9030303  )
         4        K      tau(   4) = (  0.0000000  0.0000000  0.5757576  )

     number of k points=    25  Marzari-Vanderbilt smearing, width (Ry)=  0.0200
                       cart. coord. in units 2pi/alat
        k(    1) = (   0.0000000   0.0000000   0.0000000), wk =   0.0052083
        k(    2) = (   0.0000000   0.0000000   0.0976431), wk =   0.0104167
        k(    3) = (   0.0000000   0.1443376   0.0000000), wk =   0.0312500
        k(    4) = (   0.0000000   0.1443376   0.0976431), wk =   0.0312500
        k(    5) = (   0.0000000   0.2886751   0.0000000), wk =   0.0312500
        k(    6) = (   0.0000000   0.2886751   0.0976431), wk =   0.0312500
        k(    7) = (   0.0000000   0.4330127   0.0000000), wk =   0.0312500
        k(    8) = (   0.0000000   0.4330127   0.0976431), wk =   0.0312500
        k(    9) = (   0.0000000  -0.5773503   0.0000000), wk =   0.0156250
        k(   10) = (   0.0000000  -0.5773503   0.0976431), wk =   0.0312500
        k(   11) = (   0.1250000   0.2165064   0.0000000), wk =   0.0312500
        k(   12) = (   0.1250000   0.2165064   0.0976431), wk =   0.0625000
        k(   13) = (   0.1250000   0.3608439   0.0000000), wk =   0.0625000
        k(   14) = (   0.1250000   0.3608439   0.0976431), wk =   0.0625000
        k(   15) = (   0.1250000   0.5051815   0.0000000), wk =   0.0625000
        k(   16) = (   0.1250000   0.5051815   0.0976431), wk =   0.0625000
        k(   17) = (   0.2500000   0.4330127   0.0000000), wk =   0.0312500
        k(   18) = (   0.2500000   0.4330127   0.0976431), wk =   0.0625000
        k(   19) = (   0.2500000   0.5773503   0.0000000), wk =   0.0312500
        k(   20) = (   0.2500000   0.5773503   0.0976431), wk =   0.0625000
        k(   21) = (   0.0000000  -0.1443376   0.0976431), wk =   0.0312500
        k(   22) = (   0.0000000  -0.2886751   0.0976431), wk =   0.0312500
        k(   23) = (   0.0000000  -0.4330127   0.0976431), wk =   0.0312500
        k(   24) = (  -0.1250000  -0.3608439   0.0976431), wk =   0.0625000
        k(   25) = (  -0.1250000  -0.5051815   0.0976431), wk =   0.0625000

                       cryst. coord.
        k(    1) = (   0.0000000   0.0000000   0.0000000), wk =   0.0052083
        k(    2) = (   0.0000000   0.0000000   0.3333333), wk =   0.0104167
        k(    3) = (   0.0000000   0.1250000   0.0000000), wk =   0.0312500
        k(    4) = (   0.0000000   0.1250000   0.3333333), wk =   0.0312500
        k(    5) = (   0.0000000   0.2500000   0.0000000), wk =   0.0312500
        k(    6) = (   0.0000000   0.2500000   0.3333333), wk =   0.0312500
        k(    7) = (   0.0000000   0.3750000   0.0000000), wk =   0.0312500
        k(    8) = (   0.0000000   0.3750000   0.3333333), wk =   0.0312500
        k(    9) = (   0.0000000  -0.5000000   0.0000000), wk =   0.0156250
        k(   10) = (   0.0000000  -0.5000000   0.3333333), wk =   0.0312500
        k(   11) = (   0.1250000   0.1250000   0.0000000), wk =   0.0312500
        k(   12) = (   0.1250000   0.1250000   0.3333333), wk =   0.0625000
        k(   13) = (   0.1250000   0.2500000   0.0000000), wk =   0.0625000
        k(   14) = (   0.1250000   0.2500000   0.3333333), wk =   0.0625000
        k(   15) = (   0.1250000   0.3750000   0.0000000), wk =   0.0625000
        k(   16) = (   0.1250000   0.3750000   0.3333333), wk =   0.0625000
        k(   17) = (   0.2500000   0.2500000   0.0000000), wk =   0.0312500
        k(   18) = (   0.2500000   0.2500000   0.3333333), wk =   0.0625000
        k(   19) = (   0.2500000   0.3750000   0.0000000), wk =   0.0312500
        k(   20) = (   0.2500000   0.3750000   0.3333333), wk =   0.0625000
        k(   21) = (   0.0000000  -0.1250000   0.3333333), wk =   0.0312500
        k(   22) = (   0.0000000  -0.2500000   0.3333333), wk =   0.0312500
        k(   23) = (   0.0000000  -0.3750000   0.3333333), wk =   0.0312500
        k(   24) = (  -0.1250000  -0.2500000   0.3333333), wk =   0.0625000
        k(   25) = (  -0.1250000  -0.3750000   0.3333333), wk =   0.0625000

     Dense  grid:    86309 G-vectors     FFT dimensions: (  40,  40, 135)

     Smooth grid:    30591 G-vectors     FFT dimensions: (  27,  27,  96)

     Dynamical RAM for                 wfc:       1.57 MB

     Dynamical RAM for     wfc (w. buffer):      80.24 MB

     Dynamical RAM for           str. fact:       3.95 MB

     Dynamical RAM for           local pot:       0.00 MB

     Dynamical RAM for          nlocal pot:       3.03 MB

     Dynamical RAM for                qrad:       5.27 MB

     Dynamical RAM for          rho,v,vnew:      17.79 MB

     Dynamical RAM for               rhoin:       5.93 MB

     Dynamical RAM for            rho*nmix:      42.14 MB

     Dynamical RAM for           G-vectors:       5.17 MB

     Dynamical RAM for          h,s,v(r/c):       0.13 MB

     Dynamical RAM for          <psi|beta>:       0.02 MB

     Dynamical RAM for                 psi:       3.15 MB

     Dynamical RAM for                hpsi:       3.15 MB

     Dynamical RAM for                spsi:       3.15 MB

     Dynamical RAM for      wfcinit/wfcrot:       3.16 MB

     Dynamical RAM for           addusdens:     248.91 MB

     Dynamical RAM for          addusforce:     251.56 MB

     Estimated static dynamical RAM per process >     136.54 MB

     Estimated max dynamical RAM per process >     430.24 MB

     Check: negative core charge=   -0.000006
     Generating pointlists ...
     new r_m :   0.2745 (alat units)  1.5045 (a.u.) for type    1
     new r_m :   0.2745 (alat units)  1.5045 (a.u.) for type    2
     new r_m :   0.4125 (alat units)  2.2606 (a.u.) for type    3

     Initial potential from superposition of free atoms

     starting charge      37.9809, renormalised to      38.0000
     Starting wfcs are   26 randomized atomic wfcs +    1 random wfcs
     Checking if some PAW data can be deallocated... 

     total cpu time spent up to now is        3.9 secs

     Self-consistent Calculation
[tb_dev] Currently allocated     6.58E-01 Mbytes, locked:    0 /   6
[tb_pin] Currently allocated     0.00E+00 Mbytes, locked:    0 /   0

     iteration #  1     ecut=    60.00 Ry     beta= 0.30
     Davidson diagonalization with overlap

---- Real-time Memory Report at c_bands before calling an iterative solver
           712 MiB given to the printing process from OS
             0 MiB allocation reported by mallinfo(arena+hblkhd)
       1360906 MiB available memory on the node where the printing process lives
     GPU memory used/free/total (MiB): 1110 / 80040 / 81151
------------------
     ethr =  1.00E-02,  avg # of iterations =  8.3

     total cpu time spent up to now is        6.2 secs

     total energy              =    -572.71138167 Ry
     estimated scf accuracy    <       2.07944271 Ry

     total magnetization       =     4.01 Bohr mag/cell
     absolute magnetization    =     4.01 Bohr mag/cell
[tb_dev] Currently allocated     3.05E-05 Mbytes, locked:    0 /   2
[tb_pin] Currently allocated     0.00E+00 Mbytes, locked:    0 /   0

     iteration #  2     ecut=    60.00 Ry     beta= 0.30
     Davidson diagonalization with overlap

---- Real-time Memory Report at c_bands before calling an iterative solver
           758 MiB given to the printing process from OS
             0 MiB allocation reported by mallinfo(arena+hblkhd)
       1358934 MiB available memory on the node where the printing process lives
     GPU memory used/free/total (MiB): 1130 / 80020 / 81151
------------------
     ethr =  5.47E-03,  avg # of iterations =  1.9

     total cpu time spent up to now is        7.6 secs

     total energy              =    -572.67162672 Ry
     estimated scf accuracy    <       1.05850087 Ry

     total magnetization       =     3.86 Bohr mag/cell
     absolute magnetization    =     3.86 Bohr mag/cell
[tb_dev] Currently allocated     3.05E-05 Mbytes, locked:    0 /   2
[tb_pin] Currently allocated     0.00E+00 Mbytes, locked:    0 /   0

     iteration #  3     ecut=    60.00 Ry     beta= 0.30
     Davidson diagonalization with overlap

---- Real-time Memory Report at c_bands before calling an iterative solver
           759 MiB given to the printing process from OS
             0 MiB allocation reported by mallinfo(arena+hblkhd)
       1357833 MiB available memory on the node where the printing process lives
     GPU memory used/free/total (MiB): 1130 / 80020 / 81151
------------------
     ethr =  2.79E-03,  avg # of iterations =  2.5

     total cpu time spent up to now is        9.1 secs

     total energy              =    -572.89824734 Ry
     estimated scf accuracy    <       1.53036530 Ry

     total magnetization       =     1.35 Bohr mag/cell
     absolute magnetization    =     1.49 Bohr mag/cell
[tb_dev] Currently allocated     3.05E-05 Mbytes, locked:    0 /   2
[tb_pin] Currently allocated     0.00E+00 Mbytes, locked:    0 /   0

     iteration #  4     ecut=    60.00 Ry     beta= 0.30
     Davidson diagonalization with overlap

---- Real-time Memory Report at c_bands before calling an iterative solver
           761 MiB given to the printing process from OS
             0 MiB allocation reported by mallinfo(arena+hblkhd)
       1356256 MiB available memory on the node where the printing process lives
     GPU memory used/free/total (MiB): 1130 / 80020 / 81151
------------------
     ethr =  2.79E-03,  avg # of iterations =  1.5

     total cpu time spent up to now is       10.4 secs

     total energy              =    -572.90326164 Ry
     estimated scf accuracy    <       2.60410598 Ry

     total magnetization       =     0.86 Bohr mag/cell
     absolute magnetization    =     1.19 Bohr mag/cell
[tb_dev] Currently allocated     3.05E-05 Mbytes, locked:    0 /   2
[tb_pin] Currently allocated     0.00E+00 Mbytes, locked:    0 /   0

     iteration #  5     ecut=    60.00 Ry     beta= 0.30
     Davidson diagonalization with overlap

---- Real-time Memory Report at c_bands before calling an iterative solver
           761 MiB given to the printing process from OS
             0 MiB allocation reported by mallinfo(arena+hblkhd)
       1355226 MiB available memory on the node where the printing process lives
     GPU memory used/free/total (MiB): 1130 / 80020 / 81151
------------------
     ethr =  2.79E-03,  avg # of iterations =  1.6

     total cpu time spent up to now is       11.8 secs

     total energy              =    -572.60099707 Ry
     estimated scf accuracy    <       1.78562858 Ry

     total magnetization       =     0.49 Bohr mag/cell
     absolute magnetization    =     1.10 Bohr mag/cell
[tb_dev] Currently allocated     3.05E-05 Mbytes, locked:    0 /   2
[tb_pin] Currently allocated     0.00E+00 Mbytes, locked:    0 /   0

     iteration #  6     ecut=    60.00 Ry     beta= 0.30
     Davidson diagonalization with overlap

---- Real-time Memory Report at c_bands before calling an iterative solver
           765 MiB given to the printing process from OS
             0 MiB allocation reported by mallinfo(arena+hblkhd)
       1354086 MiB available memory on the node where the printing process lives
     GPU memory used/free/total (MiB): 1130 / 80020 / 81151
------------------
     ethr =  2.79E-03,  avg # of iterations =  2.3

     total cpu time spent up to now is       13.3 secs

     total energy              =    -572.53097875 Ry
     estimated scf accuracy    <       6.90332030 Ry

     total magnetization       =     0.55 Bohr mag/cell
     absolute magnetization    =     0.75 Bohr mag/cell
[tb_dev] Currently allocated     3.05E-05 Mbytes, locked:    0 /   2
[tb_pin] Currently allocated     0.00E+00 Mbytes, locked:    0 /   0

     iteration #  7     ecut=    60.00 Ry     beta= 0.30
     Davidson diagonalization with overlap

---- Real-time Memory Report at c_bands before calling an iterative solver
           766 MiB given to the printing process from OS
             0 MiB allocation reported by mallinfo(arena+hblkhd)
       1352849 MiB available memory on the node where the printing process lives
     GPU memory used/free/total (MiB): 1130 / 80020 / 81151
------------------
     ethr =  2.79E-03,  avg # of iterations =  1.1

     total cpu time spent up to now is       14.6 secs

     total energy              =    -572.82347476 Ry
     estimated scf accuracy    <       0.38789374 Ry

     total magnetization       =     0.36 Bohr mag/cell
     absolute magnetization    =     0.89 Bohr mag/cell
[tb_dev] Currently allocated     3.05E-05 Mbytes, locked:    0 /   2
[tb_pin] Currently allocated     0.00E+00 Mbytes, locked:    0 /   0

     iteration #  8     ecut=    60.00 Ry     beta= 0.30
     Davidson diagonalization with overlap

---- Real-time Memory Report at c_bands before calling an iterative solver
           768 MiB given to the printing process from OS
             0 MiB allocation reported by mallinfo(arena+hblkhd)
       1351646 MiB available memory on the node where the printing process lives
     GPU memory used/free/total (MiB): 1130 / 80020 / 81151
------------------
     ethr =  1.02E-03,  avg # of iterations =  2.9

     total cpu time spent up to now is       16.1 secs

     total energy              =    -572.85055244 Ry
     estimated scf accuracy    <       0.04843177 Ry

     total magnetization       =     0.64 Bohr mag/cell
     absolute magnetization    =     0.77 Bohr mag/cell
[tb_dev] Currently allocated     3.05E-05 Mbytes, locked:    0 /   2
[tb_pin] Currently allocated     0.00E+00 Mbytes, locked:    0 /   0

     iteration #  9     ecut=    60.00 Ry     beta= 0.30
     Davidson diagonalization with overlap

---- Real-time Memory Report at c_bands before calling an iterative solver
           772 MiB given to the printing process from OS
             0 MiB allocation reported by mallinfo(arena+hblkhd)
       1350217 MiB available memory on the node where the printing process lives
     GPU memory used/free/total (MiB): 1130 / 80020 / 81151
------------------
     ethr =  1.27E-04,  avg # of iterations =  6.6

     total cpu time spent up to now is       18.2 secs

     total energy              =    -572.85814147 Ry
     estimated scf accuracy    <       0.02778632 Ry

     total magnetization       =     0.54 Bohr mag/cell
     absolute magnetization    =     0.69 Bohr mag/cell
[tb_dev] Currently allocated     3.05E-05 Mbytes, locked:    0 /   2
[tb_pin] Currently allocated     0.00E+00 Mbytes, locked:    0 /   0

     iteration # 10     ecut=    60.00 Ry     beta= 0.30
     Davidson diagonalization with overlap

---- Real-time Memory Report at c_bands before calling an iterative solver
           774 MiB given to the printing process from OS
             0 MiB allocation reported by mallinfo(arena+hblkhd)
       1347515 MiB available memory on the node where the printing process lives
     GPU memory used/free/total (MiB): 1130 / 80020 / 81151
------------------
     c_bands:  2 eigenvalues not converged
     c_bands:  1 eigenvalues not converged
     c_bands:  1 eigenvalues not converged
     c_bands:  1 eigenvalues not converged
     ethr =  7.31E-05,  avg # of iterations =  4.6

     total cpu time spent up to now is       20.0 secs

     total energy              =    -572.86331044 Ry
     estimated scf accuracy    <       0.00605805 Ry

     total magnetization       =     0.67 Bohr mag/cell
     absolute magnetization    =     0.74 Bohr mag/cell
[tb_dev] Currently allocated     3.05E-05 Mbytes, locked:    0 /   2
[tb_pin] Currently allocated     0.00E+00 Mbytes, locked:    0 /   0

     iteration # 11     ecut=    60.00 Ry     beta= 0.30
     Davidson diagonalization with overlap

---- Real-time Memory Report at c_bands before calling an iterative solver
           774 MiB given to the printing process from OS
             0 MiB allocation reported by mallinfo(arena+hblkhd)
       1344679 MiB available memory on the node where the printing process lives
     GPU memory used/free/total (MiB): 1130 / 80020 / 81151
------------------
     c_bands:  1 eigenvalues not converged
     c_bands:  1 eigenvalues not converged
     ethr =  1.59E-05,  avg # of iterations =  7.1

     total cpu time spent up to now is       22.1 secs

     total energy              =    -572.86396017 Ry
     estimated scf accuracy    <       0.01476085 Ry

     total magnetization       =     0.72 Bohr mag/cell
     absolute magnetization    =     0.81 Bohr mag/cell
[tb_dev] Currently allocated     3.05E-05 Mbytes, locked:    0 /   2
[tb_pin] Currently allocated     0.00E+00 Mbytes, locked:    0 /   0

     iteration # 12     ecut=    60.00 Ry     beta= 0.30
     Davidson diagonalization with overlap

---- Real-time Memory Report at c_bands before calling an iterative solver
           774 MiB given to the printing process from OS
             0 MiB allocation reported by mallinfo(arena+hblkhd)
       1360708 MiB available memory on the node where the printing process lives
     GPU memory used/free/total (MiB): 1130 / 80020 / 81151
------------------
     ethr =  1.59E-05,  avg # of iterations =  1.3

     total cpu time spent up to now is       23.4 secs

     total energy              =    -572.86430836 Ry
     estimated scf accuracy    <       0.01125423 Ry

     total magnetization       =     0.69 Bohr mag/cell
     absolute magnetization    =     0.79 Bohr mag/cell
[tb_dev] Currently allocated     3.05E-05 Mbytes, locked:    0 /   2
[tb_pin] Currently allocated     0.00E+00 Mbytes, locked:    0 /   0

     iteration # 13     ecut=    60.00 Ry     beta= 0.30
     Davidson diagonalization with overlap

---- Real-time Memory Report at c_bands before calling an iterative solver
           774 MiB given to the printing process from OS
             0 MiB allocation reported by mallinfo(arena+hblkhd)
       1359490 MiB available memory on the node where the printing process lives
     GPU memory used/free/total (MiB): 1130 / 80020 / 81151
------------------
     ethr =  1.59E-05,  avg # of iterations =  1.6

     total cpu time spent up to now is       24.8 secs

     total energy              =    -572.86422000 Ry
     estimated scf accuracy    <       0.00789345 Ry

     total magnetization       =     0.68 Bohr mag/cell
     absolute magnetization    =     0.79 Bohr mag/cell
[tb_dev] Currently allocated     3.05E-05 Mbytes, locked:    0 /   2
[tb_pin] Currently allocated     0.00E+00 Mbytes, locked:    0 /   0

     iteration # 14     ecut=    60.00 Ry     beta= 0.30
     Davidson diagonalization with overlap

---- Real-time Memory Report at c_bands before calling an iterative solver
           774 MiB given to the printing process from OS
             0 MiB allocation reported by mallinfo(arena+hblkhd)
       1358233 MiB available memory on the node where the printing process lives
     GPU memory used/free/total (MiB): 1130 / 80020 / 81151
------------------
     ethr =  1.59E-05,  avg # of iterations =  1.1

     total cpu time spent up to now is       26.2 secs

     total energy              =    -572.86447953 Ry
     estimated scf accuracy    <       0.00038930 Ry

     total magnetization       =     0.59 Bohr mag/cell
     absolute magnetization    =     0.74 Bohr mag/cell
[tb_dev] Currently allocated     3.05E-05 Mbytes, locked:    0 /   2
[tb_pin] Currently allocated     0.00E+00 Mbytes, locked:    0 /   0

     iteration # 15     ecut=    60.00 Ry     beta= 0.30
     Davidson diagonalization with overlap

---- Real-time Memory Report at c_bands before calling an iterative solver
           774 MiB given to the printing process from OS
             0 MiB allocation reported by mallinfo(arena+hblkhd)
       1357040 MiB available memory on the node where the printing process lives
     GPU memory used/free/total (MiB): 1130 / 80020 / 81151
------------------
     c_bands:  1 eigenvalues not converged
     c_bands:  1 eigenvalues not converged
     c_bands:  1 eigenvalues not converged
     c_bands:  1 eigenvalues not converged
     c_bands:  1 eigenvalues not converged
     ethr =  1.02E-06,  avg # of iterations =  7.4

     total cpu time spent up to now is       28.3 secs

     total energy              =    -572.86447985 Ry
     estimated scf accuracy    <       0.00045318 Ry

     total magnetization       =     0.60 Bohr mag/cell
     absolute magnetization    =     0.76 Bohr mag/cell
[tb_dev] Currently allocated     3.05E-05 Mbytes, locked:    0 /   2
[tb_pin] Currently allocated     0.00E+00 Mbytes, locked:    0 /   0

     iteration # 16     ecut=    60.00 Ry     beta= 0.30
     Davidson diagonalization with overlap

---- Real-time Memory Report at c_bands before calling an iterative solver
           774 MiB given to the printing process from OS
             0 MiB allocation reported by mallinfo(arena+hblkhd)
       1355619 MiB available memory on the node where the printing process lives
     GPU memory used/free/total (MiB): 1130 / 80020 / 81151
------------------
     c_bands:  1 eigenvalues not converged
     c_bands:  1 eigenvalues not converged
     ethr =  1.02E-06,  avg # of iterations =  2.4

     total cpu time spent up to now is       29.8 secs

     total energy              =    -572.86457846 Ry
     estimated scf accuracy    <       0.00034467 Ry

     total magnetization       =     0.55 Bohr mag/cell
     absolute magnetization    =     0.75 Bohr mag/cell
[tb_dev] Currently allocated     3.05E-05 Mbytes, locked:    0 /   2
[tb_pin] Currently allocated     0.00E+00 Mbytes, locked:    0 /   0

     iteration # 17     ecut=    60.00 Ry     beta= 0.30
     Davidson diagonalization with overlap

---- Real-time Memory Report at c_bands before calling an iterative solver
           774 MiB given to the printing process from OS
             0 MiB allocation reported by mallinfo(arena+hblkhd)
       1354144 MiB available memory on the node where the printing process lives
     GPU memory used/free/total (MiB): 1130 / 80020 / 81151
------------------
     c_bands:  2 eigenvalues not converged
     ethr =  9.07E-07,  avg # of iterations =  2.4

     total cpu time spent up to now is       31.3 secs

     total energy              =    -572.86464470 Ry
     estimated scf accuracy    <       0.00004092 Ry

     total magnetization       =     0.52 Bohr mag/cell
     absolute magnetization    =     0.82 Bohr mag/cell
[tb_dev] Currently allocated     3.05E-05 Mbytes, locked:    0 /   2
[tb_pin] Currently allocated     0.00E+00 Mbytes, locked:    0 /   0

     iteration # 18     ecut=    60.00 Ry     beta= 0.30
     Davidson diagonalization with overlap

---- Real-time Memory Report at c_bands before calling an iterative solver
           774 MiB given to the printing process from OS
             0 MiB allocation reported by mallinfo(arena+hblkhd)
       1353002 MiB available memory on the node where the printing process lives
     GPU memory used/free/total (MiB): 1130 / 80020 / 81151
------------------
     ethr =  1.08E-07,  avg # of iterations =  5.7

     total cpu time spent up to now is       33.3 secs

     total energy              =    -572.86467025 Ry
     estimated scf accuracy    <       0.00000426 Ry

     total magnetization       =     0.54 Bohr mag/cell
     absolute magnetization    =     0.81 Bohr mag/cell
[tb_dev] Currently allocated     3.05E-05 Mbytes, locked:    0 /   2
[tb_pin] Currently allocated     0.00E+00 Mbytes, locked:    0 /   0

     iteration # 19     ecut=    60.00 Ry     beta= 0.30
     Davidson diagonalization with overlap

---- Real-time Memory Report at c_bands before calling an iterative solver
           774 MiB given to the printing process from OS
             0 MiB allocation reported by mallinfo(arena+hblkhd)
       1351856 MiB available memory on the node where the printing process lives
     GPU memory used/free/total (MiB): 1130 / 80020 / 81151
------------------
     ethr =  1.12E-08,  avg # of iterations =  4.2

     total cpu time spent up to now is       35.0 secs

     total energy              =    -572.86468782 Ry
     estimated scf accuracy    <       0.00000295 Ry

     total magnetization       =     0.53 Bohr mag/cell
     absolute magnetization    =     0.81 Bohr mag/cell
[tb_dev] Currently allocated     3.05E-05 Mbytes, locked:    0 /   2
[tb_pin] Currently allocated     0.00E+00 Mbytes, locked:    0 /   0

     iteration # 20     ecut=    60.00 Ry     beta= 0.30
     Davidson diagonalization with overlap

---- Real-time Memory Report at c_bands before calling an iterative solver
           774 MiB given to the printing process from OS
             0 MiB allocation reported by mallinfo(arena+hblkhd)
       1350202 MiB available memory on the node where the printing process lives
     GPU memory used/free/total (MiB): 1130 / 80020 / 81151
------------------
     ethr =  7.77E-09,  avg # of iterations =  3.8

     total cpu time spent up to now is       36.7 secs

     total energy              =    -572.86471684 Ry
     estimated scf accuracy    <       0.00000156 Ry

     total magnetization       =     0.51 Bohr mag/cell
     absolute magnetization    =     0.83 Bohr mag/cell
[tb_dev] Currently allocated     3.05E-05 Mbytes, locked:    0 /   2
[tb_pin] Currently allocated     0.00E+00 Mbytes, locked:    0 /   0

     iteration # 21     ecut=    60.00 Ry     beta= 0.30
     Davidson diagonalization with overlap

---- Real-time Memory Report at c_bands before calling an iterative solver
           774 MiB given to the printing process from OS
             0 MiB allocation reported by mallinfo(arena+hblkhd)
       1347597 MiB available memory on the node where the printing process lives
     GPU memory used/free/total (MiB): 1130 / 80020 / 81151
------------------
     ethr =  4.11E-09,  avg # of iterations =  4.0

     total cpu time spent up to now is       38.4 secs

     total energy              =    -572.86473482 Ry
     estimated scf accuracy    <       0.00000113 Ry

     total magnetization       =     0.50 Bohr mag/cell
     absolute magnetization    =     0.85 Bohr mag/cell
[tb_dev] Currently allocated     3.05E-05 Mbytes, locked:    0 /   2
[tb_pin] Currently allocated     0.00E+00 Mbytes, locked:    0 /   0

     iteration # 22     ecut=    60.00 Ry     beta= 0.30
     Davidson diagonalization with overlap

---- Real-time Memory Report at c_bands before calling an iterative solver
           774 MiB given to the printing process from OS
             0 MiB allocation reported by mallinfo(arena+hblkhd)
       1344487 MiB available memory on the node where the printing process lives
     GPU memory used/free/total (MiB): 1130 / 80020 / 81151
------------------
     ethr =  2.97E-09,  avg # of iterations =  3.5

     total cpu time spent up to now is       40.0 secs

     total energy              =    -572.86474743 Ry
     estimated scf accuracy    <       0.00000098 Ry

     total magnetization       =     0.49 Bohr mag/cell
     absolute magnetization    =     0.86 Bohr mag/cell
[tb_dev] Currently allocated     3.05E-05 Mbytes, locked:    0 /   2
[tb_pin] Currently allocated     0.00E+00 Mbytes, locked:    0 /   0

     iteration # 23     ecut=    60.00 Ry     beta= 0.30
     Davidson diagonalization with overlap

---- Real-time Memory Report at c_bands before calling an iterative solver
           774 MiB given to the printing process from OS
             0 MiB allocation reported by mallinfo(arena+hblkhd)
       1360243 MiB available memory on the node where the printing process lives
     GPU memory used/free/total (MiB): 1130 / 80020 / 81151
------------------
     ethr =  2.58E-09,  avg # of iterations =  3.6

     total cpu time spent up to now is       41.6 secs

     total energy              =    -572.86472982 Ry
     estimated scf accuracy    <       0.00000091 Ry

     total magnetization       =     0.48 Bohr mag/cell
     absolute magnetization    =     0.87 Bohr mag/cell
[tb_dev] Currently allocated     3.05E-05 Mbytes, locked:    0 /   2
[tb_pin] Currently allocated     0.00E+00 Mbytes, locked:    0 /   0

     iteration # 24     ecut=    60.00 Ry     beta= 0.30
     Davidson diagonalization with overlap

---- Real-time Memory Report at c_bands before calling an iterative solver
           774 MiB given to the printing process from OS
             0 MiB allocation reported by mallinfo(arena+hblkhd)
       1359339 MiB available memory on the node where the printing process lives
     GPU memory used/free/total (MiB): 1130 / 80020 / 81151
------------------
     ethr =  2.40E-09,  avg # of iterations =  6.1

     total cpu time spent up to now is       43.6 secs

     total energy              =    -572.86478754 Ry
     estimated scf accuracy    <       0.00000071 Ry

     total magnetization       =     0.44 Bohr mag/cell
     absolute magnetization    =     0.90 Bohr mag/cell
[tb_dev] Currently allocated     3.05E-05 Mbytes, locked:    0 /   2
[tb_pin] Currently allocated     0.00E+00 Mbytes, locked:    0 /   0

     iteration # 25     ecut=    60.00 Ry     beta= 0.30
     Davidson diagonalization with overlap

---- Real-time Memory Report at c_bands before calling an iterative solver
           774 MiB given to the printing process from OS
             0 MiB allocation reported by mallinfo(arena+hblkhd)
       1357755 MiB available memory on the node where the printing process lives
     GPU memory used/free/total (MiB): 1130 / 80020 / 81151
------------------
     ethr =  1.87E-09,  avg # of iterations =  2.4

     total cpu time spent up to now is       45.1 secs

     total energy              =    -572.86478068 Ry
     estimated scf accuracy    <       0.00000030 Ry

     total magnetization       =     0.44 Bohr mag/cell
     absolute magnetization    =     0.90 Bohr mag/cell
[tb_dev] Currently allocated     3.05E-05 Mbytes, locked:    0 /   2
[tb_pin] Currently allocated     0.00E+00 Mbytes, locked:    0 /   0

     iteration # 26     ecut=    60.00 Ry     beta= 0.30
     Davidson diagonalization with overlap

---- Real-time Memory Report at c_bands before calling an iterative solver
           774 MiB given to the printing process from OS
             0 MiB allocation reported by mallinfo(arena+hblkhd)
       1357107 MiB available memory on the node where the printing process lives
     GPU memory used/free/total (MiB): 1130 / 80020 / 81151
------------------
     ethr =  7.90E-10,  avg # of iterations =  6.1
 
     Magnetic moment per site  (integrated on atomic sphere of radius R)
     atom   1 (R=0.275)  charge= 14.1151  magn=  0.5243
     atom   2 (R=0.275)  charge=  5.2177  magn=  0.0556
     atom   3 (R=0.275)  charge=  5.2436  magn=  0.0369
     atom   4 (R=0.413)  charge=  7.8179  magn= -0.0962

     total cpu time spent up to now is       47.1 secs

     End of self-consistent calculation

 ------ SPIN UP ------------


          k = 0.0000 0.0000 0.0000 (  3827 PWs)   bands (ev):

   -89.3712 -52.6054 -52.5752 -52.5752 -27.9057 -12.9538 -11.1834 -11.0343
    -9.8498  -9.8498   0.7281   1.2755   1.2755   4.0323   4.8223   4.8223
     4.8783   4.8783   4.9678   6.0587   7.6795   8.6232   8.6232   9.3235
    10.5749  10.5749  12.9213

     occupation numbers 
     1.0000   1.0000   1.0000   1.0000   1.0000   1.0000   1.0000   1.0000
     1.0000   1.0000   1.0000   1.0000   1.0000   1.0000   1.0000   1.0000
     1.0000   1.0000   1.0000   1.0767   0.0000   0.0000   0.0000   0.0000
     0.0000   0.0000   0.0000

          k = 0.0000 0.0000 0.0976 (  3838 PWs)   bands (ev):

   -89.3712 -52.6055 -52.5752 -52.5752 -27.9057 -12.9539 -11.1800 -11.0377
    -9.8498  -9.8498   0.7366   1.2755   1.2755   3.9085   4.8223   4.8223
     4.8783   4.8783   5.1684   6.0075   7.6753   8.6232   8.6232   9.2266
    10.5749  10.5749  13.1423

     occupation numbers 
     1.0000   1.0000   1.0000   1.0000   1.0000   1.0000   1.0000   1.0000
     1.0000   1.0000   1.0000   1.0000   1.0000   1.0000   1.0000   1.0000
     1.0000   1.0000   1.0000   1.0830   0.0000   0.0000   0.0000   0.0000
     0.0000   0.0000   0.0000

          k = 0.0000 0.1443 0.0000 (  3809 PWs)   bands (ev):

   -89.3705 -52.6042 -52.5829 -52.5771 -27.8194 -12.7864 -11.1309 -11.0118
   -10.2939  -9.9406   0.8986   1.1234   1.3861   3.7133   4.1284   4.4078
     5.2157   5.4685   5.4790   6.1733   7.9393   8.1867   8.5260   9.3710
     9.9494  11.1336  12.8940

     occupation numbers 
     1.0000   1.0000   1.0000   1.0000   1.0000   1.0000   1.0000   1.0000
     1.0000   1.0000   1.0000   1.0000   1.0000   1.0000   1.0000   1.0000
     1.0000   1.0002   1.0002   0.9659   0.0000   0.0000   0.0000   0.0000
     0.0000   0.0000   0.0000

          k = 0.0000 0.1443 0.0976 (  3828 PWs)   bands (ev):

   -89.3705 -52.6044 -52.5830 -52.5770 -27.8194 -12.7865 -11.1274 -11.0153
   -10.2939  -9.9406   0.9036   1.1235   1.3861   3.7152   4.1284   4.3240
     5.2062   5.4685   5.6779   6.0814   7.9553   8.1591   8.5260   9.3420
     9.9506  11.1335  12.7452

     occupation numbers 
     1.0000   1.0000   1.0000   1.0000   1.0000   1.0000   1.0000   1.0000
     1.0000   1.0000   1.0000   1.0000   1.0000   1.0000   1.0000   1.0000
     1.0000   1.0002   1.0059   1.0666   0.0000   0.0000   0.0000   0.0000
     0.0000   0.0000   0.0000

          k = 0.0000 0.2887 0.0000 (  3822 PWs)   bands (ev):

   -89.3688 -52.6023 -52.6011 -52.5816 -27.6025 -12.3476 -11.2794 -11.1048
   -10.8619 -10.1517   0.8104   1.3993   1.6501   2.4106   3.5658   4.7038
     5.3434   5.6863   5.8885   6.6473   7.4319   8.0981   8.4083   9.0756
    10.2258  12.6669  12.7523

     occupation numbers 
     1.0000   1.0000   1.0000   1.0000   1.0000   1.0000   1.0000   1.0000
     1.0000   1.0000   1.0000   1.0000   1.0000   1.0000   1.0000   1.0000
     1.0000   1.0067   1.0517   0.0412   0.0000   0.0000   0.0000   0.0000
     0.0000   0.0000   0.0000

          k = 0.0000 0.2887 0.0976 (  3809 PWs)   bands (ev):

   -89.3688 -52.6022 -52.6010 -52.5815 -27.6025 -12.3476 -11.2795 -11.1038
   -10.8627 -10.1517   0.8090   1.4017   1.6501   2.4126   3.5658   4.6945
     5.3352   5.6863   5.9175   6.5896   7.5458   8.0062   8.4084   9.1096
    10.2442  12.6070  12.6670

     occupation numbers 
     1.0000   1.0000   1.0000   1.0000   1.0000   1.0000   1.0000   1.0000
     1.0000   1.0000   1.0000   1.0000   1.0000   1.0000   1.0000   1.0000
     1.0000   1.0067   1.0617   0.0804   0.0000   0.0000   0.0000   0.0000
     0.0000   0.0000   0.0000

          k = 0.0000 0.4330 0.0000 (  3818 PWs)   bands (ev):

   -89.3672 -52.6204 -52.5988 -52.5861 -27.3722 -12.1768 -11.8214 -11.1669
   -10.6639 -10.3526   0.3647   1.4037   1.8614   2.4419   3.3724   4.2293
     5.2110   5.4557   5.7026   6.5756   7.3622   7.8526   8.4456   9.7565
    11.7062  12.8407  13.2349

     occupation numbers 
     1.0000   1.0000   1.0000   1.0000   1.0000   1.0000   1.0000   1.0000
     1.0000   1.0000   1.0000   1.0000   1.0000   1.0000   1.0000   1.0000
     1.0000   1.0001   1.0082   0.0934   0.0000   0.0000   0.0000   0.0000
     0.0000   0.0000   0.0000

          k = 0.0000 0.4330 0.0976 (  3823 PWs)   bands (ev):

   -89.3672 -52.6205 -52.5989 -52.5861 -27.3722 -12.1767 -11.8215 -11.1667
   -10.6640 -10.3526   0.3649   1.4028   1.8614   2.4434   3.3724   4.2263
     5.2124   5.4557   5.7016   6.5694   7.4619   7.7353   8.4457   9.7985
    11.7022  12.8404  13.1976

     occupation numbers 
     1.0000   1.0000   1.0000   1.0000   1.0000   1.0000   1.0000   1.0000
     1.0000   1.0000   1.0000   1.0000   1.0000   1.0000   1.0000   1.0000
     1.0000   1.0001   1.0081   0.0996   0.0000   0.0000   0.0000   0.0000
     0.0000   0.0000   0.0000

          k = 0.0000-0.5774 0.0000 (  3830 PWs)   bands (ev):

   -89.3665 -52.6282 -52.5977 -52.5880 -27.2724 -12.5297 -11.5099 -11.2743
   -10.5770 -10.4330  -0.0113   1.5807   1.9071   2.6169   3.4200   3.9584
     4.9682   5.2477   5.6423   6.3246   7.2398   7.9528   8.4936  11.0136
    11.6590  12.6777  13.7141

     occupation numbers 
     1.0000   1.0000   1.0000   1.0000   1.0000   1.0000   1.0000   1.0000
     1.0000   1.0000   1.0000   1.0000   1.0000   1.0000   1.0000   1.0000
     1.0000   1.0000   1.0036   0.6074   0.0000   0.0000   0.0000   0.0000
     0.0000   0.0000   0.0000

          k = 0.0000-0.5774 0.0976 (  3834 PWs)   bands (ev):

   -89.3665 -52.6283 -52.5977 -52.5880 -27.2724 -12.5297 -11.5099 -11.2743
   -10.5770 -10.4330  -0.0111   1.5800   1.9071   2.6184   3.4200   3.9533
     4.9691   5.2477   5.6443   6.3255   7.2660   7.9265   8.4936  10.9898
    11.6559  12.6775  13.8032

     occupation numbers 
     1.0000   1.0000   1.0000   1.0000   1.0000   1.0000   1.0000   1.0000
     1.0000   1.0000   1.0000   1.0000   1.0000   1.0000   1.0000   1.0000
     1.0000   1.0000   1.0037   0.6047   0.0000   0.0000   0.0000   0.0000
     0.0000   0.0000   0.0000

          k = 0.1250 0.2165 0.0000 (  3807 PWs)   bands (ev):

   -89.3693 -52.6023 -52.5954 -52.5810 -27.6674 -12.4831 -11.1025 -10.9522
   -10.9115 -10.1510   0.8973   1.2929   1.5384   2.8647   3.4328   4.7656
     5.2856   5.7489   5.9125   6.5720   7.6596   8.2454   8.4397   9.1013
     9.4960  12.3662  12.8242

     occupation numbers 
     1.0000   1.0000   1.0000   1.0000   1.0000   1.0000   1.0000   1.0000
     1.0000   1.0000   1.0000   1.0000   1.0000   1.0000   1.0000   1.0000
     1.0000   1.0145   1.0600   0.0970   0.0000   0.0000   0.0000   0.0000
     0.0000   0.0000   0.0000

          k = 0.1250 0.2165 0.0976 (  3820 PWs)   bands (ev):

   -89.3693 -52.6024 -52.5953 -52.5811 -27.6674 -12.4831 -11.1012 -10.9522
   -10.9127 -10.1510   0.8960   1.2960   1.5385   2.8669   3.4327   4.7402
     5.2851   5.7395   5.9565   6.5549   7.7327   8.1456   8.4523   9.1013
     9.5314  12.3658  12.6922

     occupation numbers 
     1.0000   1.0000   1.0000   1.0000   1.0000   1.0000   1.0000   1.0000
     1.0000   1.0000   1.0000   1.0000   1.0000   1.0000   1.0000   1.0000
     1.0000   1.0130   1.0739   0.1155   0.0000   0.0000   0.0000   0.0000
     0.0000   0.0000   0.0000

          k = 0.1250 0.3608 0.0000 (  3816 PWs)   bands (ev):

   -89.3676 -52.6121 -52.5997 -52.5875 -27.4417 -12.0030 -11.7783 -11.1278
   -10.7243 -10.4760   0.7677   1.2724   1.8591   2.3398   3.0084   4.5284
     5.3213   5.5819   5.9154   7.3125   7.5162   8.0177   8.1603   9.1428
    10.4952  12.1461  13.3260

     occupation numbers 
     1.0000   1.0000   1.0000   1.0000   1.0000   1.0000   1.0000   1.0000
     1.0000   1.0000   1.0000   1.0000   1.0000   1.0000   1.0000   1.0000
     1.0000   1.0014   1.0610   0.0000   0.0000   0.0000   0.0000   0.0000
     0.0000   0.0000   0.0000

          k = 0.1250 0.3608 0.0976 (  3805 PWs)   bands (ev):

   -89.3676 -52.6121 -52.5997 -52.5874 -27.4417 -12.0030 -11.7783 -11.1275
   -10.7245 -10.4760   0.7673   1.2722   1.8592   2.3414   3.0084   4.5278
     5.3214   5.5827   5.9148   7.2693   7.6016   7.9095   8.2131   9.1607
    10.5053  12.1430  13.2777

     occupation numbers 
     1.0000   1.0000   1.0000   1.0000   1.0000   1.0000   1.0000   1.0000
     1.0000   1.0000   1.0000   1.0000   1.0000   1.0000   1.0000   1.0000
     1.0000   1.0014   1.0608   0.0000   0.0000   0.0000   0.0000   0.0000
     0.0000   0.0000   0.0000

          k = 0.1250 0.5052 0.0000 (  3825 PWs)   bands (ev):

   -89.3665 -52.6240 -52.5978 -52.5921 -27.2736 -12.3366 -11.5722 -11.2125
   -10.6972 -10.5781   0.2721   1.2838   2.1021   2.6195   2.9522   3.9511
     5.0565   5.3745   5.8316   7.0520   7.4775   7.9331   8.2472  10.5351
    11.3953  11.5834  14.2867

     occupation numbers 
     1.0000   1.0000   1.0000   1.0000   1.0000   1.0000   1.0000   1.0000
     1.0000   1.0000   1.0000   1.0000   1.0000   1.0000   1.0000   1.0000
     1.0000   1.0000   1.0333   0.0000   0.0000   0.0000   0.0000   0.0000
     0.0000   0.0000   0.0000

          k = 0.1250 0.5052 0.0976 (  3819 PWs)   bands (ev):

   -89.3665 -52.6240 -52.5978 -52.5921 -27.2736 -12.3366 -11.5723 -11.2124
   -10.6972 -10.5781   0.2724   1.2835   2.1017   2.6207   2.9523   3.9481
     5.0570   5.3740   5.8332   7.0523   7.5073   7.8868   8.2639  10.5345
    11.3953  11.5802  14.3101

     occupation numbers 
     1.0000   1.0000   1.0000   1.0000   1.0000   1.0000   1.0000   1.0000
     1.0000   1.0000   1.0000   1.0000   1.0000   1.0000   1.0000   1.0000
     1.0000   1.0000   1.0338   0.0000   0.0000   0.0000   0.0000   0.0000
     0.0000   0.0000   0.0000

          k = 0.2500 0.4330 0.0000 (  3819 PWs)   bands (ev):

   -89.3665 -52.6181 -52.5984 -52.5973 -27.2748 -12.0559 -11.6179 -11.1675
   -11.0471 -10.5791   0.8030   0.9907   1.8892   2.5574   2.7584   3.9809
     5.1157   5.4736   6.0104   7.7096   7.8782   8.0447   8.5286   9.4402
    10.5844  11.0725  14.3544

     occupation numbers 
     1.0000   1.0000   1.0000   1.0000   1.0000   1.0000   1.0000   1.0000
     1.0000   1.0000   1.0000   1.0000   1.0000   1.0000   1.0000   1.0000
     1.0000   1.0002   1.0832   0.0000   0.0000   0.0000   0.0000   0.0000
     0.0000   0.0000   0.0000

          k = 0.2500 0.4330 0.0976 (  3817 PWs)   bands (ev):

   -89.3665 -52.6181 -52.5985 -52.5973 -27.2748 -12.0559 -11.6179 -11.1674
   -11.0472 -10.5792   0.8030   0.9907   1.8892   2.5573   2.7581   3.9813
     5.1155   5.4730   6.0135   7.6701   7.8814   8.0902   8.5258   9.4293
    10.5872  11.0679  14.3966

     occupation numbers 
     1.0000   1.0000   1.0000   1.0000   1.0000   1.0000   1.0000   1.0000
     1.0000   1.0000   1.0000   1.0000   1.0000   1.0000   1.0000   1.0000
     1.0000   1.0002   1.0833   0.0000   0.0000   0.0000   0.0000   0.0000
     0.0000   0.0000   0.0000

          k = 0.2500 0.5774 0.0000 (  3813 PWs)   bands (ev):

   -89.3660 -52.6186 -52.6043 -52.5969 -27.2036 -12.0840 -11.4369 -11.3688
   -11.2011 -10.5175   0.6669   1.0729   1.7203   2.7005   2.9779   3.5426
     4.8507   5.6645   5.9222   7.8487   7.8663   8.2425   8.5623   9.7360
    10.2695  11.5337  15.4822

     occupation numbers 
     1.0000   1.0000   1.0000   1.0000   1.0000   1.0000   1.0000   1.0000
     1.0000   1.0000   1.0000   1.0000   1.0000   1.0000   1.0000   1.0000
     1.0000   1.0049   1.0633   0.0000   0.0000   0.0000   0.0000   0.0000
     0.0000   0.0000   0.0000

          k = 0.2500 0.5774 0.0976 (  3823 PWs)   bands (ev):

   -89.3660 -52.6186 -52.6043 -52.5970 -27.2036 -12.0840 -11.4369 -11.3688
   -11.2012 -10.5175   0.6671   1.0729   1.7206   2.6999   2.9780   3.5418
     4.8508   5.6639   5.9239   7.8214   7.8658   8.2789   8.5557   9.7446
    10.2636  11.5309  15.4533

     occupation numbers 
     1.0000   1.0000   1.0000   1.0000   1.0000   1.0000   1.0000   1.0000
     1.0000   1.0000   1.0000   1.0000   1.0000   1.0000   1.0000   1.0000
     1.0000   1.0049   1.0639   0.0000   0.0000   0.0000   0.0000   0.0000
     0.0000   0.0000   0.0000

          k = 0.0000-0.1443 0.0976 (  3828 PWs)   bands (ev):

   -89.3705 -52.6044 -52.5830 -52.5770 -27.8194 -12.7865 -11.1274 -11.0153
   -10.2939  -9.9406   0.9040   1.1229   1.3861   3.7118   4.1284   4.3306
     5.2053   5.4685   5.6665   6.0966   7.9181   8.1848   8.5260   9.3484
     9.9501  11.1335  12.7613

     occupation numbers 
     1.0000   1.0000   1.0000   1.0000   1.0000   1.0000   1.0000   1.0000
     1.0000   1.0000   1.0000   1.0000   1.0000   1.0000   1.0000   1.0000
     1.0000   1.0002   1.0051   1.0568   0.0000   0.0000   0.0000   0.0000
     0.0000   0.0000   0.0000

          k = 0.0000-0.2887 0.0976 (  3809 PWs)   bands (ev):

   -89.3688 -52.6022 -52.6010 -52.5815 -27.6025 -12.3476 -11.2795 -11.1038
   -10.8627 -10.1517   0.8094   1.4004   1.6501   2.4135   3.5658   4.6953
     5.3379   5.6863   5.8963   6.6597   7.4233   8.0913   8.4083   9.0848
    10.2292  12.6669  12.7068

     occupation numbers 
     1.0000   1.0000   1.0000   1.0000   1.0000   1.0000   1.0000   1.0000
     1.0000   1.0000   1.0000   1.0000   1.0000   1.0000   1.0000   1.0000
     1.0000   1.0067   1.0544   0.0353   0.0000   0.0000   0.0000   0.0000
     0.0000   0.0000   0.0000

          k = 0.0000-0.4330 0.0976 (  3823 PWs)   bands (ev):

   -89.3672 -52.6205 -52.5989 -52.5861 -27.3722 -12.1767 -11.8215 -11.1667
   -10.6640 -10.3526   0.3646   1.4029   1.8614   2.4428   3.3724   4.2296
     5.2109   5.4557   5.7027   6.5797   7.3614   7.8527   8.4457   9.7296
    11.7035  12.8405  13.3439

     occupation numbers 
     1.0000   1.0000   1.0000   1.0000   1.0000   1.0000   1.0000   1.0000
     1.0000   1.0000   1.0000   1.0000   1.0000   1.0000   1.0000   1.0000
     1.0000   1.0001   1.0083   0.0895   0.0000   0.0000   0.0000   0.0000
     0.0000   0.0000   0.0000

          k =-0.1250-0.3608 0.0976 (  3805 PWs)   bands (ev):

   -89.3676 -52.6121 -52.5997 -52.5874 -27.4417 -12.0029 -11.7784 -11.1275
   -10.7245 -10.4760   0.7671   1.2721   1.8589   2.3419   3.0082   4.5293
     5.3210   5.5821   5.9146   7.3125   7.5124   7.9832   8.1957   9.1438
    10.4916  12.1513  13.3463

     occupation numbers 
     1.0000   1.0000   1.0000   1.0000   1.0000   1.0000   1.0000   1.0000
     1.0000   1.0000   1.0000   1.0000   1.0000   1.0000   1.0000   1.0000
     1.0000   1.0014   1.0607   0.0000   0.0000   0.0000   0.0000   0.0000
     0.0000   0.0000   0.0000

          k =-0.1250-0.5052 0.0976 (  3819 PWs)   bands (ev):

   -89.3665 -52.6240 -52.5978 -52.5921 -27.2736 -12.3366 -11.5723 -11.2125
   -10.6972 -10.5781   0.2722   1.2836   2.1021   2.6196   2.9522   3.9501
     5.0562   5.3736   5.8350   7.0566   7.4770   7.9232   8.2566  10.5099
    11.3993  11.5828  14.3948

     occupation numbers 
     1.0000   1.0000   1.0000   1.0000   1.0000   1.0000   1.0000   1.0000
     1.0000   1.0000   1.0000   1.0000   1.0000   1.0000   1.0000   1.0000
     1.0000   1.0000   1.0343   0.0000   0.0000   0.0000   0.0000   0.0000
     0.0000   0.0000   0.0000

 ------ SPIN DOWN ----------


          k = 0.0000 0.0000 0.0000 (  3827 PWs)   bands (ev):

   -88.7306 -52.0041 -52.0041 -51.8739 -27.9929 -12.8792 -11.2286 -10.9712
    -9.9340  -9.9340   0.9802   1.4677   1.4677   4.1178   4.6189   4.9243
     4.9243   5.3460   5.3460   6.7835   7.3954   8.8955   8.8955   9.2361
    10.3854  10.3854  12.9764

     occupation numbers 
     1.0000   1.0000   1.0000   1.0000   1.0000   1.0000   1.0000   1.0000
     1.0000   1.0000   1.0000   1.0000   1.0000   1.0000   1.0000   1.0000
     1.0000   1.0000   1.0000   0.0060   0.0000   0.0000   0.0000   0.0000
     0.0000   0.0000   0.0000

          k = 0.0000 0.0000 0.0976 (  3838 PWs)   bands (ev):

   -88.7306 -52.0041 -52.0041 -51.8739 -27.9929 -12.8793 -11.2265 -10.9732
    -9.9340  -9.9340   0.9917   1.4676   1.4676   3.9125   4.8786   4.9243
     4.9243   5.3460   5.3460   6.7347   7.3995   8.8955   8.8955   9.1586
    10.3854  10.3854  13.1687

     occupation numbers 
     1.0000   1.0000   1.0000   1.0000   1.0000   1.0000   1.0000   1.0000
     1.0000   1.0000   1.0000   1.0000   1.0000   1.0000   1.0000   1.0000
     1.0000   1.0000   1.0000   0.0127   0.0000   0.0000   0.0000   0.0000
     0.0000   0.0000   0.0000

          k = 0.0000 0.1443 0.0000 (  3809 PWs)   bands (ev):

   -88.7299 -52.0120 -52.0060 -51.8726 -27.9049 -12.7115 -11.1522 -10.9701
   -10.3902 -10.0263   1.1246   1.3301   1.5720   3.8758   4.3408   4.5290
     5.1359   5.6735   5.8437   6.8233   7.6853   8.4029   8.7910   9.3075
     9.7130  10.9495  12.8591

     occupation numbers 
     1.0000   1.0000   1.0000   1.0000   1.0000   1.0000   1.0000   1.0000
     1.0000   1.0000   1.0000   1.0000   1.0000   1.0000   1.0000   1.0000
     1.0000   1.0056   1.0370   0.0031   0.0000   0.0000   0.0000   0.0000
     0.0000   0.0000   0.0000

          k = 0.0000 0.1443 0.0976 (  3828 PWs)   bands (ev):

   -88.7299 -52.0121 -52.0060 -51.8727 -27.9049 -12.7116 -11.1498 -10.9724
   -10.3902 -10.0263   1.1294   1.3320   1.5720   3.8806   4.3408   4.3793
     5.3264   5.6896   5.8437   6.7602   7.6868   8.4014   8.7910   9.2888
     9.7148  10.9495  12.7030

     occupation numbers 
     1.0000   1.0000   1.0000   1.0000   1.0000   1.0000   1.0000   1.0000
     1.0000   1.0000   1.0000   1.0000   1.0000   1.0000   1.0000   1.0000
     1.0000   1.0070   1.0370   0.0087   0.0000   0.0000   0.0000   0.0000
     0.0000   0.0000   0.0000

          k = 0.0000 0.2887 0.0000 (  3822 PWs)   bands (ev):

   -88.7282 -52.0314 -52.0106 -51.8699 -27.6838 -12.2723 -11.3984 -11.0296
   -10.9102 -10.2407   0.9699   1.6088   1.8209   2.5872   3.7467   4.8580
     5.8205   6.1363   6.1480   6.6873   7.5367   7.9694   8.6562   8.9747
     9.9772  12.4994  12.6777

     occupation numbers 
     1.0000   1.0000   1.0000   1.0000   1.0000   1.0000   1.0000   1.0000
     1.0000   1.0000   1.0000   1.0000   1.0000   1.0000   1.0000   1.0000
     1.0302   1.0188   1.0039   0.0246   0.0000   0.0000   0.0000   0.0000
     0.0000   0.0000   0.0000

          k = 0.0000 0.2887 0.0976 (  3809 PWs)   bands (ev):

   -88.7282 -52.0314 -52.0106 -51.8698 -27.6838 -12.2723 -11.3985 -11.0276
   -10.9120 -10.2407   0.9684   1.6114   1.8210   2.5905   3.7466   4.8403
     5.8012   6.1363   6.2171   6.6227   7.7062   7.8019   8.6562   9.0068
    10.0061  12.5003  12.5344

     occupation numbers 
     1.0000   1.0000   1.0000   1.0000   1.0000   1.0000   1.0000   1.0000
     1.0000   1.0000   1.0000   1.0000   1.0000   1.0000   1.0000   1.0000
     1.0252   1.0188   0.8819   0.0554   0.0000   0.0000   0.0000   0.0000
     0.0000   0.0000   0.0000

          k = 0.0000 0.4330 0.0000 (  3818 PWs)   bands (ev):

   -88.7265 -52.0507 -52.0153 -51.8669 -27.4486 -12.3143 -11.7470 -11.0776
   -10.7175 -10.4446   0.4973   1.5017   2.0268   2.7020   3.4833   4.3839
     5.8209   5.9985   6.2059   6.3411   7.1824   8.0641   8.6877   9.5818
    11.4424  12.7562  13.1120

     occupation numbers 
     1.0000   1.0000   1.0000   1.0000   1.0000   1.0000   1.0000   1.0000
     1.0000   1.0000   1.0000   1.0000   1.0000   1.0000   1.0000   1.0000
     1.0303   1.0823   0.9054   0.5616   0.0000   0.0000   0.0000   0.0000
     0.0000   0.0000   0.0000

          k = 0.0000 0.4330 0.0976 (  3823 PWs)   bands (ev):

   -88.7265 -52.0507 -52.0153 -51.8669 -27.4486 -12.3143 -11.7470 -11.0773
   -10.7176 -10.4446   0.4975   1.5007   2.0268   2.7039   3.4833   4.3799
     5.8241   5.9985   6.2045   6.3347   7.2383   7.9784   8.6878   9.6370
    11.4385  12.7561  13.0749

     occupation numbers 
     1.0000   1.0000   1.0000   1.0000   1.0000   1.0000   1.0000   1.0000
     1.0000   1.0000   1.0000   1.0000   1.0000   1.0000   1.0000   1.0000
     1.0312   1.0823   0.9083   0.5793   0.0000   0.0000   0.0000   0.0000
     0.0000   0.0000   0.0000

          k = 0.0000-0.5774 0.0000 (  3830 PWs)   bands (ev):

   -88.7258 -52.0588 -52.0172 -51.8657 -27.3465 -12.6743 -11.4421 -11.1765
   -10.6286 -10.5262   0.1084   1.6500   2.0768   2.8810   3.4720   4.0918
     5.7099   5.8482   5.9719   6.2008   6.9954   8.2659   8.7373  10.9054
    11.2959  12.5905  13.5358

     occupation numbers 
     1.0000   1.0000   1.0000   1.0000   1.0000   1.0000   1.0000   1.0000
     1.0000   1.0000   1.0000   1.0000   1.0000   1.0000   1.0000   1.0000
     1.0091   1.0384   1.0778   0.9157   0.0001   0.0000   0.0000   0.0000
     0.0000   0.0000   0.0000

          k = 0.0000-0.5774 0.0976 (  3834 PWs)   bands (ev):

   -88.7258 -52.0588 -52.0173 -51.8658 -27.3465 -12.6743 -11.4421 -11.1765
   -10.6286 -10.5262   0.1087   1.6492   2.0768   2.8830   3.4720   4.0852
     5.7129   5.8482   5.9724   6.2033   7.0119   8.2469   8.7373  10.8813
    11.2947  12.5903  13.6168

     occupation numbers 
     1.0000   1.0000   1.0000   1.0000   1.0000   1.0000   1.0000   1.0000
     1.0000   1.0000   1.0000   1.0000   1.0000   1.0000   1.0000   1.0000
     1.0094   1.0384   1.0779   0.9107   0.0001   0.0000   0.0000   0.0000
     0.0000   0.0000   0.0000

          k = 0.1250 0.2165 0.0000 (  3807 PWs)   bands (ev):

   -88.7286 -52.0249 -52.0101 -51.8706 -27.7500 -12.4078 -11.0649 -11.0440
   -10.9441 -10.2409   1.0600   1.5309   1.7160   3.0162   3.6249   4.8972
     5.8113   5.9916   6.1666   6.7655   7.7945   8.3043   8.5077   8.8211
     9.4078  12.1881  12.7634

     occupation numbers 
     1.0000   1.0000   1.0000   1.0000   1.0000   1.0000   1.0000   1.0000
     1.0000   1.0000   1.0000   1.0000   1.0000   1.0000   1.0000   1.0000
     1.0277   1.0814   0.9767   0.0080   0.0000   0.0000   0.0000   0.0000
     0.0000   0.0000   0.0000

          k = 0.1250 0.2165 0.0976 (  3820 PWs)   bands (ev):

   -88.7287 -52.0249 -52.0102 -51.8707 -27.7500 -12.4079 -11.0652 -11.0409
   -10.9468 -10.2409   1.0583   1.5345   1.7164   3.0196   3.6248   4.8551
     5.8105   6.0047   6.2488   6.7045   7.8758   8.1526   8.5614   8.8210
     9.4475  12.1877  12.6338

     occupation numbers 
     1.0000   1.0000   1.0000   1.0000   1.0000   1.0000   1.0000   1.0000
     1.0000   1.0000   1.0000   1.0000   1.0000   1.0000   1.0000   1.0000
     1.0275   1.0829   0.8088   0.0195   0.0000   0.0000   0.0000   0.0000
     0.0000   0.0000   0.0000

          k = 0.1250 0.3608 0.0000 (  3816 PWs)   bands (ev):

   -88.7270 -52.0422 -52.0168 -51.8678 -27.5196 -11.9379 -11.8977 -11.0406
   -10.7786 -10.5727   0.9145   1.3957   2.0248   2.5728   3.1613   4.6759
     5.8809   6.2505   6.4242   6.9243   7.5195   8.0286   8.3596   8.9933
    10.2962  12.0153  13.2484

     occupation numbers 
     1.0000   1.0000   1.0000   1.0000   1.0000   1.0000   1.0000   1.0000
     1.0000   1.0000   1.0000   1.0000   1.0000   1.0000   1.0000   1.0000
     1.0491   0.8046   0.3452   0.0005   0.0000   0.0000   0.0000   0.0000
     0.0000   0.0000   0.0000

          k = 0.1250 0.3608 0.0976 (  3805 PWs)   bands (ev):

   -88.7269 -52.0422 -52.0167 -51.8678 -27.5196 -11.9376 -11.8981 -11.0401
   -10.7790 -10.5727   0.9140   1.3955   2.0248   2.5749   3.1613   4.6752
     5.8812   6.2512   6.4236   6.9109   7.5731   7.9300   8.4038   9.0091
    10.3114  12.0122  13.2000

     occupation numbers 
     1.0000   1.0000   1.0000   1.0000   1.0000   1.0000   1.0000   1.0000
     1.0000   1.0000   1.0000   1.0000   1.0000   1.0000   1.0000   1.0000
     1.0492   0.8027   0.3466   0.0006   0.0000   0.0000   0.0000   0.0000
     0.0000   0.0000   0.0000

          k = 0.1250 0.5052 0.0000 (  3825 PWs)   bands (ev):

   -88.7258 -52.0544 -52.0215 -51.8658 -27.3477 -12.4772 -11.5004 -11.1188
   -10.7982 -10.6297   0.3922   1.3899   2.2443   2.8258   3.0893   4.0994
     5.8502   5.9488   6.3202   6.7064   7.2568   8.2054   8.4895  10.3067
    11.1614  11.4519  14.1702

     occupation numbers 
     1.0000   1.0000   1.0000   1.0000   1.0000   1.0000   1.0000   1.0000
     1.0000   1.0000   1.0000   1.0000   1.0000   1.0000   1.0000   1.0000
     1.0390   1.0717   0.6194   0.0190   0.0000   0.0000   0.0000   0.0000
     0.0000   0.0000   0.0000

          k = 0.1250 0.5052 0.0976 (  3819 PWs)   bands (ev):

   -88.7258 -52.0544 -52.0215 -51.8658 -27.3477 -12.4772 -11.5004 -11.1188
   -10.7982 -10.6297   0.3926   1.3896   2.2440   2.8270   3.0896   4.0954
     5.8522   5.9480   6.3221   6.7069   7.2710   8.1754   8.5031  10.3074
    11.1606  11.4499  14.1910

     occupation numbers 
     1.0000   1.0000   1.0000   1.0000   1.0000   1.0000   1.0000   1.0000
     1.0000   1.0000   1.0000   1.0000   1.0000   1.0000   1.0000   1.0000
     1.0396   1.0715   0.6142   0.0189   0.0000   0.0000   0.0000   0.0000
     0.0000   0.0000   0.0000

          k = 0.2500 0.4330 0.0000 (  3819 PWs)   bands (ev):

   -88.7258 -52.0484 -52.0275 -51.8658 -27.3490 -12.1903 -11.5447 -11.1587
   -11.0746 -10.6308   0.9159   1.1227   1.9877   2.7288   2.9788   4.1315
     5.9455   6.0274   6.4710   7.5526   8.1122   8.1334   8.2560   9.1836
    10.4013  10.9585  14.2352

     occupation numbers 
     1.0000   1.0000   1.0000   1.0000   1.0000   1.0000   1.0000   1.0000
     1.0000   1.0000   1.0000   1.0000   1.0000   1.0000   1.0000   1.0000
     1.0707   1.0829   0.2447   0.0000   0.0000   0.0000   0.0000   0.0000
     0.0000   0.0000   0.0000

          k = 0.2500 0.4330 0.0976 (  3817 PWs)   bands (ev):

   -88.7258 -52.0483 -52.0275 -51.8658 -27.3490 -12.1903 -11.5447 -11.1587
   -11.0746 -10.6308   0.9160   1.1228   1.9878   2.7286   2.9783   4.1322
     5.9453   6.0260   6.4775   7.5244   8.1210   8.1720   8.2410   9.1723
    10.4044  10.9534  14.2738

     occupation numbers 
     1.0000   1.0000   1.0000   1.0000   1.0000   1.0000   1.0000   1.0000
     1.0000   1.0000   1.0000   1.0000   1.0000   1.0000   1.0000   1.0000
     1.0707   1.0830   0.2322   0.0000   0.0000   0.0000   0.0000   0.0000
     0.0000   0.0000   0.0000

          k = 0.2500 0.5774 0.0000 (  3813 PWs)   bands (ev):

   -88.7253 -52.0488 -52.0341 -51.8648 -27.2763 -12.2189 -11.4922 -11.3636
   -11.1031 -10.5676   0.7809   1.1881   1.8109   2.8549   3.1984   3.6755
     5.7376   6.1970   6.4176   7.8466   8.0921   8.2286   8.2846   9.5382
     9.9577  11.4717  15.2272

     occupation numbers 
     1.0000   1.0000   1.0000   1.0000   1.0000   1.0000   1.0000   1.0000
     1.0000   1.0000   1.0000   1.0000   1.0000   1.0000   1.0000   1.0000
     1.0127   0.9231   0.3610   0.0000   0.0000   0.0000   0.0000   0.0000
     0.0000   0.0000   0.0000

          k = 0.2500 0.5774 0.0976 (  3823 PWs)   bands (ev):

   -88.7253 -52.0489 -52.0341 -51.8649 -27.2763 -12.2189 -11.4922 -11.3636
   -11.1031 -10.5676   0.7811   1.1881   1.8112   2.8542   3.1985   3.6745
     5.7378   6.1960   6.4206   7.8156   8.1099   8.2413   8.2856   9.5488
     9.9513  11.4680  15.1955

     occupation numbers 
     1.0000   1.0000   1.0000   1.0000   1.0000   1.0000   1.0000   1.0000
     1.0000   1.0000   1.0000   1.0000   1.0000   1.0000   1.0000   1.0000
     1.0127   0.9251   0.3537   0.0000   0.0000   0.0000   0.0000   0.0000
     0.0000   0.0000   0.0000

          k = 0.0000-0.1443 0.0976 (  3828 PWs)   bands (ev):

   -88.7299 -52.0121 -52.0060 -51.8727 -27.9049 -12.7116 -11.1498 -10.9725
   -10.3902 -10.0263   1.1300   1.3314   1.5720   3.8731   4.3409   4.3943
     5.3103   5.6991   5.8437   6.7653   7.6727   8.4044   8.7910   9.2944
     9.7141  10.9495  12.7195

     occupation numbers 
     1.0000   1.0000   1.0000   1.0000   1.0000   1.0000   1.0000   1.0000
     1.0000   1.0000   1.0000   1.0000   1.0000   1.0000   1.0000   1.0000
     1.0000   1.0079   1.0370   0.0080   0.0000   0.0000   0.0000   0.0000
     0.0000   0.0000   0.0000

          k = 0.0000-0.2887 0.0976 (  3809 PWs)   bands (ev):

   -88.7281 -52.0314 -52.0106 -51.8698 -27.6838 -12.2723 -11.3985 -11.0276
   -10.9120 -10.2407   0.9687   1.6100   1.8210   2.5915   3.7467   4.8425
     5.7986   6.1363   6.2072   6.6688   7.5174   7.9750   8.6562   8.9828
     9.9837  12.5011  12.6319

     occupation numbers 
     1.0000   1.0000   1.0000   1.0000   1.0000   1.0000   1.0000   1.0000
     1.0000   1.0000   1.0000   1.0000   1.0000   1.0000   1.0000   1.0000
     1.0246   1.0188   0.9028   0.0314   0.0000   0.0000   0.0000   0.0000
     0.0000   0.0000   0.0000

          k = 0.0000-0.4330 0.0976 (  3823 PWs)   bands (ev):

   -88.7265 -52.0507 -52.0153 -51.8669 -27.4486 -12.3142 -11.7471 -11.0774
   -10.7176 -10.4446   0.4973   1.5009   2.0268   2.7029   3.4833   4.3849
     5.8230   5.9985   6.1956   6.3541   7.1784   8.0658   8.6878   9.5578
    11.4380  12.7561  13.2117

     occupation numbers 
     1.0000   1.0000   1.0000   1.0000   1.0000   1.0000   1.0000   1.0000
     1.0000   1.0000   1.0000   1.0000   1.0000   1.0000   1.0000   1.0000
     1.0309   1.0823   0.9258   0.5258   0.0000   0.0000   0.0000   0.0000
     0.0000   0.0000   0.0000

          k =-0.1250-0.3608 0.0976 (  3805 PWs)   bands (ev):

   -88.7269 -52.0422 -52.0167 -51.8678 -27.5196 -11.9375 -11.8982 -11.0401
   -10.7790 -10.5727   0.9138   1.3955   2.0246   2.5753   3.1611   4.6775
     5.8805   6.2515   6.4191   6.9289   7.5077   8.0164   8.3791   8.9946
    10.2937  12.0203  13.2658

     occupation numbers 
     1.0000   1.0000   1.0000   1.0000   1.0000   1.0000   1.0000   1.0000
     1.0000   1.0000   1.0000   1.0000   1.0000   1.0000   1.0000   1.0000
     1.0490   0.8021   0.3574   0.0005   0.0000   0.0000   0.0000   0.0000
     0.0000   0.0000   0.0000

          k =-0.1250-0.5052 0.0976 (  3819 PWs)   bands (ev):

   -88.7258 -52.0544 -52.0215 -51.8658 -27.3477 -12.4772 -11.5004 -11.1188
   -10.7982 -10.6297   0.3924   1.3897   2.2443   2.8258   3.0892   4.0983
     5.8504   5.9478   6.3260   6.7093   7.2538   8.2007   8.4957  10.2840
    11.1648  11.4494  14.2680

     occupation numbers 
     1.0000   1.0000   1.0000   1.0000   1.0000   1.0000   1.0000   1.0000
     1.0000   1.0000   1.0000   1.0000   1.0000   1.0000   1.0000   1.0000
     1.0390   1.0714   0.6034   0.0182   0.0000   0.0000   0.0000   0.0000
     0.0000   0.0000   0.0000

     the Fermi energy is     6.4015 ev

!    total energy              =    -572.86479141 Ry
     total all-electron energy =     -4291.975628 Ry
     estimated scf accuracy    <       0.00000006 Ry
     smearing contrib. (-TS)   =       0.00305887 Ry
     internal energy E=F+TS    =    -572.86785029 Ry

     The total energy is F=E-TS. E is the sum of the following terms:
     one-electron contribution =    -639.22740123 Ry
     hartree contribution      =     334.33689327 Ry
     xc contribution           =     -56.60699909 Ry
     ewald contribution        =     -49.16700265 Ry
     one-center paw contrib.   =    -162.20334060 Ry
      -> PAW hartree energy AE =     308.85936659 Ry
      -> PAW hartree energy PS =    -307.51120563 Ry
      -> PAW xc energy AE      =    -216.92170391 Ry
      -> PAW xc energy PS      =      53.37020234 Ry
      -> total E_H with PAW    =     335.68505423 Ry
      -> total E_XC with PAW   =    -220.15850065 Ry

     total magnetization       =     0.43 Bohr mag/cell
     absolute magnetization    =     0.92 Bohr mag/cell

     convergence has been achieved in  26 iterations

     Forces acting on atoms (cartesian axes, Ry/au):

     atom    1 type  1   force =     0.00000000    0.00000000    0.02279546
     atom    2 type  2   force =     0.00000000    0.00000000   -0.03289289
     atom    3 type  2   force =     0.00000000    0.00000000   -0.01391363
     atom    4 type  3   force =     0.00000000    0.00000000    0.02401106
     The non-local contrib.  to forces
     atom    1 type  1   force =     0.00000000    0.00000000    0.01674989
     atom    2 type  2   force =     0.00000000    0.00000000   -1.18530515
     atom    3 type  2   force =    -0.00000000   -0.00000000    0.82950971
     atom    4 type  3   force =     0.00000000    0.00000000    0.08101996
     The ionic contribution  to forces
     atom    1 type  1   force =    -0.00000000    0.00000000   11.21222955
     atom    2 type  2   force =     0.00000000   -0.00000000   38.58857566
     atom    3 type  2   force =    -0.00000000    0.00000000  -30.70555884
     atom    4 type  3   force =     0.00000000   -0.00000000  -19.09524638
     The local contribution  to forces
     atom    1 type  1   force =     0.00000000   -0.00000000  -11.20565008
     atom    2 type  2   force =     0.00000001   -0.00000001  -37.44679579
     atom    3 type  2   force =    -0.00000001    0.00000001   29.86941164
     atom    4 type  3   force =     0.00000000   -0.00000000   19.04006998
     The core correction contribution to forces
     atom    1 type  1   force =     0.00000000   -0.00000000   -0.00016579
     atom    2 type  2   force =    -0.00000000    0.00000000    0.01052594
     atom    3 type  2   force =     0.00000000   -0.00000000   -0.00694861
     atom    4 type  3   force =     0.00000000   -0.00000000   -0.00223763
     The Hubbard contrib.    to forces
     atom    1 type  1   force =     0.00000000    0.00000000    0.00000000
     atom    2 type  2   force =     0.00000000    0.00000000    0.00000000
     atom    3 type  2   force =     0.00000000    0.00000000    0.00000000
     atom    4 type  3   force =     0.00000000    0.00000000    0.00000000
     The SCF correction term to forces
     atom    1 type  1   force =    -0.00000000    0.00000000   -0.00037425
     atom    2 type  2   force =    -0.00000000    0.00000000    0.00010031
     atom    3 type  2   force =     0.00000000   -0.00000000   -0.00033368
     atom    4 type  3   force =    -0.00000000    0.00000000    0.00039899

     Total force =     0.048700     Total SCF correction =     0.000649

     Writing all to output data dir ./out/pw.save/ :
     XML data file, charge density, pseudopotentials, collected wavefunctions
 
     init_run     :     13.85s CPU      3.30s WALL (       1 calls)
     electrons    :    168.65s CPU     43.22s WALL (       1 calls)
     forces       :      0.62s CPU      0.60s WALL (       1 calls)

     Called by init_run:
     wfcinit      :      0.28s CPU      0.38s WALL (       1 calls)
     wfcinit:atom :      0.05s CPU      0.05s WALL (      50 calls)
     wfcinit:wfcr :      0.17s CPU      0.23s WALL (      50 calls)
     potinit      :     12.93s CPU      2.24s WALL (       1 calls)
     hinit0       :      0.53s CPU      0.53s WALL (       1 calls)

     Called by electrons:
     c_bands      :     17.95s CPU     18.17s WALL (      26 calls)
     sum_band     :      3.55s CPU      3.55s WALL (      26 calls)
     v_of_rho     :      0.49s CPU      0.23s WALL (      27 calls)
     v_h          :      0.34s CPU      0.05s WALL (      27 calls)
     v_xc         :      0.15s CPU      0.18s WALL (      28 calls)
     newd         :      0.86s CPU      0.73s WALL (      27 calls)
                                        0.73s GPU  (      27 calls)
     PAW_pot      :    149.76s CPU     20.30s WALL (      27 calls)
     mix_rho      :      0.91s CPU      0.90s WALL (      26 calls)

     Called by c_bands:
     init_us_2    :      1.11s CPU      1.09s WALL (    2700 calls)
     cegterg      :     15.59s CPU     15.84s WALL (    1300 calls)

     Called by sum_band:
     sum_band:wei :      0.03s CPU      0.03s WALL (      26 calls)
                                        0.03s GPU  (      26 calls)
     sum_band:loo :      1.89s CPU      1.88s WALL (      26 calls)
                                        1.88s GPU  (      26 calls)
     sum_band:buf :      0.26s CPU      0.29s WALL (    1300 calls)
                                        0.27s GPU  (    1300 calls)
     sum_band:ini :      0.52s CPU      0.53s WALL (    1300 calls)
                                        0.52s GPU  (    1300 calls)
     sum_band:cal :      0.05s CPU      0.08s WALL (    1300 calls)
                                        0.07s GPU  (    1300 calls)
     sum_band:bec :      0.28s CPU      0.31s WALL (    1300 calls)
                                        0.29s GPU  (    1300 calls)
     addusdens    :      1.41s CPU      1.41s WALL (      26 calls)
                                        1.41s GPU  (      26 calls)
     addusd:skk   :      0.00s CPU      0.01s WALL (      78 calls)
                                        0.00s GPU  (      78 calls)

     Called by *egterg:
     cdiaghg      :      5.34s CPU      5.53s WALL (    6104 calls)
                                        5.46s GPU  (    6104 calls)
     cegterg:over :      1.45s CPU      1.51s WALL (    4804 calls)
     cegterg:upda :      0.88s CPU      0.89s WALL (    4804 calls)
     cegterg:last :      0.16s CPU      0.16s WALL (    2425 calls)
     h_psi        :      5.57s CPU      5.75s WALL (    6154 calls)
                                        5.68s GPU  (    6154 calls)
     s_psi        :      0.94s CPU      1.00s WALL (    6154 calls)
     g_psi        :      0.02s CPU      0.12s WALL (    4804 calls)
                                        0.06s GPU  (    4804 calls)

     Called by h_psi:
     h_psi:calbec :      0.19s CPU      0.35s WALL (    6154 calls)
                                        0.28s GPU  (    6154 calls)
     vloc_psi     :      3.85s CPU      3.92s WALL (    6154 calls)
                                        3.85s GPU  (    6154 calls)
     add_vuspsi   :      0.85s CPU      1.03s WALL (    6154 calls)
                                        0.95s GPU  (    6154 calls)

     General routines
     calbec       :      0.21s CPU      0.24s WALL (    7654 calls)
     fft          :      3.44s CPU      0.64s WALL (     688 calls)
                                        0.03s GPU  (     634 calls)
     ffts         :      4.25s CPU      0.84s WALL (    1105 calls)
                                        0.03s GPU  (    1051 calls)
     fftw         :      0.35s CPU      1.39s WALL (   20210 calls)
                                        1.16s GPU  (   20210 calls)
     interpolate  :      7.91s CPU      1.45s WALL (      54 calls)
 
     Parallel routines

     PAW routines
     PAW_pot      :    149.76s CPU     20.30s WALL (      27 calls)
     PAW_symme    :      0.01s CPU      0.01s WALL (      53 calls)
 
     PWSCF        :   3m 4.08s CPU     47.75s WALL

 
   This run was terminated on:   5:40:22  12Jul2026            

=------------------------------------------------------------------------------=
   JOB DONE.
=------------------------------------------------------------------------------=
Warning: ieee_divide_by_zero is signaling
Warning: ieee_inexact is signaling
FORTRAN STOP
