
     Program PWSCF v.7.3.1 starts on 12Jul2026 at 13:38: 3 

     This program is part of the open-source Quantum ESPRESSO suite
     for quantum simulation of materials; please cite
         "P. Giannozzi et al., J. Phys.:Condens. Matter 21 395502 (2009);
         "P. Giannozzi et al., J. Phys.:Condens. Matter 29 465901 (2017);
         "P. Giannozzi et al., J. Chem. Phys. 152 154105 (2020);
          URL http://www.quantum-espresso.org", 
     in publications or presentations arising from this work. More details at
     http://www.quantum-espresso.org/quote

     Parallel version (MPI & OpenMP), running on      14 processor cores
     Number of MPI processes:                 1
     Threads/MPI process:                    14

     MPI processes distributed on     1 nodes
     917702 MiB available memory on the printing compute node when the environment starts
 
     Reading input from pw.in

     Current dimensions of program PWSCF are:
     Max number of different atomic species (ntypx) = 10
     Max number of k-points (npk) =  40000
     Max angular momentum in pseudopotentials (lmaxx) =  4
     file Co.pbe-spn-kjpaw_psl.0.3.1.UPF: wavefunction(s)  3P 3D renormalized
     file O.pbe-n-kjpaw_psl.1.0.0.UPF: wavefunction(s)  2S 2P renormalized
     file Na.pbe-spn-kjpaw_psl.1.0.0.UPF: wavefunction(s)  2P renormalized
     file H.pbe-kjpaw_psl.1.0.0.UPF: wavefunction(s)  1S renormalized
 
     Subspace diagonalization in iterative solution of the eigenvalue problem:
     a serial algorithm will be used

 
     G-vector sticks info
     --------------------
     sticks:   dense  smooth     PW     G-vecs:    dense   smooth      PW
     Sum        2941    1483    421               256907    90927   13645
 
     Using Slab Decomposition
 


     bravais-lattice index     =            4
     lattice parameter (alat)  =       9.4527  a.u.
     unit-cell volume          =    1447.6983 (a.u.)^3
     number of atoms/cell      =           22
     number of atomic types    =            4
     number of electrons       =       128.00
     number of Kohn-Sham states=           85
     kinetic-energy cutoff     =      60.0000  Ry
     charge density cutoff     =     480.0000  Ry
     scf convergence threshold =      1.0E-07
     mixing beta               =       0.3000
     number of iterations used =            8  local-TF  mixing
     energy convergence thresh.=      1.0E-04
     force convergence thresh. =      1.0E-03
     Exchange-correlation= SLA  PW   PBX  PBC
                           (   1   4   3   4   0   0   0)
     nstep                     =          100


     GPU acceleration is ACTIVE.  1 visible GPUs per MPI rank
     GPU-aware MPI enabled


     GPU used by master process:

        Device Number: 0
        Device name: NVIDIA A100-SXM4-80GB
        Compute capability : 80
        Ratio of single to double precision performance  : 2
        Memory Clock Rate (KHz): 1593000
        Memory Bus Width (bits): 5120
        Peak Memory Bandwidth (GB/s): ******

     celldm(1)=   9.452718  celldm(2)=   0.000000  celldm(3)=   1.979144
     celldm(4)=   0.000000  celldm(5)=   0.000000  celldm(6)=   0.000000

     crystal axes: (cart. coord. in units of alat)
               a(1) = (   1.000000   0.000000   0.000000 )  
               a(2) = (  -0.500000   0.866025   0.000000 )  
               a(3) = (   0.000000   0.000000   1.979144 )  

     reciprocal axes: (cart. coord. in units 2 pi/alat)
               b(1) = (  1.000000  0.577350 -0.000000 )  
               b(2) = (  0.000000  1.154701  0.000000 )  
               b(3) = (  0.000000 -0.000000  0.505269 )  


     PseudoPot. # 1 for Co read from file:
     ../../pseudo/Co.pbe-spn-kjpaw_psl.0.3.1.UPF
     MD5 check sum: 3c0a43779828c046024e4f3be63f8e67
     Pseudo is Projector augmented-wave + core cor, Zval = 17.0
     Generated using &quot;atomic&quot; code by A. Dal Corso  v.6.2.2
     Shape of augmentation charge: PSQ
     Using radial grid of 1193 points,  6 beta functions with: 
                l(1) =   0
                l(2) =   0
                l(3) =   1
                l(4) =   1
                l(5) =   2
                l(6) =   2
     Q(r) pseudized with 0 coefficients 


     PseudoPot. # 2 for O  read from file:
     ../../pseudo/O.pbe-n-kjpaw_psl.1.0.0.UPF
     MD5 check sum: e99d9cef9b487d1ca56f5b95ecd0fd7a
     Pseudo is Projector augmented-wave + core cor, Zval =  6.0
     Generated using &quot;atomic&quot; code by A. Dal Corso  v.6.3
     Shape of augmentation charge: PSQ
     Using radial grid of 1095 points,  4 beta functions with: 
                l(1) =   0
                l(2) =   0
                l(3) =   1
                l(4) =   1
     Q(r) pseudized with 0 coefficients 


     PseudoPot. # 3 for Na read from file:
     ../../pseudo/Na.pbe-spn-kjpaw_psl.1.0.0.UPF
     MD5 check sum: 05b4deb74e3932c23ab016979dc8b5d4
     Pseudo is Projector augmented-wave + core cor, Zval =  9.0
     Generated using &quot;atomic&quot; code by A. Dal Corso  v.6.3
     Shape of augmentation charge: PSQ
     Using radial grid of 1121 points,  4 beta functions with: 
                l(1) =   0
                l(2) =   0
                l(3) =   1
                l(4) =   1
     Q(r) pseudized with 0 coefficients 


     PseudoPot. # 4 for H  read from file:
     ../../pseudo/H.pbe-kjpaw_psl.1.0.0.UPF
     MD5 check sum: d81a744832360e4a8af0b0b5b123bc2a
     Pseudo is Projector augmented-wave, Zval =  1.0
     Generated using &quot;atomic&quot; code by A. Dal Corso  v.6.3MaX
     Shape of augmentation charge: PSQ
     Using radial grid of  929 points,  2 beta functions with: 
                l(1) =   0
                l(2) =   0
     Q(r) pseudized with 0 coefficients 


     atomic species   valence    mass     pseudopotential
     Co               17.00    58.93300     Co( 1.00)
     O                 6.00    15.99900     O ( 1.00)
     Na                9.00    22.98977     Na( 1.00)
     H                 1.00     1.00800     H ( 1.00)

     Starting magnetic structure 
     atomic species   magnetization
     Co              0.300
     O               0.000
     Na              0.000
     H               0.000

     No symmetry found


                                    s                        frac. trans.

      isym =  1     identity                                     

 cryst.   s( 1) = (     1          0          0      )
                  (     0          1          0      )
                  (     0          0          1      )

 cart.    s( 1) = (  1.0000000  0.0000000  0.0000000 )
                  (  0.0000000  1.0000000  0.0000000 )
                  (  0.0000000  0.0000000  1.0000000 )


     point group C_1 (1)    
     there are  1 classes
     the character table:

       E    
A      1.00

     the symmetry operations in each class and the name of the first element:

     E        1
          identity                                               

   Cartesian axes

     site n.     atom                  positions (alat units)
         1        Co     tau(   1) = (   0.0000000   0.0000000   0.0000000  )
         2        Co     tau(   2) = (  -0.0000000   0.5773503   0.0000000  )
         3        Co     tau(   3) = (   0.5000000   0.2886751   0.0000000  )
         4        O      tau(   4) = (   0.1666667   0.2886751   0.1919170  )
         5        O      tau(   5) = (   0.6666667   0.0000000   0.1919170  )
         6        O      tau(   6) = (  -0.3333333   0.5773503   0.1919170  )
         7        O      tau(   7) = (   0.3333333   0.0000000   1.7872269  )
         8        O      tau(   8) = (   0.3333333   0.5773503   1.7872269  )
         9        O      tau(   9) = (  -0.1666667   0.2886751   1.7872269  )
        10        Na     tau(  10) = (   0.0000000   0.0000000   1.1894855  )
        11        O      tau(  11) = (   0.3333333   0.0000000   0.7496757  )
        12        H      tau(  12) = (   0.5188487   0.0262772   0.7885490  )
        13        H      tau(  13) = (  -0.1727349   0.8397482   0.5602285  )
        14        O      tau(  14) = (  -0.1666667   0.2886751   0.7496757  )
        15        H      tau(  15) = (   0.7178189   0.4361976   0.7885490  )
        16        H      tau(  16) = (  -0.1408758   0.2965585   0.5602285  )
        17        O      tau(  17) = (  -0.0000000   0.5773503   1.2294682  )
        18        H      tau(  18) = (  -0.0756623   0.7513118   1.2043644  )
        19        H      tau(  19) = (   0.0756623   0.5828359   1.4051461  )
        20        O      tau(  20) = (   0.5000000   0.2886751   1.2294682  )
        21        H      tau(  21) = (   0.6128239   0.4411814   1.2043644  )
        22        H      tau(  22) = (   0.5425818   0.2258925   1.4051461  )

     --------------------------------------------
     DFT-D3 Dispersion Correction (3-body terms):
     --------------------------------------------
       Reference C6 values for interpolation: 

         atom   Coordination number   C6
         H          0.912             6.05
         H          0.000            15.18
         O          0.000            31.01
         O          0.993            25.63
         O          1.989            20.74
         Na         0.000          3216.06
         Na         0.968           372.21
         Co         0.000          1065.56
         Co         1.715           373.09
         Co         2.926           296.13
         Co         7.779           236.57

       Values used:

         atom   Coordination number  R0_AB[au]  C6      C8
         Co         6.775            3.243    236.57  20800.86
         Co         6.742            3.243    236.57  20800.86
         Co         6.741            3.243    236.57  20800.86
         O          2.703            2.345     20.74    418.58
         O          2.703            2.345     20.74    418.58
         O          2.703            2.345     20.74    418.58
         O          2.738            2.345     20.74    418.58
         O          2.738            2.345     20.74    418.58
         O          2.738            2.345     20.74    418.58
         Na         4.332            3.504    372.21  48432.19
         O          2.435            2.345     20.74    418.63
         H          1.023            2.062      6.16     74.48
         H          1.006            2.062      6.18     74.66
         O          2.436            2.345     20.74    418.63
         H          1.022            2.062      6.16     74.49
         H          1.006            2.062      6.18     74.66
         O          2.790            2.345     20.74    418.58
         H          1.696            2.062      6.05     73.19
         H          1.081            2.062      6.12     74.03
         O          2.790            2.345     20.74    418.58
         H          1.696            2.062      6.05     73.19
         H          1.081            2.062      6.12     74.03

         Molecular C6 ( Ry / a.u.^6 ) =     16114.28


   Crystallographic axes

     site n.     atom                  positions (cryst. coord.)
         1        Co     tau(   1) = (  0.0000000  0.0000000  0.0000000  )
         2        Co     tau(   2) = (  0.3333333  0.6666667  0.0000000  )
         3        Co     tau(   3) = (  0.6666667  0.3333333  0.0000000  )
         4        O      tau(   4) = (  0.3333333  0.3333333  0.0969697  )
         5        O      tau(   5) = (  0.6666667  0.0000000  0.0969697  )
         6        O      tau(   6) = (  0.0000000  0.6666667  0.0969697  )
         7        O      tau(   7) = (  0.3333333  0.0000000  0.9030303  )
         8        O      tau(   8) = (  0.6666667  0.6666667  0.9030303  )
         9        O      tau(   9) = ( -0.0000000  0.3333333  0.9030303  )
        10        Na     tau(  10) = (  0.0000000  0.0000000  0.6010101  )
        11        O      tau(  11) = (  0.3333333  0.0000000  0.3787879  )
        12        H      tau(  12) = (  0.5340199  0.0303423  0.3984293  )
        13        H      tau(  13) = (  0.3120939  0.9696577  0.2830660  )
        14        O      tau(  14) = ( -0.0000000  0.3333333  0.3787879  )
        15        H      tau(  15) = (  0.9696577  0.5036776  0.3984293  )
        16        H      tau(  16) = (  0.0303423  0.3424362  0.2830660  )
        17        O      tau(  17) = (  0.3333333  0.6666667  0.6212121  )
        18        H      tau(  18) = (  0.3581077  0.8675401  0.6085279  )
        19        H      tau(  19) = (  0.4121628  0.6730009  0.7099767  )
        20        O      tau(  20) = (  0.6666667  0.3333333  0.6212121  )
        21        H      tau(  21) = (  0.8675401  0.5094324  0.6085279  )
        22        H      tau(  22) = (  0.6730009  0.2608382  0.7099767  )

     number of k points=    40  Marzari-Vanderbilt smearing, width (Ry)=  0.0200
                       cart. coord. in units 2pi/alat
        k(    1) = (   0.0000000   0.0000000   0.0000000), wk =   0.0138889
        k(    2) = (   0.0000000   0.0000000  -0.2526345), wk =   0.0138889
        k(    3) = (   0.0000000   0.1924501   0.0000000), wk =   0.0277778
        k(    4) = (   0.0000000   0.1924501  -0.2526345), wk =   0.0277778
        k(    5) = (   0.0000000   0.3849002   0.0000000), wk =   0.0277778
        k(    6) = (   0.0000000   0.3849002  -0.2526345), wk =   0.0277778
        k(    7) = (   0.0000000  -0.5773503   0.0000000), wk =   0.0138889
        k(    8) = (   0.0000000  -0.5773503  -0.2526345), wk =   0.0138889
        k(    9) = (   0.1666667   0.2886751   0.0000000), wk =   0.0277778
        k(   10) = (   0.1666667   0.2886751  -0.2526345), wk =   0.0277778
        k(   11) = (   0.1666667   0.4811252   0.0000000), wk =   0.0277778
        k(   12) = (   0.1666667   0.4811252  -0.2526345), wk =   0.0277778
        k(   13) = (   0.3333333   0.5773503   0.0000000), wk =   0.0277778
        k(   14) = (   0.3333333   0.5773503  -0.2526345), wk =   0.0277778
        k(   15) = (  -0.1666667   0.0962250   0.0000000), wk =   0.0277778
        k(   16) = (   0.1666667   0.0962250   0.0000000), wk =   0.0277778
        k(   17) = (  -0.1666667   0.0962250  -0.2526345), wk =   0.0277778
        k(   18) = (   0.1666667   0.0962250  -0.2526345), wk =   0.0277778
        k(   19) = (  -0.3333333   0.1924501   0.0000000), wk =   0.0277778
        k(   20) = (   0.3333333   0.1924501   0.0000000), wk =   0.0277778
        k(   21) = (  -0.3333333   0.1924501  -0.2526345), wk =   0.0277778
        k(   22) = (   0.3333333   0.1924501  -0.2526345), wk =   0.0277778
        k(   23) = (   0.5000000  -0.2886751   0.0000000), wk =   0.0138889
        k(   24) = (  -0.5000000  -0.2886751   0.0000000), wk =   0.0138889
        k(   25) = (   0.5000000  -0.2886751  -0.2526345), wk =   0.0138889
        k(   26) = (  -0.5000000  -0.2886751  -0.2526345), wk =   0.0138889
        k(   27) = (  -0.1666667   0.2886751   0.0000000), wk =   0.0277778
        k(   28) = (   0.3333333   0.0000000   0.0000000), wk =   0.0277778
        k(   29) = (  -0.1666667   0.2886751   0.2526345), wk =   0.0277778
        k(   30) = (   0.3333333   0.0000000  -0.2526345), wk =   0.0277778
        k(   31) = (  -0.1666667   0.4811252   0.0000000), wk =   0.0277778
        k(   32) = (  -0.3333333   0.3849002   0.0000000), wk =   0.0277778
        k(   33) = (   0.5000000   0.0962250   0.0000000), wk =   0.0277778
        k(   34) = (  -0.3333333  -0.3849002   0.0000000), wk =   0.0277778
        k(   35) = (   0.5000000  -0.0962250   0.0000000), wk =   0.0277778
        k(   36) = (  -0.1666667   0.4811252   0.2526345), wk =   0.0277778
        k(   37) = (  -0.3333333   0.3849002  -0.2526345), wk =   0.0277778
        k(   38) = (   0.5000000   0.0962250  -0.2526345), wk =   0.0277778
        k(   39) = (  -0.3333333  -0.3849002   0.2526345), wk =   0.0277778
        k(   40) = (   0.5000000  -0.0962250   0.2526345), wk =   0.0277778

                       cryst. coord.
        k(    1) = (   0.0000000   0.0000000   0.0000000), wk =   0.0138889
        k(    2) = (   0.0000000   0.0000000  -0.5000000), wk =   0.0138889
        k(    3) = (   0.0000000   0.1666667   0.0000000), wk =   0.0277778
        k(    4) = (   0.0000000   0.1666667  -0.5000000), wk =   0.0277778
        k(    5) = (   0.0000000   0.3333333   0.0000000), wk =   0.0277778
        k(    6) = (   0.0000000   0.3333333  -0.5000000), wk =   0.0277778
        k(    7) = (   0.0000000  -0.5000000   0.0000000), wk =   0.0138889
        k(    8) = (   0.0000000  -0.5000000  -0.5000000), wk =   0.0138889
        k(    9) = (   0.1666667   0.1666667   0.0000000), wk =   0.0277778
        k(   10) = (   0.1666667   0.1666667  -0.5000000), wk =   0.0277778
        k(   11) = (   0.1666667   0.3333333   0.0000000), wk =   0.0277778
        k(   12) = (   0.1666667   0.3333333  -0.5000000), wk =   0.0277778
        k(   13) = (   0.3333333   0.3333333   0.0000000), wk =   0.0277778
        k(   14) = (   0.3333333   0.3333333  -0.5000000), wk =   0.0277778
        k(   15) = (  -0.1666667   0.1666667   0.0000000), wk =   0.0277778
        k(   16) = (   0.1666667  -0.0000000   0.0000000), wk =   0.0277778
        k(   17) = (  -0.1666667   0.1666667  -0.5000000), wk =   0.0277778
        k(   18) = (   0.1666667  -0.0000000  -0.5000000), wk =   0.0277778
        k(   19) = (  -0.3333333   0.3333333   0.0000000), wk =   0.0277778
        k(   20) = (   0.3333333  -0.0000000   0.0000000), wk =   0.0277778
        k(   21) = (  -0.3333333   0.3333333  -0.5000000), wk =   0.0277778
        k(   22) = (   0.3333333  -0.0000000  -0.5000000), wk =   0.0277778
        k(   23) = (   0.5000000  -0.5000000   0.0000000), wk =   0.0138889
        k(   24) = (  -0.5000000   0.0000000   0.0000000), wk =   0.0138889
        k(   25) = (   0.5000000  -0.5000000  -0.5000000), wk =   0.0138889
        k(   26) = (  -0.5000000   0.0000000  -0.5000000), wk =   0.0138889
        k(   27) = (  -0.1666667   0.3333333   0.0000000), wk =   0.0277778
        k(   28) = (   0.3333333  -0.1666667   0.0000000), wk =   0.0277778
        k(   29) = (  -0.1666667   0.3333333   0.5000000), wk =   0.0277778
        k(   30) = (   0.3333333  -0.1666667  -0.5000000), wk =   0.0277778
        k(   31) = (  -0.1666667   0.5000000   0.0000000), wk =   0.0277778
        k(   32) = (  -0.3333333   0.5000000   0.0000000), wk =   0.0277778
        k(   33) = (   0.5000000  -0.1666667   0.0000000), wk =   0.0277778
        k(   34) = (  -0.3333333  -0.1666667   0.0000000), wk =   0.0277778
        k(   35) = (   0.5000000  -0.3333333   0.0000000), wk =   0.0277778
        k(   36) = (  -0.1666667   0.5000000   0.5000000), wk =   0.0277778
        k(   37) = (  -0.3333333   0.5000000  -0.5000000), wk =   0.0277778
        k(   38) = (   0.5000000  -0.1666667  -0.5000000), wk =   0.0277778
        k(   39) = (  -0.3333333  -0.1666667   0.5000000), wk =   0.0277778
        k(   40) = (   0.5000000  -0.3333333   0.5000000), wk =   0.0277778

     Dense  grid:   256907 G-vectors     FFT dimensions: (  72,  72, 135)

     Smooth grid:    90927 G-vectors     FFT dimensions: (  48,  48,  96)

     Dynamical RAM for                 wfc:      14.74 MB

     Dynamical RAM for     wfc (w. buffer):    1193.65 MB

     Dynamical RAM for           str. fact:      15.68 MB

     Dynamical RAM for           local pot:       0.00 MB

     Dynamical RAM for          nlocal pot:      27.39 MB

     Dynamical RAM for                qrad:       7.03 MB

     Dynamical RAM for          rho,v,vnew:      55.56 MB

     Dynamical RAM for               rhoin:      18.52 MB

     Dynamical RAM for            rho*nmix:     125.44 MB

     Dynamical RAM for           G-vectors:      15.39 MB

     Dynamical RAM for          h,s,v(r/c):       1.32 MB

     Dynamical RAM for          <psi|beta>:       0.20 MB

     Dynamical RAM for                 psi:      29.47 MB

     Dynamical RAM for                hpsi:      29.47 MB

     Dynamical RAM for                spsi:      29.47 MB

     Dynamical RAM for      wfcinit/wfcrot:      29.64 MB

     Dynamical RAM for           addusdens:     772.26 MB

     Dynamical RAM for          addusforce:     842.90 MB

     Estimated static dynamical RAM per process >       1.35 GB

     Estimated max dynamical RAM per process >       2.30 GB

     Check: negative core charge=   -0.000006
     Generating pointlists ...
     new r_m :   0.1587 (alat units)  1.4998 (a.u.) for type    1
     new r_m :   0.0789 (alat units)  0.7461 (a.u.) for type    2
     new r_m :   0.1814 (alat units)  1.7150 (a.u.) for type    3
     new r_m :   0.0789 (alat units)  0.7461 (a.u.) for type    4

     Initial potential from superposition of free atoms

     starting charge     127.9928, renormalised to     128.0000
     Starting wfcs are   83 randomized atomic wfcs +    2 random wfcs
     Checking if some PAW data can be deallocated... 

     total cpu time spent up to now is        7.3 secs

     Self-consistent Calculation
[tb_dev] Currently allocated     1.27E+00 Mbytes, locked:    0 /   6
[tb_pin] Currently allocated     0.00E+00 Mbytes, locked:    0 /   0

     iteration #  1     ecut=    60.00 Ry     beta= 0.30
     Davidson diagonalization with overlap

---- Real-time Memory Report at c_bands before calling an iterative solver
          1950 MiB given to the printing process from OS
             0 MiB allocation reported by mallinfo(arena+hblkhd)
        916114 MiB available memory on the node where the printing process lives
     GPU memory used/free/total (MiB): 2068 / 79082 / 81151
------------------
     ethr =  1.00E-02,  avg # of iterations =  8.3

     total cpu time spent up to now is       16.3 secs

     total energy              =   -1664.67524627 Ry
     estimated scf accuracy    <       7.57084434 Ry

     total magnetization       =    14.00 Bohr mag/cell
     absolute magnetization    =    14.01 Bohr mag/cell
[tb_dev] Currently allocated     1.68E-04 Mbytes, locked:    0 /   2
[tb_pin] Currently allocated     0.00E+00 Mbytes, locked:    0 /   0

     iteration #  2     ecut=    60.00 Ry     beta= 0.30
     Davidson diagonalization with overlap

---- Real-time Memory Report at c_bands before calling an iterative solver
          2021 MiB given to the printing process from OS
             0 MiB allocation reported by mallinfo(arena+hblkhd)
        916044 MiB available memory on the node where the printing process lives
     GPU memory used/free/total (MiB): 2124 / 79026 / 81151
------------------
     ethr =  5.91E-03,  avg # of iterations =  2.0

     total cpu time spent up to now is       21.5 secs

     total energy              =   -1664.88247427 Ry
     estimated scf accuracy    <       1.69469287 Ry

     total magnetization       =    10.80 Bohr mag/cell
     absolute magnetization    =    10.81 Bohr mag/cell
[tb_dev] Currently allocated     1.68E-04 Mbytes, locked:    0 /   2
[tb_pin] Currently allocated     0.00E+00 Mbytes, locked:    0 /   0

     iteration #  3     ecut=    60.00 Ry     beta= 0.30
     Davidson diagonalization with overlap

---- Real-time Memory Report at c_bands before calling an iterative solver
          2039 MiB given to the printing process from OS
             0 MiB allocation reported by mallinfo(arena+hblkhd)
        916029 MiB available memory on the node where the printing process lives
     GPU memory used/free/total (MiB): 2124 / 79026 / 81151
------------------
     ethr =  1.32E-03,  avg # of iterations =  2.8

     total cpu time spent up to now is       27.3 secs

     total energy              =   -1665.22905434 Ry
     estimated scf accuracy    <       2.41398423 Ry

     total magnetization       =     4.06 Bohr mag/cell
     absolute magnetization    =     4.80 Bohr mag/cell
[tb_dev] Currently allocated     1.68E-04 Mbytes, locked:    0 /   2
[tb_pin] Currently allocated     0.00E+00 Mbytes, locked:    0 /   0

     iteration #  4     ecut=    60.00 Ry     beta= 0.30
     Davidson diagonalization with overlap

---- Real-time Memory Report at c_bands before calling an iterative solver
          2057 MiB given to the printing process from OS
             0 MiB allocation reported by mallinfo(arena+hblkhd)
        916060 MiB available memory on the node where the printing process lives
     GPU memory used/free/total (MiB): 2124 / 79026 / 81151
------------------
     ethr =  1.32E-03,  avg # of iterations =  1.1

     total cpu time spent up to now is       32.2 secs

     total energy              =   -1665.37917809 Ry
     estimated scf accuracy    <       0.67775640 Ry

     total magnetization       =     6.27 Bohr mag/cell
     absolute magnetization    =     6.48 Bohr mag/cell
[tb_dev] Currently allocated     1.68E-04 Mbytes, locked:    0 /   2
[tb_pin] Currently allocated     0.00E+00 Mbytes, locked:    0 /   0

     iteration #  5     ecut=    60.00 Ry     beta= 0.30
     Davidson diagonalization with overlap

---- Real-time Memory Report at c_bands before calling an iterative solver
          2062 MiB given to the printing process from OS
             0 MiB allocation reported by mallinfo(arena+hblkhd)
        916075 MiB available memory on the node where the printing process lives
     GPU memory used/free/total (MiB): 2124 / 79026 / 81151
------------------
     ethr =  5.29E-04,  avg # of iterations =  2.0

     total cpu time spent up to now is       37.4 secs

     total energy              =   -1665.50272783 Ry
     estimated scf accuracy    <       0.40082456 Ry

     total magnetization       =     3.01 Bohr mag/cell
     absolute magnetization    =     4.19 Bohr mag/cell
[tb_dev] Currently allocated     1.68E-04 Mbytes, locked:    0 /   2
[tb_pin] Currently allocated     0.00E+00 Mbytes, locked:    0 /   0

     iteration #  6     ecut=    60.00 Ry     beta= 0.30
     Davidson diagonalization with overlap

---- Real-time Memory Report at c_bands before calling an iterative solver
          2070 MiB given to the printing process from OS
             0 MiB allocation reported by mallinfo(arena+hblkhd)
        916077 MiB available memory on the node where the printing process lives
     GPU memory used/free/total (MiB): 2124 / 79026 / 81151
------------------
     ethr =  3.13E-04,  avg # of iterations =  2.9

     total cpu time spent up to now is       43.0 secs

     total energy              =   -1665.65731971 Ry
     estimated scf accuracy    <       0.45745433 Ry

     total magnetization       =     2.08 Bohr mag/cell
     absolute magnetization    =     3.48 Bohr mag/cell
[tb_dev] Currently allocated     1.68E-04 Mbytes, locked:    0 /   2
[tb_pin] Currently allocated     0.00E+00 Mbytes, locked:    0 /   0

     iteration #  7     ecut=    60.00 Ry     beta= 0.30
     Davidson diagonalization with overlap

---- Real-time Memory Report at c_bands before calling an iterative solver
          2076 MiB given to the printing process from OS
             0 MiB allocation reported by mallinfo(arena+hblkhd)
        916059 MiB available memory on the node where the printing process lives
     GPU memory used/free/total (MiB): 2124 / 79026 / 81151
------------------
     ethr =  3.13E-04,  avg # of iterations =  2.0

     total cpu time spent up to now is       48.4 secs

     total energy              =   -1665.63259527 Ry
     estimated scf accuracy    <       1.51000427 Ry

     total magnetization       =     1.98 Bohr mag/cell
     absolute magnetization    =     2.29 Bohr mag/cell
[tb_dev] Currently allocated     1.68E-04 Mbytes, locked:    0 /   2
[tb_pin] Currently allocated     0.00E+00 Mbytes, locked:    0 /   0

     iteration #  8     ecut=    60.00 Ry     beta= 0.30
     Davidson diagonalization with overlap

---- Real-time Memory Report at c_bands before calling an iterative solver
          2079 MiB given to the printing process from OS
             0 MiB allocation reported by mallinfo(arena+hblkhd)
        916077 MiB available memory on the node where the printing process lives
     GPU memory used/free/total (MiB): 2124 / 79026 / 81151
------------------
     ethr =  3.13E-04,  avg # of iterations =  2.0

     total cpu time spent up to now is       53.6 secs

     total energy              =   -1665.60189457 Ry
     estimated scf accuracy    <       0.63383884 Ry

     total magnetization       =     2.09 Bohr mag/cell
     absolute magnetization    =     2.62 Bohr mag/cell
[tb_dev] Currently allocated     1.68E-04 Mbytes, locked:    0 /   2
[tb_pin] Currently allocated     0.00E+00 Mbytes, locked:    0 /   0

     iteration #  9     ecut=    60.00 Ry     beta= 0.30
     Davidson diagonalization with overlap

---- Real-time Memory Report at c_bands before calling an iterative solver
          2088 MiB given to the printing process from OS
             0 MiB allocation reported by mallinfo(arena+hblkhd)
        916080 MiB available memory on the node where the printing process lives
     GPU memory used/free/total (MiB): 2124 / 79026 / 81151
------------------
     ethr =  3.13E-04,  avg # of iterations =  1.8

     total cpu time spent up to now is       58.9 secs

     total energy              =   -1665.61112881 Ry
     estimated scf accuracy    <       0.14704615 Ry

     total magnetization       =     2.08 Bohr mag/cell
     absolute magnetization    =     2.48 Bohr mag/cell
[tb_dev] Currently allocated     1.68E-04 Mbytes, locked:    0 /   2
[tb_pin] Currently allocated     0.00E+00 Mbytes, locked:    0 /   0

     iteration # 10     ecut=    60.00 Ry     beta= 0.30
     Davidson diagonalization with overlap

---- Real-time Memory Report at c_bands before calling an iterative solver
          2094 MiB given to the printing process from OS
             0 MiB allocation reported by mallinfo(arena+hblkhd)
        916185 MiB available memory on the node where the printing process lives
     GPU memory used/free/total (MiB): 2124 / 79026 / 81151
------------------
     c_bands:  1 eigenvalues not converged
     c_bands:  2 eigenvalues not converged
     c_bands:  1 eigenvalues not converged
     c_bands:  2 eigenvalues not converged
     c_bands:  1 eigenvalues not converged
     c_bands:  1 eigenvalues not converged
     c_bands:  1 eigenvalues not converged
     ethr =  1.15E-04,  avg # of iterations = 10.0

     total cpu time spent up to now is       67.6 secs

     total energy              =   -1665.62258223 Ry
     estimated scf accuracy    <       0.02248186 Ry

     total magnetization       =     2.36 Bohr mag/cell
     absolute magnetization    =     2.43 Bohr mag/cell
[tb_dev] Currently allocated     1.68E-04 Mbytes, locked:    0 /   2
[tb_pin] Currently allocated     0.00E+00 Mbytes, locked:    0 /   0

     iteration # 11     ecut=    60.00 Ry     beta= 0.30
     Davidson diagonalization with overlap

---- Real-time Memory Report at c_bands before calling an iterative solver
          2100 MiB given to the printing process from OS
             0 MiB allocation reported by mallinfo(arena+hblkhd)
        916162 MiB available memory on the node where the printing process lives
     GPU memory used/free/total (MiB): 2124 / 79026 / 81151
------------------
     c_bands:  1 eigenvalues not converged
     c_bands:  1 eigenvalues not converged
     c_bands:  3 eigenvalues not converged
     c_bands:  1 eigenvalues not converged
     c_bands:  1 eigenvalues not converged
     c_bands:  1 eigenvalues not converged
     c_bands:  1 eigenvalues not converged
     c_bands:  1 eigenvalues not converged
     c_bands:  1 eigenvalues not converged
     c_bands:  1 eigenvalues not converged
     c_bands:  1 eigenvalues not converged
     c_bands:  1 eigenvalues not converged
     c_bands:  1 eigenvalues not converged
     c_bands:  1 eigenvalues not converged
     c_bands:  2 eigenvalues not converged
     c_bands:  1 eigenvalues not converged
     ethr =  1.76E-05,  avg # of iterations = 15.2

     total cpu time spent up to now is       78.8 secs

     total energy              =   -1665.62158743 Ry
     estimated scf accuracy    <       0.02679761 Ry

     total magnetization       =     2.35 Bohr mag/cell
     absolute magnetization    =     2.40 Bohr mag/cell
[tb_dev] Currently allocated     1.68E-04 Mbytes, locked:    0 /   2
[tb_pin] Currently allocated     0.00E+00 Mbytes, locked:    0 /   0

     iteration # 12     ecut=    60.00 Ry     beta= 0.30
     Davidson diagonalization with overlap

---- Real-time Memory Report at c_bands before calling an iterative solver
          2100 MiB given to the printing process from OS
             0 MiB allocation reported by mallinfo(arena+hblkhd)
        916122 MiB available memory on the node where the printing process lives
     GPU memory used/free/total (MiB): 2124 / 79026 / 81151
------------------
     ethr =  1.76E-05,  avg # of iterations =  2.7

     total cpu time spent up to now is       84.4 secs

     total energy              =   -1665.62390180 Ry
     estimated scf accuracy    <       0.01520544 Ry

     total magnetization       =     2.27 Bohr mag/cell
     absolute magnetization    =     2.31 Bohr mag/cell
[tb_dev] Currently allocated     1.68E-04 Mbytes, locked:    0 /   2
[tb_pin] Currently allocated     0.00E+00 Mbytes, locked:    0 /   0

     iteration # 13     ecut=    60.00 Ry     beta= 0.30
     Davidson diagonalization with overlap

---- Real-time Memory Report at c_bands before calling an iterative solver
          2100 MiB given to the printing process from OS
             0 MiB allocation reported by mallinfo(arena+hblkhd)
        916086 MiB available memory on the node where the printing process lives
     GPU memory used/free/total (MiB): 2124 / 79026 / 81151
------------------
     ethr =  1.19E-05,  avg # of iterations =  2.2

     total cpu time spent up to now is       90.0 secs

     total energy              =   -1665.62355184 Ry
     estimated scf accuracy    <       0.01284597 Ry

     total magnetization       =     2.20 Bohr mag/cell
     absolute magnetization    =     2.24 Bohr mag/cell
[tb_dev] Currently allocated     1.68E-04 Mbytes, locked:    0 /   2
[tb_pin] Currently allocated     0.00E+00 Mbytes, locked:    0 /   0

     iteration # 14     ecut=    60.00 Ry     beta= 0.30
     Davidson diagonalization with overlap

---- Real-time Memory Report at c_bands before calling an iterative solver
          2100 MiB given to the printing process from OS
             0 MiB allocation reported by mallinfo(arena+hblkhd)
        916067 MiB available memory on the node where the printing process lives
     GPU memory used/free/total (MiB): 2124 / 79026 / 81151
------------------
     c_bands:  1 eigenvalues not converged
     c_bands:  1 eigenvalues not converged
     ethr =  1.00E-05,  avg # of iterations =  3.0

     total cpu time spent up to now is       95.7 secs

     total energy              =   -1665.62265651 Ry
     estimated scf accuracy    <       0.00691188 Ry

     total magnetization       =     2.24 Bohr mag/cell
     absolute magnetization    =     2.28 Bohr mag/cell
[tb_dev] Currently allocated     1.68E-04 Mbytes, locked:    0 /   2
[tb_pin] Currently allocated     0.00E+00 Mbytes, locked:    0 /   0

     iteration # 15     ecut=    60.00 Ry     beta= 0.30
     Davidson diagonalization with overlap

---- Real-time Memory Report at c_bands before calling an iterative solver
          2100 MiB given to the printing process from OS
             0 MiB allocation reported by mallinfo(arena+hblkhd)
        916061 MiB available memory on the node where the printing process lives
     GPU memory used/free/total (MiB): 2124 / 79026 / 81151
------------------
     c_bands:  2 eigenvalues not converged
     c_bands:  1 eigenvalues not converged
     c_bands:  1 eigenvalues not converged
     c_bands:  1 eigenvalues not converged
     c_bands:  1 eigenvalues not converged
     c_bands:  1 eigenvalues not converged
     c_bands:  1 eigenvalues not converged
     c_bands:  1 eigenvalues not converged
     c_bands:  1 eigenvalues not converged
     c_bands:  2 eigenvalues not converged
     c_bands:  1 eigenvalues not converged
     c_bands:  1 eigenvalues not converged
     c_bands:  1 eigenvalues not converged
     c_bands:  2 eigenvalues not converged
     c_bands:  1 eigenvalues not converged
     c_bands:  1 eigenvalues not converged
     ethr =  5.40E-06,  avg # of iterations = 16.6

     total cpu time spent up to now is      107.3 secs

     total energy              =   -1665.62279842 Ry
     estimated scf accuracy    <       0.00293857 Ry

     total magnetization       =     2.32 Bohr mag/cell
     absolute magnetization    =     2.36 Bohr mag/cell
[tb_dev] Currently allocated     1.68E-04 Mbytes, locked:    0 /   2
[tb_pin] Currently allocated     0.00E+00 Mbytes, locked:    0 /   0

     iteration # 16     ecut=    60.00 Ry     beta= 0.30
     Davidson diagonalization with overlap

---- Real-time Memory Report at c_bands before calling an iterative solver
          2100 MiB given to the printing process from OS
             0 MiB allocation reported by mallinfo(arena+hblkhd)
        916111 MiB available memory on the node where the printing process lives
     GPU memory used/free/total (MiB): 2124 / 79026 / 81151
------------------
     c_bands:  1 eigenvalues not converged
     c_bands:  1 eigenvalues not converged
     c_bands:  1 eigenvalues not converged
     c_bands:  1 eigenvalues not converged
     c_bands:  1 eigenvalues not converged
     c_bands:  1 eigenvalues not converged
     ethr =  2.30E-06,  avg # of iterations =  9.4

     total cpu time spent up to now is      116.0 secs

     total energy              =   -1665.62266319 Ry
     estimated scf accuracy    <       0.00282016 Ry

     total magnetization       =     2.27 Bohr mag/cell
     absolute magnetization    =     2.31 Bohr mag/cell
[tb_dev] Currently allocated     1.68E-04 Mbytes, locked:    0 /   2
[tb_pin] Currently allocated     0.00E+00 Mbytes, locked:    0 /   0

     iteration # 17     ecut=    60.00 Ry     beta= 0.30
     Davidson diagonalization with overlap

---- Real-time Memory Report at c_bands before calling an iterative solver
          2100 MiB given to the printing process from OS
             0 MiB allocation reported by mallinfo(arena+hblkhd)
        916119 MiB available memory on the node where the printing process lives
     GPU memory used/free/total (MiB): 2124 / 79026 / 81151
------------------
     c_bands:  1 eigenvalues not converged
     c_bands:  1 eigenvalues not converged
     c_bands:  1 eigenvalues not converged
     c_bands:  1 eigenvalues not converged
     c_bands:  1 eigenvalues not converged
     c_bands:  1 eigenvalues not converged
     c_bands:  1 eigenvalues not converged
     c_bands:  1 eigenvalues not converged
     c_bands:  1 eigenvalues not converged
     c_bands:  1 eigenvalues not converged
     ethr =  2.20E-06,  avg # of iterations = 11.9

     total cpu time spent up to now is      125.8 secs

     total energy              =   -1665.62258080 Ry
     estimated scf accuracy    <       0.00124077 Ry

     total magnetization       =     2.33 Bohr mag/cell
     absolute magnetization    =     2.37 Bohr mag/cell
[tb_dev] Currently allocated     1.68E-04 Mbytes, locked:    0 /   2
[tb_pin] Currently allocated     0.00E+00 Mbytes, locked:    0 /   0

     iteration # 18     ecut=    60.00 Ry     beta= 0.30
     Davidson diagonalization with overlap

---- Real-time Memory Report at c_bands before calling an iterative solver
          2100 MiB given to the printing process from OS
             0 MiB allocation reported by mallinfo(arena+hblkhd)
        916163 MiB available memory on the node where the printing process lives
     GPU memory used/free/total (MiB): 2124 / 79026 / 81151
------------------
     c_bands:  1 eigenvalues not converged
     c_bands:  1 eigenvalues not converged
     ethr =  9.69E-07,  avg # of iterations =  5.7

     total cpu time spent up to now is      132.9 secs

     total energy              =   -1665.62260695 Ry
     estimated scf accuracy    <       0.00058264 Ry

     total magnetization       =     2.30 Bohr mag/cell
     absolute magnetization    =     2.35 Bohr mag/cell
[tb_dev] Currently allocated     1.68E-04 Mbytes, locked:    0 /   2
[tb_pin] Currently allocated     0.00E+00 Mbytes, locked:    0 /   0

     iteration # 19     ecut=    60.00 Ry     beta= 0.30
     Davidson diagonalization with overlap

---- Real-time Memory Report at c_bands before calling an iterative solver
          2100 MiB given to the printing process from OS
             0 MiB allocation reported by mallinfo(arena+hblkhd)
        916114 MiB available memory on the node where the printing process lives
     GPU memory used/free/total (MiB): 2124 / 79026 / 81151
------------------
     c_bands:  1 eigenvalues not converged
     ethr =  4.55E-07,  avg # of iterations =  4.5

     total cpu time spent up to now is      139.4 secs

     total energy              =   -1665.62254130 Ry
     estimated scf accuracy    <       0.00043434 Ry

     total magnetization       =     2.30 Bohr mag/cell
     absolute magnetization    =     2.34 Bohr mag/cell
[tb_dev] Currently allocated     1.68E-04 Mbytes, locked:    0 /   2
[tb_pin] Currently allocated     0.00E+00 Mbytes, locked:    0 /   0

     iteration # 20     ecut=    60.00 Ry     beta= 0.30
     Davidson diagonalization with overlap

---- Real-time Memory Report at c_bands before calling an iterative solver
          2100 MiB given to the printing process from OS
             0 MiB allocation reported by mallinfo(arena+hblkhd)
        916169 MiB available memory on the node where the printing process lives
     GPU memory used/free/total (MiB): 2124 / 79026 / 81151
------------------
     ethr =  3.39E-07,  avg # of iterations =  2.8

     total cpu time spent up to now is      145.2 secs

     total energy              =   -1665.62255979 Ry
     estimated scf accuracy    <       0.00019106 Ry

     total magnetization       =     2.31 Bohr mag/cell
     absolute magnetization    =     2.36 Bohr mag/cell
[tb_dev] Currently allocated     1.68E-04 Mbytes, locked:    0 /   2
[tb_pin] Currently allocated     0.00E+00 Mbytes, locked:    0 /   0

     iteration # 21     ecut=    60.00 Ry     beta= 0.30
     Davidson diagonalization with overlap

---- Real-time Memory Report at c_bands before calling an iterative solver
          2100 MiB given to the printing process from OS
             0 MiB allocation reported by mallinfo(arena+hblkhd)
        916199 MiB available memory on the node where the printing process lives
     GPU memory used/free/total (MiB): 2124 / 79026 / 81151
------------------
     c_bands:  1 eigenvalues not converged
     ethr =  1.49E-07,  avg # of iterations =  4.3

     total cpu time spent up to now is      151.6 secs

     total energy              =   -1665.62257596 Ry
     estimated scf accuracy    <       0.00011272 Ry

     total magnetization       =     2.30 Bohr mag/cell
     absolute magnetization    =     2.34 Bohr mag/cell
[tb_dev] Currently allocated     1.68E-04 Mbytes, locked:    0 /   2
[tb_pin] Currently allocated     0.00E+00 Mbytes, locked:    0 /   0

     iteration # 22     ecut=    60.00 Ry     beta= 0.30
     Davidson diagonalization with overlap

---- Real-time Memory Report at c_bands before calling an iterative solver
          2100 MiB given to the printing process from OS
             0 MiB allocation reported by mallinfo(arena+hblkhd)
        916204 MiB available memory on the node where the printing process lives
     GPU memory used/free/total (MiB): 2124 / 79026 / 81151
------------------
     ethr =  8.81E-08,  avg # of iterations =  2.5

     total cpu time spent up to now is      157.1 secs

     total energy              =   -1665.62258425 Ry
     estimated scf accuracy    <       0.00003376 Ry

     total magnetization       =     2.30 Bohr mag/cell
     absolute magnetization    =     2.34 Bohr mag/cell
[tb_dev] Currently allocated     1.68E-04 Mbytes, locked:    0 /   2
[tb_pin] Currently allocated     0.00E+00 Mbytes, locked:    0 /   0

     iteration # 23     ecut=    60.00 Ry     beta= 0.30
     Davidson diagonalization with overlap

---- Real-time Memory Report at c_bands before calling an iterative solver
          2100 MiB given to the printing process from OS
             0 MiB allocation reported by mallinfo(arena+hblkhd)
        916215 MiB available memory on the node where the printing process lives
     GPU memory used/free/total (MiB): 2124 / 79026 / 81151
------------------
     c_bands:  1 eigenvalues not converged
     c_bands:  1 eigenvalues not converged
     c_bands:  1 eigenvalues not converged
     ethr =  2.64E-08,  avg # of iterations =  8.0

     total cpu time spent up to now is      165.3 secs

     total energy              =   -1665.62259395 Ry
     estimated scf accuracy    <       0.00002320 Ry

     total magnetization       =     2.30 Bohr mag/cell
     absolute magnetization    =     2.34 Bohr mag/cell
[tb_dev] Currently allocated     1.68E-04 Mbytes, locked:    0 /   2
[tb_pin] Currently allocated     0.00E+00 Mbytes, locked:    0 /   0

     iteration # 24     ecut=    60.00 Ry     beta= 0.30
     Davidson diagonalization with overlap

---- Real-time Memory Report at c_bands before calling an iterative solver
          2100 MiB given to the printing process from OS
             0 MiB allocation reported by mallinfo(arena+hblkhd)
        916282 MiB available memory on the node where the printing process lives
     GPU memory used/free/total (MiB): 2124 / 79026 / 81151
------------------
     ethr =  1.81E-08,  avg # of iterations =  2.0

     total cpu time spent up to now is      170.6 secs

     total energy              =   -1665.62259394 Ry
     estimated scf accuracy    <       0.00001372 Ry

     total magnetization       =     2.30 Bohr mag/cell
     absolute magnetization    =     2.34 Bohr mag/cell
[tb_dev] Currently allocated     1.68E-04 Mbytes, locked:    0 /   2
[tb_pin] Currently allocated     0.00E+00 Mbytes, locked:    0 /   0

     iteration # 25     ecut=    60.00 Ry     beta= 0.30
     Davidson diagonalization with overlap

---- Real-time Memory Report at c_bands before calling an iterative solver
          2100 MiB given to the printing process from OS
             0 MiB allocation reported by mallinfo(arena+hblkhd)
        916296 MiB available memory on the node where the printing process lives
     GPU memory used/free/total (MiB): 2124 / 79026 / 81151
------------------
     ethr =  1.07E-08,  avg # of iterations =  3.0

     total cpu time spent up to now is      176.4 secs

     total energy              =   -1665.62259480 Ry
     estimated scf accuracy    <       0.00000345 Ry

     total magnetization       =     2.30 Bohr mag/cell
     absolute magnetization    =     2.34 Bohr mag/cell
[tb_dev] Currently allocated     1.68E-04 Mbytes, locked:    0 /   2
[tb_pin] Currently allocated     0.00E+00 Mbytes, locked:    0 /   0

     iteration # 26     ecut=    60.00 Ry     beta= 0.30
     Davidson diagonalization with overlap

---- Real-time Memory Report at c_bands before calling an iterative solver
          2100 MiB given to the printing process from OS
             0 MiB allocation reported by mallinfo(arena+hblkhd)
        916270 MiB available memory on the node where the printing process lives
     GPU memory used/free/total (MiB): 2124 / 79026 / 81151
------------------
     ethr =  2.70E-09,  avg # of iterations =  5.0

     total cpu time spent up to now is      183.2 secs

     total energy              =   -1665.62259525 Ry
     estimated scf accuracy    <       0.00000168 Ry

     total magnetization       =     2.30 Bohr mag/cell
     absolute magnetization    =     2.34 Bohr mag/cell
[tb_dev] Currently allocated     1.68E-04 Mbytes, locked:    0 /   2
[tb_pin] Currently allocated     0.00E+00 Mbytes, locked:    0 /   0

     iteration # 27     ecut=    60.00 Ry     beta= 0.30
     Davidson diagonalization with overlap

---- Real-time Memory Report at c_bands before calling an iterative solver
          2100 MiB given to the printing process from OS
             0 MiB allocation reported by mallinfo(arena+hblkhd)
        916258 MiB available memory on the node where the printing process lives
     GPU memory used/free/total (MiB): 2124 / 79026 / 81151
------------------
     ethr =  1.32E-09,  avg # of iterations =  2.5

     total cpu time spent up to now is      188.8 secs

     total energy              =   -1665.62259502 Ry
     estimated scf accuracy    <       0.00000099 Ry

     total magnetization       =     2.30 Bohr mag/cell
     absolute magnetization    =     2.34 Bohr mag/cell
[tb_dev] Currently allocated     1.68E-04 Mbytes, locked:    0 /   2
[tb_pin] Currently allocated     0.00E+00 Mbytes, locked:    0 /   0

     iteration # 28     ecut=    60.00 Ry     beta= 0.30
     Davidson diagonalization with overlap

---- Real-time Memory Report at c_bands before calling an iterative solver
          2100 MiB given to the printing process from OS
             0 MiB allocation reported by mallinfo(arena+hblkhd)
        916218 MiB available memory on the node where the printing process lives
     GPU memory used/free/total (MiB): 2124 / 79026 / 81151
------------------
     ethr =  7.71E-10,  avg # of iterations =  2.6

     total cpu time spent up to now is      194.5 secs

     total energy              =   -1665.62259508 Ry
     estimated scf accuracy    <       0.00000032 Ry

     total magnetization       =     2.30 Bohr mag/cell
     absolute magnetization    =     2.35 Bohr mag/cell
[tb_dev] Currently allocated     1.68E-04 Mbytes, locked:    0 /   2
[tb_pin] Currently allocated     0.00E+00 Mbytes, locked:    0 /   0

     iteration # 29     ecut=    60.00 Ry     beta= 0.30
     Davidson diagonalization with overlap

---- Real-time Memory Report at c_bands before calling an iterative solver
          2101 MiB given to the printing process from OS
             0 MiB allocation reported by mallinfo(arena+hblkhd)
        916230 MiB available memory on the node where the printing process lives
     GPU memory used/free/total (MiB): 2124 / 79026 / 81151
------------------
     ethr =  2.53E-10,  avg # of iterations =  6.7

     total cpu time spent up to now is      202.2 secs

     total energy              =   -1665.62259516 Ry
     estimated scf accuracy    <       0.00000010 Ry

     total magnetization       =     2.30 Bohr mag/cell
     absolute magnetization    =     2.35 Bohr mag/cell
[tb_dev] Currently allocated     1.68E-04 Mbytes, locked:    0 /   2
[tb_pin] Currently allocated     0.00E+00 Mbytes, locked:    0 /   0

     iteration # 30     ecut=    60.00 Ry     beta= 0.30
     Davidson diagonalization with overlap

---- Real-time Memory Report at c_bands before calling an iterative solver
          2101 MiB given to the printing process from OS
             0 MiB allocation reported by mallinfo(arena+hblkhd)
        916175 MiB available memory on the node where the printing process lives
     GPU memory used/free/total (MiB): 2124 / 79026 / 81151
------------------
     ethr =  7.99E-11,  avg # of iterations =  6.5
 
     Magnetic moment per site  (integrated on atomic sphere of radius R)
     atom   1 (R=0.159)  charge= 14.0985  magn=  0.5946
     atom   2 (R=0.159)  charge= 14.0998  magn=  0.5893
     atom   3 (R=0.159)  charge= 14.0990  magn=  0.5880
     atom   4 (R=0.079)  charge=  1.8574  magn=  0.0292
     atom   5 (R=0.079)  charge=  1.8573  magn=  0.0279
     atom   6 (R=0.079)  charge=  1.8580  magn=  0.0277
     atom   7 (R=0.079)  charge=  1.8600  magn=  0.0223
     atom   8 (R=0.079)  charge=  1.8602  magn=  0.0238
     atom   9 (R=0.079)  charge=  1.8599  magn=  0.0234
     atom  10 (R=0.181)  charge=  7.8387  magn=  0.0002
     atom  11 (R=0.079)  charge=  1.9130  magn=  0.0007
     atom  12 (R=0.079)  charge=  0.3964  magn=  0.0000
     atom  13 (R=0.079)  charge=  0.3921  magn=  0.0000
     atom  14 (R=0.079)  charge=  1.9114  magn=  0.0007
     atom  15 (R=0.079)  charge=  0.4010  magn=  0.0000
     atom  16 (R=0.079)  charge=  0.3920  magn=  0.0000
     atom  17 (R=0.079)  charge=  1.9101  magn=  0.0005
     atom  18 (R=0.079)  charge=  0.4028  magn=  0.0000
     atom  19 (R=0.079)  charge=  0.3933  magn=  0.0000
     atom  20 (R=0.079)  charge=  1.9125  magn=  0.0005
     atom  21 (R=0.079)  charge=  0.4003  magn=  0.0000
     atom  22 (R=0.079)  charge=  0.3945  magn=  0.0000

     total cpu time spent up to now is      210.0 secs

     End of self-consistent calculation

 ------ SPIN UP ------------


          k = 0.0000 0.0000 0.0000 ( 11393 PWs)   bands (ev):

   -91.7440 -91.7367 -91.7336 -54.9889 -54.9852 -54.9815 -54.9811 -54.9704
   -54.9619 -54.9579 -54.9439 -54.9436 -48.6521 -20.6098 -20.5611 -20.5043
   -18.1503 -17.5423 -16.3993 -15.8552 -15.2501 -13.6251 -13.6190 -13.5272
   -13.5200 -13.3519  -5.8430  -5.6403  -4.0475  -3.7882  -2.1288  -1.7609
    -1.4022  -1.3678  -1.3317  -1.3261  -1.2666  -1.0513  -1.0469  -0.9235
    -0.9200  -0.5265  -0.4782   0.0633   0.3840   0.6355   0.6754   0.7401
     0.7543   1.0504   1.0574   1.7337   2.0999   2.3538   2.4369   2.4425
     2.4685   2.4705   2.6296   2.6379   3.5038   3.5074   3.5364   3.5444
     3.6917   5.6000   5.6073   5.6187   5.6346   6.3509   6.3611   6.3665
     9.1419  10.3084  11.3047  11.7409  12.5394  12.7166  13.1376  13.3020
    13.9722  14.2522  14.5861  14.8213  15.0415

     occupation numbers 
     1.0000   1.0000   1.0000   1.0000   1.0000   1.0000   1.0000   1.0000
     1.0000   1.0000   1.0000   1.0000   1.0000   1.0000   1.0000   1.0000
     1.0000   1.0000   1.0000   1.0000   1.0000   1.0000   1.0000   1.0000
     1.0000   1.0000   1.0000   1.0000   1.0000   1.0000   1.0000   1.0000
     1.0000   1.0000   1.0000   1.0000   1.0000   1.0000   1.0000   1.0000
     1.0000   1.0000   1.0000   1.0000   1.0000   1.0000   1.0000   1.0000
     1.0000   1.0000   1.0000   1.0000   1.0000   1.0000   1.0000   1.0000
     1.0000   1.0000   1.0000   1.0000   1.0175   1.0182   1.0245   1.0265
     1.0731   0.0000   0.0000   0.0000   0.0000   0.0000   0.0000   0.0000
     0.0000   0.0000   0.0000   0.0000   0.0000   0.0000   0.0000   0.0000
     0.0000   0.0000   0.0000   0.0000   0.0000

          k = 0.0000 0.0000-0.2526 ( 11446 PWs)   bands (ev):

   -91.7440 -91.7367 -91.7336 -54.9889 -54.9853 -54.9815 -54.9811 -54.9705
   -54.9620 -54.9580 -54.9440 -54.9436 -48.6521 -20.6099 -20.5612 -20.5045
   -18.1502 -17.5423 -16.4000 -15.8552 -15.2487 -13.6251 -13.6191 -13.5272
   -13.5200 -13.3530  -5.8422  -5.6345  -4.0567  -3.7881  -2.1427  -1.7664
    -1.4186  -1.3689  -1.3269  -1.3228  -1.2650  -1.0512  -1.0470  -0.9312
    -0.9199  -0.4831  -0.4611   0.0818   0.4026   0.6316   0.6642   0.7397
     0.7588   1.0348   1.0545   1.7571   2.0032   2.3560   2.4369   2.4413
     2.4685   2.4705   2.6295   2.6379   3.5043   3.5083   3.5361   3.5438
     3.7106   5.6004   5.6065   5.6190   5.6331   6.3603   6.3653   6.4749
     8.7895  10.6307  11.3082  12.0289  12.2653  12.6113  13.1006  13.2914
    13.9218  14.2982  14.6721  14.8522  14.9302

     occupation numbers 
     1.0000   1.0000   1.0000   1.0000   1.0000   1.0000   1.0000   1.0000
     1.0000   1.0000   1.0000   1.0000   1.0000   1.0000   1.0000   1.0000
     1.0000   1.0000   1.0000   1.0000   1.0000   1.0000   1.0000   1.0000
     1.0000   1.0000   1.0000   1.0000   1.0000   1.0000   1.0000   1.0000
     1.0000   1.0000   1.0000   1.0000   1.0000   1.0000   1.0000   1.0000
     1.0000   1.0000   1.0000   1.0000   1.0000   1.0000   1.0000   1.0000
     1.0000   1.0000   1.0000   1.0000   1.0000   1.0000   1.0000   1.0000
     1.0000   1.0000   1.0000   1.0000   1.0175   1.0183   1.0244   1.0263
     1.0779   0.0000   0.0000   0.0000   0.0000   0.0000   0.0000   0.0000
     0.0000   0.0000   0.0000   0.0000   0.0000   0.0000   0.0000   0.0000
     0.0000   0.0000   0.0000   0.0000   0.0000

          k = 0.0000 0.1925 0.0000 ( 11360 PWs)   bands (ev):

   -91.7438 -91.7368 -91.7338 -54.9942 -54.9894 -54.9766 -54.9720 -54.9686
   -54.9618 -54.9582 -54.9486 -54.9447 -48.6521 -20.6112 -20.5618 -20.5043
   -18.1095 -17.5845 -16.3670 -15.8907 -15.1474 -13.7346 -13.6608 -13.5380
   -13.4919 -13.3540  -5.9416  -5.5182  -4.0784  -3.7574  -2.1273  -1.8162
    -1.6984  -1.5040  -1.3442  -1.2880  -1.2095  -1.1551  -0.9838  -0.6093
    -0.5418  -0.4403  -0.3356  -0.0423   0.3901   0.4057   0.5191   0.5859
     0.6557   1.3569   1.4399   1.7440   1.7969   1.8990   2.2639   2.3658
     2.5207   2.5875   2.8646   3.0639   3.2697   3.2818   3.6131   3.6806
     3.7479   5.6007   5.6414   5.6593   5.7149   6.0753   6.2835   6.7103
     9.3915  10.3876  11.1626  11.6361  12.1570  12.4066  12.9960  13.4872
    13.7951  14.0991  14.6570  14.8891  15.1015

     occupation numbers 
     1.0000   1.0000   1.0000   1.0000   1.0000   1.0000   1.0000   1.0000
     1.0000   1.0000   1.0000   1.0000   1.0000   1.0000   1.0000   1.0000
     1.0000   1.0000   1.0000   1.0000   1.0000   1.0000   1.0000   1.0000
     1.0000   1.0000   1.0000   1.0000   1.0000   1.0000   1.0000   1.0000
     1.0000   1.0000   1.0000   1.0000   1.0000   1.0000   1.0000   1.0000
     1.0000   1.0000   1.0000   1.0000   1.0000   1.0000   1.0000   1.0000
     1.0000   1.0000   1.0000   1.0000   1.0000   1.0000   1.0000   1.0000
     1.0000   1.0000   1.0000   1.0000   1.0006   1.0007   1.0471   1.0698
     1.0832   0.0000   0.0000   0.0000   0.0000   0.0000   0.0000   0.0000
     0.0000   0.0000   0.0000   0.0000   0.0000   0.0000   0.0000   0.0000
     0.0000   0.0000   0.0000   0.0000   0.0000

          k = 0.0000 0.1925-0.2526 ( 11384 PWs)   bands (ev):

   -91.7438 -91.7368 -91.7338 -54.9942 -54.9894 -54.9766 -54.9720 -54.9686
   -54.9618 -54.9582 -54.9487 -54.9447 -48.6521 -20.6112 -20.5618 -20.5044
   -18.1095 -17.5845 -16.3676 -15.8907 -15.1463 -13.7346 -13.6608 -13.5380
   -13.4919 -13.3549  -5.9403  -5.5141  -4.0847  -3.7582  -2.1383  -1.8240
    -1.6932  -1.5012  -1.3533  -1.2972  -1.2088  -1.1505  -0.9837  -0.6137
    -0.5027  -0.4183  -0.3598  -0.0149   0.3883   0.4042   0.5156   0.5910
     0.6568   1.3498   1.4366   1.7486   1.8013   1.8913   2.1857   2.3905
     2.5207   2.5876   2.8647   3.0625   3.2695   3.2820   3.6139   3.6811
     3.7636   5.6001   5.6411   5.6601   5.7133   6.0568   6.2877   6.8228
     9.0728  10.7171  10.9882  11.9842  12.1445  12.3936  12.7413  13.4754
    13.8457  13.9837  14.7153  14.9293  15.0410

     occupation numbers 
     1.0000   1.0000   1.0000   1.0000   1.0000   1.0000   1.0000   1.0000
     1.0000   1.0000   1.0000   1.0000   1.0000   1.0000   1.0000   1.0000
     1.0000   1.0000   1.0000   1.0000   1.0000   1.0000   1.0000   1.0000
     1.0000   1.0000   1.0000   1.0000   1.0000   1.0000   1.0000   1.0000
     1.0000   1.0000   1.0000   1.0000   1.0000   1.0000   1.0000   1.0000
     1.0000   1.0000   1.0000   1.0000   1.0000   1.0000   1.0000   1.0000
     1.0000   1.0000   1.0000   1.0000   1.0000   1.0000   1.0000   1.0000
     1.0000   1.0000   1.0000   1.0000   1.0006   1.0007   1.0474   1.0700
     1.0831   0.0000   0.0000   0.0000   0.0000   0.0000   0.0000   0.0000
     0.0000   0.0000   0.0000   0.0000   0.0000   0.0000   0.0000   0.0000
     0.0000   0.0000   0.0000   0.0000   0.0000

          k = 0.0000 0.3849 0.0000 ( 11350 PWs)   bands (ev):

   -91.7433 -91.7368 -91.7342 -54.9996 -54.9872 -54.9728 -54.9651 -54.9629
   -54.9611 -54.9595 -54.9581 -54.9479 -48.6521 -20.6142 -20.5630 -20.5045
   -18.0011 -17.6957 -16.2812 -15.9831 -14.8615 -14.0442 -13.7055 -13.5835
   -13.4350 -13.3641  -6.0528  -5.3603  -4.1293  -3.7083  -2.2136  -2.0676
    -1.7948  -1.3838  -1.3370  -1.3042  -1.0533  -0.9650  -0.8264  -0.6516
    -0.3956  -0.3137  -0.2092  -0.0171   0.2439   0.3050   0.3903   0.6697
     0.7904   0.8302   1.2725   1.6265   1.7455   2.0183   2.2517   2.6129
     2.6227   2.9383   3.0077   3.0155   3.0518   3.4253   3.4664   3.7298
     3.7354   5.5773   5.5938   5.6457   5.6569   6.0385   6.0625   7.5377
     9.7016  10.2537  11.1032  11.2840  11.8116  12.1479  12.7402  13.1164
    13.5264  14.2307  14.7156  14.7855  15.0542

     occupation numbers 
     1.0000   1.0000   1.0000   1.0000   1.0000   1.0000   1.0000   1.0000
     1.0000   1.0000   1.0000   1.0000   1.0000   1.0000   1.0000   1.0000
     1.0000   1.0000   1.0000   1.0000   1.0000   1.0000   1.0000   1.0000
     1.0000   1.0000   1.0000   1.0000   1.0000   1.0000   1.0000   1.0000
     1.0000   1.0000   1.0000   1.0000   1.0000   1.0000   1.0000   1.0000
     1.0000   1.0000   1.0000   1.0000   1.0000   1.0000   1.0000   1.0000
     1.0000   1.0000   1.0000   1.0000   1.0000   1.0000   1.0000   1.0000
     1.0000   1.0000   1.0000   1.0000   1.0000   1.0067   1.0114   1.0815
     1.0822   0.0000   0.0000   0.0000   0.0000   0.0000   0.0000   0.0000
     0.0000   0.0000   0.0000   0.0000   0.0000   0.0000   0.0000   0.0000
     0.0000   0.0000   0.0000   0.0000   0.0000

          k = 0.0000 0.3849-0.2526 ( 11352 PWs)   bands (ev):

   -91.7433 -91.7368 -91.7342 -54.9995 -54.9871 -54.9728 -54.9651 -54.9629
   -54.9611 -54.9595 -54.9581 -54.9479 -48.6521 -20.6142 -20.5630 -20.5045
   -18.0010 -17.6957 -16.2815 -15.9831 -14.8608 -14.0441 -13.7055 -13.5835
   -13.4350 -13.3647  -6.0521  -5.3584  -4.1312  -3.7101  -2.2276  -2.0638
    -1.7821  -1.3878  -1.3373  -1.3066  -1.0613  -0.9655  -0.8252  -0.6350
    -0.3928  -0.3328  -0.2022  -0.0012   0.2432   0.3045   0.3873   0.6694
     0.7907   0.8460   1.2727   1.6270   1.7303   2.0172   2.2295   2.6127
     2.6304   2.9383   3.0072   3.0157   3.0516   3.4229   3.4676   3.7320
     3.7396   5.5661   5.5934   5.6450   5.6553   6.0382   6.0688   7.5925
     9.5952  10.2128  11.0848  11.3631  11.7825  12.4426  12.7842  12.9783
    13.5036  14.1052  14.4950  14.8552  15.1492

     occupation numbers 
     1.0000   1.0000   1.0000   1.0000   1.0000   1.0000   1.0000   1.0000
     1.0000   1.0000   1.0000   1.0000   1.0000   1.0000   1.0000   1.0000
     1.0000   1.0000   1.0000   1.0000   1.0000   1.0000   1.0000   1.0000
     1.0000   1.0000   1.0000   1.0000   1.0000   1.0000   1.0000   1.0000
     1.0000   1.0000   1.0000   1.0000   1.0000   1.0000   1.0000   1.0000
     1.0000   1.0000   1.0000   1.0000   1.0000   1.0000   1.0000   1.0000
     1.0000   1.0000   1.0000   1.0000   1.0000   1.0000   1.0000   1.0000
     1.0000   1.0000   1.0000   1.0000   1.0000   1.0065   1.0115   1.0818
     1.0826   0.0000   0.0000   0.0000   0.0000   0.0000   0.0000   0.0000
     0.0000   0.0000   0.0000   0.0000   0.0000   0.0000   0.0000   0.0000
     0.0000   0.0000   0.0000   0.0000   0.0000

          k = 0.0000-0.5774 0.0000 ( 11352 PWs)   bands (ev):

   -91.7430 -91.7368 -91.7345 -55.0016 -54.9785 -54.9750 -54.9717 -54.9621
   -54.9606 -54.9574 -54.9562 -54.9511 -48.6521 -20.6157 -20.5635 -20.5046
   -17.8834 -17.8147 -16.2046 -16.0630 -14.4625 -14.4553 -13.7235 -13.6066
   -13.3927 -13.3871  -6.0955  -5.2943  -4.1522  -3.6876  -2.3395  -2.0814
    -1.8249  -1.4146  -1.3853  -0.9379  -0.9097  -0.7660  -0.7576  -0.5834
    -0.5028  -0.4105  -0.2779  -0.1944   0.1570   0.1805   0.3549   0.7061
     0.7125   0.7619   1.1625   1.6575   1.8016   2.2419   2.5160   2.5360
     2.6177   2.8883   2.9639   2.9673   3.3215   3.4634   3.4786   3.6389
     3.6552   5.4284   5.4503   5.6521   5.7867   5.8222   6.2392   8.1695
     9.3367  10.5216  10.8047  11.3517  11.5198  12.3449  12.4340  12.9620
    13.4672  14.0989  14.5956  14.6869  15.1768

     occupation numbers 
     1.0000   1.0000   1.0000   1.0000   1.0000   1.0000   1.0000   1.0000
     1.0000   1.0000   1.0000   1.0000   1.0000   1.0000   1.0000   1.0000
     1.0000   1.0000   1.0000   1.0000   1.0000   1.0000   1.0000   1.0000
     1.0000   1.0000   1.0000   1.0000   1.0000   1.0000   1.0000   1.0000
     1.0000   1.0000   1.0000   1.0000   1.0000   1.0000   1.0000   1.0000
     1.0000   1.0000   1.0000   1.0000   1.0000   1.0000   1.0000   1.0000
     1.0000   1.0000   1.0000   1.0000   1.0000   1.0000   1.0000   1.0000
     1.0000   1.0000   1.0000   1.0000   1.0014   1.0110   1.0131   1.0560
     1.0616   0.0000   0.0000   0.0000   0.0000   0.0000   0.0000   0.0000
     0.0000   0.0000   0.0000   0.0000   0.0000   0.0000   0.0000   0.0000
     0.0000   0.0000   0.0000   0.0000   0.0000

          k = 0.0000-0.5774-0.2526 ( 11344 PWs)   bands (ev):

   -91.7430 -91.7368 -91.7345 -55.0015 -54.9785 -54.9750 -54.9717 -54.9622
   -54.9606 -54.9574 -54.9562 -54.9511 -48.6520 -20.6157 -20.5635 -20.5046
   -17.8834 -17.8147 -16.2047 -16.0631 -14.4622 -14.4549 -13.7235 -13.6066
   -13.3929 -13.3874  -6.0950  -5.2937  -4.1519  -3.6898  -2.3492  -2.0810
    -1.8073  -1.4235  -1.3833  -0.9368  -0.9111  -0.7933  -0.6821  -0.6086
    -0.5022  -0.4094  -0.3859  -0.1242   0.1723   0.1851   0.3540   0.7033
     0.7128   0.7768   1.1628   1.6526   1.7865   2.2306   2.5213   2.5417
     2.6190   2.8883   2.9640   2.9672   3.3228   3.4631   3.4776   3.6383
     3.6548   5.4240   5.4479   5.6496   5.7898   5.8254   6.2392   8.1775
     9.3548  10.4683  10.8430  11.2983  11.4643  12.4187  12.5004  13.1072
    13.4558  14.0244  14.4578  14.7118  15.1490

     occupation numbers 
     1.0000   1.0000   1.0000   1.0000   1.0000   1.0000   1.0000   1.0000
     1.0000   1.0000   1.0000   1.0000   1.0000   1.0000   1.0000   1.0000
     1.0000   1.0000   1.0000   1.0000   1.0000   1.0000   1.0000   1.0000
     1.0000   1.0000   1.0000   1.0000   1.0000   1.0000   1.0000   1.0000
     1.0000   1.0000   1.0000   1.0000   1.0000   1.0000   1.0000   1.0000
     1.0000   1.0000   1.0000   1.0000   1.0000   1.0000   1.0000   1.0000
     1.0000   1.0000   1.0000   1.0000   1.0000   1.0000   1.0000   1.0000
     1.0000   1.0000   1.0000   1.0000   1.0015   1.0109   1.0130   1.0558
     1.0615   0.0000   0.0000   0.0000   0.0000   0.0000   0.0000   0.0000
     0.0000   0.0000   0.0000   0.0000   0.0000   0.0000   0.0000   0.0000
     0.0000   0.0000   0.0000   0.0000   0.0000

          k = 0.1667 0.2887 0.0000 ( 11373 PWs)   bands (ev):

   -91.7434 -91.7368 -91.7341 -54.9958 -54.9918 -54.9732 -54.9662 -54.9642
   -54.9611 -54.9595 -54.9558 -54.9467 -48.6521 -20.6114 -20.5644 -20.5046
   -18.0245 -17.6733 -16.2932 -15.9709 -14.9529 -13.8476 -13.8415 -13.4910
   -13.4843 -13.3602  -6.0502  -5.3625  -4.0810  -3.7575  -2.0468  -1.9484
    -1.8067  -1.7725  -1.3111  -1.1724  -1.1474  -1.1016  -0.8554  -0.5727
    -0.4016  -0.2459  -0.2002  -0.0460   0.3178   0.3651   0.5067   0.5234
     0.5707   0.9596   1.6056   1.6924   1.7066   1.9205   2.1103   2.4995
     2.7461   2.7484   2.9765   3.0879   3.0920   3.2988   3.6256   3.6293
     3.7612   5.5846   5.5979   5.6325   5.8270   5.8441   6.2127   7.3162
     9.6403  10.3687  10.7094  11.4942  12.0297  12.2447  12.8061  13.3213
    13.7414  14.1331  14.3106  14.9395  15.1641

     occupation numbers 
     1.0000   1.0000   1.0000   1.0000   1.0000   1.0000   1.0000   1.0000
     1.0000   1.0000   1.0000   1.0000   1.0000   1.0000   1.0000   1.0000
     1.0000   1.0000   1.0000   1.0000   1.0000   1.0000   1.0000   1.0000
     1.0000   1.0000   1.0000   1.0000   1.0000   1.0000   1.0000   1.0000
     1.0000   1.0000   1.0000   1.0000   1.0000   1.0000   1.0000   1.0000
     1.0000   1.0000   1.0000   1.0000   1.0000   1.0000   1.0000   1.0000
     1.0000   1.0000   1.0000   1.0000   1.0000   1.0000   1.0000   1.0000
     1.0000   1.0000   1.0000   1.0000   1.0000   1.0010   1.0514   1.0527
     1.0832   0.0000   0.0000   0.0000   0.0000   0.0000   0.0000   0.0000
     0.0000   0.0000   0.0000   0.0000   0.0000   0.0000   0.0000   0.0000
     0.0000   0.0000   0.0000   0.0000   0.0000

          k = 0.1667 0.2887-0.2526 ( 11348 PWs)   bands (ev):

   -91.7434 -91.7368 -91.7341 -54.9958 -54.9917 -54.9732 -54.9661 -54.9642
   -54.9611 -54.9594 -54.9558 -54.9466 -48.6521 -20.6113 -20.5643 -20.5046
   -18.0245 -17.6733 -16.2935 -15.9709 -14.9521 -13.8475 -13.8415 -13.4910
   -13.4843 -13.3608  -6.0495  -5.3602  -4.0839  -3.7572  -2.0698  -1.9574
    -1.8034  -1.7471  -1.3146  -1.1662  -1.1545  -1.1093  -0.8553  -0.5609
    -0.3911  -0.2542  -0.2000  -0.0254   0.3163   0.3653   0.5031   0.5176
     0.5771   0.9671   1.6058   1.6864   1.7083   1.9111   2.0866   2.5042
     2.7460   2.7484   2.9727   3.0878   3.0919   3.2989   3.6270   3.6307
     3.7688   5.5844   5.5941   5.6214   5.8273   5.8444   6.2126   7.3967
     9.4477  10.3102  10.8120  11.6790  12.0133  12.2705  12.9664  13.2595
    13.6843  13.8120  14.3343  14.9290  15.1978

     occupation numbers 
     1.0000   1.0000   1.0000   1.0000   1.0000   1.0000   1.0000   1.0000
     1.0000   1.0000   1.0000   1.0000   1.0000   1.0000   1.0000   1.0000
     1.0000   1.0000   1.0000   1.0000   1.0000   1.0000   1.0000   1.0000
     1.0000   1.0000   1.0000   1.0000   1.0000   1.0000   1.0000   1.0000
     1.0000   1.0000   1.0000   1.0000   1.0000   1.0000   1.0000   1.0000
     1.0000   1.0000   1.0000   1.0000   1.0000   1.0000   1.0000   1.0000
     1.0000   1.0000   1.0000   1.0000   1.0000   1.0000   1.0000   1.0000
     1.0000   1.0000   1.0000   1.0000   1.0000   1.0010   1.0519   1.0532
     1.0826   0.0000   0.0000   0.0000   0.0000   0.0000   0.0000   0.0000
     0.0000   0.0000   0.0000   0.0000   0.0000   0.0000   0.0000   0.0000
     0.0000   0.0000   0.0000   0.0000   0.0000

          k = 0.1667 0.4811 0.0000 ( 11356 PWs)   bands (ev):

   -91.7430 -91.7367 -91.7346 -54.9977 -54.9857 -54.9747 -54.9698 -54.9621
   -54.9607 -54.9574 -54.9564 -54.9497 -48.6521 -20.6146 -20.5646 -20.5046
   -17.8941 -17.8038 -16.2004 -16.0673 -14.6090 -14.2025 -13.9161 -13.4991
   -13.4224 -13.3799  -6.0961  -5.2944  -4.1250  -3.7187  -2.1573  -2.0800
    -1.8142  -1.5631  -1.4503  -1.0361  -0.9240  -0.8772  -0.7081  -0.5869
    -0.4264  -0.3980  -0.2917  -0.1731   0.1413   0.1547   0.3444   0.6977
     0.7463   0.9989   1.1557   1.7039   1.8546   2.2017   2.2333   2.5457
     2.7849   2.9818   2.9952   3.0244   3.1945   3.4084   3.4343   3.6073
     3.6349   5.3068   5.4198   5.5585   5.9426   6.0847   6.1581   8.0910
     9.4291  10.3639  10.5723  11.5331  11.7692  12.1091  12.5882  13.1153
    13.5022  14.0768  14.3565  14.8188  15.3099

     occupation numbers 
     1.0000   1.0000   1.0000   1.0000   1.0000   1.0000   1.0000   1.0000
     1.0000   1.0000   1.0000   1.0000   1.0000   1.0000   1.0000   1.0000
     1.0000   1.0000   1.0000   1.0000   1.0000   1.0000   1.0000   1.0000
     1.0000   1.0000   1.0000   1.0000   1.0000   1.0000   1.0000   1.0000
     1.0000   1.0000   1.0000   1.0000   1.0000   1.0000   1.0000   1.0000
     1.0000   1.0000   1.0000   1.0000   1.0000   1.0000   1.0000   1.0000
     1.0000   1.0000   1.0000   1.0000   1.0000   1.0000   1.0000   1.0000
     1.0000   1.0000   1.0000   1.0000   1.0001   1.0054   1.0076   1.0452
     1.0546   0.0000   0.0000   0.0000   0.0000   0.0000   0.0000   0.0000
     0.0000   0.0000   0.0000   0.0000   0.0000   0.0000   0.0000   0.0000
     0.0000   0.0000   0.0000   0.0000   0.0000

          k = 0.1667 0.4811-0.2526 ( 11352 PWs)   bands (ev):

   -91.7430 -91.7367 -91.7346 -54.9977 -54.9858 -54.9746 -54.9698 -54.9621
   -54.9607 -54.9574 -54.9564 -54.9496 -48.6521 -20.6146 -20.5646 -20.5046
   -17.8941 -17.8038 -16.2005 -16.0674 -14.6085 -14.2023 -13.9161 -13.4991
   -13.4226 -13.3802  -6.0958  -5.2940  -4.1247  -3.7192  -2.1706  -2.0803
    -1.7964  -1.5667  -1.4540  -1.0305  -0.9160  -0.8792  -0.7028  -0.6005
    -0.4338  -0.3886  -0.3381  -0.1415   0.1510   0.1630   0.3451   0.7047
     0.7491   0.9990   1.1562   1.6881   1.8519   2.1924   2.2367   2.5511
     2.7851   2.9816   2.9952   3.0241   3.1937   3.4102   3.4336   3.6082
     3.6368   5.3003   5.4184   5.5565   5.9433   6.0856   6.1581   8.1144
     9.4420  10.3227  10.5057  11.5412  11.8502  12.1087  12.6796  13.1906
    13.4744  13.8931  14.2651  15.0219  15.3013

     occupation numbers 
     1.0000   1.0000   1.0000   1.0000   1.0000   1.0000   1.0000   1.0000
     1.0000   1.0000   1.0000   1.0000   1.0000   1.0000   1.0000   1.0000
     1.0000   1.0000   1.0000   1.0000   1.0000   1.0000   1.0000   1.0000
     1.0000   1.0000   1.0000   1.0000   1.0000   1.0000   1.0000   1.0000
     1.0000   1.0000   1.0000   1.0000   1.0000   1.0000   1.0000   1.0000
     1.0000   1.0000   1.0000   1.0000   1.0000   1.0000   1.0000   1.0000
     1.0000   1.0000   1.0000   1.0000   1.0000   1.0000   1.0000   1.0000
     1.0000   1.0000   1.0000   1.0000   1.0001   1.0055   1.0075   1.0455
     1.0553   0.0000   0.0000   0.0000   0.0000   0.0000   0.0000   0.0000
     0.0000   0.0000   0.0000   0.0000   0.0000   0.0000   0.0000   0.0000
     0.0000   0.0000   0.0000   0.0000   0.0000

          k = 0.3333 0.5774 0.0000 ( 11370 PWs)   bands (ev):

   -91.7429 -91.7366 -91.7348 -54.9901 -54.9878 -54.9834 -54.9698 -54.9617
   -54.9611 -54.9559 -54.9541 -54.9505 -48.6521 -20.6170 -20.5648 -20.5044
   -17.9209 -17.7718 -16.2190 -16.0472 -14.2674 -14.2609 -14.2567 -13.4260
   -13.4197 -13.4169  -6.0648  -5.3531  -4.0779  -3.7852  -2.2610  -1.8354
    -1.7469  -1.6947  -1.4596  -0.9417  -0.8841  -0.8643  -0.7601  -0.5087
    -0.5044  -0.5002  -0.3276  -0.1372   0.0300   0.0645   0.2150   0.6301
     1.0943   1.1029   1.1059   1.5377   2.1877   2.2136   2.2202   2.4135
     2.9748   2.9822   2.9845   3.2319   3.2339   3.2346   3.4633   3.4708
     3.4766   5.3178   5.3355   5.3599   6.1568   6.1651   6.1675   8.2934
     9.3573   9.9485  10.7817  11.4497  11.9344  12.3060  12.5432  12.8524
    13.6246  14.0484  14.6471  14.9592  15.1549

     occupation numbers 
     1.0000   1.0000   1.0000   1.0000   1.0000   1.0000   1.0000   1.0000
     1.0000   1.0000   1.0000   1.0000   1.0000   1.0000   1.0000   1.0000
     1.0000   1.0000   1.0000   1.0000   1.0000   1.0000   1.0000   1.0000
     1.0000   1.0000   1.0000   1.0000   1.0000   1.0000   1.0000   1.0000
     1.0000   1.0000   1.0000   1.0000   1.0000   1.0000   1.0000   1.0000
     1.0000   1.0000   1.0000   1.0000   1.0000   1.0000   1.0000   1.0000
     1.0000   1.0000   1.0000   1.0000   1.0000   1.0000   1.0000   1.0000
     1.0000   1.0000   1.0000   1.0003   1.0003   1.0003   1.0109   1.0120
     1.0128   0.0000   0.0000   0.0000   0.0000   0.0000   0.0000   0.0000
     0.0000   0.0000   0.0000   0.0000   0.0000   0.0000   0.0000   0.0000
     0.0000   0.0000   0.0000   0.0000   0.0000

          k = 0.3333 0.5774-0.2526 ( 11340 PWs)   bands (ev):

   -91.7429 -91.7366 -91.7348 -54.9901 -54.9878 -54.9833 -54.9698 -54.9616
   -54.9611 -54.9559 -54.9541 -54.9504 -48.6520 -20.6170 -20.5648 -20.5043
   -17.9209 -17.7718 -16.2191 -16.0472 -14.2671 -14.2608 -14.2567 -13.4262
   -13.4198 -13.4169  -6.0649  -5.3539  -4.0768  -3.7842  -2.2606  -1.8279
    -1.7463  -1.6958  -1.4681  -0.9148  -0.8865  -0.8686  -0.7964  -0.5085
    -0.5040  -0.5002  -0.3333  -0.1511   0.0441   0.0567   0.2564   0.6334
     1.0942   1.1030   1.1061   1.5214   2.1865   2.2086   2.2242   2.4154
     2.9748   2.9812   2.9841   3.2319   3.2339   3.2346   3.4640   3.4736
     3.4797   5.3136   5.3302   5.3570   6.1568   6.1651   6.1675   8.2941
     9.3682   9.9661  10.7826  11.4388  11.8690  12.3010  12.5904  12.9244
    13.5532  14.1050  14.6128  14.9056  15.3433

     occupation numbers 
     1.0000   1.0000   1.0000   1.0000   1.0000   1.0000   1.0000   1.0000
     1.0000   1.0000   1.0000   1.0000   1.0000   1.0000   1.0000   1.0000
     1.0000   1.0000   1.0000   1.0000   1.0000   1.0000   1.0000   1.0000
     1.0000   1.0000   1.0000   1.0000   1.0000   1.0000   1.0000   1.0000
     1.0000   1.0000   1.0000   1.0000   1.0000   1.0000   1.0000   1.0000
     1.0000   1.0000   1.0000   1.0000   1.0000   1.0000   1.0000   1.0000
     1.0000   1.0000   1.0000   1.0000   1.0000   1.0000   1.0000   1.0000
     1.0000   1.0000   1.0000   1.0003   1.0003   1.0003   1.0110   1.0124
     1.0133   0.0000   0.0000   0.0000   0.0000   0.0000   0.0000   0.0000
     0.0000   0.0000   0.0000   0.0000   0.0000   0.0000   0.0000   0.0000
     0.0000   0.0000   0.0000   0.0000   0.0000

          k =-0.1667 0.0962 0.0000 ( 11360 PWs)   bands (ev):

   -91.7438 -91.7368 -91.7338 -54.9936 -54.9902 -54.9756 -54.9729 -54.9684
   -54.9619 -54.9582 -54.9483 -54.9449 -48.6521 -20.6127 -20.5614 -20.5041
   -18.1248 -17.5653 -16.3820 -15.8735 -15.1474 -13.7344 -13.6611 -13.5380
   -13.4919 -13.3540  -5.8456  -5.6387  -4.0406  -3.8074  -2.2010  -1.7686
    -1.6829  -1.4768  -1.3616  -1.2516  -1.2041  -1.1531  -0.9816  -0.7099
    -0.5465  -0.3576  -0.2682   0.0185   0.3219   0.4231   0.4520   0.5834
     0.6573   1.3701   1.4326   1.6204   1.7906   1.8994   2.3202   2.4380
     2.5210   2.5893   2.8633   3.0652   3.2688   3.2827   3.6130   3.6814
     3.7464   5.5997   5.6402   5.6625   5.7118   6.0722   6.2842   6.6842
     9.3970  10.2524  11.2143  11.5794  12.3169  12.6843  12.9810  13.4029
    13.7680  14.1228  14.6353  14.8142  15.2144

     occupation numbers 
     1.0000   1.0000   1.0000   1.0000   1.0000   1.0000   1.0000   1.0000
     1.0000   1.0000   1.0000   1.0000   1.0000   1.0000   1.0000   1.0000
     1.0000   1.0000   1.0000   1.0000   1.0000   1.0000   1.0000   1.0000
     1.0000   1.0000   1.0000   1.0000   1.0000   1.0000   1.0000   1.0000
     1.0000   1.0000   1.0000   1.0000   1.0000   1.0000   1.0000   1.0000
     1.0000   1.0000   1.0000   1.0000   1.0000   1.0000   1.0000   1.0000
     1.0000   1.0000   1.0000   1.0000   1.0000   1.0000   1.0000   1.0000
     1.0000   1.0000   1.0000   1.0000   1.0006   1.0008   1.0471   1.0701
     1.0831   0.0000   0.0000   0.0000   0.0000   0.0000   0.0000   0.0000
     0.0000   0.0000   0.0000   0.0000   0.0000   0.0000   0.0000   0.0000
     0.0000   0.0000   0.0000   0.0000   0.0000

          k = 0.1667 0.0962 0.0000 ( 11360 PWs)   bands (ev):

   -91.7438 -91.7368 -91.7338 -54.9937 -54.9899 -54.9761 -54.9729 -54.9682
   -54.9619 -54.9583 -54.9481 -54.9450 -48.6521 -20.6104 -20.5627 -20.5043
   -18.1107 -17.5832 -16.3658 -15.8921 -15.1472 -13.7339 -13.6617 -13.5384
   -13.4915 -13.3539  -5.9438  -5.5165  -4.0324  -3.8086  -2.1267  -1.8267
    -1.6835  -1.5033  -1.3507  -1.2988  -1.2054  -1.1597  -0.9797  -0.6429
    -0.5233  -0.3776  -0.3498   0.0532   0.3438   0.3703   0.4605   0.5906
     0.6583   1.3752   1.4244   1.7684   1.7870   1.9034   2.2845   2.3407
     2.5208   2.5867   2.8627   3.0664   3.2678   3.2834   3.6129   3.6805
     3.7481   5.6035   5.6393   5.6662   5.7061   6.0686   6.2855   6.7161
     9.3718  10.4305  10.9335  11.6641  12.2665  12.5212  13.0539  13.4372
    13.8148  14.2731  14.4984  14.8278  15.1055

     occupation numbers 
     1.0000   1.0000   1.0000   1.0000   1.0000   1.0000   1.0000   1.0000
     1.0000   1.0000   1.0000   1.0000   1.0000   1.0000   1.0000   1.0000
     1.0000   1.0000   1.0000   1.0000   1.0000   1.0000   1.0000   1.0000
     1.0000   1.0000   1.0000   1.0000   1.0000   1.0000   1.0000   1.0000
     1.0000   1.0000   1.0000   1.0000   1.0000   1.0000   1.0000   1.0000
     1.0000   1.0000   1.0000   1.0000   1.0000   1.0000   1.0000   1.0000
     1.0000   1.0000   1.0000   1.0000   1.0000   1.0000   1.0000   1.0000
     1.0000   1.0000   1.0000   1.0000   1.0006   1.0008   1.0471   1.0698
     1.0832   0.0000   0.0000   0.0000   0.0000   0.0000   0.0000   0.0000
     0.0000   0.0000   0.0000   0.0000   0.0000   0.0000   0.0000   0.0000
     0.0000   0.0000   0.0000   0.0000   0.0000

          k =-0.1667 0.0962-0.2526 ( 11384 PWs)   bands (ev):

   -91.7438 -91.7368 -91.7338 -54.9936 -54.9902 -54.9756 -54.9729 -54.9684
   -54.9620 -54.9582 -54.9483 -54.9450 -48.6521 -20.6127 -20.5614 -20.5042
   -18.1247 -17.5653 -16.3826 -15.8735 -15.1463 -13.7344 -13.6611 -13.5380
   -13.4919 -13.3549  -5.8450  -5.6345  -4.0462  -3.8086  -2.2077  -1.7682
[...]
     atom    3 type  1   force =    -0.00054694   -0.00052720    0.01338203
     atom    4 type  2   force =    -0.00369535   -0.00248425   -0.02856257
     atom    5 type  2   force =    -0.00164092    0.00180054   -0.02912766
     atom    6 type  2   force =     0.00374098    0.00125576   -0.02523827
     atom    7 type  2   force =     0.00209438    0.00162145    0.00504255
     atom    8 type  2   force =    -0.00376511    0.00377506    0.00317359
     atom    9 type  2   force =    -0.00177042   -0.00498157    0.00703939
     atom   10 type  3   force =    -0.01402314    0.03320972   -0.01350261
     atom   11 type  2   force =     0.01120836   -0.01085136   -0.00271383
     atom   12 type  4   force =    -0.01317817    0.00818498   -0.01075556
     atom   13 type  4   force =    -0.00912576    0.00324077    0.01279608
     atom   14 type  2   force =    -0.01811371   -0.00663589   -0.00737549
     atom   15 type  4   force =     0.01528816   -0.00218271   -0.01045568
     atom   16 type  4   force =     0.00626719   -0.00828596    0.01228597
     atom   17 type  2   force =    -0.00073739    0.00933307    0.01876752
     atom   18 type  4   force =     0.02739513    0.00117100   -0.00843742
     atom   19 type  4   force =    -0.01204499   -0.00671620    0.00522261
     atom   20 type  2   force =     0.00864273   -0.00379448    0.02185760
     atom   21 type  4   force =     0.01237468   -0.03425167    0.00093131
     atom   22 type  4   force =    -0.00772623    0.01596260    0.01460035
     The non-local contrib.  to forces
     atom    1 type  1   force =     0.00037028    0.01209136    0.00243402
     atom    2 type  1   force =    -0.00091962    0.00210479   -0.00305891
     atom    3 type  1   force =     0.00859402   -0.01652854   -0.01235333
     atom    4 type  2   force =    -0.03279299   -0.02474230   -1.18611736
     atom    5 type  2   force =    -0.01589531    0.01812641   -1.19342927
     atom    6 type  2   force =     0.03986672    0.00994550   -1.15531723
     atom    7 type  2   force =     0.02260108    0.01412926    1.01802320
     atom    8 type  2   force =    -0.03721816    0.01796787    1.00090517
     atom    9 type  2   force =    -0.02180022   -0.02246257    1.03280234
     atom   10 type  3   force =     0.05720459   -0.17924877    0.16060361
     atom   11 type  2   force =     1.58861529   -0.17002515   -1.30413106
     atom   12 type  4   force =    -0.09845214   -0.01737547   -0.01809471
     atom   13 type  4   force =     0.00373710    0.01206681    0.10321708
     atom   14 type  2   force =    -0.96733384    1.38076251   -1.36611451
     atom   15 type  4   force =     0.06007864   -0.08425024   -0.01913952
     atom   16 type  4   force =    -0.01681979   -0.00482072    0.10282956
     atom   17 type  2   force =    -0.17997027    1.77127432    1.50196900
     atom   18 type  4   force =     0.03693403   -0.09689675    0.01851074
     atom   19 type  4   force =    -0.04030577    0.00078127   -0.09485629
     atom   20 type  2   force =     1.53273587    0.81690748    1.42179809
     atom   21 type  4   force =    -0.06419023   -0.07741861    0.01423445
     atom   22 type  4   force =    -0.02199834    0.03092398   -0.09760274
     The ionic contribution  to forces
     atom    1 type  1   force =    -0.14751189   -0.29867646    4.96281073
     atom    2 type  1   force =     0.35739735   -0.06002897    5.28814426
     atom    3 type  1   force =    -0.23450589    0.36736051    5.35951384
     atom    4 type  2   force =     0.28053818    0.41149786   34.31010331
     atom    5 type  2   force =     0.26513739   -0.41305997   34.27784035
     atom    6 type  2   force =    -0.53322772   -0.00831299   34.20724771
     atom    7 type  2   force =    -0.22344475   -0.00709064  -30.64634363
     atom    8 type  2   force =     0.13960031    0.06279163  -30.59972414
     atom    9 type  2   force =     0.13733509   -0.06601638  -30.68877287
     atom   10 type  3   force =    -0.85504821   -0.43925711  -16.31531038
     atom   11 type  2   force =    -2.60103133    0.27466950   10.73370554
     atom   12 type  4   force =     2.87475112    0.19629602    1.68351455
     atom   13 type  4   force =    -0.14923403   -0.34943696    0.60185776
     atom   14 type  2   force =     1.67824584   -2.21691160   10.89600960
     atom   15 type  4   force =    -2.06043696    2.41882967    1.70210045
     atom   16 type  4   force =     0.54929643    0.12930009    0.62382387
     atom   17 type  2   force =     1.08765905   -3.14421310  -15.08644666
     atom   18 type  4   force =    -0.87640304    2.42816345   -2.35448619
     atom   19 type  4   force =     1.17414968   -0.05177323   -0.77554915
     atom   20 type  2   force =    -2.99286698   -0.51349644  -15.10899592
     atom   21 type  4   force =     1.51685072    2.12151786   -2.41020751
     atom   22 type  4   force =     0.61274964   -0.84215273   -0.66083550
     The local contribution  to forces
     atom    1 type  1   force =     0.14552755    0.28767203   -4.95417533
     atom    2 type  1   force =    -0.35536388    0.05802207   -5.27241008
     atom    3 type  1   force =     0.22535959   -0.35142854   -5.33269528
     atom    4 type  2   force =    -0.25188214   -0.38948323  -33.16363989
     atom    5 type  2   force =    -0.25104404    0.39689084  -33.12485322
     atom    6 type  2   force =     0.49754668   -0.00018439  -33.08794998
     atom    7 type  2   force =     0.20329645   -0.00517026   29.64369813
     atom    8 type  2   force =    -0.10676009   -0.07688966   29.61205364
     atom    9 type  2   force =    -0.11767308    0.08329960   29.67346494
     atom   10 type  3   force =     0.78386090    0.65250115   16.13584553
     atom   11 type  2   force =     1.03521613   -0.11768686   -9.44172402
     atom   12 type  4   force =    -2.78904246   -0.17028740   -1.67560277
     atom   13 type  4   force =     0.13624615    0.34038277   -0.69136919
     atom   14 type  2   force =    -0.73677751    0.83929958   -9.54763798
     atom   15 type  4   force =     2.01572102   -2.33631153   -1.69286724
     atom   16 type  4   force =    -0.52614195   -0.13283893   -0.71347804
     atom   17 type  2   force =    -0.91048598    1.39623118   13.61486878
     atom   18 type  4   force =     0.86698603   -2.32949226    2.32680403
     atom   19 type  4   force =    -1.14555032    0.04427684    0.87473718
     atom   20 type  2   force =     1.48071866   -0.30106272   13.71958071
     atom   21 type  4   force =    -1.43962274   -2.07818037    2.39631442
     atom   22 type  4   force =    -0.59850020    0.82691835    0.77217262
     The core correction contribution to forces
     atom    1 type  1   force =     0.00000228   -0.00008011   -0.00007362
     atom    2 type  1   force =     0.00000428   -0.00001502   -0.00005322
     atom    3 type  1   force =    -0.00004844    0.00010122   -0.00000933
     atom    4 type  2   force =     0.00028933    0.00020989    0.01052723
     atom    5 type  2   force =     0.00013575   -0.00014906    0.01060755
     atom    6 type  2   force =    -0.00034285   -0.00008773    0.01023269
     atom    7 type  2   force =    -0.00019593   -0.00013899   -0.00889281
     atom    8 type  2   force =     0.00034473   -0.00017248   -0.00871628
     atom    9 type  2   force =     0.00019996    0.00021549   -0.00904064
     atom   10 type  3   force =    -0.00001767    0.00006297   -0.00006684
     atom   11 type  2   force =    -0.01235714    0.00168525    0.01024907
     atom   12 type  4   force =     0.00000000    0.00000000    0.00000000
     atom   13 type  4   force =     0.00000000    0.00000000    0.00000000
     atom   14 type  2   force =     0.00779032   -0.01066866    0.01086581
     atom   15 type  4   force =     0.00000000    0.00000000    0.00000000
     atom   16 type  4   force =     0.00000000    0.00000000    0.00000000
     atom   17 type  2   force =     0.00165233   -0.01402234   -0.01210008
     atom   18 type  4   force =     0.00000000    0.00000000    0.00000000
     atom   19 type  4   force =     0.00000000    0.00000000    0.00000000
     atom   20 type  2   force =    -0.01207800   -0.00665365   -0.01109827
     atom   21 type  4   force =     0.00000000    0.00000000    0.00000000
     atom   22 type  4   force =     0.00000000    0.00000000    0.00000000
     The Hubbard contrib.    to forces
     atom    1 type  1   force =     0.00000000    0.00000000    0.00000000
     atom    2 type  1   force =     0.00000000    0.00000000    0.00000000
     atom    3 type  1   force =     0.00000000    0.00000000    0.00000000
     atom    4 type  2   force =     0.00000000    0.00000000    0.00000000
     atom    5 type  2   force =     0.00000000    0.00000000    0.00000000
     atom    6 type  2   force =     0.00000000    0.00000000    0.00000000
     atom    7 type  2   force =     0.00000000    0.00000000    0.00000000
     atom    8 type  2   force =     0.00000000    0.00000000    0.00000000
     atom    9 type  2   force =     0.00000000    0.00000000    0.00000000
     atom   10 type  3   force =     0.00000000    0.00000000    0.00000000
     atom   11 type  2   force =     0.00000000    0.00000000    0.00000000
     atom   12 type  4   force =     0.00000000    0.00000000    0.00000000
     atom   13 type  4   force =     0.00000000    0.00000000    0.00000000
     atom   14 type  2   force =     0.00000000    0.00000000    0.00000000
     atom   15 type  4   force =     0.00000000    0.00000000    0.00000000
     atom   16 type  4   force =     0.00000000    0.00000000    0.00000000
     atom   17 type  2   force =     0.00000000    0.00000000    0.00000000
     atom   18 type  4   force =     0.00000000    0.00000000    0.00000000
     atom   19 type  4   force =     0.00000000    0.00000000    0.00000000
     atom   20 type  2   force =     0.00000000    0.00000000    0.00000000
     atom   21 type  4   force =     0.00000000    0.00000000    0.00000000
     atom   22 type  4   force =     0.00000000    0.00000000    0.00000000
     The SCF correction term to forces
     atom    1 type  1   force =    -0.00000000    0.00000000   -0.00000000
     atom    2 type  1   force =     0.00000000   -0.00000000   -0.00000000
     atom    3 type  1   force =    -0.00000000    0.00000000   -0.00000000
     atom    4 type  2   force =     0.00000000    0.00000000   -0.00000000
     atom    5 type  2   force =     0.00000000   -0.00000000   -0.00000000
     atom    6 type  2   force =    -0.00000000   -0.00000000   -0.00000000
     atom    7 type  2   force =     0.00000000    0.00000000   -0.00000000
     atom    8 type  2   force =    -0.00000000   -0.00000000   -0.00000000
     atom    9 type  2   force =     0.00000000    0.00000000   -0.00000000
     atom   10 type  3   force =    -0.00000000    0.00000000    0.00000000
     atom   11 type  2   force =    -0.00004632    0.00003229    0.00018111
     atom   12 type  4   force =    -0.00000833   -0.00000009    0.00002663
     atom   13 type  4   force =    -0.00000362    0.00000327    0.00002053
     atom   14 type  2   force =     0.00006603   -0.00001359    0.00019591
     atom   15 type  4   force =     0.00000623   -0.00000667    0.00002663
     atom   16 type  4   force =     0.00000448   -0.00000149    0.00002258
     atom   17 type  2   force =     0.00002163   -0.00005068    0.00000325
     atom   18 type  4   force =     0.00000508   -0.00000592    0.00000512
     atom   19 type  4   force =    -0.00000329   -0.00000493   -0.00002363
     atom   20 type  2   force =    -0.00002254    0.00000367   -0.00000146
     atom   21 type  4   force =    -0.00001044   -0.00001680    0.00000784
     atom   22 type  4   force =    -0.00000424    0.00000729   -0.00003065

     DFT-D3 dispersion contribution to forces:
     atom    1 type  1   force =     0.00000286    0.00003849   -0.00124623
     atom    2 type  1   force =    -0.00014894    0.00006274   -0.00087462
     atom    3 type  1   force =     0.00005725   -0.00005235   -0.00086209
     atom    4 type  2   force =     0.00015022    0.00002688    0.00059784
     atom    5 type  2   force =     0.00002480    0.00000223    0.00075395
     atom    6 type  2   force =    -0.00009297   -0.00009512    0.00059379
     atom    7 type  2   force =    -0.00016042   -0.00011175   -0.00131901
     atom    8 type  2   force =     0.00027445    0.00009918   -0.00121780
     atom    9 type  2   force =     0.00016668   -0.00002444   -0.00127746
     atom   10 type  3   force =    -0.00000991   -0.00091588    0.00539651
     atom   11 type  2   force =     0.00081388    0.00047805   -0.00099520
     atom   12 type  4   force =    -0.00042422   -0.00044362   -0.00059997
     atom   13 type  4   force =     0.00013078    0.00022932   -0.00093081
     atom   14 type  2   force =    -0.00010241    0.00090033   -0.00069503
     atom   15 type  4   force =    -0.00007864   -0.00043948   -0.00057671
     atom   16 type  4   force =    -0.00006983    0.00007954   -0.00091270
     atom   17 type  2   force =     0.00038800    0.00011814    0.00047251
     atom   18 type  4   force =    -0.00012484   -0.00059305    0.00072817
     atom   19 type  4   force =    -0.00033315    0.00000829    0.00091379
     atom   20 type  2   force =     0.00015786    0.00051163    0.00057375
     atom   21 type  4   force =    -0.00065049   -0.00014930    0.00058141
     atom   22 type  4   force =     0.00002904    0.00027016    0.00089591

     Total force =     0.076157     Total SCF correction =     0.000295

     DFT-D3 dispersion Force =     0.007080
     Energy error            =      7.3E-03 Ry
     Gradient error          =      3.4E-02 Ry/Bohr

     number of scf cycles    =   3
     number of bfgs steps    =   2

     energy             old  =   -1665.6305777481 Ry
     energy             new  =   -1665.6378974196 Ry

     CASE: energy            _new < energy            _old

     new trust radius        =       0.0387518246 bohr
     new conv_thr            =       0.0000000343 Ry


ATOMIC_POSITIONS (crystal)
Co               0.0000000000        0.0000000000        0.0000000000    0   0   0
Co               0.3333333333        0.6666666667        0.0000000000    0   0   0
Co               0.6666666667        0.3333333333        0.0000000000    0   0   0
O                0.3333333333        0.3333333333        0.0969696970    0   0   0
O                0.6666666667        0.0000000000        0.0969696970    0   0   0
O                0.0000000000        0.6666666667        0.0969696970    0   0   0
O                0.3333333333        0.0000000000        0.9030303030    0   0   0
O                0.6666666667        0.6666666667        0.9030303030    0   0   0
O                0.0000000000        0.3333333333        0.9030303030    0   0   0
Na               0.0000000000        0.0000000000        0.6010101010    0   0   0
O                0.3277830074       -0.0041586759        0.3808323235
H                0.5383682214        0.0343165538        0.3970618462
H                0.3097138347        0.9700929763        0.2823964142
O               -0.0070717515        0.3254068718        0.3800888912
H                0.9733683968        0.5071618174        0.3967925895
H                0.0316678836        0.3403210567        0.2824659414
O                0.3325222458        0.6654451535        0.6218671405
H                0.3676522547        0.8731826268        0.6065958845
H                0.4093274318        0.6700035004        0.7138893752
O                0.6610569997        0.3277821614        0.6222930198
H                0.8709074812        0.5011827584        0.6087560676
H                0.6748330344        0.2659874181        0.7148090187



     Writing config-only to output data dir ./out/pw.save/ :
     XML data file
     NEW-OLD atomic charge density approx. for the potential

     Check: negative core charge=   -0.000006
     Generating pointlists ...

     total cpu time spent up to now is      461.4 secs

     Self-consistent Calculation
[tb_dev] Currently allocated     0.00E+00 Mbytes, locked:    0 /   0
[tb_pin] Currently allocated     0.00E+00 Mbytes, locked:    0 /   0

     iteration #  1     ecut=    60.00 Ry     beta= 0.30
     Davidson diagonalization with overlap

---- Real-time Memory Report at c_bands before calling an iterative solver
          2117 MiB given to the printing process from OS
             0 MiB allocation reported by mallinfo(arena+hblkhd)
        916192 MiB available memory on the node where the printing process lives
     GPU memory used/free/total (MiB): 2258 / 78892 / 81151
------------------
     ethr =  1.00E-06,  avg # of iterations =  6.4

     total cpu time spent up to now is      470.1 secs

     total energy              =   -1665.64324917 Ry
     estimated scf accuracy    <       0.00041947 Ry

     total magnetization       =     2.30 Bohr mag/cell
     absolute magnetization    =     2.35 Bohr mag/cell
[tb_dev] Currently allocated     1.68E-04 Mbytes, locked:    0 /   2
[tb_pin] Currently allocated     0.00E+00 Mbytes, locked:    0 /   0

     iteration #  2     ecut=    60.00 Ry     beta= 0.30
     Davidson diagonalization with overlap

---- Real-time Memory Report at c_bands before calling an iterative solver
          2117 MiB given to the printing process from OS
             0 MiB allocation reported by mallinfo(arena+hblkhd)
        916224 MiB available memory on the node where the printing process lives
     GPU memory used/free/total (MiB): 2258 / 78892 / 81151
------------------
     ethr =  3.28E-07,  avg # of iterations =  1.8

     total cpu time spent up to now is      475.3 secs

     total energy              =   -1665.64318819 Ry
     estimated scf accuracy    <       0.00024437 Ry

     total magnetization       =     2.30 Bohr mag/cell
     absolute magnetization    =     2.35 Bohr mag/cell
[tb_dev] Currently allocated     1.68E-04 Mbytes, locked:    0 /   2
[tb_pin] Currently allocated     0.00E+00 Mbytes, locked:    0 /   0

     iteration #  3     ecut=    60.00 Ry     beta= 0.30
     Davidson diagonalization with overlap

---- Real-time Memory Report at c_bands before calling an iterative solver
          2117 MiB given to the printing process from OS
             0 MiB allocation reported by mallinfo(arena+hblkhd)
        916226 MiB available memory on the node where the printing process lives
     GPU memory used/free/total (MiB): 2258 / 78892 / 81151
------------------
     ethr =  1.91E-07,  avg # of iterations =  3.9

     total cpu time spent up to now is      481.4 secs

     total energy              =   -1665.64322501 Ry
     estimated scf accuracy    <       0.00005980 Ry

     total magnetization       =     2.30 Bohr mag/cell
     absolute magnetization    =     2.35 Bohr mag/cell
[tb_dev] Currently allocated     1.68E-04 Mbytes, locked:    0 /   2
[tb_pin] Currently allocated     0.00E+00 Mbytes, locked:    0 /   0

     iteration #  4     ecut=    60.00 Ry     beta= 0.30
     Davidson diagonalization with overlap

---- Real-time Memory Report at c_bands before calling an iterative solver
          2117 MiB given to the printing process from OS
             0 MiB allocation reported by mallinfo(arena+hblkhd)
        916229 MiB available memory on the node where the printing process lives
     GPU memory used/free/total (MiB): 2258 / 78892 / 81151
------------------
     ethr =  4.67E-08,  avg # of iterations =  4.3

     total cpu time spent up to now is      487.8 secs

     total energy              =   -1665.64322631 Ry
     estimated scf accuracy    <       0.00003470 Ry

     total magnetization       =     2.30 Bohr mag/cell
     absolute magnetization    =     2.35 Bohr mag/cell
[tb_dev] Currently allocated     1.68E-04 Mbytes, locked:    0 /   2
[tb_pin] Currently allocated     0.00E+00 Mbytes, locked:    0 /   0

     iteration #  5     ecut=    60.00 Ry     beta= 0.30
