
     Program PROJWFC v.7.3.1 starts on 12Jul2026 at  6:29:11 

     This program is part of the open-source Quantum ESPRESSO suite
     for quantum simulation of materials; please cite
         "P. Giannozzi et al., J. Phys.:Condens. Matter 21 395502 (2009);
         "P. Giannozzi et al., J. Phys.:Condens. Matter 29 465901 (2017);
         "P. Giannozzi et al., J. Chem. Phys. 152 154105 (2020);
          URL http://www.quantum-espresso.org", 
     in publications or presentations arising from this work. More details at
     http://www.quantum-espresso.org/quote

     Serial version
     1355905 MiB available memory on the printing compute node when the environment starts


     Reading xml data from directory:

     ./out/pw.save/
     file Co.pbe-spn-kjpaw_psl.0.3.1.UPF: wavefunction(s)  3P 3D renormalized
     file O.pbe-n-kjpaw_psl.1.0.0.UPF: wavefunction(s)  2S 2P renormalized
     file Na.pbe-spn-kjpaw_psl.1.0.0.UPF: wavefunction(s)  2P renormalized

     IMPORTANT: XC functional enforced from input :
     Exchange-correlation= PBE
                           (   1   4   3   4   0   0   0)
     Any further DFT definition will be discarded
     Please, verify this is what you really want


     G-vector sticks info
     --------------------
     sticks:   dense  smooth     PW     G-vecs:    dense   smooth      PW
     Sum         979     499    151                85601    30351    5049

     Using Slab Decomposition


     Check: negative core charge=   -0.000006

     Gaussian broadening (read from input): ngauss,degauss=   0    0.020000


     Calling projwave .... 

  Problem Sizes 
  natomwfc =           23
  nbnd     =           27
  nkstot   =          120
  npwx     =         3813
  nkb      =           42


     Atomic states used for projection
     (read from pseudopotential files):

     state #   1: atom   1 (Co ), wfc  1 (l=0 m= 1)
     state #   2: atom   1 (Co ), wfc  2 (l=0 m= 1)
     state #   3: atom   1 (Co ), wfc  3 (l=1 m= 1)
     state #   4: atom   1 (Co ), wfc  3 (l=1 m= 2)
     state #   5: atom   1 (Co ), wfc  3 (l=1 m= 3)
     state #   6: atom   1 (Co ), wfc  4 (l=2 m= 1)
     state #   7: atom   1 (Co ), wfc  4 (l=2 m= 2)
     state #   8: atom   1 (Co ), wfc  4 (l=2 m= 3)
     state #   9: atom   1 (Co ), wfc  4 (l=2 m= 4)
     state #  10: atom   1 (Co ), wfc  4 (l=2 m= 5)
     state #  11: atom   2 (O  ), wfc  1 (l=0 m= 1)
     state #  12: atom   2 (O  ), wfc  2 (l=1 m= 1)
     state #  13: atom   2 (O  ), wfc  2 (l=1 m= 2)
     state #  14: atom   2 (O  ), wfc  2 (l=1 m= 3)
     state #  15: atom   3 (O  ), wfc  1 (l=0 m= 1)
     state #  16: atom   3 (O  ), wfc  2 (l=1 m= 1)
     state #  17: atom   3 (O  ), wfc  2 (l=1 m= 2)
     state #  18: atom   3 (O  ), wfc  2 (l=1 m= 3)
     state #  19: atom   4 (Na ), wfc  1 (l=0 m= 1)
     state #  20: atom   4 (Na ), wfc  2 (l=0 m= 1)
     state #  21: atom   4 (Na ), wfc  3 (l=1 m= 1)
     state #  22: atom   4 (Na ), wfc  3 (l=1 m= 2)
     state #  23: atom   4 (Na ), wfc  3 (l=1 m= 3)

 k =   0.0000000000  0.0000000000  0.0000000000
==== e(   1) =   -92.09111 eV ==== 
     psi = 0.981*[#   1]+0.010*[#   2]+0.004*[#  12]+0.004*[#  16]
    |psi|^2 = 1.000
==== e(   2) =   -55.30327 eV ==== 
     psi = 0.998*[#   3]
    |psi|^2 = 1.000
==== e(   3) =   -55.29397 eV ==== 
     psi = 0.499*[#   4]+0.499*[#   5]
    |psi|^2 = 1.000
==== e(   4) =   -55.29397 eV ==== 
     psi = 0.499*[#   4]+0.499*[#   5]
    |psi|^2 = 1.000
==== e(   5) =   -49.76526 eV ==== 
     psi = 0.965*[#  19]+0.035*[#  20]
    |psi|^2 = 1.000
==== e(   6) =   -21.65223 eV ==== 
     psi = 1.000*[#  21]
    |psi|^2 = 1.000
==== e(   7) =   -21.56188 eV ==== 
     psi = 0.500*[#  22]+0.500*[#  23]
    |psi|^2 = 1.000
==== e(   8) =   -21.56188 eV ==== 
     psi = 0.500*[#  22]+0.500*[#  23]
    |psi|^2 = 1.000
==== e(   9) =   -15.42620 eV ==== 
     psi = 0.323*[#   2]+0.319*[#  11]+0.319*[#  15]+0.010*[#   1]+0.010*[#  12]
          +0.010*[#  16]+0.005*[#   6]+0.002*[#  20]
    |psi|^2 = 0.999
==== e(  10) =   -13.50506 eV ==== 
     psi = 0.496*[#  11]+0.496*[#  15]+0.002*[#   3]
    |psi|^2 = 0.995
==== e(  11) =    -1.66455 eV ==== 
     psi = 0.324*[#   6]+0.299*[#  12]+0.299*[#  16]+0.025*[#  20]+0.023*[#  11]
          +0.023*[#  15]+0.004*[#   1]+0.001*[#   2]
    |psi|^2 = 0.998
==== e(  12) =    -1.28892 eV ==== 
     psi = 0.208*[#   9]+0.208*[#  10]+0.116*[#  13]+0.116*[#  14]+0.116*[#  17]
          +0.116*[#  18]+0.059*[#   7]+0.059*[#   8]
    |psi|^2 = 0.998
==== e(  13) =    -1.28892 eV ==== 
     psi = 0.208*[#   9]+0.208*[#  10]+0.116*[#  13]+0.116*[#  14]+0.116*[#  17]
          +0.116*[#  18]+0.059*[#   7]+0.059*[#   8]
    |psi|^2 = 0.998
==== e(  14) =     1.23844 eV ==== 
     psi = 0.895*[#  20]+0.033*[#  19]+0.017*[#   6]+0.004*[#  12]+0.004*[#  16]
          +0.002*[#   2]+0.001*[#  11]+0.001*[#  15]
    |psi|^2 = 0.957
==== e(  15) =     1.83065 eV ==== 
     psi = 0.482*[#  12]+0.482*[#  16]
    |psi|^2 = 0.966
==== e(  16) =     2.14238 eV ==== 
     psi = 0.358*[#   7]+0.358*[#   8]+0.139*[#   9]+0.139*[#  10]+0.001*[#  13]
          +0.001*[#  14]+0.001*[#  17]+0.001*[#  18]
    |psi|^2 = 0.999
==== e(  17) =     2.14238 eV ==== 
     psi = 0.358*[#   7]+0.358*[#   8]+0.139*[#   9]+0.139*[#  10]+0.001*[#  13]
          +0.001*[#  14]+0.001*[#  17]+0.001*[#  18]
    |psi|^2 = 0.999
==== e(  18) =     2.46658 eV ==== 
     psi = 0.248*[#  13]+0.248*[#  14]+0.248*[#  17]+0.248*[#  18]
    |psi|^2 = 0.994
==== e(  19) =     2.46658 eV ==== 
     psi = 0.248*[#  13]+0.248*[#  14]+0.248*[#  17]+0.248*[#  18]
    |psi|^2 = 0.994
==== e(  20) =     3.47399 eV ==== 
     psi = 0.645*[#   6]+0.153*[#  12]+0.153*[#  16]+0.014*[#   2]+0.007*[#  11]
          +0.007*[#  15]+0.002*[#   1]+0.001*[#  20]
    |psi|^2 = 0.982
==== e(  21) =     5.65145 eV ==== 
     psi = 0.013*[#  12]+0.013*[#  16]
    |psi|^2 = 0.026
==== e(  22) =     6.11528 eV ==== 
     psi = 0.152*[#   9]+0.152*[#  10]+0.131*[#  13]+0.131*[#  14]+0.131*[#  17]
          +0.131*[#  18]+0.083*[#   7]+0.083*[#   8]
    |psi|^2 = 0.995
==== e(  23) =     6.11528 eV ==== 
     psi = 0.152*[#   9]+0.152*[#  10]+0.131*[#  13]+0.131*[#  14]+0.131*[#  17]
          +0.131*[#  18]+0.083*[#   7]+0.083*[#   8]
    |psi|^2 = 0.995
==== e(  24) =     9.21136 eV ==== 
     psi = 0.283*[#   2]+0.068*[#  11]+0.068*[#  15]+0.029*[#  20]+0.003*[#  12]
          +0.003*[#  16]+0.001*[#   1]
    |psi|^2 = 0.455
==== e(  25) =    12.82832 eV ==== 
     psi = 0.003*[#  12]+0.003*[#  16]+0.001*[#  11]+0.001*[#  15]
    |psi|^2 = 0.008
==== e(  26) =    12.91438 eV ==== 
     psi = 0.352*[#   2]+0.077*[#  11]+0.077*[#  15]+0.022*[#  12]+0.022*[#  16]
          +0.012*[#  20]+0.005*[#   6]
    |psi|^2 = 0.569
==== e(  27) =    15.82117 eV ==== 

    |psi|^2 = 0.001

 k =   0.0227272727  0.0131215970  0.0000000000
==== e(   1) =   -92.09108 eV ==== 
     psi = 0.981*[#   1]+0.010*[#   2]+0.004*[#  12]+0.004*[#  16]
    |psi|^2 = 1.000
==== e(   2) =   -55.30320 eV ==== 
     psi = 0.998*[#   3]
    |psi|^2 = 1.000
==== e(   3) =   -55.29429 eV ==== 
     psi = 0.499*[#   4]+0.499*[#   5]
    |psi|^2 = 1.000
==== e(   4) =   -55.29404 eV ==== 
     psi = 0.499*[#   4]+0.499*[#   5]
    |psi|^2 = 1.000
==== e(   5) =   -49.76507 eV ==== 
     psi = 0.965*[#  19]+0.035*[#  20]
    |psi|^2 = 1.000
==== e(   6) =   -21.65191 eV ==== 
     psi = 1.000*[#  21]
    |psi|^2 = 1.000
==== e(   7) =   -21.56351 eV ==== 
     psi = 0.500*[#  22]+0.500*[#  23]
    |psi|^2 = 1.000
==== e(   8) =   -21.56221 eV ==== 
     psi = 0.500*[#  22]+0.500*[#  23]
    |psi|^2 = 1.000
==== e(   9) =   -15.42035 eV ==== 
     psi = 0.322*[#   2]+0.319*[#  11]+0.319*[#  15]+0.010*[#   1]+0.010*[#  12]
          +0.010*[#  16]+0.005*[#   6]+0.002*[#  20]
    |psi|^2 = 0.999
==== e(  10) =   -13.50529 eV ==== 
     psi = 0.496*[#  11]+0.496*[#  15]+0.002*[#   3]
    |psi|^2 = 0.995
==== e(  11) =    -1.65772 eV ==== 
     psi = 0.324*[#   6]+0.299*[#  12]+0.299*[#  16]+0.024*[#  20]+0.023*[#  11]
          +0.023*[#  15]+0.004*[#   1]+0.001*[#   2]
    |psi|^2 = 0.998
==== e(  12) =    -1.29535 eV ==== 
     psi = 0.208*[#   9]+0.208*[#  10]+0.116*[#  13]+0.116*[#  14]+0.116*[#  17]
          +0.116*[#  18]+0.058*[#   7]+0.058*[#   8]+0.002*[#  12]+0.002*[#  16]
          
    |psi|^2 = 0.998
==== e(  13) =    -1.28491 eV ==== 
     psi = 0.208*[#   9]+0.208*[#  10]+0.116*[#  13]+0.116*[#  14]+0.116*[#  17]
          +0.116*[#  18]+0.059*[#   7]+0.059*[#   8]
    |psi|^2 = 0.998
==== e(  14) =     1.25146 eV ==== 
     psi = 0.896*[#  20]+0.033*[#  19]+0.017*[#   6]+0.004*[#  12]+0.004*[#  16]
          +0.002*[#   2]+0.001*[#  11]+0.001*[#  15]
    |psi|^2 = 0.957
==== e(  15) =     1.83814 eV ==== 
     psi = 0.470*[#  12]+0.470*[#  16]+0.009*[#   7]+0.009*[#   8]
    |psi|^2 = 0.967
==== e(  16) =     2.09637 eV ==== 
     psi = 0.319*[#   7]+0.319*[#   8]+0.122*[#   9]+0.122*[#  10]+0.029*[#  13]
          +0.029*[#  14]+0.029*[#  17]+0.029*[#  18]
    |psi|^2 = 0.998
==== e(  17) =     2.09696 eV ==== 
     psi = 0.306*[#   7]+0.306*[#   8]+0.118*[#   9]+0.118*[#  10]+0.032*[#  13]
          +0.032*[#  14]+0.032*[#  17]+0.032*[#  18]+0.010*[#  12]+0.010*[#  16]
          
    |psi|^2 = 0.997
==== e(  18) =     2.48718 eV ==== 
     psi = 0.215*[#  13]+0.215*[#  14]+0.215*[#  17]+0.215*[#  18]+0.042*[#   7]
          +0.042*[#   8]+0.020*[#   9]+0.020*[#  10]+0.005*[#   6]+0.002*[#   2]
          
    |psi|^2 = 0.994
==== e(  19) =     2.50915 eV ==== 
     psi = 0.220*[#  13]+0.220*[#  14]+0.220*[#  17]+0.220*[#  18]+0.038*[#   7]
          +0.038*[#   8]+0.018*[#   9]+0.018*[#  10]
    |psi|^2 = 0.994
==== e(  20) =     3.47910 eV ==== 
     psi = 0.640*[#   6]+0.152*[#  12]+0.152*[#  16]+0.013*[#   2]+0.007*[#  11]
          +0.007*[#  15]+0.002*[#   1]+0.002*[#  13]+0.002*[#  14]+0.002*[#  17]
          +0.002*[#  18]+0.001*[#  20]
    |psi|^2 = 0.982
==== e(  21) =     5.65843 eV ==== 
     psi = 0.013*[#  12]+0.013*[#  16]+0.001*[#  13]+0.001*[#  14]+0.001*[#  17]
          +0.001*[#  18]
    |psi|^2 = 0.033
==== e(  22) =     6.10173 eV ==== 
     psi = 0.151*[#   9]+0.151*[#  10]+0.130*[#  13]+0.130*[#  14]+0.130*[#  17]
          +0.130*[#  18]+0.083*[#   7]+0.083*[#   8]
    |psi|^2 = 0.987
==== e(  23) =     6.11144 eV ==== 
     psi = 0.151*[#   9]+0.151*[#  10]+0.131*[#  13]+0.131*[#  14]+0.131*[#  17]
          +0.131*[#  18]+0.083*[#   7]+0.083*[#   8]
    |psi|^2 = 0.995
==== e(  24) =     9.22830 eV ==== 
     psi = 0.282*[#   2]+0.067*[#  11]+0.067*[#  15]+0.029*[#  20]+0.003*[#  12]
          +0.003*[#  16]+0.001*[#   1]
    |psi|^2 = 0.453
==== e(  25) =    12.84496 eV ==== 
     psi = 0.003*[#  12]+0.003*[#  16]+0.001*[#  11]+0.001*[#  15]
    |psi|^2 = 0.008
==== e(  26) =    12.93237 eV ==== 
     psi = 0.354*[#   2]+0.077*[#  11]+0.077*[#  15]+0.022*[#  12]+0.022*[#  16]
          +0.012*[#  20]+0.005*[#   6]
    |psi|^2 = 0.571
==== e(  27) =    15.83903 eV ==== 

    |psi|^2 = 0.001

 k =   0.0454545455  0.0262431941  0.0000000000
==== e(   1) =   -92.09101 eV ==== 
     psi = 0.982*[#   1]+0.009*[#   2]+0.004*[#  12]+0.004*[#  16]
    |psi|^2 = 1.000
==== e(   2) =   -55.30308 eV ==== 
     psi = 0.998*[#   3]
    |psi|^2 = 1.000
==== e(   3) =   -55.29518 eV ==== 
     psi = 0.499*[#   4]+0.499*[#   5]
    |psi|^2 = 1.000
==== e(   4) =   -55.29430 eV ==== 
     psi = 0.499*[#   4]+0.499*[#   5]
    |psi|^2 = 1.000
==== e(   5) =   -49.76455 eV ==== 
     psi = 0.966*[#  19]+0.034*[#  20]
    |psi|^2 = 1.000
==== e(   6) =   -21.65116 eV ==== 
     psi = 1.000*[#  21]
    |psi|^2 = 1.000
==== e(   7) =   -21.56826 eV ==== 
     psi = 0.500*[#  22]+0.500*[#  23]
    |psi|^2 = 1.000
==== e(   8) =   -21.56332 eV ==== 
     psi = 0.500*[#  22]+0.500*[#  23]
    |psi|^2 = 1.000
==== e(   9) =   -15.40289 eV ==== 
     psi = 0.321*[#  11]+0.321*[#  15]+0.320*[#   2]+0.010*[#   1]+0.010*[#  12]
          +0.010*[#  16]+0.005*[#   6]+0.002*[#  20]
    |psi|^2 = 0.999
==== e(  10) =   -13.50597 eV ==== 
     psi = 0.495*[#  11]+0.495*[#  15]+0.002*[#   3]
    |psi|^2 = 0.996
==== e(  11) =    -1.63740 eV ==== 
     psi = 0.323*[#   6]+0.299*[#  12]+0.299*[#  16]+0.024*[#  20]+0.023*[#  11]
          +0.023*[#  15]+0.004*[#   1]+0.001*[#   2]
    |psi|^2 = 0.998
==== e(  12) =    -1.31398 eV ==== 
     psi = 0.206*[#   9]+0.206*[#  10]+0.116*[#  13]+0.116*[#  14]+0.116*[#  17]
          +0.116*[#  18]+0.055*[#   7]+0.055*[#   8]+0.006*[#  12]+0.006*[#  16]
          
    |psi|^2 = 0.998
==== e(  13) =    -1.27296 eV ==== 
     psi = 0.206*[#   9]+0.206*[#  10]+0.117*[#  13]+0.117*[#  14]+0.117*[#  17]
          +0.117*[#  18]+0.060*[#   7]+0.060*[#   8]
    |psi|^2 = 0.998
==== e(  14) =     1.29040 eV ==== 
     psi = 0.896*[#  20]+0.032*[#  19]+0.017*[#   6]+0.004*[#  12]+0.004*[#  16]
          +0.002*[#   2]+0.001*[#  11]+0.001*[#  15]
    |psi|^2 = 0.957
==== e(  15) =     1.84281 eV ==== 
     psi = 0.363*[#  12]+0.363*[#  16]+0.078*[#   7]+0.078*[#   8]+0.016*[#  13]
          +0.016*[#  14]+0.016*[#  17]+0.016*[#  18]+0.014*[#   9]+0.014*[#  10]
          
    |psi|^2 = 0.976
==== e(  16) =     1.99649 eV ==== 
     psi = 0.273*[#   7]+0.273*[#   8]+0.101*[#   9]+0.101*[#  10]+0.062*[#  13]
          +0.062*[#  14]+0.062*[#  17]+0.062*[#  18]
    |psi|^2 = 0.998
==== e(  17) =     2.00214 eV ==== 
     psi = 0.177*[#   7]+0.177*[#   8]+0.112*[#  12]+0.112*[#  16]+0.075*[#   9]
          +0.075*[#  10]+0.063*[#  13]+0.063*[#  14]+0.063*[#  17]+0.063*[#  18]
          +0.003*[#   6]+0.001*[#   2]
    |psi|^2 = 0.989
==== e(  18) =     2.52736 eV ==== 
     psi = 0.164*[#  13]+0.164*[#  14]+0.164*[#  17]+0.164*[#  18]+0.103*[#   7]
          +0.103*[#   8]+0.051*[#   9]+0.051*[#  10]+0.016*[#   6]+0.005*[#   2]
          +0.003*[#  12]+0.003*[#  16]+0.002*[#  11]+0.002*[#  15]
    |psi|^2 = 0.995
==== e(  19) =     2.59855 eV ==== 
     psi = 0.187*[#  13]+0.187*[#  14]+0.187*[#  17]+0.187*[#  18]+0.081*[#   7]
          +0.081*[#   8]+0.042*[#   9]+0.042*[#  10]
    |psi|^2 = 0.995
==== e(  20) =     3.49271 eV ==== 
     psi = 0.627*[#   6]+0.151*[#  12]+0.151*[#  16]+0.011*[#   2]+0.006*[#  13]
          +0.006*[#  14]+0.006*[#  17]+0.006*[#  18]+0.006*[#  11]+0.006*[#  15]
          +0.002*[#   1]+0.001*[#  20]
    |psi|^2 = 0.982
==== e(  21) =     5.67678 eV ==== 
     psi = 0.012*[#  12]+0.012*[#  16]+0.006*[#  13]+0.006*[#  14]+0.006*[#  17]
          +0.006*[#  18]+0.005*[#   9]+0.005*[#  10]+0.004*[#   7]+0.004*[#   8]
          
    |psi|^2 = 0.065
==== e(  22) =     6.06433 eV ==== 
     psi = 0.148*[#   9]+0.148*[#  10]+0.124*[#  13]+0.124*[#  14]+0.124*[#  17]
          +0.124*[#  18]+0.080*[#   7]+0.080*[#   8]+0.001*[#  12]+0.001*[#  16]
          
    |psi|^2 = 0.954
==== e(  23) =     6.10015 eV ==== 
     psi = 0.150*[#   9]+0.150*[#  10]+0.131*[#  13]+0.131*[#  14]+0.131*[#  17]
          +0.131*[#  18]+0.085*[#   7]+0.085*[#   8]
    |psi|^2 = 0.995
==== e(  24) =     9.27858 eV ==== 
     psi = 0.278*[#   2]+0.065*[#  11]+0.065*[#  15]+0.029*[#  20]+0.003*[#  12]
          +0.003*[#  16]
    |psi|^2 = 0.447
==== e(  25) =    12.89386 eV ==== 
     psi = 0.003*[#  12]+0.003*[#  16]+0.001*[#  11]+0.001*[#  15]
    |psi|^2 = 0.009
==== e(  26) =    12.98600 eV ==== 
     psi = 0.358*[#   2]+0.077*[#  11]+0.077*[#  15]+0.022*[#  12]+0.022*[#  16]
          +0.012*[#  20]+0.005*[#   6]
    |psi|^2 = 0.577
==== e(  27) =    15.89204 eV ==== 

    |psi|^2 = 0.002

 k =   0.0681818182  0.0393647911  0.0000000000
==== e(   1) =   -92.09089 eV ==== 
     psi = 0.982*[#   1]+0.009*[#   2]+0.003*[#  12]+0.003*[#  16]
    |psi|^2 = 1.000
==== e(   2) =   -55.30286 eV ==== 
     psi = 0.998*[#   3]
    |psi|^2 = 1.000
==== e(   3) =   -55.29650 eV ==== 
     psi = 0.499*[#   4]+0.499*[#   5]
    |psi|^2 = 1.000
==== e(   4) =   -55.29465 eV ==== 
     psi = 0.499*[#   4]+0.499*[#   5]
    |psi|^2 = 1.000
==== e(   5) =   -49.76365 eV ==== 
     psi = 0.968*[#  19]+0.032*[#  20]
    |psi|^2 = 1.000
==== e(   6) =   -21.64989 eV ==== 
     psi = 1.000*[#  21]
    |psi|^2 = 1.000
==== e(   7) =   -21.57576 eV ==== 
     psi = 0.500*[#  22]+0.500*[#  23]
    |psi|^2 = 1.000
==== e(   8) =   -21.56499 eV ==== 
     psi = 0.500*[#  22]+0.500*[#  23]
    |psi|^2 = 1.000
==== e(   9) =   -15.37402 eV ==== 
     psi = 0.323*[#  11]+0.323*[#  15]+0.315*[#   2]+0.010*[#  12]+0.010*[#  16]
          +0.010*[#   1]+0.005*[#   6]+0.002*[#  20]
    |psi|^2 = 0.999
==== e(  10) =   -13.50714 eV ==== 
     psi = 0.494*[#  11]+0.494*[#  15]+0.002*[#   3]+0.001*[#   7]+0.001*[#   8]
          
    |psi|^2 = 0.996
==== e(  11) =    -1.60391 eV ==== 
     psi = 0.322*[#   6]+0.299*[#  12]+0.299*[#  16]+0.023*[#  20]+0.023*[#  11]
          +0.023*[#  15]+0.004*[#   1]+0.001*[#   2]
    |psi|^2 = 0.997
==== e(  12) =    -1.34294 eV ==== 
     psi = 0.203*[#   9]+0.203*[#  10]+0.115*[#  13]+0.115*[#  14]+0.115*[#  17]
          +0.115*[#  18]+0.051*[#   7]+0.051*[#   8]+0.013*[#  12]+0.013*[#  16]
          
    |psi|^2 = 0.997
==== e(  13) =    -1.25326 eV ==== 
     psi = 0.203*[#   9]+0.203*[#  10]+0.117*[#  13]+0.117*[#  14]+0.117*[#  17]
          +0.117*[#  18]+0.061*[#   7]+0.061*[#   8]
    |psi|^2 = 0.998
==== e(  14) =     1.35470 eV ==== 
     psi = 0.896*[#  20]+0.030*[#  19]+0.016*[#   6]+0.003*[#  12]+0.003*[#  16]
          +0.001*[#   2]+0.001*[#  11]+0.001*[#  15]
    |psi|^2 = 0.957
==== e(  15) =     1.74690 eV ==== 
     psi = 0.195*[#   7]+0.195*[#   8]+0.089*[#  12]+0.089*[#  16]+0.079*[#  13]
          +0.079*[#  14]+0.079*[#  17]+0.079*[#  18]+0.046*[#   9]+0.046*[#  10]
          +0.007*[#   6]+0.004*[#   2]+0.002*[#  11]+0.002*[#  15]+0.002*[#  20]
          
    |psi|^2 = 0.993
==== e(  16) =     1.87925 eV ==== 
     psi = 0.245*[#   7]+0.245*[#   8]+0.088*[#   9]+0.088*[#  10]+0.083*[#  13]
          +0.083*[#  14]+0.083*[#  17]+0.083*[#  18]
    |psi|^2 = 0.997
==== e(  17) =     1.98223 eV ==== 
     psi = 0.376*[#  12]+0.376*[#  16]+0.034*[#  13]+0.034*[#  14]+0.034*[#  17]
          +0.034*[#  18]+0.020*[#   9]+0.020*[#  10]+0.019*[#   7]+0.019*[#   8]
          +0.003*[#   6]+0.001*[#   2]
    |psi|^2 = 0.972
==== e(  18) =     2.56567 eV ==== 
     psi = 0.145*[#   7]+0.145*[#   8]+0.124*[#  13]+0.124*[#  14]+0.124*[#  17]
          +0.124*[#  18]+0.074*[#   9]+0.074*[#  10]+0.029*[#   6]+0.008*[#  12]
          +0.008*[#  16]+0.008*[#   2]+0.004*[#  11]+0.004*[#  15]
    |psi|^2 = 0.995
==== e(  19) =     2.69814 eV ==== 
     psi = 0.166*[#  13]+0.166*[#  14]+0.166*[#  17]+0.166*[#  18]+0.105*[#   7]
          +0.105*[#   8]+0.060*[#   9]+0.060*[#  10]
    |psi|^2 = 0.995
==== e(  20) =     3.51067 eV ==== 
     psi = 0.610*[#   6]+0.150*[#  12]+0.150*[#  16]+0.012*[#  13]+0.012*[#  14]
          +0.012*[#  17]+0.012*[#  18]+0.009*[#   2]+0.005*[#  11]+0.005*[#  15]
          +0.001*[#  20]+0.001*[#   1]+0.001*[#   9]+0.001*[#  10]
    |psi|^2 = 0.982
==== e(  21) =     5.69643 eV ==== 
     psi = 0.021*[#  13]+0.021*[#  14]+0.021*[#  17]+0.021*[#  18]+0.019*[#   9]
          +0.019*[#  10]+0.014*[#   7]+0.014*[#   8]+0.009*[#  12]+0.009*[#  16]
          
    |psi|^2 = 0.169
==== e(  22) =     6.01616 eV ==== 
     psi = 0.134*[#   9]+0.134*[#  10]+0.106*[#  13]+0.106*[#  14]+0.106*[#  17]
          +0.106*[#  18]+0.072*[#   7]+0.072*[#   8]+0.003*[#  12]+0.003*[#  16]
          +0.001*[#  11]+0.001*[#  15]
    |psi|^2 = 0.848
==== e(  23) =     6.08227 eV ==== 
     psi = 0.148*[#   9]+0.148*[#  10]+0.131*[#  13]+0.131*[#  14]+0.131*[#  17]
          +0.131*[#  18]+0.088*[#   7]+0.088*[#   8]
    |psi|^2 = 0.995
==== e(  24) =     9.36074 eV ==== 
     psi = 0.271*[#   2]+0.061*[#  11]+0.061*[#  15]+0.029*[#  20]+0.002*[#  12]
          +0.002*[#  16]+0.002*[#  13]+0.002*[#  14]+0.002*[#  17]+0.002*[#  18]
          
    |psi|^2 = 0.437
==== e(  25) =    12.97203 eV ==== 
     psi = 0.003*[#  12]+0.003*[#  16]
    |psi|^2 = 0.010
==== e(  26) =    13.07431 eV ==== 
     psi = 0.365*[#   2]+0.076*[#  11]+0.076*[#  15]+0.021*[#  12]+0.021*[#  16]
          +0.012*[#  20]+0.004*[#   6]+0.002*[#  13]+0.002*[#  14]+0.002*[#  17]
          +0.002*[#  18]
    |psi|^2 = 0.586
==== e(  27) =    15.98010 eV ==== 

    |psi|^2 = 0.002

 k =   0.0909090909  0.0524863881  0.0000000000
==== e(   1) =   -92.09071 eV ==== 
     psi = 0.983*[#   1]+0.008*[#   2]+0.003*[#  12]+0.003*[#  16]
    |psi|^2 = 1.000
==== e(   2) =   -55.30254 eV ==== 
     psi = 0.997*[#   3]
    |psi|^2 = 1.000
==== e(   3) =   -55.29833 eV ==== 
     psi = 0.499*[#   4]+0.499*[#   5]
    |psi|^2 = 1.000
==== e(   4) =   -55.29508 eV ==== 
     psi = 0.499*[#   4]+0.499*[#   5]
    |psi|^2 = 1.000
==== e(   5) =   -49.76241 eV ==== 
     psi = 0.970*[#  19]+0.030*[#  20]
    |psi|^2 = 1.000
==== e(   6) =   -21.64812 eV ==== 
     psi = 1.000*[#  21]
    |psi|^2 = 1.000
==== e(   7) =   -21.58608 eV ==== 
     psi = 0.499*[#  22]+0.499*[#  23]+0.001*[#  20]
    |psi|^2 = 1.000
==== e(   8) =   -21.56718 eV ==== 
     psi = 0.500*[#  22]+0.500*[#  23]
    |psi|^2 = 1.000
==== e(   9) =   -15.33410 eV ==== 
     psi = 0.327*[#  11]+0.327*[#  15]+0.309*[#   2]+0.010*[#  12]+0.010*[#  16]
          +0.009*[#   1]+0.005*[#   6]+0.002*[#  20]
    |psi|^2 = 0.999
==== e(  10) =   -13.50884 eV ==== 
     psi = 0.493*[#  11]+0.493*[#  15]+0.003*[#   7]+0.003*[#   8]+0.002*[#   3]
          +0.001*[#   9]+0.001*[#  10]
    |psi|^2 = 0.996
==== e(  11) =    -1.55793 eV ==== 
     psi = 0.319*[#   6]+0.300*[#  12]+0.300*[#  16]+0.023*[#  11]+0.023*[#  15]
          +0.022*[#  20]+0.004*[#   1]+0.002*[#   2]
    |psi|^2 = 0.997
==== e(  12) =    -1.37942 eV ==== 
     psi = 0.200*[#   9]+0.200*[#  10]+0.115*[#  13]+0.115*[#  14]+0.115*[#  17]
          +0.115*[#  18]+0.046*[#   7]+0.046*[#   8]+0.022*[#  12]+0.022*[#  16]
          
    |psi|^2 = 0.997
==== e(  13) =    -1.22615 eV ==== 
     psi = 0.200*[#   9]+0.200*[#  10]+0.118*[#  13]+0.118*[#  14]+0.118*[#  17]
          +0.118*[#  18]+0.064*[#   7]+0.064*[#   8]
    |psi|^2 = 0.998
==== e(  14) =     1.43819 eV ==== 
     psi = 0.844*[#  20]+0.026*[#  19]+0.011*[#   7]+0.011*[#   8]+0.010*[#   6]
          +0.009*[#  13]+0.009*[#  14]+0.009*[#  17]+0.009*[#  18]+0.004*[#  12]
          +0.004*[#  16]+0.003*[#   9]+0.003*[#  10]+0.002*[#  11]+0.002*[#  15]
          
    |psi|^2 = 0.959
==== e(  15) =     1.56507 eV ==== 
     psi = 0.178*[#   7]+0.178*[#   8]+0.103*[#  13]+0.103*[#  14]+0.103*[#  17]
          +0.103*[#  18]+0.057*[#  20]+0.039*[#   9]+0.039*[#  10]+0.026*[#  12]
          +0.026*[#  16]+0.020*[#   6]+0.009*[#   2]+0.003*[#  11]+0.003*[#  15]
          +0.002*[#  19]
    |psi|^2 = 0.994
==== e(  16) =     1.75721 eV ==== 
     psi = 0.227*[#   7]+0.227*[#   8]+0.096*[#  13]+0.096*[#  14]+0.096*[#  17]
          +0.096*[#  18]+0.080*[#   9]+0.080*[#  10]
    |psi|^2 = 0.997
==== e(  17) =     2.03784 eV ==== 
     psi = 0.424*[#  12]+0.424*[#  16]+0.025*[#  13]+0.025*[#  14]+0.025*[#  17]
          +0.025*[#  18]+0.007*[#   9]+0.007*[#  10]+0.004*[#   6]+0.002*[#   2]
          +0.001*[#  11]+0.001*[#  15]
    |psi|^2 = 0.971
==== e(  18) =     2.59776 eV ==== 
     psi = 0.170*[#   7]+0.170*[#   8]+0.094*[#  13]+0.094*[#  14]+0.094*[#  17]
          +0.094*[#  18]+0.090*[#   9]+0.090*[#  10]+0.042*[#   6]+0.016*[#  12]
          +0.016*[#  16]+0.011*[#   2]+0.005*[#  11]+0.005*[#  15]
    |psi|^2 = 0.994
==== e(  19) =     2.79492 eV ==== 
     psi = 0.153*[#  13]+0.153*[#  14]+0.153*[#  17]+0.153*[#  18]+0.117*[#   7]
          +0.117*[#   8]+0.075*[#   9]+0.075*[#  10]
    |psi|^2 = 0.995
==== e(  20) =     3.52811 eV ==== 
     psi = 0.592*[#   6]+0.148*[#  12]+0.148*[#  16]+0.017*[#  13]+0.017*[#  14]
          +0.017*[#  17]+0.017*[#  18]+0.006*[#   2]+0.003*[#  11]+0.003*[#  15]
          +0.003*[#   9]+0.003*[#  10]+0.002*[#   7]+0.002*[#   8]+0.002*[#  20]
          +0.001*[#   1]
    |psi|^2 = 0.982
==== e(  21) =     5.68868 eV ==== 
     psi = 0.059*[#   9]+0.059*[#  10]+0.055*[#  13]+0.055*[#  14]+0.055*[#  17]
          +0.055*[#  18]+0.040*[#   7]+0.040*[#   8]+0.005*[#  12]+0.005*[#  16]
          +0.002*[#  11]+0.002*[#  15]
    |psi|^2 = 0.430
==== e(  22) =     5.99026 eV ==== 
     psi = 0.096*[#   9]+0.096*[#  10]+0.069*[#  13]+0.069*[#  14]+0.069*[#  17]
          +0.069*[#  18]+0.049*[#   7]+0.049*[#   8]+0.008*[#  12]+0.008*[#  16]
          +0.002*[#  11]+0.002*[#  15]
    |psi|^2 = 0.584
==== e(  23) =     6.05908 eV ==== 
     psi = 0.145*[#   9]+0.145*[#  10]+0.131*[#  13]+0.131*[#  14]+0.131*[#  17]
          +0.131*[#  18]+0.092*[#   7]+0.092*[#   8]
    |psi|^2 = 0.995
==== e(  24) =     9.47246 eV ==== 
     psi = 0.262*[#   2]+0.057*[#  11]+0.057*[#  15]+0.030*[#  20]+0.003*[#  13]
          +0.003*[#  14]+0.003*[#  17]+0.003*[#  18]+0.002*[#  12]+0.002*[#  16]
          
    |psi|^2 = 0.424
==== e(  25) =    13.07525 eV ==== 
     psi = 0.003*[#  12]+0.003*[#  16]+0.001*[#   2]+0.001*[#  11]+0.001*[#  15]
          
    |psi|^2 = 0.011
==== e(  26) =    13.19569 eV ==== 
     psi = 0.375*[#   2]+0.075*[#  11]+0.075*[#  15]+0.021*[#  12]+0.021*[#  16]
          +0.012*[#  20]+0.004*[#   6]+0.004*[#  13]+0.004*[#  14]+0.004*[#  17]
          +0.004*[#  18]
    |psi|^2 = 0.597
==== e(  27) =    16.10228 eV ==== 

    |psi|^2 = 0.003

 k =   0.1136363636  0.0656079851  0.0000000000
==== e(   1) =   -92.09050 eV ==== 
     psi = 0.983*[#   1]+0.007*[#   2]+0.003*[#  12]+0.003*[#  16]
    |psi|^2 = 1.000
==== e(   2) =   -55.30222 eV ==== 
     psi = 0.989*[#   3]+0.005*[#   4]+0.005*[#   5]
    |psi|^2 = 1.000
==== e(   3) =   -55.30068 eV ==== 
     psi = 0.494*[#   4]+0.494*[#   5]+0.009*[#   3]
    |psi|^2 = 1.000
==== e(   4) =   -55.29561 eV ==== 
     psi = 0.499*[#   4]+0.499*[#   5]
    |psi|^2 = 1.000
==== e(   5) =   -49.76088 eV ==== 
     psi = 0.973*[#  19]+0.027*[#  20]
    |psi|^2 = 1.000
==== e(   6) =   -21.64605 eV ==== 
     psi = 1.000*[#  21]
    |psi|^2 = 1.000
==== e(   7) =   -21.59911 eV ==== 
     psi = 0.499*[#  22]+0.499*[#  23]+0.002*[#  20]
    |psi|^2 = 1.000
==== e(   8) =   -21.56990 eV ==== 
     psi = 0.500*[#  22]+0.500*[#  23]
    |psi|^2 = 1.000
==== e(   9) =   -15.28362 eV ==== 
     psi = 0.331*[#  11]+0.331*[#  15]+0.300*[#   2]+0.010*[#  12]+0.010*[#  16]
          +0.009*[#   1]+0.005*[#   6]+0.002*[#  20]
    |psi|^2 = 0.999
==== e(  10) =   -13.51117 eV ==== 
     psi = 0.491*[#  11]+0.491*[#  15]+0.004*[#   7]+0.004*[#   8]+0.002*[#   9]
          +0.002*[#  10]+0.002*[#   3]
    |psi|^2 = 0.996
==== e(  11) =    -1.50163 eV ==== 
     psi = 0.308*[#   6]+0.294*[#  12]+0.294*[#  16]+0.023*[#  11]+0.023*[#  15]
          +0.021*[#  20]+0.007*[#   9]+0.007*[#  10]+0.004*[#   1]+0.003*[#  13]
          +0.003*[#  14]+0.003*[#  17]+0.003*[#  18]+0.002*[#   2]
    |psi|^2 = 0.997
==== e(  12) =    -1.41917 eV ==== 
     psi = 0.190*[#   9]+0.190*[#  10]+0.112*[#  13]+0.112*[#  14]+0.112*[#  17]
          +0.112*[#  18]+0.040*[#   7]+0.040*[#   8]+0.038*[#  12]+0.038*[#  16]
          +0.009*[#   6]+0.001*[#  11]+0.001*[#  15]
    |psi|^2 = 0.996
==== e(  13) =    -1.19218 eV ==== 
     psi = 0.195*[#   9]+0.195*[#  10]+0.119*[#  13]+0.119*[#  14]+0.119*[#  17]
          +0.119*[#  18]+0.067*[#   7]+0.067*[#   8]
    |psi|^2 = 0.998
==== e(  14) =     1.32511 eV ==== 
     psi = 0.165*[#   7]+0.165*[#   8]+0.126*[#  13]+0.126*[#  14]+0.126*[#  17]
          +0.126*[#  18]+0.034*[#  20]+0.031*[#   9]+0.031*[#  10]+0.013*[#   6]
          +0.012*[#  12]+0.012*[#  16]+0.011*[#   2]+0.006*[#  11]+0.006*[#  15]
          +0.001*[#   1]
    |psi|^2 = 0.993
==== e(  15) =     1.57146 eV ==== 
     psi = 0.869*[#  20]+0.025*[#  19]+0.025*[#   6]+0.007*[#   7]+0.007*[#   8]
          +0.003*[#   2]+0.003*[#  13]+0.003*[#  14]+0.003*[#  17]+0.003*[#  18]
          +0.003*[#  12]+0.003*[#  16]+0.001*[#   9]+0.001*[#  10]
    |psi|^2 = 0.960
==== e(  16) =     1.63542 eV ==== 
     psi = 0.214*[#   7]+0.214*[#   8]+0.105*[#  13]+0.105*[#  14]+0.105*[#  17]
          +0.105*[#  18]+0.075*[#   9]+0.075*[#  10]
    |psi|^2 = 0.997
==== e(  17) =     2.11265 eV ==== 
     psi = 0.419*[#  12]+0.419*[#  16]+0.028*[#  13]+0.028*[#  14]+0.028*[#  17]
          +0.028*[#  18]+0.006*[#   6]+0.004*[#   7]+0.004*[#   8]+0.002*[#   9]
          +0.002*[#  10]+0.002*[#   2]+0.001*[#  11]+0.001*[#  15]
    |psi|^2 = 0.973
==== e(  18) =     2.62561 eV ==== 
     psi = 0.182*[#   7]+0.182*[#   8]+0.102*[#   9]+0.102*[#  10]+0.072*[#  13]
          +0.072*[#  14]+0.072*[#  17]+0.072*[#  18]+0.053*[#   6]+0.029*[#  12]
          +0.029*[#  16]+0.013*[#   2]+0.006*[#  11]+0.006*[#  15]+0.001*[#   1]
          
    |psi|^2 = 0.993
==== e(  19) =     2.88333 eV ==== 
     psi = 0.143*[#  13]+0.143*[#  14]+0.143*[#  17]+0.143*[#  18]+0.122*[#   7]
          +0.122*[#   8]+0.089*[#   9]+0.089*[#  10]
    |psi|^2 = 0.995
==== e(  20) =     3.54087 eV ==== 
     psi = 0.575*[#   6]+0.146*[#  12]+0.146*[#  16]+0.021*[#  13]+0.021*[#  14]
          +0.021*[#  17]+0.021*[#  18]+0.006*[#   9]+0.006*[#  10]+0.004*[#   2]
          +0.003*[#   7]+0.003*[#   8]+0.002*[#  11]+0.002*[#  15]+0.002*[#  20]
          
    |psi|^2 = 0.983
==== e(  21) =     5.62250 eV ==== 
     psi = 0.104*[#   9]+0.104*[#  10]+0.087*[#  13]+0.087*[#  14]+0.087*[#  17]
          +0.087*[#  18]+0.069*[#   7]+0.069*[#   8]+0.004*[#  11]+0.004*[#  15]
          +0.001*[#  12]+0.001*[#  16]
    |psi|^2 = 0.708
==== e(  22) =     6.02345 eV ==== 
     psi = 0.052*[#   9]+0.052*[#  10]+0.031*[#  13]+0.031*[#  14]+0.031*[#  17]
          +0.031*[#  18]+0.024*[#   7]+0.024*[#   8]+0.012*[#  12]+0.012*[#  16]
          +0.001*[#  11]+0.001*[#  15]
    |psi|^2 = 0.304
==== e(  23) =     6.03224 eV ==== 
     psi = 0.141*[#   9]+0.141*[#  10]+0.130*[#  13]+0.130*[#  14]+0.130*[#  17]
          +0.130*[#  18]+0.097*[#   7]+0.097*[#   8]
    |psi|^2 = 0.995
==== e(  24) =     9.61095 eV ==== 
     psi = 0.252*[#   2]+0.052*[#  11]+0.052*[#  15]+0.030*[#  20]+0.004*[#  13]
          +0.004*[#  14]+0.004*[#  17]+0.004*[#  18]+0.002*[#  12]+0.002*[#  16]
          
    |psi|^2 = 0.408
==== e(  25) =    13.19823 eV ==== 
     psi = 0.002*[#  12]+0.002*[#  16]+0.002*[#   2]+0.001*[#  11]+0.001*[#  15]
          
    |psi|^2 = 0.014
==== e(  26) =    13.34769 eV ==== 
     psi = 0.386*[#   2]+0.073*[#  11]+0.073*[#  15]+0.020*[#  12]+0.020*[#  16]
          +0.011*[#  20]+0.006*[#  13]+0.006*[#  14]+0.006*[#  17]+0.006*[#  18]
          +0.004*[#   6]
    |psi|^2 = 0.610
==== e(  27) =    16.25714 eV ==== 

    |psi|^2 = 0.004

 k =   0.1363636364  0.0787295822  0.0000000000
==== e(   1) =   -92.09024 eV ==== 
     psi = 0.984*[#   1]+0.006*[#   2]+0.003*[#  12]+0.003*[#  16]
    |psi|^2 = 1.000
==== e(   2) =   -55.30345 eV ==== 
     psi = 0.491*[#   4]+0.491*[#   5]+0.016*[#   3]
    |psi|^2 = 1.000
==== e(   3) =   -55.30177 eV ==== 
     psi = 0.982*[#   3]+0.008*[#   4]+0.008*[#   5]
    |psi|^2 = 1.000
==== e(   4) =   -55.29627 eV ==== 
     psi = 0.499*[#   4]+0.499*[#   5]
    |psi|^2 = 1.000
==== e(   5) =   -49.75906 eV ==== 
     psi = 0.976*[#  19]+0.024*[#  20]
    |psi|^2 = 1.000
==== e(   6) =   -21.64357 eV ==== 
     psi = 1.000*[#  21]
    |psi|^2 = 1.000
==== e(   7) =   -21.61432 eV ==== 
     psi = 0.499*[#  22]+0.499*[#  23]+0.002*[#  20]
    |psi|^2 = 1.000
==== e(   8) =   -21.57318 eV ==== 
     psi = 0.500*[#  22]+0.500*[#  23]
    |psi|^2 = 1.000
==== e(   9) =   -15.22320 eV ==== 
     psi = 0.336*[#  11]+0.336*[#  15]+0.290*[#   2]+0.010*[#  12]+0.010*[#  16]
          +0.008*[#   1]+0.005*[#   6]+0.002*[#  20]
    |psi|^2 = 0.999
==== e(  10) =   -13.51422 eV ==== 
     psi = 0.488*[#  11]+0.488*[#  15]+0.005*[#   7]+0.005*[#   8]+0.003*[#   9]
          +0.003*[#  10]+0.002*[#   3]
    |psi|^2 = 0.996
==== e(  11) =    -1.47418 eV ==== 
     psi = 0.164*[#   9]+0.164*[#  10]+0.093*[#  13]+0.093*[#  14]+0.093*[#  17]
          +0.093*[#  18]+0.087*[#  12]+0.087*[#  16]+0.055*[#   6]+0.025*[#   7]
          +0.025*[#   8]+0.006*[#  11]+0.006*[#  15]+0.004*[#  20]
    |psi|^2 = 0.996
==== e(  12) =    -1.42121 eV ==== 
     psi = 0.258*[#   6]+0.256*[#  12]+0.256*[#  16]+0.029*[#   9]+0.029*[#  10]
          +0.023*[#  13]+0.023*[#  14]+0.023*[#  17]+0.023*[#  18]+0.020*[#  11]
          +0.020*[#  15]+0.016*[#  20]+0.009*[#   7]+0.009*[#   8]+0.003*[#   1]
          +0.002*[#   2]
    |psi|^2 = 0.997
==== e(  13) =    -1.15203 eV ==== 
     psi = 0.188*[#   9]+0.188*[#  10]+0.120*[#  13]+0.120*[#  14]+0.120*[#  17]
          +0.120*[#  18]+0.071*[#   7]+0.071*[#   8]
    |psi|^2 = 0.998
==== e(  14) =     1.08654 eV ==== 
     psi = 0.155*[#   7]+0.155*[#   8]+0.139*[#  13]+0.139*[#  14]+0.139*[#  17]
          +0.139*[#  18]+0.024*[#   9]+0.024*[#  10]+0.023*[#   6]+0.017*[#   2]
          +0.010*[#  20]+0.008*[#  11]+0.008*[#  15]+0.006*[#  12]+0.006*[#  16]
          +0.001*[#   1]
    |psi|^2 = 0.994
==== e(  15) =     1.51678 eV ==== 
     psi = 0.202*[#   7]+0.202*[#   8]+0.112*[#  13]+0.112*[#  14]+0.112*[#  17]
          +0.112*[#  18]+0.072*[#   9]+0.072*[#  10]
    |psi|^2 = 0.996
==== e(  16) =     1.71014 eV ==== 
     psi = 0.896*[#  20]+0.023*[#   6]+0.022*[#  19]+0.002*[#   2]+0.002*[#   7]
          +0.002*[#   8]+0.002*[#  12]+0.002*[#  16]+0.001*[#  22]+0.001*[#  23]
          
    |psi|^2 = 0.958
==== e(  17) =     2.19062 eV ==== 
     psi = 0.397*[#  12]+0.397*[#  16]+0.035*[#  13]+0.035*[#  14]+0.035*[#  17]
          +0.035*[#  18]+0.014*[#   7]+0.014*[#   8]+0.009*[#   6]+0.003*[#   2]
          +0.002*[#  11]+0.002*[#  15]
    |psi|^2 = 0.977
==== e(  18) =     2.65282 eV ==== 
     psi = 0.185*[#   7]+0.185*[#   8]+0.108*[#   9]+0.108*[#  10]+0.062*[#   6]
          +0.054*[#  13]+0.054*[#  14]+0.054*[#  17]+0.054*[#  18]+0.050*[#  12]
          +0.050*[#  16]+0.015*[#   2]+0.006*[#  11]+0.006*[#  15]+0.001*[#   1]
          
    |psi|^2 = 0.991
==== e(  19) =     2.95990 eV ==== 
     psi = 0.135*[#  13]+0.135*[#  14]+0.135*[#  17]+0.135*[#  18]+0.124*[#   7]
          +0.124*[#   8]+0.104*[#   9]+0.104*[#  10]
    |psi|^2 = 0.995
==== e(  20) =     3.54591 eV ==== 
     psi = 0.559*[#   6]+0.144*[#  12]+0.144*[#  16]+0.024*[#  13]+0.024*[#  14]
          +0.024*[#  17]+0.024*[#  18]+0.011*[#   9]+0.011*[#  10]+0.005*[#   7]
          +0.005*[#   8]+0.003*[#  20]+0.002*[#   2]+0.002*[#  11]+0.002*[#  15]
          
    |psi|^2 = 0.983
==== e(  21) =     5.51327 eV ==== 
     psi = 0.129*[#   9]+0.129*[#  10]+0.098*[#  13]+0.098*[#  14]+0.098*[#  17]
          +0.098*[#  18]+0.086*[#   7]+0.086*[#   8]+0.007*[#  11]+0.007*[#  15]
          +0.002*[#  12]+0.002*[#  16]
    |psi|^2 = 0.840
==== e(  22) =     6.00360 eV ==== 
     psi = 0.135*[#   9]+0.135*[#  10]+0.130*[#  13]+0.130*[#  14]+0.130*[#  17]
          +0.130*[#  18]+0.103*[#   7]+0.103*[#   8]
    |psi|^2 = 0.994
==== e(  23) =     6.10818 eV ==== 
     psi = 0.030*[#   9]+0.030*[#  10]+0.014*[#  13]+0.014*[#  14]+0.014*[#  17]
          +0.014*[#  18]+0.013*[#  12]+0.013*[#  16]+0.012*[#   7]+0.012*[#   8]
          
    |psi|^2 = 0.168
==== e(  24) =     9.77327 eV ==== 
     psi = 0.240*[#   2]+0.047*[#  11]+0.047*[#  15]+0.031*[#  20]+0.005*[#  13]
          +0.005*[#  14]+0.005*[#  17]+0.005*[#  18]+0.001*[#  12]+0.001*[#  16]
          
    |psi|^2 = 0.390
==== e(  25) =    13.33612 eV ==== 
     psi = 0.004*[#   2]+0.002*[#  12]+0.002*[#  16]+0.001*[#  11]+0.001*[#  15]
          
    |psi|^2 = 0.016
==== e(  26) =    13.52694 eV ==== 
     psi = 0.399*[#   2]+0.070*[#  11]+0.070*[#  15]+0.019*[#  12]+0.019*[#  16]
          +0.011*[#  20]+0.008*[#  13]+0.008*[#  14]+0.008*[#  17]+0.008*[#  18]
          +0.003*[#   6]
    |psi|^2 = 0.624
==== e(  27) =    16.44158 eV ==== 

    |psi|^2 = 0.004

 k =   0.1590909091  0.0918511792  0.0000000000
==== e(   1) =   -92.08995 eV ==== 
     psi = 0.985*[#   1]+0.004*[#   2]+0.003*[#  12]+0.003*[#  16]
    |psi|^2 = 1.000
==== e(   2) =   -55.30658 eV ==== 
     psi = 0.497*[#   4]+0.497*[#   5]+0.003*[#   3]
    |psi|^2 = 1.000
==== e(   3) =   -55.30131 eV ==== 
     psi = 0.995*[#   3]+0.001*[#   4]+0.001*[#   5]
    |psi|^2 = 1.000
==== e(   4) =   -55.29698 eV ==== 
     psi = 0.499*[#   4]+0.499*[#   5]
    |psi|^2 = 1.000
==== e(   5) =   -49.75701 eV ==== 
     psi = 0.980*[#  19]+0.020*[#  20]
    |psi|^2 = 1.000
==== e(   6) =   -21.64074 eV ==== 
     psi = 1.000*[#  21]
    |psi|^2 = 1.000
==== e(   7) =   -21.63160 eV ==== 
     psi = 0.498*[#  22]+0.498*[#  23]+0.003*[#  20]
    |psi|^2 = 1.000
==== e(   8) =   -21.57680 eV ==== 
     psi = 0.500*[#  22]+0.500*[#  23]
    |psi|^2 = 1.000
==== e(   9) =   -15.15361 eV ==== 
     psi = 0.342*[#  11]+0.342*[#  15]+0.278*[#   2]+0.010*[#  12]+0.010*[#  16]
          +0.007*[#   1]+0.004*[#   6]+0.002*[#  20]
    |psi|^2 = 0.999
==== e(  10) =   -13.51810 eV ==== 
     psi = 0.486*[#  11]+0.486*[#  15]+0.007*[#   7]+0.007*[#   8]+0.004*[#   9]
          +0.004*[#  10]+0.001*[#   3]
    |psi|^2 = 0.997
==== e(  11) =    -1.51288 eV ==== 
     psi = 0.186*[#   9]+0.186*[#  10]+0.111*[#  13]+0.111*[#  14]+0.111*[#  17]
          +0.111*[#  18]+0.058*[#  12]+0.058*[#  16]+0.025*[#   7]+0.025*[#   8]
          +0.010*[#   6]+0.003*[#  11]+0.003*[#  15]
    |psi|^2 = 0.995
==== e(  12) =    -1.34742 eV ==== 
     psi = 0.297*[#   6]+0.295*[#  12]+0.295*[#  16]+0.024*[#  11]+0.024*[#  15]
          +0.017*[#  20]+0.006*[#  13]+0.006*[#  14]+0.006*[#  17]+0.006*[#  18]
          +0.004*[#   1]+0.004*[#   2]+0.003*[#   7]+0.003*[#   8]+0.003*[#   9]
          +0.003*[#  10]
    |psi|^2 = 0.997
==== e(  13) =    -1.10654 eV ==== 
     psi = 0.181*[#   9]+0.181*[#  10]+0.121*[#  13]+0.121*[#  14]+0.121*[#  17]
          +0.121*[#  18]+0.076*[#   7]+0.076*[#   8]
    |psi|^2 = 0.998
==== e(  14) =     0.83616 eV ==== 
     psi = 0.145*[#  13]+0.145*[#  14]+0.145*[#  17]+0.145*[#  18]+0.145*[#   7]
          +0.145*[#   8]+0.031*[#   6]+0.023*[#   2]+0.017*[#   9]+0.017*[#  10]
          +0.009*[#  11]+0.009*[#  15]+0.007*[#  20]+0.004*[#  12]+0.004*[#  16]
          +0.002*[#   1]
    |psi|^2 = 0.994
==== e(  15) =     1.40350 eV ==== 
     psi = 0.191*[#   7]+0.191*[#   8]+0.119*[#  13]+0.119*[#  14]+0.119*[#  17]
          +0.119*[#  18]+0.069*[#   9]+0.069*[#  10]
    |psi|^2 = 0.996
==== e(  16) =     1.87573 eV ==== 
     psi = 0.902*[#  20]+0.024*[#   6]+0.019*[#  19]+0.002*[#   2]+0.001*[#  22]
          +0.001*[#  23]+0.001*[#   7]+0.001*[#   8]+0.001*[#  12]+0.001*[#  16]
          
    |psi|^2 = 0.958
==== e(  17) =     2.26077 eV ==== 
     psi = 0.362*[#  12]+0.362*[#  16]+0.044*[#  13]+0.044*[#  14]+0.044*[#  17]
          +0.044*[#  18]+0.029*[#   7]+0.029*[#   8]+0.015*[#   6]+0.004*[#   2]
          +0.002*[#  11]+0.002*[#  15]
    |psi|^2 = 0.981
==== e(  18) =     2.68297 eV ==== 
     psi = 0.180*[#   7]+0.180*[#   8]+0.109*[#   9]+0.109*[#  10]+0.079*[#  12]
          +0.079*[#  16]+0.068*[#   6]+0.039*[#  13]+0.039*[#  14]+0.039*[#  17]
          +0.039*[#  18]+0.015*[#   2]+0.006*[#  11]+0.006*[#  15]+0.001*[#   1]
          
    |psi|^2 = 0.989
==== e(  19) =     3.02210 eV ==== 
     psi = 0.127*[#  13]+0.127*[#  14]+0.127*[#  17]+0.127*[#  18]+0.122*[#   7]
          +0.122*[#   8]+0.120*[#   9]+0.120*[#  10]
    |psi|^2 = 0.995
==== e(  20) =     3.54115 eV ==== 
     psi = 0.544*[#   6]+0.140*[#  12]+0.140*[#  16]+0.026*[#  13]+0.026*[#  14]
          +0.026*[#  17]+0.026*[#  18]+0.017*[#   9]+0.017*[#  10]+0.006*[#   7]
          +0.006*[#   8]+0.005*[#  20]+0.001*[#   2]+0.001*[#  11]+0.001*[#  15]
          
    |psi|^2 = 0.984
==== e(  21) =     5.38777 eV ==== 
     psi = 0.141*[#   9]+0.141*[#  10]+0.097*[#  13]+0.097*[#  14]+0.097*[#  17]
          +0.097*[#  18]+0.096*[#   7]+0.096*[#   8]+0.009*[#  11]+0.009*[#  15]
          +0.005*[#  12]+0.005*[#  16]+0.002*[#   6]+0.001*[#   2]
    |psi|^2 = 0.896
==== e(  22) =     5.97541 eV ==== 
     psi = 0.129*[#  13]+0.129*[#  14]+0.129*[#  17]+0.129*[#  18]+0.129*[#   9]
          +0.129*[#  10]+0.110*[#   7]+0.110*[#   8]
    |psi|^2 = 0.994
==== e(  23) =     6.22627 eV ==== 
     psi = 0.020*[#   9]+0.020*[#  10]+0.013*[#  12]+0.013*[#  16]+0.007*[#  13]
          +0.007*[#  14]+0.007*[#  17]+0.007*[#  18]+0.007*[#   7]+0.007*[#   8]
          
    |psi|^2 = 0.109
==== e(  24) =     9.95663 eV ==== 
     psi = 0.228*[#   2]+0.041*[#  11]+0.041*[#  15]+0.032*[#  20]+0.006*[#  13]
          +0.006*[#  14]+0.006*[#  17]+0.006*[#  18]+0.001*[#  12]+0.001*[#  16]
          
    |psi|^2 = 0.370
==== e(  25) =    13.48473 eV ==== 
     psi = 0.004*[#   2]+0.002*[#  12]+0.002*[#  16]+0.001*[#  11]+0.001*[#  15]
          
    |psi|^2 = 0.016
==== e(  26) =    13.72872 eV ==== 
     psi = 0.414*[#   2]+0.068*[#  11]+0.068*[#  15]+0.018*[#  12]+0.018*[#  16]
          +0.010*[#  20]+0.010*[#  13]+0.010*[#  14]+0.010*[#  17]+0.010*[#  18]
          +0.003*[#   6]
    |psi|^2 = 0.639
==== e(  27) =    16.35751 eV ==== 

    |psi|^2 = 0.001

 k =   0.1818181818  0.1049727762  0.0000000000
==== e(   1) =   -92.08965 eV ==== 
     psi = 0.986*[#   1]+0.003*[#   2]+0.003*[#  12]+0.003*[#  16]
    |psi|^2 = 1.000
==== e(   2) =   -55.31012 eV ==== 
     psi = 0.498*[#   4]+0.498*[#   5]+0.002*[#   3]+0.001*[#   2]
    |psi|^2 = 1.000
==== e(   3) =   -55.30087 eV ==== 
     psi = 0.996*[#   3]
    |psi|^2 = 1.000
==== e(   4) =   -55.29784 eV ==== 
     psi = 0.499*[#   4]+0.499*[#   5]
    |psi|^2 = 1.000
==== e(   5) =   -49.75480 eV ==== 
     psi = 0.984*[#  19]+0.016*[#  20]
    |psi|^2 = 1.000
==== e(   6) =   -21.65066 eV ==== 
     psi = 0.498*[#  22]+0.498*[#  23]+0.004*[#  20]
    |psi|^2 = 1.000
==== e(   7) =   -21.63779 eV ==== 
     psi = 1.000*[#  21]
    |psi|^2 = 1.000
==== e(   8) =   -21.58094 eV ==== 
     psi = 0.500*[#  22]+0.500*[#  23]
    |psi|^2 = 1.000
==== e(   9) =   -15.07578 eV ==== 
     psi = 0.349*[#  11]+0.349*[#  15]+0.264*[#   2]+0.010*[#  12]+0.010*[#  16]
          +0.006*[#   1]+0.004*[#   6]+0.002*[#  20]
    |psi|^2 = 0.999
==== e(  10) =   -13.52296 eV ==== 
     psi = 0.483*[#  11]+0.483*[#  15]+0.009*[#   7]+0.009*[#   8]+0.005*[#   9]
          +0.005*[#  10]+0.001*[#   3]
    |psi|^2 = 0.997
==== e(  11) =    -1.55358 eV ==== 
     psi = 0.184*[#   9]+0.184*[#  10]+0.113*[#  13]+0.113*[#  14]+0.113*[#  17]
          +0.113*[#  18]+0.063*[#  12]+0.063*[#  16]+0.019*[#   7]+0.019*[#   8]
          +0.006*[#   6]+0.003*[#  11]+0.003*[#  15]
    |psi|^2 = 0.994
==== e(  12) =    -1.26277 eV ==== 
     psi = 0.298*[#  12]+0.298*[#  16]+0.292*[#   6]+0.025*[#  11]+0.025*[#  15]
          +0.015*[#  20]+0.007*[#  13]+0.007*[#  14]+0.007*[#  17]+0.007*[#  18]
          +0.005*[#   2]+0.004*[#   1]+0.004*[#   7]+0.004*[#   8]+0.001*[#   9]
          +0.001*[#  10]
    |psi|^2 = 0.997
==== e(  13) =    -1.05684 eV ==== 
     psi = 0.172*[#   9]+0.172*[#  10]+0.122*[#  13]+0.122*[#  14]+0.122*[#  17]
          +0.122*[#  18]+0.082*[#   7]+0.082*[#   8]
    |psi|^2 = 0.998
==== e(  14) =     0.58426 eV ==== 
     psi = 0.149*[#  13]+0.149*[#  14]+0.149*[#  17]+0.149*[#  18]+0.136*[#   7]
          +0.136*[#   8]+0.042*[#   6]+0.028*[#   2]+0.011*[#   9]+0.011*[#  10]
          +0.010*[#  11]+0.010*[#  15]+0.006*[#  20]+0.003*[#  12]+0.003*[#  16]
          +0.002*[#   1]
    |psi|^2 = 0.994
==== e(  15) =     1.29741 eV ==== 
     psi = 0.180*[#   7]+0.180*[#   8]+0.124*[#  13]+0.124*[#  14]+0.124*[#  17]
          +0.124*[#  18]+0.068*[#   9]+0.068*[#  10]
    |psi|^2 = 0.996
==== e(  16) =     2.06545 eV ==== 
     psi = 0.906*[#  20]+0.027*[#   6]+0.015*[#  19]+0.002*[#   2]+0.002*[#  22]
          +0.002*[#  23]
    |psi|^2 = 0.959
==== e(  17) =     2.31367 eV ==== 
     psi = 0.318*[#  12]+0.318*[#  16]+0.053*[#  13]+0.053*[#  14]+0.053*[#  17]
          +0.053*[#  18]+0.046*[#   7]+0.046*[#   8]+0.021*[#   6]+0.006*[#   9]
          +0.006*[#  10]+0.006*[#   2]+0.003*[#  11]+0.003*[#  15]
    |psi|^2 = 0.986
==== e(  18) =     2.71784 eV ==== 
     psi = 0.169*[#   7]+0.169*[#   8]+0.116*[#  12]+0.116*[#  16]+0.102*[#   9]
          +0.102*[#  10]+0.071*[#   6]+0.029*[#  13]+0.029*[#  14]+0.029*[#  17]
          +0.029*[#  18]+0.015*[#   2]+0.006*[#  11]+0.006*[#  15]
    |psi|^2 = 0.987
==== e(  19) =     3.06790 eV ==== 
     psi = 0.137*[#   9]+0.137*[#  10]+0.120*[#  13]+0.120*[#  14]+0.120*[#  17]
          +0.120*[#  18]+0.119*[#   7]+0.119*[#   8]
    |psi|^2 = 0.995
==== e(  20) =     3.52523 eV ==== 
     psi = 0.528*[#   6]+0.136*[#  12]+0.136*[#  16]+0.027*[#  13]+0.027*[#  14]
          +0.027*[#  17]+0.027*[#  18]+0.025*[#   9]+0.025*[#  10]+0.007*[#   7]
          +0.007*[#   8]+0.007*[#  20]
    |psi|^2 = 0.984
==== e(  21) =     5.26362 eV ==== 
     psi = 0.149*[#   9]+0.149*[#  10]+0.105*[#   7]+0.105*[#   8]+0.091*[#  13]
          +0.091*[#  14]+0.091*[#  17]+0.091*[#  18]+0.012*[#  11]+0.012*[#  15]
          +0.012*[#  12]+0.012*[#  16]+0.004*[#   6]+0.002*[#   2]
    |psi|^2 = 0.923
==== e(  22) =     5.94959 eV ==== 
     psi = 0.129*[#  13]+0.129*[#  14]+0.129*[#  17]+0.129*[#  18]+0.121*[#   9]
          +0.121*[#  10]+0.118*[#   7]+0.118*[#   8]
    |psi|^2 = 0.994
==== e(  23) =     6.36971 eV ==== 
     psi = 0.014*[#   9]+0.014*[#  10]+0.013*[#  12]+0.013*[#  16]+0.004*[#   7]
          +0.004*[#   8]+0.004*[#  13]+0.004*[#  14]+0.004*[#  17]+0.004*[#  18]
          
    |psi|^2 = 0.079
==== e(  24) =    10.15852 eV ==== 
     psi = 0.216*[#   2]+0.036*[#  11]+0.036*[#  15]+0.032*[#  20]+0.007*[#  13]
          +0.007*[#  14]+0.007*[#  17]+0.007*[#  18]
    |psi|^2 = 0.350
==== e(  25) =    13.64036 eV ==== 
     psi = 0.005*[#   2]+0.002*[#  12]+0.002*[#  16]+0.001*[#  11]+0.001*[#  15]
          
    |psi|^2 = 0.016
==== e(  26) =    13.94595 eV ==== 
     psi = 0.430*[#   2]+0.064*[#  11]+0.064*[#  15]+0.018*[#  12]+0.018*[#  16]
          +0.012*[#  13]+0.012*[#  14]+0.012*[#  17]+0.012*[#  18]+0.010*[#  20]
          +0.002*[#   6]
    |psi|^2 = 0.654
==== e(  27) =    15.67172 eV ==== 
     psi = 0.002*[#   2]
    |psi|^2 = 0.004

 k =   0.2045454545  0.1180943732  0.0000000000
==== e(   1) =   -92.08932 eV ==== 
     psi = 0.986*[#   1]+0.003*[#  12]+0.003*[#  16]+0.002*[#   2]+0.001*[#  13]
          +0.001*[#  14]+0.001*[#  17]+0.001*[#  18]
    |psi|^2 = 1.000
==== e(   2) =   -55.31379 eV ==== 
     psi = 0.498*[#   4]+0.498*[#   5]+0.001*[#   2]+0.001*[#   3]
    |psi|^2 = 1.000
==== e(   3) =   -55.30037 eV ==== 
     psi = 0.997*[#   3]
    |psi|^2 = 1.000
==== e(   4) =   -55.29871 eV ==== 
     psi = 0.499*[#   4]+0.499*[#   5]
    |psi|^2 = 1.000
==== e(   5) =   -49.75241 eV ==== 
     psi = 0.987*[#  19]+0.012*[#  20]
    |psi|^2 = 1.000
==== e(   6) =   -21.67070 eV ==== 
     psi = 0.498*[#  22]+0.498*[#  23]+0.004*[#  20]
    |psi|^2 = 1.000
==== e(   7) =   -21.63459 eV ==== 
     psi = 1.000*[#  21]
    |psi|^2 = 1.000
==== e(   8) =   -21.58525 eV ==== 
     psi = 0.500*[#  22]+0.500*[#  23]
    |psi|^2 = 1.000
==== e(   9) =   -14.99076 eV ==== 
     psi = 0.357*[#  11]+0.357*[#  15]+0.249*[#   2]+0.010*[#  12]+0.010*[#  16]
          +0.005*[#   1]+0.004*[#   6]+0.002*[#  20]
    |psi|^2 = 0.999
==== e(  10) =   -13.52893 eV ==== 
     psi = 0.481*[#  11]+0.481*[#  15]+0.010*[#   7]+0.010*[#   8]+0.006*[#   9]
          +0.006*[#  10]+0.001*[#   3]
    |psi|^2 = 0.997
==== e(  11) =    -1.59185 eV ==== 
     psi = 0.180*[#   9]+0.180*[#  10]+0.114*[#  13]+0.114*[#  14]+0.114*[#  17]
          +0.114*[#  18]+0.070*[#  12]+0.070*[#  16]+0.013*[#   7]+0.013*[#   8]
          +0.005*[#   6]+0.004*[#  11]+0.004*[#  15]
    |psi|^2 = 0.993
==== e(  12) =    -1.17474 eV ==== 
     psi = 0.296*[#  12]+0.296*[#  16]+0.277*[#   6]+0.026*[#  11]+0.026*[#  15]
          +0.013*[#  20]+0.010*[#  13]+0.010*[#  14]+0.010*[#  17]+0.010*[#  18]
          +0.007*[#   2]+0.006*[#   7]+0.006*[#   8]+0.004*[#   1]
    |psi|^2 = 0.996
==== e(  13) =    -1.00417 eV ==== 
     psi = 0.162*[#   9]+0.162*[#  10]+0.123*[#  13]+0.123*[#  14]+0.123*[#  17]
          +0.123*[#  18]+0.090*[#   7]+0.090*[#   8]
    |psi|^2 = 0.998
==== e(  14) =     0.34066 eV ==== 
     psi = 0.149*[#  13]+0.149*[#  14]+0.149*[#  17]+0.149*[#  18]+0.128*[#   7]
          +0.128*[#   8]+0.057*[#   6]+0.033*[#   2]+0.009*[#  11]+0.009*[#  15]
          +0.006*[#   9]+0.006*[#  10]+0.006*[#  12]+0.006*[#  16]+0.005*[#  20]
          +0.002*[#   1]
    |psi|^2 = 0.994
==== e(  15) =     1.20034 eV ==== 
     psi = 0.169*[#   7]+0.169*[#   8]+0.130*[#  13]+0.130*[#  14]+0.130*[#  17]
          +0.130*[#  18]+0.068*[#   9]+0.068*[#  10]
    |psi|^2 = 0.995
==== e(  16) =     2.27633 eV ==== 
     psi = 0.881*[#  20]+0.041*[#   6]+0.011*[#  19]+0.007*[#  12]+0.007*[#  16]
          +0.003*[#   2]+0.002*[#  22]+0.002*[#  23]+0.002*[#  13]+0.002*[#  14]
          +0.002*[#  17]+0.002*[#  18]
    |psi|^2 = 0.961
==== e(  17) =     2.34515 eV ==== 
     psi = 0.269*[#  12]+0.269*[#  16]+0.060*[#   7]+0.060*[#   8]+0.060*[#  13]
          +0.060*[#  14]+0.060*[#  17]+0.060*[#  18]+0.026*[#  20]+0.019*[#   6]
          +0.016*[#   9]+0.016*[#  10]+0.006*[#   2]+0.003*[#  11]+0.003*[#  15]
          
    |psi|^2 = 0.987
==== e(  18) =     2.75492 eV ==== 
     psi = 0.158*[#   7]+0.158*[#   8]+0.148*[#  12]+0.148*[#  16]+0.089*[#   9]
          +0.089*[#  10]+0.075*[#   6]+0.023*[#  13]+0.023*[#  14]+0.023*[#  17]
          +0.023*[#  18]+0.014*[#   2]+0.006*[#  11]+0.006*[#  15]
    |psi|^2 = 0.987
==== e(  19) =     3.09592 eV ==== 
     psi = 0.156*[#   9]+0.156*[#  10]+0.114*[#   7]+0.114*[#   8]+0.113*[#  13]
          +0.113*[#  14]+0.113*[#  17]+0.113*[#  18]
    |psi|^2 = 0.995
==== e(  20) =     3.49802 eV ==== 
     psi = 0.510*[#   6]+0.130*[#  12]+0.130*[#  16]+0.036*[#   9]+0.036*[#  10]
          +0.028*[#  13]+0.028*[#  14]+0.028*[#  17]+0.028*[#  18]+0.011*[#  20]
          +0.008*[#   7]+0.008*[#   8]
    |psi|^2 = 0.984
==== e(  21) =     5.15416 eV ==== 
     psi = 0.153*[#   9]+0.153*[#  10]+0.112*[#   7]+0.112*[#   8]+0.081*[#  13]
          +0.081*[#  14]+0.081*[#  17]+0.081*[#  18]+0.022*[#  12]+0.022*[#  16]
          +0.014*[#  11]+0.014*[#  15]+0.006*[#   6]+0.002*[#   2]
    |psi|^2 = 0.938
==== e(  22) =     5.92813 eV ==== 
     psi = 0.129*[#  13]+0.129*[#  14]+0.129*[#  17]+0.129*[#  18]+0.127*[#   7]
          +0.127*[#   8]+0.113*[#   9]+0.113*[#  10]
    |psi|^2 = 0.994
==== e(  23) =     6.53608 eV ==== 
     psi = 0.012*[#  12]+0.012*[#  16]+0.011*[#   9]+0.011*[#  10]+0.003*[#   7]
          +0.003*[#   8]+0.002*[#  13]+0.002*[#  14]+0.002*[#  17]+0.002*[#  18]
          
    |psi|^2 = 0.061
==== e(  24) =    10.37665 eV ==== 
     psi = 0.203*[#   2]+0.033*[#  20]+0.030*[#  11]+0.030*[#  15]+0.007*[#  13]
          +0.007*[#  14]+0.007*[#  17]+0.007*[#  18]
    |psi|^2 = 0.328
==== e(  25) =    13.80005 eV ==== 
     psi = 0.005*[#   2]+0.002*[#  12]+0.002*[#  16]+0.001*[#  11]+0.001*[#  15]
          
    |psi|^2 = 0.015
==== e(  26) =    14.16036 eV ==== 
     psi = 0.435*[#   2]+0.058*[#  11]+0.058*[#  15]+0.016*[#  12]+0.016*[#  16]
          +0.014*[#  13]+0.014*[#  14]+0.014*[#  17]+0.014*[#  18]+0.009*[#  20]
          +0.002*[#   6]
    |psi|^2 = 0.651
==== e(  27) =    15.01228 eV ==== 
     psi = 0.016*[#   2]+0.002*[#  11]+0.002*[#  15]
    |psi|^2 = 0.024

 k =   0.2272727273  0.1312159703  0.0000000000
==== e(   1) =   -92.08898 eV ==== 
     psi = 0.987*[#   1]+0.002*[#  12]+0.002*[#  16]+0.001*[#  13]+0.001*[#  14]
          +0.001*[#  17]+0.001*[#  18]+0.001*[#   2]
    |psi|^2 = 1.000
==== e(   2) =   -55.31762 eV ==== 
     psi = 0.497*[#   4]+0.497*[#   5]+0.001*[#   2]
    |psi|^2 = 1.000
==== e(   3) =   -55.29982 eV ==== 
     psi = 0.997*[#   3]
    |psi|^2 = 1.000
==== e(   4) =   -55.29962 eV ==== 
     psi = 0.499*[#   4]+0.499*[#   5]
    |psi|^2 = 1.000
==== e(   5) =   -49.74991 eV ==== 
     psi = 0.991*[#  19]+0.009*[#  20]
    |psi|^2 = 1.000
==== e(   6) =   -21.69153 eV ==== 
     psi = 0.498*[#  22]+0.498*[#  23]+0.005*[#  20]
    |psi|^2 = 1.000
==== e(   7) =   -21.63120 eV ==== 
     psi = 1.000*[#  21]
    |psi|^2 = 1.000
==== e(   8) =   -21.58977 eV ==== 
     psi = 0.500*[#  22]+0.500*[#  23]
    |psi|^2 = 1.000
==== e(   9) =   -14.89971 eV ==== 
     psi = 0.365*[#  11]+0.365*[#  15]+0.231*[#   2]+0.009*[#  12]+0.009*[#  16]
          +0.005*[#   1]+0.003*[#   6]+0.002*[#  20]+0.001*[#  13]+0.001*[#  14]
          +0.001*[#  17]+0.001*[#  18]
    |psi|^2 = 0.999
==== e(  10) =   -13.53617 eV ==== 
     psi = 0.478*[#  11]+0.478*[#  15]+0.012*[#   7]+0.012*[#   8]+0.008*[#   9]
          +0.008*[#  10]+0.001*[#   3]
    |psi|^2 = 0.997
==== e(  11) =    -1.62801 eV ==== 
     psi = 0.175*[#   9]+0.175*[#  10]+0.115*[#  13]+0.115*[#  14]+0.115*[#  17]
          +0.115*[#  18]+0.077*[#  12]+0.077*[#  16]+0.007*[#   7]+0.007*[#   8]
          +0.005*[#   6]+0.004*[#  11]+0.004*[#  15]
    |psi|^2 = 0.993
==== e(  12) =    -1.09037 eV ==== 
     psi = 0.288*[#  12]+0.288*[#  16]+0.252*[#   6]+0.027*[#  11]+0.027*[#  15]
          +0.017*[#  13]+0.017*[#  14]+0.017*[#  17]+0.017*[#  18]+0.011*[#   2]
          +0.010*[#  20]+0.010*[#   7]+0.010*[#   8]+0.004*[#   1]
    |psi|^2 = 0.996
==== e(  13) =    -0.95005 eV ==== 
     psi = 0.151*[#   9]+0.151*[#  10]+0.125*[#  13]+0.125*[#  14]+0.125*[#  17]
          +0.125*[#  18]+0.099*[#   7]+0.099*[#   8]
    |psi|^2 = 0.998
==== e(  14) =     0.11775 eV ==== 
     psi = 0.145*[#  13]+0.145*[#  14]+0.145*[#  17]+0.145*[#  18]+0.118*[#   7]
          +0.118*[#   8]+0.081*[#   6]+0.035*[#   2]+0.015*[#  12]+0.015*[#  16]
          +0.008*[#  11]+0.008*[#  15]+0.006*[#  20]+0.003*[#   9]+0.003*[#  10]
          +0.002*[#   1]
    |psi|^2 = 0.994
==== e(  15) =     1.11393 eV ==== 
     psi = 0.156*[#   7]+0.156*[#   8]+0.136*[#  13]+0.136*[#  14]+0.136*[#  17]
          +0.136*[#  18]+0.068*[#   9]+0.068*[#  10]
    |psi|^2 = 0.995
==== e(  16) =     2.34530 eV ==== 
     psi = 0.239*[#  12]+0.239*[#  16]+0.067*[#  13]+0.067*[#  14]+0.067*[#  17]
          +0.067*[#  18]+0.062*[#   7]+0.062*[#   8]+0.041*[#   6]+0.025*[#   9]
          +0.025*[#  10]+0.014*[#  20]+0.009*[#   2]+0.003*[#  11]+0.003*[#  15]
          
    |psi|^2 = 0.992
==== e(  17) =     2.51445 eV ==== 
     psi = 0.886*[#  20]+0.033*[#   6]+0.008*[#  19]+0.005*[#  12]+0.005*[#  16]
          +0.003*[#   7]+0.003*[#   8]+0.002*[#  22]+0.002*[#  23]+0.002*[#  13]
          +0.002*[#  14]+0.002*[#  17]+0.002*[#  18]+0.001*[#  11]+0.001*[#  15]
          
    |psi|^2 = 0.959
==== e(  18) =     2.78693 eV ==== 
     psi = 0.165*[#  12]+0.165*[#  16]+0.156*[#   7]+0.156*[#   8]+0.085*[#   6]
          +0.072*[#   9]+0.072*[#  10]+0.021*[#  13]+0.021*[#  14]+0.021*[#  17]
          +0.021*[#  18]+0.014*[#   2]+0.007*[#  11]+0.007*[#  15]+0.003*[#  20]
          
    |psi|^2 = 0.988
==== e(  19) =     3.10548 eV ==== 
     psi = 0.176*[#   9]+0.176*[#  10]+0.108*[#   7]+0.108*[#   8]+0.106*[#  13]
          +0.106*[#  14]+0.106*[#  17]+0.106*[#  18]
    |psi|^2 = 0.995
==== e(  20) =     3.46125 eV ==== 
     psi = 0.485*[#   6]+0.124*[#  12]+0.124*[#  16]+0.049*[#   9]+0.049*[#  10]
          +0.028*[#  13]+0.028*[#  14]+0.028*[#  17]+0.028*[#  18]+0.021*[#  20]
          +0.009*[#   7]+0.009*[#   8]
    |psi|^2 = 0.983
==== e(  21) =     5.07003 eV ==== 
     psi = 0.155*[#   9]+0.155*[#  10]+0.119*[#   7]+0.119*[#   8]+0.070*[#  13]
          +0.070*[#  14]+0.070*[#  17]+0.070*[#  18]+0.038*[#  12]+0.038*[#  16]
          +0.016*[#  11]+0.016*[#  15]+0.010*[#   6]+0.002*[#   2]
    |psi|^2 = 0.947
==== e(  22) =     5.91231 eV ==== 
     psi = 0.136*[#   7]+0.136*[#   8]+0.129*[#  13]+0.129*[#  14]+0.129*[#  17]
          +0.129*[#  18]+0.104*[#   9]+0.104*[#  10]
    |psi|^2 = 0.994
==== e(  23) =     6.72433 eV ==== 
     psi = 0.010*[#  12]+0.010*[#  16]+0.009*[#   9]+0.009*[#  10]+0.002*[#   7]
          +0.002*[#   8]+0.001*[#  13]+0.001*[#  14]+0.001*[#  17]+0.001*[#  18]
          
    |psi|^2 = 0.048
==== e(  24) =    10.60861 eV ==== 
     psi = 0.190*[#   2]+0.034*[#  20]+0.025*[#  11]+0.025*[#  15]+0.007*[#  13]
          +0.007*[#  14]+0.007*[#  17]+0.007*[#  18]
    |psi|^2 = 0.306
==== e(  25) =    13.96027 eV ==== 
     psi = 0.002*[#   2]+0.002*[#  12]+0.002*[#  16]
    |psi|^2 = 0.011
==== e(  26) =    14.16501 eV ==== 
     psi = 0.177*[#   2]+0.021*[#  11]+0.021*[#  15]+0.006*[#  13]+0.006*[#  14]
          +0.006*[#  17]+0.006*[#  18]+0.006*[#  12]+0.006*[#  16]+0.005*[#  20]
          
    |psi|^2 = 0.260
==== e(  27) =    14.58783 eV ==== 
     psi = 0.295*[#   2]+0.035*[#  11]+0.035*[#  15]+0.010*[#  13]+0.010*[#  14]
          +0.010*[#  17]+0.010*[#  18]+0.010*[#  12]+0.010*[#  16]+0.004*[#  20]
          +0.001*[#   6]
    |psi|^2 = 0.435

 k =   0.2500000000  0.1443375673  0.0000000000
==== e(   1) =   -92.08862 eV ==== 
     psi = 0.987*[#   1]+0.002*[#  12]+0.002*[#  16]+0.002*[#  13]+0.002*[#  14]
          +0.002*[#  17]+0.002*[#  18]
    |psi|^2 = 1.000
==== e(   2) =   -55.32149 eV ==== 
     psi = 0.497*[#   4]+0.497*[#   5]+0.001*[#   2]
    |psi|^2 = 1.000
==== e(   3) =   -55.30060 eV ==== 
     psi = 0.499*[#   4]+0.499*[#   5]
    |psi|^2 = 1.000
==== e(   4) =   -55.29923 eV ==== 
     psi = 0.997*[#   3]
    |psi|^2 = 1.000
==== e(   5) =   -49.74736 eV ==== 
     psi = 0.995*[#  19]+0.005*[#  20]
    |psi|^2 = 1.000
==== e(   6) =   -21.71264 eV ==== 
     psi = 0.498*[#  22]+0.498*[#  23]+0.005*[#  20]
    |psi|^2 = 1.000
==== e(   7) =   -21.62767 eV ==== 
     psi = 1.000*[#  21]
    |psi|^2 = 1.000
==== e(   8) =   -21.59447 eV ==== 
     psi = 0.500*[#  22]+0.500*[#  23]
    |psi|^2 = 1.000
==== e(   9) =   -14.80392 eV ==== 
     psi = 0.375*[#  11]+0.375*[#  15]+0.213*[#   2]+0.009*[#  12]+0.009*[#  16]
          +0.004*[#   1]+0.003*[#   6]+0.001*[#  20]+0.001*[#  13]+0.001*[#  14]
          +0.001*[#  17]+0.001*[#  18]+0.001*[#   4]+0.001*[#   5]
    |psi|^2 = 0.999
==== e(  10) =   -13.54488 eV ==== 
     psi = 0.476*[#  11]+0.476*[#  15]+0.013*[#   7]+0.013*[#   8]+0.009*[#   9]
          +0.009*[#  10]+0.001*[#   3]
    |psi|^2 = 0.997
==== e(  11) =    -1.66457 eV ==== 
     psi = 0.169*[#   9]+0.169*[#  10]+0.116*[#  13]+0.116*[#  14]+0.116*[#  17]
          +0.116*[#  18]+0.083*[#  12]+0.083*[#  16]+0.006*[#  11]+0.006*[#  15]
          +0.005*[#   6]+0.002*[#   2]+0.002*[#   7]+0.002*[#   8]
    |psi|^2 = 0.992
==== e(  12) =    -1.02137 eV ==== 
     psi = 0.267*[#  12]+0.267*[#  16]+0.210*[#   6]+0.031*[#  13]+0.031*[#  14]
          +0.031*[#  17]+0.031*[#  18]+0.029*[#  11]+0.029*[#  15]+0.019*[#   7]
          +0.019*[#   8]+0.018*[#   2]+0.007*[#  20]+0.004*[#   1]
    |psi|^2 = 0.995
==== e(  13) =    -0.89624 eV ==== 
     psi = 0.139*[#   9]+0.139*[#  10]+0.125*[#  13]+0.125*[#  14]+0.125*[#  17]
          +0.125*[#  18]+0.109*[#   7]+0.109*[#   8]
    |psi|^2 = 0.998
==== e(  14) =    -0.06640 eV ==== 
     psi = 0.133*[#  13]+0.133*[#  14]+0.133*[#  17]+0.133*[#  18]+0.120*[#   6]
          +0.105*[#   7]+0.105*[#   8]+0.038*[#  12]+0.038*[#  16]+0.034*[#   2]
          +0.007*[#  20]+0.006*[#  11]+0.006*[#  15]+0.001*[#   1]
    |psi|^2 = 0.994
==== e(  15) =     1.03986 eV ==== 
     psi = 0.143*[#  13]+0.143*[#  14]+0.143*[#  17]+0.143*[#  18]+0.142*[#   7]
          +0.142*[#   8]+0.068*[#   9]+0.068*[#  10]
    |psi|^2 = 0.994
==== e(  16) =     2.32578 eV ==== 
     psi = 0.225*[#  12]+0.225*[#  16]+0.075*[#  13]+0.075*[#  14]+0.075*[#  17]
          +0.075*[#  18]+0.059*[#   7]+0.059*[#   8]+0.036*[#   6]+0.035*[#   9]
          +0.035*[#  10]+0.009*[#   2]+0.005*[#  20]+0.002*[#  11]+0.002*[#  15]
          
    |psi|^2 = 0.993
==== e(  17) =     2.75769 eV ==== 
     psi = 0.739*[#  20]+0.114*[#   6]+0.033*[#  12]+0.033*[#  16]+0.009*[#   7]
          +0.009*[#   8]+0.004*[#   2]+0.004*[#  13]+0.004*[#  14]+0.004*[#  17]
          +0.004*[#  18]+0.004*[#  19]+0.002*[#  22]+0.002*[#  23]+0.002*[#   9]
          +0.002*[#  10]
    |psi|^2 = 0.968
==== e(  18) =     2.81216 eV ==== 
     psi = 0.155*[#   7]+0.155*[#   8]+0.138*[#  20]+0.133*[#  12]+0.133*[#  16]
          +0.056*[#   9]+0.056*[#  10]+0.051*[#   6]+0.019*[#  13]+0.019*[#  14]
          +0.019*[#  17]+0.019*[#  18]+0.011*[#   2]+0.008*[#  11]+0.008*[#  15]
          
    |psi|^2 = 0.982
==== e(  19) =     3.09671 eV ==== 
     psi = 0.198*[#   9]+0.198*[#  10]+0.102*[#   7]+0.102*[#   8]+0.098*[#  13]
          +0.098*[#  14]+0.098*[#  17]+0.098*[#  18]
    |psi|^2 = 0.995
==== e(  20) =     3.42103 eV ==== 
     psi = 0.443*[#   6]+0.118*[#  12]+0.118*[#  16]+0.063*[#   9]+0.063*[#  10]
          +0.046*[#  20]+0.026*[#  13]+0.026*[#  14]+0.026*[#  17]+0.026*[#  18]
          +0.011*[#   7]+0.011*[#   8]
    |psi|^2 = 0.982
==== e(  21) =     5.01841 eV ==== 
     psi = 0.155*[#   9]+0.155*[#  10]+0.123*[#   7]+0.123*[#   8]+0.058*[#  12]
          +0.058*[#  16]+0.058*[#  13]+0.058*[#  14]+0.058*[#  17]+0.058*[#  18]
          +0.018*[#  11]+0.018*[#  15]+0.014*[#   6]+0.002*[#   2]
    |psi|^2 = 0.955
==== e(  22) =     5.90284 eV ==== 
     psi = 0.145*[#   7]+0.145*[#   8]+0.129*[#  13]+0.129*[#  14]+0.129*[#  17]
          +0.129*[#  18]+0.094*[#   9]+0.094*[#  10]
    |psi|^2 = 0.994
==== e(  23) =     6.93441 eV ==== 
     psi = 0.009*[#  12]+0.009*[#  16]+0.007*[#   9]+0.007*[#  10]+0.001*[#   7]
          +0.001*[#   8]
    |psi|^2 = 0.039
==== e(  24) =    10.85094 eV ==== 
     psi = 0.176*[#   2]+0.035*[#  20]+0.021*[#  11]+0.021*[#  15]+0.007*[#  13]
          +0.007*[#  14]+0.007*[#  17]+0.007*[#  18]
    |psi|^2 = 0.283
==== e(  25) =    13.60820 eV ==== 
     psi = 0.030*[#   2]+0.003*[#  11]+0.003*[#  15]+0.002*[#  20]+0.001*[#  13]
          +0.001*[#  14]+0.001*[#  17]+0.001*[#  18]
    |psi|^2 = 0.044
==== e(  26) =    14.12290 eV ==== 
     psi = 0.007*[#   2]+0.002*[#  12]+0.002*[#  16]+0.001*[#  11]+0.001*[#  15]
          
    |psi|^2 = 0.016
==== e(  27) =    14.74240 eV ==== 
     psi = 0.457*[#   2]+0.048*[#  11]+0.048*[#  15]+0.017*[#  13]+0.017*[#  14]
          +0.017*[#  17]+0.017*[#  18]+0.014*[#  12]+0.014*[#  16]+0.007*[#  20]
          +0.001*[#   6]
    |psi|^2 = 0.659

 k =   0.2727272727  0.1574591643  0.0000000000
==== e(   1) =   -92.08827 eV ==== 
     psi = 0.987*[#   1]+0.002*[#  12]+0.002*[#  16]+0.002*[#  13]+0.002*[#  14]
          +0.002*[#  17]+0.002*[#  18]
    |psi|^2 = 1.000
==== e(   2) =   -55.32535 eV ==== 
     psi = 0.497*[#   4]+0.497*[#   5]+0.001*[#   2]
    |psi|^2 = 1.000
==== e(   3) =   -55.30153 eV ==== 
     psi = 0.499*[#   4]+0.499*[#   5]
    |psi|^2 = 1.000
==== e(   4) =   -55.29869 eV ==== 
     psi = 0.997*[#   3]
    |psi|^2 = 1.000
==== e(   5) =   -49.74480 eV ==== 
     psi = 0.998*[#  19]+0.002*[#  20]
    |psi|^2 = 1.000
==== e(   6) =   -21.73366 eV ==== 
     psi = 0.497*[#  22]+0.497*[#  23]+0.005*[#  20]
    |psi|^2 = 1.000
==== e(   7) =   -21.62425 eV ==== 
     psi = 1.000*[#  21]
    |psi|^2 = 1.000
==== e(   8) =   -21.59906 eV ==== 
     psi = 0.500*[#  22]+0.500*[#  23]
    |psi|^2 = 1.000
==== e(   9) =   -14.70485 eV ==== 
     psi = 0.384*[#  11]+0.384*[#  15]+0.193*[#   2]+0.009*[#  12]+0.009*[#  16]
          +0.003*[#   1]+0.003*[#   6]+0.001*[#  13]+0.001*[#  14]+0.001*[#  17]
          +0.001*[#  18]+0.001*[#  20]+0.001*[#   4]+0.001*[#   5]+0.001*[#   9]
          +0.001*[#  10]
    |psi|^2 = 0.999
==== e(  10) =   -13.55529 eV ==== 
     psi = 0.473*[#  11]+0.473*[#  15]+0.015*[#   7]+0.015*[#   8]+0.010*[#   9]
          +0.010*[#  10]
    |psi|^2 = 0.998
==== e(  11) =    -1.70677 eV ==== 
     psi = 0.161*[#   9]+0.161*[#  10]+0.117*[#  13]+0.117*[#  14]+0.117*[#  17]
          +0.117*[#  18]+0.087*[#  12]+0.087*[#  16]+0.007*[#  11]+0.007*[#  15]
          +0.006*[#   6]+0.005*[#   2]+0.001*[#   1]
    |psi|^2 = 0.992
==== e(  12) =    -0.98459 eV ==== 
     psi = 0.224*[#  12]+0.224*[#  16]+0.146*[#   6]+0.058*[#  13]+0.058*[#  14]
          +0.058*[#  17]+0.058*[#  18]+0.034*[#   7]+0.034*[#   8]+0.030*[#  11]
          +0.030*[#  15]+0.028*[#   2]+0.004*[#   1]+0.004*[#  20]+0.001*[#   9]
          +0.001*[#  10]
    |psi|^2 = 0.994
==== e(  13) =    -0.84451 eV ==== 
     psi = 0.126*[#  13]+0.126*[#  14]+0.126*[#  17]+0.126*[#  18]+0.126*[#   9]
          +0.126*[#  10]+0.121*[#   7]+0.121*[#   8]
    |psi|^2 = 0.998
==== e(  14) =    -0.18704 eV ==== 
     psi = 0.180*[#   6]+0.109*[#  13]+0.109*[#  14]+0.109*[#  17]+0.109*[#  18]
          +0.084*[#   7]+0.084*[#   8]+0.083*[#  12]+0.083*[#  16]+0.028*[#   2]
          +0.008*[#  20]+0.003*[#  11]+0.003*[#  15]
    |psi|^2 = 0.995
==== e(  15) =     0.97966 eV ==== 
     psi = 0.151*[#  13]+0.151*[#  14]+0.151*[#  17]+0.151*[#  18]+0.127*[#   7]
          +0.127*[#   8]+0.068*[#   9]+0.068*[#  10]
    |psi|^2 = 0.994
==== e(  16) =     2.28105 eV ==== 
     psi = 0.219*[#  12]+0.219*[#  16]+0.083*[#  13]+0.083*[#  14]+0.083*[#  17]
          +0.083*[#  18]+0.047*[#   7]+0.047*[#   8]+0.043*[#   9]+0.043*[#  10]
          +0.027*[#   6]+0.008*[#   2]+0.003*[#  20]+0.002*[#  11]+0.002*[#  15]
          
    |psi|^2 = 0.993
==== e(  17) =     2.79855 eV ==== 
     psi = 0.188*[#   6]+0.159*[#   7]+0.159*[#   8]+0.148*[#  12]+0.148*[#  16]
          +0.034*[#   9]+0.034*[#  10]+0.020*[#  13]+0.020*[#  14]+0.020*[#  17]
          +0.020*[#  18]+0.016*[#   2]+0.012*[#  20]+0.008*[#  11]+0.008*[#  15]
          
    |psi|^2 = 0.993
==== e(  18) =     3.02268 eV ==== 
     psi = 0.755*[#  20]+0.082*[#   6]+0.022*[#   7]+0.022*[#   8]+0.018*[#   9]
          +0.018*[#  10]+0.009*[#  12]+0.009*[#  16]+0.005*[#  13]+0.005*[#  14]
          +0.005*[#  17]+0.005*[#  18]+0.002*[#  19]+0.002*[#  22]+0.002*[#  23]
          +0.002*[#  11]+0.002*[#  15]
    |psi|^2 = 0.965
==== e(  19) =     3.07063 eV ==== 
     psi = 0.220*[#   9]+0.220*[#  10]+0.096*[#   7]+0.096*[#   8]+0.090*[#  13]
          +0.090*[#  14]+0.090*[#  17]+0.090*[#  18]
    |psi|^2 = 0.995
==== e(  20) =     3.39691 eV ==== 
     psi = 0.347*[#   6]+0.159*[#  20]+0.106*[#  12]+0.106*[#  16]+0.070*[#   9]
          +0.070*[#  10]+0.022*[#  13]+0.022*[#  14]+0.022*[#  17]+0.022*[#  18]
          +0.012*[#   7]+0.012*[#   8]
    |psi|^2 = 0.975
==== e(  21) =     5.00140 eV ==== 
     psi = 0.153*[#   9]+0.153*[#  10]+0.125*[#   7]+0.125*[#   8]+0.081*[#  12]
          +0.081*[#  16]+0.046*[#  13]+0.046*[#  14]+0.046*[#  17]+0.046*[#  18]
          +0.019*[#  11]+0.019*[#  15]+0.018*[#   6]+0.002*[#   2]+0.001*[#  20]
          
    |psi|^2 = 0.961
==== e(  22) =     5.89996 eV ==== 
     psi = 0.154*[#   7]+0.154*[#   8]+0.129*[#  13]+0.129*[#  14]+0.129*[#  17]
          +0.129*[#  18]+0.085*[#   9]+0.085*[#  10]
    |psi|^2 = 0.994
==== e(  23) =     7.16630 eV ==== 
     psi = 0.008*[#  12]+0.008*[#  16]+0.006*[#   9]+0.006*[#  10]
    |psi|^2 = 0.031
==== e(  24) =    11.09566 eV ==== 
     psi = 0.159*[#   2]+0.037*[#  20]+0.017*[#  11]+0.017*[#  15]+0.006*[#  13]
          +0.006*[#  14]+0.006*[#  17]+0.006*[#  18]
    |psi|^2 = 0.256
==== e(  25) =    13.00010 eV ==== 
     psi = 0.023*[#   2]+0.002*[#  11]+0.002*[#  15]+0.002*[#  20]
    |psi|^2 = 0.032
==== e(  26) =    14.27599 eV ==== 
     psi = 0.006*[#   2]+0.001*[#  12]+0.001*[#  16]+0.001*[#  11]+0.001*[#  15]
          
    |psi|^2 = 0.014
==== e(  27) =    14.97333 eV ==== 
     psi = 0.486*[#   2]+0.044*[#  11]+0.044*[#  15]+0.019*[#  13]+0.019*[#  14]
          +0.019*[#  17]+0.019*[#  18]+0.013*[#  12]+0.013*[#  16]+0.007*[#  20]
          +0.002*[#   1]+0.001*[#   6]
    |psi|^2 = 0.687

 k =   0.2954545455  0.1705807614  0.0000000000
==== e(   1) =   -92.08792 eV ==== 
     psi = 0.986*[#   1]+0.002*[#  13]+0.002*[#  14]+0.002*[#  17]+0.002*[#  18]
          +0.002*[#  12]+0.002*[#  16]
    |psi|^2 = 1.000
==== e(   2) =   -55.32918 eV ==== 
     psi = 0.497*[#   4]+0.497*[#   5]+0.001*[#   2]
    |psi|^2 = 1.000
==== e(   3) =   -55.30246 eV ==== 
     psi = 0.499*[#   4]+0.499*[#   5]
    |psi|^2 = 1.000
==== e(   4) =   -55.29812 eV ==== 
     psi = 0.997*[#   3]
    |psi|^2 = 1.000
==== e(   5) =   -49.74230 eV ==== 
     psi = 0.999*[#  19]
    |psi|^2 = 1.000
==== e(   6) =   -21.75427 eV ==== 
     psi = 0.498*[#  22]+0.498*[#  23]+0.005*[#  20]
    |psi|^2 = 1.000
==== e(   7) =   -21.62079 eV ==== 
     psi = 1.000*[#  21]
    |psi|^2 = 1.000
==== e(   8) =   -21.60360 eV ==== 
     psi = 0.500*[#  22]+0.500*[#  23]
    |psi|^2 = 1.000
==== e(   9) =   -14.60397 eV ==== 
     psi = 0.394*[#  11]+0.394*[#  15]+0.172*[#   2]+0.009*[#  12]+0.009*[#  16]
          +0.002*[#   1]+0.002*[#   6]+0.002*[#   9]+0.002*[#  10]+0.002*[#  13]
          +0.002*[#  14]+0.002*[#  17]+0.002*[#  18]+0.001*[#  20]+0.001*[#   4]
          +0.001*[#   5]+0.001*[#   7]+0.001*[#   8]
    |psi|^2 = 0.999
==== e(  10) =   -13.56765 eV ==== 
     psi = 0.471*[#  11]+0.471*[#  15]+0.016*[#   7]+0.016*[#   8]+0.011*[#   9]
          +0.011*[#  10]
    |psi|^2 = 0.998
==== e(  11) =    -1.76246 eV ==== 
     psi = 0.148*[#   9]+0.148*[#  10]+0.119*[#  13]+0.119*[#  14]+0.119*[#  17]
          +0.119*[#  18]+0.087*[#  12]+0.087*[#  16]+0.011*[#   2]+0.009*[#  11]
          +0.009*[#  15]+0.006*[#   6]+0.002*[#   1]+0.002*[#   7]+0.002*[#   8]
          
    |psi|^2 = 0.991
==== e(  12) =    -0.98891 eV ==== 
     psi = 0.168*[#  12]+0.168*[#  16]+0.092*[#  13]+0.092*[#  14]+0.092*[#  17]
          +0.092*[#  18]+0.079*[#   6]+0.050*[#   7]+0.050*[#   8]+0.039*[#   2]
          +0.028*[#  11]+0.028*[#  15]+0.004*[#   9]+0.004*[#  10]+0.004*[#   1]
          +0.002*[#  20]
    |psi|^2 = 0.993
==== e(  13) =    -0.79673 eV ==== 
     psi = 0.135*[#   7]+0.135*[#   8]+0.126*[#  13]+0.126*[#  14]+0.126*[#  17]
          +0.126*[#  18]+0.112*[#   9]+0.112*[#  10]
    |psi|^2 = 0.998
==== e(  14) =    -0.22613 eV ==== 
     psi = 0.241*[#   6]+0.145*[#  12]+0.145*[#  16]+0.077*[#  13]+0.077*[#  14]
          +0.077*[#  17]+0.077*[#  18]+0.058*[#   7]+0.058*[#   8]+0.019*[#   2]
          +0.008*[#  20]+0.003*[#   9]+0.003*[#  10]+0.002*[#  11]+0.002*[#  15]
          
    |psi|^2 = 0.995
==== e(  15) =     0.93454 eV ==== 
     psi = 0.159*[#  13]+0.159*[#  14]+0.159*[#  17]+0.159*[#  18]+0.111*[#   7]
          +0.111*[#   8]+0.067*[#   9]+0.067*[#  10]
    |psi|^2 = 0.993
==== e(  16) =     2.21171 eV ==== 
     psi = 0.220*[#  12]+0.220*[#  16]+0.090*[#  13]+0.090*[#  14]+0.090*[#  17]
          +0.090*[#  18]+0.050*[#   9]+0.050*[#  10]+0.031*[#   7]+0.031*[#   8]
          +0.016*[#   6]+0.007*[#   2]+0.003*[#  20]+0.002*[#  11]+0.002*[#  15]
          
    |psi|^2 = 0.993
==== e(  17) =     2.77877 eV ==== 
     psi = 0.249*[#   6]+0.170*[#   7]+0.170*[#   8]+0.126*[#  12]+0.126*[#  16]
          +0.022*[#   9]+0.022*[#  10]+0.017*[#  13]+0.017*[#  14]+0.017*[#  17]
          +0.017*[#  18]+0.016*[#   2]+0.010*[#  11]+0.010*[#  15]+0.004*[#  20]
          
    |psi|^2 = 0.994
==== e(  18) =     3.02909 eV ==== 
     psi = 0.243*[#   9]+0.243*[#  10]+0.091*[#   7]+0.091*[#   8]+0.082*[#  13]
          +0.082*[#  14]+0.082*[#  17]+0.082*[#  18]
    |psi|^2 = 0.995
==== e(  19) =     3.18548 eV ==== 
     psi = 0.282*[#   6]+0.282*[#  20]+0.070*[#   9]+0.070*[#  10]+0.060*[#  12]
          +0.060*[#  16]+0.041*[#   7]+0.041*[#   8]+0.019*[#  13]+0.019*[#  14]
          +0.019*[#  17]+0.019*[#  18]+0.001*[#   2]
    |psi|^2 = 0.985
==== e(  20) =     3.48362 eV ==== 
     psi = 0.640*[#  20]+0.102*[#   6]+0.050*[#  12]+0.050*[#  16]+0.033*[#   9]
          +0.033*[#  10]+0.008*[#  13]+0.008*[#  14]+0.008*[#  17]+0.008*[#  18]
          +0.002*[#   7]+0.002*[#   8]+0.002*[#  22]+0.002*[#  23]+0.001*[#  11]
          +0.001*[#  15]
    |psi|^2 = 0.953
==== e(  21) =     5.01602 eV ==== 
     psi = 0.151*[#   9]+0.151*[#  10]+0.125*[#   7]+0.125*[#   8]+0.104*[#  12]
          +0.104*[#  16]+0.036*[#  13]+0.036*[#  14]+0.036*[#  17]+0.036*[#  18]
          +0.021*[#   6]+0.019*[#  11]+0.019*[#  15]+0.002*[#  20]+0.002*[#   2]
          
    |psi|^2 = 0.966
==== e(  22) =     5.90299 eV ==== 
     psi = 0.163*[#   7]+0.163*[#   8]+0.129*[#  13]+0.129*[#  14]+0.129*[#  17]
          +0.129*[#  18]+0.077*[#   9]+0.077*[#  10]
    |psi|^2 = 0.995
==== e(  23) =     7.42067 eV ==== 
     psi = 0.006*[#  12]+0.006*[#  16]+0.004*[#   9]+0.004*[#  10]
    |psi|^2 = 0.024
==== e(  24) =    11.31277 eV ==== 
     psi = 0.130*[#   2]+0.041*[#  20]+0.012*[#  11]+0.012*[#  15]+0.005*[#  13]
          +0.005*[#  14]+0.005*[#  17]+0.005*[#  18]
    |psi|^2 = 0.217
==== e(  25) =    12.43863 eV ==== 
     psi = 0.036*[#   2]+0.003*[#  11]+0.003*[#  15]+0.001*[#  13]+0.001*[#  14]
          +0.001*[#  17]+0.001*[#  18]
    |psi|^2 = 0.048
==== e(  26) =    14.41138 eV ==== 
     psi = 0.006*[#   2]+0.001*[#  12]+0.001*[#  16]
    |psi|^2 = 0.013
==== e(  27) =    15.20018 eV ==== 
     psi = 0.498*[#   2]+0.039*[#  11]+0.039*[#  15]+0.020*[#  13]+0.020*[#  14]
          +0.020*[#  17]+0.020*[#  18]+0.012*[#  12]+0.012*[#  16]+0.007*[#  20]
          +0.003*[#   1]+0.001*[#   6]
    |psi|^2 = 0.691

 k =   0.3181818182  0.1837023584  0.0000000000
==== e(   1) =   -92.08760 eV ==== 
     psi = 0.986*[#   1]+0.002*[#  13]+0.002*[#  14]+0.002*[#  17]+0.002*[#  18]
          +0.002*[#  12]+0.002*[#  16]
    |psi|^2 = 1.000
==== e(   2) =   -55.33290 eV ==== 
     psi = 0.497*[#   4]+0.497*[#   5]+0.001*[#   2]
    |psi|^2 = 1.000
==== e(   3) =   -55.30337 eV ==== 
     psi = 0.499*[#   4]+0.499*[#   5]
    |psi|^2 = 1.000
==== e(   4) =   -55.29760 eV ==== 
     psi = 0.997*[#   3]
    |psi|^2 = 1.000
==== e(   5) =   -49.73992 eV ==== 
     psi = 1.000*[#  19]
    |psi|^2 = 1.000
==== e(   6) =   -21.77407 eV ==== 
     psi = 0.498*[#  22]+0.498*[#  23]+0.004*[#  20]
    |psi|^2 = 1.000
==== e(   7) =   -21.61756 eV ==== 
     psi = 1.000*[#  21]
    |psi|^2 = 1.000
==== e(   8) =   -21.60796 eV ==== 
     psi = 0.500*[#  22]+0.500*[#  23]
    |psi|^2 = 1.000
==== e(   9) =   -14.50285 eV ==== 
     psi = 0.405*[#  11]+0.405*[#  15]+0.150*[#   2]+0.009*[#  12]+0.009*[#  16]
          +0.002*[#   6]+0.002*[#   9]+0.002*[#  10]+0.002*[#   1]+0.002*[#   7]
          +0.002*[#   8]+0.002*[#  13]+0.002*[#  14]+0.002*[#  17]+0.002*[#  18]
          +0.001*[#   4]+0.001*[#   5]+0.001*[#  20]
    |psi|^2 = 0.999
==== e(  10) =   -13.58226 eV ==== 
     psi = 0.469*[#  11]+0.469*[#  15]+0.017*[#   7]+0.017*[#   8]+0.012*[#   9]
          +0.012*[#  10]
    |psi|^2 = 0.998
==== e(  11) =    -1.83905 eV ==== 
     psi = 0.131*[#   9]+0.131*[#  10]+0.123*[#  13]+0.123*[#  14]+0.123*[#  17]
          +0.123*[#  18]+0.083*[#  12]+0.083*[#  16]+0.022*[#   2]+0.011*[#  11]
          +0.011*[#  15]+0.010*[#   7]+0.010*[#   8]+0.005*[#   6]+0.003*[#   1]
          
    |psi|^2 = 0.991
==== e(  12) =    -1.01500 eV ==== 
     psi = 0.125*[#  12]+0.125*[#  16]+0.120*[#  13]+0.120*[#  14]+0.120*[#  17]
          +0.120*[#  18]+0.055*[#   7]+0.055*[#   8]+0.043*[#   2]+0.035*[#   6]
          +0.023*[#  11]+0.023*[#  15]+0.011*[#   9]+0.011*[#  10]+0.003*[#   1]
          
    |psi|^2 = 0.992
==== e(  13) =    -0.75452 eV ==== 
     psi = 0.150*[#   7]+0.150*[#   8]+0.126*[#  13]+0.126*[#  14]+0.126*[#  17]
          +0.126*[#  18]+0.098*[#   9]+0.098*[#  10]
    |psi|^2 = 0.998
==== e(  14) =    -0.19581 eV ==== 
     psi = 0.276*[#   6]+0.197*[#  12]+0.197*[#  16]+0.052*[#  13]+0.052*[#  14]
          +0.052*[#  17]+0.052*[#  18]+0.039*[#   7]+0.039*[#   8]+0.012*[#   2]
          +0.007*[#   9]+0.007*[#  10]+0.007*[#  20]+0.004*[#  11]+0.004*[#  15]
          
    |psi|^2 = 0.995
==== e(  15) =     0.90519 eV ==== 
     psi = 0.168*[#  13]+0.168*[#  14]+0.168*[#  17]+0.168*[#  18]+0.093*[#   7]
          +0.093*[#   8]+0.066*[#   9]+0.066*[#  10]
    |psi|^2 = 0.992
==== e(  16) =     2.12059 eV ==== 
     psi = 0.222*[#  12]+0.222*[#  16]+0.096*[#  13]+0.096*[#  14]+0.096*[#  17]
          +0.096*[#  18]+0.055*[#   9]+0.055*[#  10]+0.018*[#   7]+0.018*[#   8]
          +0.007*[#   2]+0.006*[#   6]+0.003*[#  20]+0.002*[#  11]+0.002*[#  15]
          
    |psi|^2 = 0.993
==== e(  17) =     2.74371 eV ==== 
     psi = 0.326*[#   6]+0.171*[#   7]+0.171*[#   8]+0.106*[#  12]+0.106*[#  16]
          +0.015*[#   2]+0.012*[#  13]+0.012*[#  14]+0.012*[#  17]+0.012*[#  18]
          +0.012*[#   9]+0.012*[#  10]+0.011*[#  11]+0.011*[#  15]+0.003*[#  20]
          
    |psi|^2 = 0.995
==== e(  18) =     2.97469 eV ==== 
     psi = 0.267*[#   9]+0.267*[#  10]+0.086*[#   7]+0.086*[#   8]+0.072*[#  13]
          +0.072*[#  14]+0.072*[#  17]+0.072*[#  18]
    |psi|^2 = 0.995
==== e(  19) =     3.19189 eV ==== 
     psi = 0.312*[#   6]+0.107*[#   9]+0.107*[#  10]+0.090*[#  12]+0.090*[#  16]
          +0.063*[#   7]+0.063*[#   8]+0.053*[#  20]+0.026*[#  13]+0.026*[#  14]
          +0.026*[#  17]+0.026*[#  18]+0.004*[#   2]
    |psi|^2 = 0.991
==== e(  20) =     3.75026 eV ==== 
     psi = 0.867*[#  20]+0.016*[#  12]+0.016*[#  16]+0.012*[#   6]+0.010*[#   9]
          +0.010*[#  10]+0.002*[#  22]+0.002*[#  23]+0.001*[#  11]+0.001*[#  13]
          +0.001*[#  14]+0.001*[#  15]+0.001*[#  17]+0.001*[#  18]
    |psi|^2 = 0.943
==== e(  21) =     5.05542 eV ==== 
     psi = 0.148*[#   9]+0.148*[#  10]+0.125*[#  12]+0.125*[#  16]+0.123*[#   7]
          +0.123*[#   8]+0.028*[#  13]+0.028*[#  14]+0.028*[#  17]+0.028*[#  18]
          +0.023*[#   6]+0.019*[#  11]+0.019*[#  15]+0.005*[#  20]+0.001*[#   2]
          
    |psi|^2 = 0.971
==== e(  22) =     5.91094 eV ==== 
     psi = 0.170*[#   7]+0.170*[#   8]+0.129*[#  13]+0.129*[#  14]+0.129*[#  17]
          +0.129*[#  18]+0.069*[#   9]+0.069*[#  10]
    |psi|^2 = 0.995
==== e(  23) =     7.69773 eV ==== 
     psi = 0.005*[#  12]+0.005*[#  16]+0.003*[#   9]+0.003*[#  10]
    |psi|^2 = 0.018
==== e(  24) =    11.33701 eV ==== 
     psi = 0.053*[#   2]+0.044*[#  20]+0.004*[#  11]+0.004*[#  15]+0.002*[#  13]
          +0.002*[#  14]+0.002*[#  17]+0.002*[#  18]
    |psi|^2 = 0.116
==== e(  25) =    12.09601 eV ==== 
     psi = 0.099*[#   2]+0.007*[#  11]+0.007*[#  15]+0.003*[#  13]+0.003*[#  14]
          +0.003*[#  17]+0.003*[#  18]+0.003*[#  20]
    |psi|^2 = 0.131
==== e(  26) =    14.49332 eV ==== 
     psi = 0.007*[#   2]+0.001*[#  12]+0.001*[#  16]
    |psi|^2 = 0.013
==== e(  27) =    15.39783 eV ==== 
     psi = 0.481*[#   2]+0.032*[#  11]+0.032*[#  15]+0.020*[#  13]+0.020*[#  14]
          +0.020*[#  17]+0.020*[#  18]+0.010*[#  12]+0.010*[#  16]+0.006*[#  20]
          +0.003*[#   1]
    |psi|^2 = 0.656

 k =   0.3409090909  0.1968239554  0.0000000000
==== e(   1) =   -92.08729 eV ==== 
     psi = 0.985*[#   1]+0.002*[#  13]+0.002*[#  14]+0.002*[#  17]+0.002*[#  18]
          +0.001*[#  12]+0.001*[#  16]+0.001*[#   2]
    |psi|^2 = 1.000
==== e(   2) =   -55.33641 eV ==== 
     psi = 0.497*[#   4]+0.497*[#   5]+0.001*[#   2]
    |psi|^2 = 1.000
==== e(   3) =   -55.30418 eV ==== 
     psi = 0.499*[#   4]+0.499*[#   5]
    |psi|^2 = 1.000
==== e(   4) =   -55.29711 eV ==== 
     psi = 0.997*[#   3]
    |psi|^2 = 1.000
==== e(   5) =   -49.73768 eV ==== 
     psi = 0.999*[#  19]
    |psi|^2 = 1.000
==== e(   6) =   -21.79261 eV ==== 
     psi = 0.498*[#  22]+0.498*[#  23]+0.004*[#  20]
    |psi|^2 = 1.000
==== e(   7) =   -21.61450 eV ==== 
     psi = 1.000*[#  21]
    |psi|^2 = 1.000
==== e(   8) =   -21.61197 eV ==== 
     psi = 0.500*[#  22]+0.500*[#  23]
    |psi|^2 = 1.000
==== e(   9) =   -14.40302 eV ==== 
     psi = 0.415*[#  11]+0.415*[#  15]+0.128*[#   2]+0.009*[#  12]+0.009*[#  16]
          +0.003*[#   9]+0.003*[#  10]+0.002*[#   7]+0.002*[#   8]+0.002*[#   6]
          +0.002*[#  13]+0.002*[#  14]+0.002*[#  17]+0.002*[#  18]+0.001*[#   1]
          +0.001*[#   4]+0.001*[#   5]+0.001*[#  20]
    |psi|^2 = 0.999
==== e(  10) =   -13.59950 eV ==== 
     psi = 0.467*[#  11]+0.467*[#  15]+0.017*[#   7]+0.017*[#   8]+0.013*[#   9]
          +0.013*[#  10]
    |psi|^2 = 0.998
==== e(  11) =    -1.93775 eV ==== 
     psi = 0.127*[#  13]+0.127*[#  14]+0.127*[#  17]+0.127*[#  18]+0.112*[#   9]
          +0.112*[#  10]+0.076*[#  12]+0.076*[#  16]+0.036*[#   2]+0.021*[#   7]
[...]
    |psi|^2 = 1.000
==== e(   2) =   -54.57514 eV ==== 
     psi = 0.499*[#   4]+0.499*[#   5]
    |psi|^2 = 1.000
==== e(   3) =   -54.57315 eV ==== 
     psi = 0.499*[#   4]+0.499*[#   5]
    |psi|^2 = 1.000
==== e(   4) =   -54.41040 eV ==== 
     psi = 0.998*[#   3]
    |psi|^2 = 1.000
==== e(   5) =   -49.77255 eV ==== 
     psi = 0.968*[#  19]+0.032*[#  20]
    |psi|^2 = 1.000
==== e(   6) =   -21.65687 eV ==== 
     psi = 1.000*[#  21]
    |psi|^2 = 1.000
==== e(   7) =   -21.58641 eV ==== 
     psi = 0.500*[#  22]+0.500*[#  23]
    |psi|^2 = 1.000
==== e(   8) =   -21.57528 eV ==== 
     psi = 0.500*[#  22]+0.500*[#  23]
    |psi|^2 = 1.000
==== e(   9) =   -15.25879 eV ==== 
     psi = 0.323*[#  11]+0.323*[#  15]+0.316*[#   2]+0.010*[#  12]+0.010*[#  16]
          +0.010*[#   1]+0.005*[#   6]+0.002*[#  20]
    |psi|^2 = 0.999
==== e(  10) =   -13.38421 eV ==== 
     psi = 0.494*[#  11]+0.494*[#  15]+0.002*[#   3]+0.001*[#   7]+0.001*[#   8]
          
    |psi|^2 = 0.995
==== e(  11) =    -1.25013 eV ==== 
     psi = 0.324*[#  12]+0.324*[#  16]+0.261*[#   6]+0.031*[#  20]+0.024*[#  11]
          +0.024*[#  15]+0.005*[#   1]+0.002*[#   2]
    |psi|^2 = 0.996
==== e(  12) =    -1.09315 eV ==== 
     psi = 0.184*[#   9]+0.184*[#  10]+0.123*[#  13]+0.123*[#  14]+0.123*[#  17]
          +0.123*[#  18]+0.054*[#   7]+0.054*[#   8]+0.014*[#  12]+0.014*[#  16]
          
    |psi|^2 = 0.997
==== e(  13) =    -0.99868 eV ==== 
     psi = 0.184*[#   9]+0.184*[#  10]+0.125*[#  13]+0.125*[#  14]+0.125*[#  17]
          +0.125*[#  18]+0.065*[#   7]+0.065*[#   8]
    |psi|^2 = 0.998
==== e(  14) =     1.26021 eV ==== 
     psi = 0.889*[#  20]+0.030*[#  19]+0.012*[#   6]+0.007*[#  12]+0.007*[#  16]
          +0.002*[#  11]+0.002*[#  15]+0.001*[#   2]
    |psi|^2 = 0.954
==== e(  15) =     2.06371 eV ==== 
     psi = 0.347*[#  12]+0.347*[#  16]+0.061*[#   7]+0.061*[#   8]+0.036*[#  13]
          +0.036*[#  14]+0.036*[#  17]+0.036*[#  18]+0.005*[#   9]+0.005*[#  10]
          
    |psi|^2 = 0.972
==== e(  16) =     2.10501 eV ==== 
     psi = 0.183*[#  13]+0.183*[#  14]+0.183*[#  17]+0.183*[#  18]+0.091*[#   7]
          +0.091*[#   8]+0.027*[#   9]+0.027*[#  10]+0.010*[#   6]+0.008*[#   2]
          +0.003*[#  11]+0.003*[#  15]+0.001*[#  20]
    |psi|^2 = 0.995
==== e(  17) =     2.26819 eV ==== 
     psi = 0.137*[#  13]+0.137*[#  14]+0.137*[#  17]+0.137*[#  18]+0.114*[#  12]
          +0.114*[#  16]+0.073*[#   7]+0.073*[#   8]+0.031*[#   9]+0.031*[#  10]
          
    |psi|^2 = 0.985
==== e(  18) =     3.05177 eV ==== 
     psi = 0.258*[#   7]+0.258*[#   8]+0.123*[#   9]+0.123*[#  10]+0.055*[#  13]
          +0.055*[#  14]+0.055*[#  17]+0.055*[#  18]+0.007*[#   6]+0.003*[#   2]
          +0.001*[#  11]+0.001*[#  15]
    |psi|^2 = 0.997
==== e(  19) =     3.10684 eV ==== 
     psi = 0.225*[#   7]+0.225*[#   8]+0.107*[#   9]+0.107*[#  10]+0.080*[#  13]
          +0.080*[#  14]+0.080*[#  17]+0.080*[#  18]+0.005*[#  12]+0.005*[#  16]
          
    |psi|^2 = 0.995
==== e(  20) =     4.39091 eV ==== 
     psi = 0.697*[#   6]+0.123*[#  12]+0.123*[#  16]+0.011*[#   2]+0.005*[#  13]
          +0.005*[#  14]+0.005*[#  17]+0.005*[#  18]+0.004*[#  11]+0.004*[#  15]
          +0.001*[#   1]
    |psi|^2 = 0.984
==== e(  21) =     5.66264 eV ==== 
     psi = 0.014*[#  12]+0.014*[#  16]+0.005*[#  13]+0.005*[#  14]+0.005*[#  17]
          +0.005*[#  18]+0.004*[#   7]+0.004*[#   8]+0.004*[#   9]+0.004*[#  10]
          
    |psi|^2 = 0.065
==== e(  22) =     6.33443 eV ==== 
     psi = 0.166*[#   9]+0.166*[#  10]+0.115*[#  13]+0.115*[#  14]+0.115*[#  17]
          +0.115*[#  18]+0.080*[#   7]+0.080*[#   8]+0.002*[#  11]+0.002*[#  15]
          +0.002*[#  12]+0.002*[#  16]
    |psi|^2 = 0.959
==== e(  23) =     6.41826 eV ==== 
     psi = 0.164*[#   9]+0.164*[#  10]+0.124*[#  13]+0.124*[#  14]+0.124*[#  17]
          +0.124*[#  18]+0.085*[#   7]+0.085*[#   8]
    |psi|^2 = 0.995
==== e(  24) =     9.37884 eV ==== 
     psi = 0.259*[#   2]+0.059*[#  11]+0.059*[#  15]+0.031*[#  20]+0.002*[#  12]
          +0.002*[#  13]+0.002*[#  14]+0.002*[#  16]+0.002*[#  17]+0.002*[#  18]
          
    |psi|^2 = 0.422
==== e(  25) =    13.05984 eV ==== 
     psi = 0.003*[#  12]+0.003*[#  16]
    |psi|^2 = 0.011
==== e(  26) =    13.16515 eV ==== 
     psi = 0.375*[#   2]+0.078*[#  11]+0.078*[#  15]+0.022*[#  12]+0.022*[#  16]
          +0.011*[#  20]+0.005*[#   6]+0.002*[#  13]+0.002*[#  14]+0.002*[#  17]
          +0.002*[#  18]
    |psi|^2 = 0.602
==== e(  27) =    16.04702 eV ==== 

    |psi|^2 = 0.002

 k =   0.0266666667  0.0461880215  0.0000000000
==== e(   1) =   -91.29253 eV ==== 
     psi = 0.982*[#   1]+0.009*[#   2]+0.004*[#  12]+0.004*[#  16]
    |psi|^2 = 1.000
==== e(   2) =   -54.57377 eV ==== 
     psi = 0.499*[#   4]+0.499*[#   5]
    |psi|^2 = 1.000
==== e(   3) =   -54.57279 eV ==== 
     psi = 0.499*[#   4]+0.499*[#   5]
    |psi|^2 = 1.000
==== e(   4) =   -54.41069 eV ==== 
     psi = 0.998*[#   3]
    |psi|^2 = 1.000
==== e(   5) =   -49.77351 eV ==== 
     psi = 0.966*[#  19]+0.034*[#  20]
    |psi|^2 = 1.000
==== e(   6) =   -21.65830 eV ==== 
     psi = 1.000*[#  21]
    |psi|^2 = 1.000
==== e(   7) =   -21.57875 eV ==== 
     psi = 0.500*[#  22]+0.500*[#  23]
    |psi|^2 = 1.000
==== e(   8) =   -21.57356 eV ==== 
     psi = 0.500*[#  22]+0.500*[#  23]
    |psi|^2 = 1.000
==== e(   9) =   -15.28871 eV ==== 
     psi = 0.321*[#   2]+0.320*[#  11]+0.320*[#  15]+0.010*[#   1]+0.010*[#  12]
          +0.010*[#  16]+0.005*[#   6]+0.002*[#  20]
    |psi|^2 = 0.999
==== e(  10) =   -13.38314 eV ==== 
     psi = 0.495*[#  11]+0.495*[#  15]+0.002*[#   3]
    |psi|^2 = 0.995
==== e(  11) =    -1.28476 eV ==== 
     psi = 0.323*[#  12]+0.323*[#  16]+0.262*[#   6]+0.032*[#  20]+0.024*[#  11]
          +0.024*[#  15]+0.005*[#   1]+0.002*[#   2]
    |psi|^2 = 0.996
==== e(  12) =    -1.06089 eV ==== 
     psi = 0.187*[#   9]+0.187*[#  10]+0.123*[#  13]+0.123*[#  14]+0.123*[#  17]
          +0.123*[#  18]+0.059*[#   7]+0.059*[#   8]+0.007*[#  12]+0.007*[#  16]
          
    |psi|^2 = 0.998
==== e(  13) =    -1.01741 eV ==== 
     psi = 0.187*[#   9]+0.187*[#  10]+0.124*[#  13]+0.124*[#  14]+0.124*[#  17]
          +0.124*[#  18]+0.063*[#   7]+0.063*[#   8]
    |psi|^2 = 0.998
==== e(  14) =     1.19379 eV ==== 
     psi = 0.888*[#  20]+0.032*[#  19]+0.013*[#   6]+0.008*[#  12]+0.008*[#  16]
          +0.002*[#  11]+0.002*[#  15]+0.001*[#   2]
    |psi|^2 = 0.954
==== e(  15) =     2.04482 eV ==== 
     psi = 0.456*[#  12]+0.456*[#  16]+0.013*[#   7]+0.013*[#   8]+0.005*[#  13]
          +0.005*[#  14]+0.005*[#  17]+0.005*[#  18]
    |psi|^2 = 0.962
==== e(  16) =     2.30462 eV ==== 
     psi = 0.191*[#  13]+0.191*[#  14]+0.191*[#  17]+0.191*[#  18]+0.083*[#   7]
          +0.083*[#   8]+0.026*[#   9]+0.026*[#  10]+0.005*[#   6]+0.004*[#   2]
          +0.002*[#  11]+0.002*[#  15]
    |psi|^2 = 0.995
==== e(  17) =     2.37158 eV ==== 
     psi = 0.179*[#  13]+0.179*[#  14]+0.179*[#  17]+0.179*[#  18]+0.094*[#   7]
          +0.094*[#   8]+0.032*[#   9]+0.032*[#  10]+0.013*[#  12]+0.013*[#  16]
          
    |psi|^2 = 0.993
==== e(  18) =     2.96723 eV ==== 
     psi = 0.271*[#   7]+0.271*[#   8]+0.119*[#   9]+0.119*[#  10]+0.053*[#  13]
          +0.053*[#  14]+0.053*[#  17]+0.053*[#  18]+0.003*[#   6]+0.001*[#   2]
          
    |psi|^2 = 0.998
==== e(  19) =     2.98820 eV ==== 
     psi = 0.250*[#   7]+0.250*[#   8]+0.110*[#   9]+0.110*[#  10]+0.067*[#  13]
          +0.067*[#  14]+0.067*[#  17]+0.067*[#  18]+0.003*[#  12]+0.003*[#  16]
          
    |psi|^2 = 0.996
==== e(  20) =     4.38386 eV ==== 
     psi = 0.703*[#   6]+0.123*[#  12]+0.123*[#  16]+0.013*[#   2]+0.005*[#  11]
          +0.005*[#  15]+0.002*[#  13]+0.002*[#  14]+0.002*[#  17]+0.002*[#  18]
          +0.001*[#   1]
    |psi|^2 = 0.984
==== e(  21) =     5.62414 eV ==== 
     psi = 0.015*[#  12]+0.015*[#  16]+0.002*[#  13]+0.002*[#  14]+0.002*[#  17]
          +0.002*[#  18]+0.001*[#   7]+0.001*[#   8]+0.001*[#   9]+0.001*[#  10]
          
    |psi|^2 = 0.043
==== e(  22) =     6.39909 eV ==== 
     psi = 0.168*[#   9]+0.168*[#  10]+0.121*[#  13]+0.121*[#  14]+0.121*[#  17]
          +0.121*[#  18]+0.080*[#   7]+0.080*[#   8]
    |psi|^2 = 0.983
==== e(  23) =     6.44025 eV ==== 
     psi = 0.166*[#   9]+0.166*[#  10]+0.124*[#  13]+0.124*[#  14]+0.124*[#  17]
          +0.124*[#  18]+0.082*[#   7]+0.082*[#   8]
    |psi|^2 = 0.995
==== e(  24) =     9.29529 eV ==== 
     psi = 0.265*[#   2]+0.063*[#  11]+0.063*[#  15]+0.031*[#  20]+0.002*[#  12]
          +0.002*[#  16]
    |psi|^2 = 0.431
==== e(  25) =    12.98028 eV ==== 
     psi = 0.003*[#  12]+0.003*[#  16]+0.001*[#  11]+0.001*[#  15]
    |psi|^2 = 0.010
==== e(  26) =    13.07328 eV ==== 
     psi = 0.368*[#   2]+0.079*[#  11]+0.079*[#  15]+0.022*[#  12]+0.022*[#  16]
          +0.011*[#  20]+0.006*[#   6]
    |psi|^2 = 0.593
==== e(  27) =    15.95419 eV ==== 

    |psi|^2 = 0.002

 k =   0.0133333333  0.0230940108  0.0000000000
==== e(   1) =   -91.29261 eV ==== 
     psi = 0.981*[#   1]+0.010*[#   2]+0.004*[#  12]+0.004*[#  16]
    |psi|^2 = 1.000
==== e(   2) =   -54.57283 eV ==== 
     psi = 0.499*[#   4]+0.499*[#   5]
    |psi|^2 = 1.000
==== e(   3) =   -54.57257 eV ==== 
     psi = 0.499*[#   4]+0.499*[#   5]
    |psi|^2 = 1.000
==== e(   4) =   -54.41085 eV ==== 
     psi = 0.998*[#   3]
    |psi|^2 = 1.000
==== e(   5) =   -49.77407 eV ==== 
     psi = 0.965*[#  19]+0.035*[#  20]
    |psi|^2 = 1.000
==== e(   6) =   -21.65916 eV ==== 
     psi = 1.000*[#  21]
    |psi|^2 = 1.000
==== e(   7) =   -21.57386 eV ==== 
     psi = 0.500*[#  22]+0.500*[#  23]
    |psi|^2 = 1.000
==== e(   8) =   -21.57251 eV ==== 
     psi = 0.500*[#  22]+0.500*[#  23]
    |psi|^2 = 1.000
==== e(   9) =   -15.30682 eV ==== 
     psi = 0.323*[#   2]+0.319*[#  11]+0.319*[#  15]+0.010*[#   1]+0.010*[#  12]
          +0.010*[#  16]+0.005*[#   6]+0.002*[#  20]
    |psi|^2 = 0.999
==== e(  10) =   -13.38252 eV ==== 
     psi = 0.496*[#  11]+0.496*[#  15]+0.002*[#   3]
    |psi|^2 = 0.995
==== e(  11) =    -1.30579 eV ==== 
     psi = 0.323*[#  12]+0.323*[#  16]+0.263*[#   6]+0.033*[#  20]+0.024*[#  11]
          +0.024*[#  15]+0.005*[#   1]+0.002*[#   2]
    |psi|^2 = 0.997
==== e(  12) =    -1.04000 eV ==== 
     psi = 0.189*[#   9]+0.189*[#  10]+0.124*[#  13]+0.124*[#  14]+0.124*[#  17]
          +0.124*[#  18]+0.061*[#   7]+0.061*[#   8]+0.002*[#  12]+0.002*[#  16]
          
    |psi|^2 = 0.998
==== e(  13) =    -1.02890 eV ==== 
     psi = 0.189*[#   9]+0.189*[#  10]+0.124*[#  13]+0.124*[#  14]+0.124*[#  17]
          +0.124*[#  18]+0.063*[#   7]+0.063*[#   8]
    |psi|^2 = 0.998
==== e(  14) =     1.15368 eV ==== 
     psi = 0.887*[#  20]+0.033*[#  19]+0.013*[#   6]+0.008*[#  12]+0.008*[#  16]
          +0.002*[#   2]+0.002*[#  11]+0.002*[#  15]
    |psi|^2 = 0.954
==== e(  15) =     2.01606 eV ==== 
     psi = 0.475*[#  12]+0.475*[#  16]+0.002*[#   7]+0.002*[#   8]
    |psi|^2 = 0.959
==== e(  16) =     2.47034 eV ==== 
     psi = 0.213*[#  13]+0.213*[#  14]+0.213*[#  17]+0.213*[#  18]+0.051*[#   7]
          +0.051*[#   8]+0.017*[#   9]+0.017*[#  10]+0.002*[#   6]+0.001*[#   2]
          
    |psi|^2 = 0.994
==== e(  17) =     2.48917 eV ==== 
     psi = 0.211*[#  13]+0.211*[#  14]+0.211*[#  17]+0.211*[#  18]+0.056*[#   7]
          +0.056*[#   8]+0.019*[#   9]+0.019*[#  10]
    |psi|^2 = 0.994
==== e(  18) =     2.87411 eV ==== 
     psi = 0.305*[#   7]+0.305*[#   8]+0.126*[#   9]+0.126*[#  10]+0.034*[#  13]
          +0.034*[#  14]+0.034*[#  17]+0.034*[#  18]
    |psi|^2 = 0.998
==== e(  19) =     2.87688 eV ==== 
     psi = 0.299*[#   7]+0.299*[#   8]+0.123*[#   9]+0.123*[#  10]+0.038*[#  13]
          +0.038*[#  14]+0.038*[#  17]+0.038*[#  18]+0.001*[#  12]+0.001*[#  16]
          
    |psi|^2 = 0.998
==== e(  20) =     4.37835 eV ==== 
     psi = 0.707*[#   6]+0.123*[#  12]+0.123*[#  16]+0.014*[#   2]+0.006*[#  11]
          +0.006*[#  15]+0.001*[#   1]
    |psi|^2 = 0.984
==== e(  21) =     5.59921 eV ==== 
     psi = 0.016*[#  12]+0.016*[#  16]
    |psi|^2 = 0.034
==== e(  22) =     6.44242 eV ==== 
     psi = 0.168*[#   9]+0.168*[#  10]+0.124*[#  13]+0.124*[#  14]+0.124*[#  17]
          +0.124*[#  18]+0.080*[#   7]+0.080*[#   8]
    |psi|^2 = 0.993
==== e(  23) =     6.45329 eV ==== 
     psi = 0.168*[#   9]+0.168*[#  10]+0.125*[#  13]+0.125*[#  14]+0.125*[#  17]
          +0.125*[#  18]+0.081*[#   7]+0.081*[#   8]
    |psi|^2 = 0.996
==== e(  24) =     9.24418 eV ==== 
     psi = 0.269*[#   2]+0.065*[#  11]+0.065*[#  15]+0.031*[#  20]+0.002*[#  12]
          +0.002*[#  16]+0.001*[#   1]
    |psi|^2 = 0.437
==== e(  25) =    12.93050 eV ==== 
     psi = 0.003*[#  12]+0.003*[#  16]+0.001*[#  11]+0.001*[#  15]
    |psi|^2 = 0.009
==== e(  26) =    13.01745 eV ==== 
     psi = 0.363*[#   2]+0.079*[#  11]+0.079*[#  15]+0.023*[#  12]+0.023*[#  16]
          +0.012*[#  20]+0.006*[#   6]
    |psi|^2 = 0.587
==== e(  27) =    15.89819 eV ==== 

    |psi|^2 = 0.001

 k =   0.0000000000  0.0000000000  0.0000000000
==== e(   1) =   -91.29264 eV ==== 
     psi = 0.981*[#   1]+0.010*[#   2]+0.004*[#  12]+0.004*[#  16]
    |psi|^2 = 1.000
==== e(   2) =   -54.57248 eV ==== 
     psi = 0.499*[#   4]+0.499*[#   5]
    |psi|^2 = 1.000
==== e(   3) =   -54.57248 eV ==== 
     psi = 0.499*[#   4]+0.499*[#   5]
    |psi|^2 = 1.000
==== e(   4) =   -54.41090 eV ==== 
     psi = 0.998*[#   3]
    |psi|^2 = 1.000
==== e(   5) =   -49.77425 eV ==== 
     psi = 0.965*[#  19]+0.035*[#  20]
    |psi|^2 = 1.000
==== e(   6) =   -21.65944 eV ==== 
     psi = 1.000*[#  21]
    |psi|^2 = 1.000
==== e(   7) =   -21.57212 eV ==== 
     psi = 0.500*[#  22]+0.500*[#  23]
    |psi|^2 = 1.000
==== e(   8) =   -21.57212 eV ==== 
     psi = 0.500*[#  22]+0.500*[#  23]
    |psi|^2 = 1.000
==== e(   9) =   -15.31288 eV ==== 
     psi = 0.324*[#   2]+0.318*[#  11]+0.318*[#  15]+0.010*[#   1]+0.010*[#  12]
          +0.010*[#  16]+0.005*[#   6]+0.002*[#  20]
    |psi|^2 = 0.999
==== e(  10) =   -13.38232 eV ==== 
     psi = 0.496*[#  11]+0.496*[#  15]+0.002*[#   3]
    |psi|^2 = 0.995
==== e(  11) =    -1.31285 eV ==== 
     psi = 0.323*[#  12]+0.323*[#  16]+0.264*[#   6]+0.033*[#  20]+0.024*[#  11]
          +0.024*[#  15]+0.005*[#   1]+0.001*[#   2]
    |psi|^2 = 0.997
==== e(  12) =    -1.03276 eV ==== 
     psi = 0.189*[#   9]+0.189*[#  10]+0.124*[#  13]+0.124*[#  14]+0.124*[#  17]
          +0.124*[#  18]+0.062*[#   7]+0.062*[#   8]
    |psi|^2 = 0.998
==== e(  13) =    -1.03276 eV ==== 
     psi = 0.189*[#   9]+0.189*[#  10]+0.124*[#  13]+0.124*[#  14]+0.124*[#  17]
          +0.124*[#  18]+0.062*[#   7]+0.062*[#   8]
    |psi|^2 = 0.998
==== e(  14) =     1.14028 eV ==== 
     psi = 0.887*[#  20]+0.033*[#  19]+0.013*[#   6]+0.008*[#  12]+0.008*[#  16]
          +0.002*[#   2]+0.002*[#  11]+0.002*[#  15]
    |psi|^2 = 0.954
==== e(  15) =     2.00497 eV ==== 
     psi = 0.479*[#  12]+0.479*[#  16]
    |psi|^2 = 0.959
==== e(  16) =     2.55160 eV ==== 
     psi = 0.248*[#  13]+0.248*[#  14]+0.248*[#  17]+0.248*[#  18]
    |psi|^2 = 0.994
==== e(  17) =     2.55160 eV ==== 
     psi = 0.248*[#  13]+0.248*[#  14]+0.248*[#  17]+0.248*[#  18]
    |psi|^2 = 0.994
==== e(  18) =     2.81772 eV ==== 
     psi = 0.357*[#   7]+0.357*[#   8]+0.142*[#   9]+0.142*[#  10]
    |psi|^2 = 0.999
==== e(  19) =     2.81772 eV ==== 
     psi = 0.357*[#   7]+0.357*[#   8]+0.142*[#   9]+0.142*[#  10]
    |psi|^2 = 0.999
==== e(  20) =     4.37628 eV ==== 
     psi = 0.709*[#   6]+0.123*[#  12]+0.123*[#  16]+0.015*[#   2]+0.006*[#  11]
          +0.006*[#  15]+0.002*[#   1]
    |psi|^2 = 0.984
==== e(  21) =     5.59066 eV ==== 
     psi = 0.016*[#  12]+0.016*[#  16]
    |psi|^2 = 0.032
==== e(  22) =     6.45762 eV ==== 
     psi = 0.168*[#   9]+0.168*[#  10]+0.125*[#  13]+0.125*[#  14]+0.125*[#  17]
          +0.125*[#  18]+0.080*[#   7]+0.080*[#   8]
    |psi|^2 = 0.996
==== e(  23) =     6.45762 eV ==== 
     psi = 0.168*[#   9]+0.168*[#  10]+0.125*[#  13]+0.125*[#  14]+0.125*[#  17]
          +0.125*[#  18]+0.080*[#   7]+0.080*[#   8]
    |psi|^2 = 0.996
==== e(  24) =     9.22698 eV ==== 
     psi = 0.271*[#   2]+0.066*[#  11]+0.066*[#  15]+0.031*[#  20]+0.002*[#  12]
          +0.002*[#  16]+0.001*[#   1]
    |psi|^2 = 0.439
==== e(  25) =    12.91355 eV ==== 
     psi = 0.003*[#  12]+0.003*[#  16]+0.001*[#  11]+0.001*[#  15]
    |psi|^2 = 0.009
==== e(  26) =    12.99872 eV ==== 
     psi = 0.361*[#   2]+0.080*[#  11]+0.080*[#  15]+0.023*[#  12]+0.023*[#  16]
          +0.012*[#  20]+0.006*[#   6]
    |psi|^2 = 0.585
==== e(  27) =    15.87948 eV ==== 

    |psi|^2 = 0.001

Lowdin Charges: 

     Atom #   1: total charge =  15.7773, s =  2.4915, p =  5.9989, d =  7.2868, 
                 spin up      =   8.2360, s =  1.2478, 
                 spin up      =   8.2360, p =  2.9996, pz=  0.9999, px=  0.9998, py=  0.9998, 
                 spin up      =   8.2360, d =  3.9886, dz2=  1.0063, dxz=  0.7118, dyz=  0.7118, dx2-y2=  0.7794, dxy=  0.7794, 
                 spin down    =   7.5413, s =  1.2437, 
                 spin down    =   7.5413, p =  2.9993, pz=  0.9999, px=  0.9997, py=  0.9997, 
                 spin down    =   7.5413, d =  3.2982, dz2=  0.6333, dxz=  0.6587, dyz=  0.6587, dx2-y2=  0.6738, dxy=  0.6738, 
                 polarization =   0.6947, s =  0.0041, p =  0.0003, d =  0.6903, 
     Atom #   2: total charge =   6.6474, s =  1.8417, p =  4.8057, d =  0.0000, 
                 spin up      =   3.3733, s =  0.9218, 
                 spin up      =   3.3733, p =  2.4515, pz=  0.8782, px=  0.7867, py=  0.7867, 
                 spin up      =   3.3733, d =  0.0000, dz2=  0.0000, dxz=  0.0000, dyz=  0.0000, dx2-y2=  0.0000, dxy=  0.0000, 
                 spin down    =   3.2741, s =  0.9199, 
                 spin down    =   3.2741, p =  2.3542, pz=  0.7952, px=  0.7795, py=  0.7795, 
                 spin down    =   3.2741, d =  0.0000, dz2=  0.0000, dxz=  0.0000, dyz=  0.0000, dx2-y2=  0.0000, dxy=  0.0000, 
                 polarization =   0.0992, s =  0.0018, p =  0.0974, d =  0.0000, 
     Atom #   3: total charge =   6.6474, s =  1.8417, p =  4.8057, d =  0.0000, 
                 spin up      =   3.3733, s =  0.9218, 
                 spin up      =   3.3733, p =  2.4515, pz=  0.8782, px=  0.7867, py=  0.7867, 
                 spin up      =   3.3733, d =  0.0000, dz2=  0.0000, dxz=  0.0000, dyz=  0.0000, dx2-y2=  0.0000, dxy=  0.0000, 
                 spin down    =   3.2741, s =  0.9199, 
                 spin down    =   3.2741, p =  2.3542, pz=  0.7952, px=  0.7795, py=  0.7795, 
                 spin down    =   3.2741, d =  0.0000, dz2=  0.0000, dxz=  0.0000, dyz=  0.0000, dx2-y2=  0.0000, dxy=  0.0000, 
                 polarization =   0.0992, s =  0.0018, p =  0.0974, d =  0.0000, 
     Atom #   4: total charge =   8.9538, s =  2.9556, p =  5.9982, d =  0.0000, 
                 spin up      =   4.4720, s =  1.4729, 
                 spin up      =   4.4720, p =  2.9991, pz=  0.9998, px=  0.9996, py=  0.9996, 
                 spin up      =   4.4720, d =  0.0000, dz2=  0.0000, dxz=  0.0000, dyz=  0.0000, dx2-y2=  0.0000, dxy=  0.0000, 
                 spin down    =   4.4818, s =  1.4827, 
                 spin down    =   4.4818, p =  2.9991, pz=  0.9998, px=  0.9996, py=  0.9996, 
                 spin down    =   4.4818, d =  0.0000, dz2=  0.0000, dxz=  0.0000, dyz=  0.0000, dx2-y2=  0.0000, dxy=  0.0000, 
                 polarization =  -0.0099, s = -0.0099, p = -0.0000, d =  0.0000, 
     Spilling Parameter:  -0.0007

     PROJWFC      :      8.04s CPU      4.09s WALL


   This run was terminated on:   6:29:15  12Jul2026            

=------------------------------------------------------------------------------=
   JOB DONE.
=------------------------------------------------------------------------------=
Note: The following floating-point exceptions are signalling: IEEE_DENORMAL
