
     Program PWSCF v.7.3.1 starts on 12Jul2026 at  6:36:43 

     This program is part of the open-source Quantum ESPRESSO suite
     for quantum simulation of materials; please cite
         "P. Giannozzi et al., J. Phys.:Condens. Matter 21 395502 (2009);
         "P. Giannozzi et al., J. Phys.:Condens. Matter 29 465901 (2017);
         "P. Giannozzi et al., J. Chem. Phys. 152 154105 (2020);
          URL http://www.quantum-espresso.org", 
     in publications or presentations arising from this work. More details at
     http://www.quantum-espresso.org/quote

     Parallel version (MPI & OpenMP), running on      14 processor cores
     Number of MPI processes:                 1
     Threads/MPI process:                    14

     MPI processes distributed on     1 nodes
     1362174 MiB available memory on the printing compute node when the environment starts
 
     Reading input from pw.in

     Current dimensions of program PWSCF are:
     Max number of different atomic species (ntypx) = 10
     Max number of k-points (npk) =  40000
     Max angular momentum in pseudopotentials (lmaxx) =  4
     file Co.pbe-spn-kjpaw_psl.0.3.1.UPF: wavefunction(s)  3P 3D renormalized
     file O.pbe-n-kjpaw_psl.1.0.0.UPF: wavefunction(s)  2S 2P renormalized
     file Na.pbe-spn-kjpaw_psl.1.0.0.UPF: wavefunction(s)  2P renormalized
     file H.pbe-kjpaw_psl.1.0.0.UPF: wavefunction(s)  1S renormalized
 
     Subspace diagonalization in iterative solution of the eigenvalue problem:
     a serial algorithm will be used

 
     G-vector sticks info
     --------------------
     sticks:   dense  smooth     PW     G-vecs:    dense   smooth      PW
     Sum        2941    1483    421               256907    90927   13645
 
     Using Slab Decomposition
 


     bravais-lattice index     =            4
     lattice parameter (alat)  =       9.4527  a.u.
     unit-cell volume          =    1447.6983 (a.u.)^3
     number of atoms/cell      =           22
     number of atomic types    =            4
     number of electrons       =       128.00
     number of Kohn-Sham states=           85
     kinetic-energy cutoff     =      60.0000  Ry
     charge density cutoff     =     480.0000  Ry
     scf convergence threshold =      1.0E-07
     mixing beta               =       0.3000
     number of iterations used =            8  local-TF  mixing
     Exchange-correlation= SLA  PW   PBX  PBC
                           (   1   4   3   4   0   0   0)

     GPU acceleration is ACTIVE.  1 visible GPUs per MPI rank
     GPU-aware MPI enabled


     GPU used by master process:

        Device Number: 0
        Device name: NVIDIA A100-SXM4-80GB
        Compute capability : 80
        Ratio of single to double precision performance  : 2
        Memory Clock Rate (KHz): 1593000
        Memory Bus Width (bits): 5120
        Peak Memory Bandwidth (GB/s): ******

     celldm(1)=   9.452718  celldm(2)=   0.000000  celldm(3)=   1.979144
     celldm(4)=   0.000000  celldm(5)=   0.000000  celldm(6)=   0.000000

     crystal axes: (cart. coord. in units of alat)
               a(1) = (   1.000000   0.000000   0.000000 )  
               a(2) = (  -0.500000   0.866025   0.000000 )  
               a(3) = (   0.000000   0.000000   1.979144 )  

     reciprocal axes: (cart. coord. in units 2 pi/alat)
               b(1) = (  1.000000  0.577350 -0.000000 )  
               b(2) = (  0.000000  1.154701  0.000000 )  
               b(3) = (  0.000000 -0.000000  0.505269 )  


     PseudoPot. # 1 for Co read from file:
     ../../pseudo/Co.pbe-spn-kjpaw_psl.0.3.1.UPF
     MD5 check sum: 3c0a43779828c046024e4f3be63f8e67
     Pseudo is Projector augmented-wave + core cor, Zval = 17.0
     Generated using &quot;atomic&quot; code by A. Dal Corso  v.6.2.2
     Shape of augmentation charge: PSQ
     Using radial grid of 1193 points,  6 beta functions with: 
                l(1) =   0
                l(2) =   0
                l(3) =   1
                l(4) =   1
                l(5) =   2
                l(6) =   2
     Q(r) pseudized with 0 coefficients 


     PseudoPot. # 2 for O  read from file:
     ../../pseudo/O.pbe-n-kjpaw_psl.1.0.0.UPF
     MD5 check sum: e99d9cef9b487d1ca56f5b95ecd0fd7a
     Pseudo is Projector augmented-wave + core cor, Zval =  6.0
     Generated using &quot;atomic&quot; code by A. Dal Corso  v.6.3
     Shape of augmentation charge: PSQ
     Using radial grid of 1095 points,  4 beta functions with: 
                l(1) =   0
                l(2) =   0
                l(3) =   1
                l(4) =   1
     Q(r) pseudized with 0 coefficients 


     PseudoPot. # 3 for Na read from file:
     ../../pseudo/Na.pbe-spn-kjpaw_psl.1.0.0.UPF
     MD5 check sum: 05b4deb74e3932c23ab016979dc8b5d4
     Pseudo is Projector augmented-wave + core cor, Zval =  9.0
     Generated using &quot;atomic&quot; code by A. Dal Corso  v.6.3
     Shape of augmentation charge: PSQ
     Using radial grid of 1121 points,  4 beta functions with: 
                l(1) =   0
                l(2) =   0
                l(3) =   1
                l(4) =   1
     Q(r) pseudized with 0 coefficients 


     PseudoPot. # 4 for H  read from file:
     ../../pseudo/H.pbe-kjpaw_psl.1.0.0.UPF
     MD5 check sum: d81a744832360e4a8af0b0b5b123bc2a
     Pseudo is Projector augmented-wave, Zval =  1.0
     Generated using &quot;atomic&quot; code by A. Dal Corso  v.6.3MaX
     Shape of augmentation charge: PSQ
     Using radial grid of  929 points,  2 beta functions with: 
                l(1) =   0
                l(2) =   0
     Q(r) pseudized with 0 coefficients 


     atomic species   valence    mass     pseudopotential
     Co               17.00    58.93300     Co( 1.00)
     O                 6.00    15.99900     O ( 1.00)
     Na                9.00    22.98977     Na( 1.00)
     H                 1.00     1.00800     H ( 1.00)

     Starting magnetic structure 
     atomic species   magnetization
     Co              0.300
     O               0.000
     Na              0.000
     H               0.000

     No symmetry found


                                    s                        frac. trans.

      isym =  1     identity                                     

 cryst.   s( 1) = (     1          0          0      )
                  (     0          1          0      )
                  (     0          0          1      )

 cart.    s( 1) = (  1.0000000  0.0000000  0.0000000 )
                  (  0.0000000  1.0000000  0.0000000 )
                  (  0.0000000  0.0000000  1.0000000 )


     point group C_1 (1)    
     there are  1 classes
     the character table:

       E    
A      1.00

     the symmetry operations in each class and the name of the first element:

     E        1
          identity                                               

   Cartesian axes

     site n.     atom                  positions (alat units)
         1        Co     tau(   1) = (   0.0000000   0.0000000   0.0000000  )
         2        Co     tau(   2) = (  -0.0000000   0.5773503   0.0000000  )
         3        Co     tau(   3) = (   0.5000000   0.2886751   0.0000000  )
         4        O      tau(   4) = (   0.1666667   0.2886751   0.1919170  )
         5        O      tau(   5) = (   0.6666667   0.0000000   0.1919170  )
         6        O      tau(   6) = (  -0.3333333   0.5773503   0.1919170  )
         7        O      tau(   7) = (   0.3333333   0.0000000   1.7872269  )
         8        O      tau(   8) = (   0.3333333   0.5773503   1.7872269  )
         9        O      tau(   9) = (  -0.1666667   0.2886751   1.7872269  )
        10        Na     tau(  10) = (   0.0000000   0.0000000   1.0895287  )
        11        O      tau(  11) = (   0.3333333   0.0000000   0.7496757  )
        12        H      tau(  12) = (   0.5188487   0.0262772   0.7885490  )
        13        H      tau(  13) = (  -0.1727349   0.8397482   0.5602285  )
        14        O      tau(  14) = (  -0.1666667   0.2886751   0.7496757  )
        15        H      tau(  15) = (   0.7178189   0.4361976   0.7885490  )
        16        H      tau(  16) = (  -0.1408758   0.2965585   0.5602285  )
        17        O      tau(  17) = (  -0.0000000   0.5773503   1.2294682  )
        18        H      tau(  18) = (  -0.0756623   0.7513118   1.2043644  )
        19        H      tau(  19) = (   0.0756623   0.5828359   1.4051461  )
        20        O      tau(  20) = (   0.5000000   0.2886751   1.2294682  )
        21        H      tau(  21) = (   0.6128239   0.4411814   1.2043644  )
        22        H      tau(  22) = (   0.5425818   0.2258925   1.4051461  )

     --------------------------------------------
     DFT-D3 Dispersion Correction (3-body terms):
     --------------------------------------------
       Reference C6 values for interpolation: 

         atom   Coordination number   C6
         H          0.912             6.05
         H          0.000            15.18
         O          0.000            31.01
         O          0.993            25.63
         O          1.989            20.74
         Na         0.000          3216.06
         Na         0.968           372.21
         Co         0.000          1065.56
         Co         1.715           373.09
         Co         2.926           296.13
         Co         7.779           236.57

       Values used:

         atom   Coordination number  R0_AB[au]  C6      C8
         Co         6.740            3.243    236.57  20800.86
         Co         6.736            3.243    236.57  20800.86
         Co         6.735            3.243    236.57  20800.86
         O          2.703            2.345     20.74    418.58
         O          2.703            2.345     20.74    418.58
         O          2.703            2.345     20.74    418.58
         O          2.711            2.345     20.74    418.58
         O          2.711            2.345     20.74    418.58
         O          2.711            2.345     20.74    418.58
         Na         4.520            3.504    372.21  48432.19
         O          2.918            2.345     20.74    418.58
         H          1.068            2.062      6.13     74.12
         H          1.017            2.062      6.17     74.54
         O          2.919            2.345     20.74    418.58
         H          1.067            2.062      6.13     74.13
         H          1.017            2.062      6.17     74.54
         O          2.588            2.345     20.74    418.59
         H          1.563            2.062      6.06     73.20
         H          1.035            2.062      6.15     74.38
         O          2.588            2.345     20.74    418.59
         H          1.563            2.062      6.06     73.20
         H          1.035            2.062      6.15     74.38

         Molecular C6 ( Ry / a.u.^6 ) =     16113.20


   Crystallographic axes

     site n.     atom                  positions (cryst. coord.)
         1        Co     tau(   1) = (  0.0000000  0.0000000  0.0000000  )
         2        Co     tau(   2) = (  0.3333333  0.6666667  0.0000000  )
         3        Co     tau(   3) = (  0.6666667  0.3333333  0.0000000  )
         4        O      tau(   4) = (  0.3333333  0.3333333  0.0969697  )
         5        O      tau(   5) = (  0.6666667  0.0000000  0.0969697  )
         6        O      tau(   6) = (  0.0000000  0.6666667  0.0969697  )
         7        O      tau(   7) = (  0.3333333  0.0000000  0.9030303  )
         8        O      tau(   8) = (  0.6666667  0.6666667  0.9030303  )
         9        O      tau(   9) = ( -0.0000000  0.3333333  0.9030303  )
        10        Na     tau(  10) = (  0.0000000  0.0000000  0.5505051  )
        11        O      tau(  11) = (  0.3333333  0.0000000  0.3787879  )
        12        H      tau(  12) = (  0.5340199  0.0303423  0.3984293  )
        13        H      tau(  13) = (  0.3120939  0.9696577  0.2830660  )
        14        O      tau(  14) = ( -0.0000000  0.3333333  0.3787879  )
        15        H      tau(  15) = (  0.9696577  0.5036776  0.3984293  )
        16        H      tau(  16) = (  0.0303423  0.3424362  0.2830660  )
        17        O      tau(  17) = (  0.3333333  0.6666667  0.6212121  )
        18        H      tau(  18) = (  0.3581077  0.8675401  0.6085279  )
        19        H      tau(  19) = (  0.4121628  0.6730009  0.7099767  )
        20        O      tau(  20) = (  0.6666667  0.3333333  0.6212121  )
        21        H      tau(  21) = (  0.8675401  0.5094324  0.6085279  )
        22        H      tau(  22) = (  0.6730009  0.2608382  0.7099767  )

     number of k points=    40  Marzari-Vanderbilt smearing, width (Ry)=  0.0200
                       cart. coord. in units 2pi/alat
        k(    1) = (   0.0000000   0.0000000   0.0000000), wk =   0.0138889
        k(    2) = (   0.0000000   0.0000000  -0.2526345), wk =   0.0138889
        k(    3) = (   0.0000000   0.1924501   0.0000000), wk =   0.0277778
        k(    4) = (   0.0000000   0.1924501  -0.2526345), wk =   0.0277778
        k(    5) = (   0.0000000   0.3849002   0.0000000), wk =   0.0277778
        k(    6) = (   0.0000000   0.3849002  -0.2526345), wk =   0.0277778
        k(    7) = (   0.0000000  -0.5773503   0.0000000), wk =   0.0138889
        k(    8) = (   0.0000000  -0.5773503  -0.2526345), wk =   0.0138889
        k(    9) = (   0.1666667   0.2886751   0.0000000), wk =   0.0277778
        k(   10) = (   0.1666667   0.2886751  -0.2526345), wk =   0.0277778
        k(   11) = (   0.1666667   0.4811252   0.0000000), wk =   0.0277778
        k(   12) = (   0.1666667   0.4811252  -0.2526345), wk =   0.0277778
        k(   13) = (   0.3333333   0.5773503   0.0000000), wk =   0.0277778
        k(   14) = (   0.3333333   0.5773503  -0.2526345), wk =   0.0277778
        k(   15) = (  -0.1666667   0.0962250   0.0000000), wk =   0.0277778
        k(   16) = (   0.1666667   0.0962250   0.0000000), wk =   0.0277778
        k(   17) = (  -0.1666667   0.0962250  -0.2526345), wk =   0.0277778
        k(   18) = (   0.1666667   0.0962250  -0.2526345), wk =   0.0277778
        k(   19) = (  -0.3333333   0.1924501   0.0000000), wk =   0.0277778
        k(   20) = (   0.3333333   0.1924501   0.0000000), wk =   0.0277778
        k(   21) = (  -0.3333333   0.1924501  -0.2526345), wk =   0.0277778
        k(   22) = (   0.3333333   0.1924501  -0.2526345), wk =   0.0277778
        k(   23) = (   0.5000000  -0.2886751   0.0000000), wk =   0.0138889
        k(   24) = (  -0.5000000  -0.2886751   0.0000000), wk =   0.0138889
        k(   25) = (   0.5000000  -0.2886751  -0.2526345), wk =   0.0138889
        k(   26) = (  -0.5000000  -0.2886751  -0.2526345), wk =   0.0138889
        k(   27) = (  -0.1666667   0.2886751   0.0000000), wk =   0.0277778
        k(   28) = (   0.3333333   0.0000000   0.0000000), wk =   0.0277778
        k(   29) = (  -0.1666667   0.2886751   0.2526345), wk =   0.0277778
        k(   30) = (   0.3333333   0.0000000  -0.2526345), wk =   0.0277778
        k(   31) = (  -0.1666667   0.4811252   0.0000000), wk =   0.0277778
        k(   32) = (  -0.3333333   0.3849002   0.0000000), wk =   0.0277778
        k(   33) = (   0.5000000   0.0962250   0.0000000), wk =   0.0277778
        k(   34) = (  -0.3333333  -0.3849002   0.0000000), wk =   0.0277778
        k(   35) = (   0.5000000  -0.0962250   0.0000000), wk =   0.0277778
        k(   36) = (  -0.1666667   0.4811252   0.2526345), wk =   0.0277778
        k(   37) = (  -0.3333333   0.3849002  -0.2526345), wk =   0.0277778
        k(   38) = (   0.5000000   0.0962250  -0.2526345), wk =   0.0277778
        k(   39) = (  -0.3333333  -0.3849002   0.2526345), wk =   0.0277778
        k(   40) = (   0.5000000  -0.0962250   0.2526345), wk =   0.0277778

                       cryst. coord.
        k(    1) = (   0.0000000   0.0000000   0.0000000), wk =   0.0138889
        k(    2) = (   0.0000000   0.0000000  -0.5000000), wk =   0.0138889
        k(    3) = (   0.0000000   0.1666667   0.0000000), wk =   0.0277778
        k(    4) = (   0.0000000   0.1666667  -0.5000000), wk =   0.0277778
        k(    5) = (   0.0000000   0.3333333   0.0000000), wk =   0.0277778
        k(    6) = (   0.0000000   0.3333333  -0.5000000), wk =   0.0277778
        k(    7) = (   0.0000000  -0.5000000   0.0000000), wk =   0.0138889
        k(    8) = (   0.0000000  -0.5000000  -0.5000000), wk =   0.0138889
        k(    9) = (   0.1666667   0.1666667   0.0000000), wk =   0.0277778
        k(   10) = (   0.1666667   0.1666667  -0.5000000), wk =   0.0277778
        k(   11) = (   0.1666667   0.3333333   0.0000000), wk =   0.0277778
        k(   12) = (   0.1666667   0.3333333  -0.5000000), wk =   0.0277778
        k(   13) = (   0.3333333   0.3333333   0.0000000), wk =   0.0277778
        k(   14) = (   0.3333333   0.3333333  -0.5000000), wk =   0.0277778
        k(   15) = (  -0.1666667   0.1666667   0.0000000), wk =   0.0277778
        k(   16) = (   0.1666667  -0.0000000   0.0000000), wk =   0.0277778
        k(   17) = (  -0.1666667   0.1666667  -0.5000000), wk =   0.0277778
        k(   18) = (   0.1666667  -0.0000000  -0.5000000), wk =   0.0277778
        k(   19) = (  -0.3333333   0.3333333   0.0000000), wk =   0.0277778
        k(   20) = (   0.3333333  -0.0000000   0.0000000), wk =   0.0277778
        k(   21) = (  -0.3333333   0.3333333  -0.5000000), wk =   0.0277778
        k(   22) = (   0.3333333  -0.0000000  -0.5000000), wk =   0.0277778
        k(   23) = (   0.5000000  -0.5000000   0.0000000), wk =   0.0138889
        k(   24) = (  -0.5000000   0.0000000   0.0000000), wk =   0.0138889
        k(   25) = (   0.5000000  -0.5000000  -0.5000000), wk =   0.0138889
        k(   26) = (  -0.5000000   0.0000000  -0.5000000), wk =   0.0138889
        k(   27) = (  -0.1666667   0.3333333   0.0000000), wk =   0.0277778
        k(   28) = (   0.3333333  -0.1666667   0.0000000), wk =   0.0277778
        k(   29) = (  -0.1666667   0.3333333   0.5000000), wk =   0.0277778
        k(   30) = (   0.3333333  -0.1666667  -0.5000000), wk =   0.0277778
        k(   31) = (  -0.1666667   0.5000000   0.0000000), wk =   0.0277778
        k(   32) = (  -0.3333333   0.5000000   0.0000000), wk =   0.0277778
        k(   33) = (   0.5000000  -0.1666667   0.0000000), wk =   0.0277778
        k(   34) = (  -0.3333333  -0.1666667   0.0000000), wk =   0.0277778
        k(   35) = (   0.5000000  -0.3333333   0.0000000), wk =   0.0277778
        k(   36) = (  -0.1666667   0.5000000   0.5000000), wk =   0.0277778
        k(   37) = (  -0.3333333   0.5000000  -0.5000000), wk =   0.0277778
        k(   38) = (   0.5000000  -0.1666667  -0.5000000), wk =   0.0277778
        k(   39) = (  -0.3333333  -0.1666667   0.5000000), wk =   0.0277778
        k(   40) = (   0.5000000  -0.3333333   0.5000000), wk =   0.0277778

     Dense  grid:   256907 G-vectors     FFT dimensions: (  72,  72, 135)

     Smooth grid:    90927 G-vectors     FFT dimensions: (  48,  48,  96)

     Dynamical RAM for                 wfc:      14.74 MB

     Dynamical RAM for     wfc (w. buffer):    1193.65 MB

     Dynamical RAM for           str. fact:      15.68 MB

     Dynamical RAM for           local pot:       0.00 MB

     Dynamical RAM for          nlocal pot:      27.39 MB

     Dynamical RAM for                qrad:       7.03 MB

     Dynamical RAM for          rho,v,vnew:      55.56 MB

     Dynamical RAM for               rhoin:      18.52 MB

     Dynamical RAM for            rho*nmix:     125.44 MB

     Dynamical RAM for           G-vectors:      15.39 MB

     Dynamical RAM for          h,s,v(r/c):       1.32 MB

     Dynamical RAM for          <psi|beta>:       0.20 MB

     Dynamical RAM for                 psi:      29.47 MB

     Dynamical RAM for                hpsi:      29.47 MB

     Dynamical RAM for                spsi:      29.47 MB

     Dynamical RAM for      wfcinit/wfcrot:      29.64 MB

     Dynamical RAM for           addusdens:     772.26 MB

     Dynamical RAM for          addusforce:     842.90 MB

     Estimated static dynamical RAM per process >       1.35 GB

     Estimated max dynamical RAM per process >       2.30 GB

     Check: negative core charge=   -0.000006
     Generating pointlists ...
     new r_m :   0.1587 (alat units)  1.4998 (a.u.) for type    1
     new r_m :   0.0789 (alat units)  0.7461 (a.u.) for type    2
     new r_m :   0.1874 (alat units)  1.7715 (a.u.) for type    3
     new r_m :   0.0789 (alat units)  0.7461 (a.u.) for type    4

     Initial potential from superposition of free atoms

     starting charge     127.9928, renormalised to     128.0000
     Starting wfcs are   83 randomized atomic wfcs +    2 random wfcs
     Checking if some PAW data can be deallocated... 

     total cpu time spent up to now is        7.7 secs

     Self-consistent Calculation
[tb_dev] Currently allocated     1.27E+00 Mbytes, locked:    0 /   6
[tb_pin] Currently allocated     0.00E+00 Mbytes, locked:    0 /   0

     iteration #  1     ecut=    60.00 Ry     beta= 0.30
     Davidson diagonalization with overlap

---- Real-time Memory Report at c_bands before calling an iterative solver
          1949 MiB given to the printing process from OS
             0 MiB allocation reported by mallinfo(arena+hblkhd)
       1360927 MiB available memory on the node where the printing process lives
     GPU memory used/free/total (MiB): 2068 / 79082 / 81151
------------------
     ethr =  1.00E-02,  avg # of iterations =  8.5

     total cpu time spent up to now is       17.0 secs

     total energy              =   -1664.68589733 Ry
     estimated scf accuracy    <       7.55988010 Ry

     total magnetization       =    14.00 Bohr mag/cell
     absolute magnetization    =    14.01 Bohr mag/cell
[tb_dev] Currently allocated     1.68E-04 Mbytes, locked:    0 /   2
[tb_pin] Currently allocated     0.00E+00 Mbytes, locked:    0 /   0

     iteration #  2     ecut=    60.00 Ry     beta= 0.30
     Davidson diagonalization with overlap

---- Real-time Memory Report at c_bands before calling an iterative solver
          2014 MiB given to the printing process from OS
             0 MiB allocation reported by mallinfo(arena+hblkhd)
       1345694 MiB available memory on the node where the printing process lives
     GPU memory used/free/total (MiB): 2124 / 79026 / 81151
------------------
     ethr =  5.91E-03,  avg # of iterations =  2.0

     total cpu time spent up to now is       22.5 secs

     total energy              =   -1664.89822795 Ry
     estimated scf accuracy    <       1.68446837 Ry

     total magnetization       =    10.77 Bohr mag/cell
     absolute magnetization    =    10.78 Bohr mag/cell
[tb_dev] Currently allocated     1.68E-04 Mbytes, locked:    0 /   2
[tb_pin] Currently allocated     0.00E+00 Mbytes, locked:    0 /   0

     iteration #  3     ecut=    60.00 Ry     beta= 0.30
     Davidson diagonalization with overlap

---- Real-time Memory Report at c_bands before calling an iterative solver
          2027 MiB given to the printing process from OS
             0 MiB allocation reported by mallinfo(arena+hblkhd)
       1336449 MiB available memory on the node where the printing process lives
     GPU memory used/free/total (MiB): 2124 / 79026 / 81151
------------------
     ethr =  1.32E-03,  avg # of iterations =  2.9

     total cpu time spent up to now is       28.8 secs

     total energy              =   -1665.23803554 Ry
     estimated scf accuracy    <       2.39961426 Ry

     total magnetization       =     4.06 Bohr mag/cell
     absolute magnetization    =     4.81 Bohr mag/cell
[tb_dev] Currently allocated     1.68E-04 Mbytes, locked:    0 /   2
[tb_pin] Currently allocated     0.00E+00 Mbytes, locked:    0 /   0

     iteration #  4     ecut=    60.00 Ry     beta= 0.30
     Davidson diagonalization with overlap

---- Real-time Memory Report at c_bands before calling an iterative solver
          2038 MiB given to the printing process from OS
             0 MiB allocation reported by mallinfo(arena+hblkhd)
       1326659 MiB available memory on the node where the printing process lives
     GPU memory used/free/total (MiB): 2124 / 79026 / 81151
------------------
     ethr =  1.32E-03,  avg # of iterations =  1.1

     total cpu time spent up to now is       34.1 secs

     total energy              =   -1665.39232814 Ry
     estimated scf accuracy    <       0.65329712 Ry

     total magnetization       =     6.34 Bohr mag/cell
     absolute magnetization    =     6.54 Bohr mag/cell
[tb_dev] Currently allocated     1.68E-04 Mbytes, locked:    0 /   2
[tb_pin] Currently allocated     0.00E+00 Mbytes, locked:    0 /   0

     iteration #  5     ecut=    60.00 Ry     beta= 0.30
     Davidson diagonalization with overlap

---- Real-time Memory Report at c_bands before calling an iterative solver
          2043 MiB given to the printing process from OS
             0 MiB allocation reported by mallinfo(arena+hblkhd)
       1325798 MiB available memory on the node where the printing process lives
     GPU memory used/free/total (MiB): 2124 / 79026 / 81151
------------------
     ethr =  5.10E-04,  avg # of iterations =  2.1

     total cpu time spent up to now is       39.8 secs

     total energy              =   -1665.49140712 Ry
     estimated scf accuracy    <       0.68394140 Ry

     total magnetization       =     3.25 Bohr mag/cell
     absolute magnetization    =     4.34 Bohr mag/cell
[tb_dev] Currently allocated     1.68E-04 Mbytes, locked:    0 /   2
[tb_pin] Currently allocated     0.00E+00 Mbytes, locked:    0 /   0

     iteration #  6     ecut=    60.00 Ry     beta= 0.30
     Davidson diagonalization with overlap

---- Real-time Memory Report at c_bands before calling an iterative solver
          2060 MiB given to the printing process from OS
             0 MiB allocation reported by mallinfo(arena+hblkhd)
       1324385 MiB available memory on the node where the printing process lives
     GPU memory used/free/total (MiB): 2124 / 79026 / 81151
------------------
     ethr =  5.10E-04,  avg # of iterations =  1.3

     total cpu time spent up to now is       45.1 secs

     total energy              =   -1665.64111820 Ry
     estimated scf accuracy    <       0.39558493 Ry

     total magnetization       =     2.27 Bohr mag/cell
     absolute magnetization    =     3.70 Bohr mag/cell
[tb_dev] Currently allocated     1.68E-04 Mbytes, locked:    0 /   2
[tb_pin] Currently allocated     0.00E+00 Mbytes, locked:    0 /   0

     iteration #  7     ecut=    60.00 Ry     beta= 0.30
     Davidson diagonalization with overlap

---- Real-time Memory Report at c_bands before calling an iterative solver
          2068 MiB given to the printing process from OS
             0 MiB allocation reported by mallinfo(arena+hblkhd)
       1323966 MiB available memory on the node where the printing process lives
     GPU memory used/free/total (MiB): 2124 / 79026 / 81151
------------------
     ethr =  3.09E-04,  avg # of iterations =  3.6

     total cpu time spent up to now is       51.5 secs

     total energy              =   -1665.61906463 Ry
     estimated scf accuracy    <       1.07710826 Ry

     total magnetization       =     2.36 Bohr mag/cell
     absolute magnetization    =     2.64 Bohr mag/cell
[tb_dev] Currently allocated     1.68E-04 Mbytes, locked:    0 /   2
[tb_pin] Currently allocated     0.00E+00 Mbytes, locked:    0 /   0

     iteration #  8     ecut=    60.00 Ry     beta= 0.30
     Davidson diagonalization with overlap

---- Real-time Memory Report at c_bands before calling an iterative solver
          2073 MiB given to the printing process from OS
             0 MiB allocation reported by mallinfo(arena+hblkhd)
       1322757 MiB available memory on the node where the printing process lives
     GPU memory used/free/total (MiB): 2124 / 79026 / 81151
------------------
     ethr =  3.09E-04,  avg # of iterations =  2.2

     total cpu time spent up to now is       57.3 secs

     total energy              =   -1665.62727051 Ry
     estimated scf accuracy    <       0.33207675 Ry

     total magnetization       =     2.06 Bohr mag/cell
     absolute magnetization    =     2.59 Bohr mag/cell
[tb_dev] Currently allocated     1.68E-04 Mbytes, locked:    0 /   2
[tb_pin] Currently allocated     0.00E+00 Mbytes, locked:    0 /   0

     iteration #  9     ecut=    60.00 Ry     beta= 0.30
     Davidson diagonalization with overlap

---- Real-time Memory Report at c_bands before calling an iterative solver
          2081 MiB given to the printing process from OS
             0 MiB allocation reported by mallinfo(arena+hblkhd)
       1321916 MiB available memory on the node where the printing process lives
     GPU memory used/free/total (MiB): 2124 / 79026 / 81151
------------------
     ethr =  2.59E-04,  avg # of iterations =  1.6

     total cpu time spent up to now is       62.9 secs

     total energy              =   -1665.62911333 Ry
     estimated scf accuracy    <       0.17966758 Ry

     total magnetization       =     2.02 Bohr mag/cell
     absolute magnetization    =     2.54 Bohr mag/cell
[tb_dev] Currently allocated     1.68E-04 Mbytes, locked:    0 /   2
[tb_pin] Currently allocated     0.00E+00 Mbytes, locked:    0 /   0

     iteration # 10     ecut=    60.00 Ry     beta= 0.30
     Davidson diagonalization with overlap

---- Real-time Memory Report at c_bands before calling an iterative solver
          2089 MiB given to the printing process from OS
             0 MiB allocation reported by mallinfo(arena+hblkhd)
       1320333 MiB available memory on the node where the printing process lives
     GPU memory used/free/total (MiB): 2124 / 79026 / 81151
------------------
     ethr =  1.40E-04,  avg # of iterations =  5.9

     total cpu time spent up to now is       70.2 secs

     total energy              =   -1665.63777108 Ry
     estimated scf accuracy    <       0.03873818 Ry

     total magnetization       =     2.23 Bohr mag/cell
     absolute magnetization    =     2.34 Bohr mag/cell
[tb_dev] Currently allocated     1.68E-04 Mbytes, locked:    0 /   2
[tb_pin] Currently allocated     0.00E+00 Mbytes, locked:    0 /   0

     iteration # 11     ecut=    60.00 Ry     beta= 0.30
     Davidson diagonalization with overlap

---- Real-time Memory Report at c_bands before calling an iterative solver
          2097 MiB given to the printing process from OS
             0 MiB allocation reported by mallinfo(arena+hblkhd)
       1318762 MiB available memory on the node where the printing process lives
     GPU memory used/free/total (MiB): 2124 / 79026 / 81151
------------------
     c_bands:  1 eigenvalues not converged
     c_bands:  1 eigenvalues not converged
     c_bands:  2 eigenvalues not converged
     c_bands:  1 eigenvalues not converged
     c_bands:  1 eigenvalues not converged
     c_bands:  1 eigenvalues not converged
     c_bands:  1 eigenvalues not converged
     c_bands:  1 eigenvalues not converged
     c_bands:  1 eigenvalues not converged
     c_bands:  1 eigenvalues not converged
     c_bands:  1 eigenvalues not converged
     c_bands:  1 eigenvalues not converged
     c_bands:  1 eigenvalues not converged
     c_bands:  1 eigenvalues not converged
     c_bands:  1 eigenvalues not converged
     c_bands:  1 eigenvalues not converged
     c_bands:  1 eigenvalues not converged
     c_bands:  1 eigenvalues not converged
     c_bands:  2 eigenvalues not converged
     c_bands:  1 eigenvalues not converged
     c_bands:  1 eigenvalues not converged
     c_bands:  1 eigenvalues not converged
     c_bands:  1 eigenvalues not converged
     c_bands:  1 eigenvalues not converged
     c_bands:  1 eigenvalues not converged
     c_bands:  1 eigenvalues not converged
     c_bands:  1 eigenvalues not converged
     c_bands:  1 eigenvalues not converged
     ethr =  3.03E-05,  avg # of iterations = 15.3

     total cpu time spent up to now is       81.9 secs

     total energy              =   -1665.63188905 Ry
     estimated scf accuracy    <       0.02741604 Ry

     total magnetization       =     2.33 Bohr mag/cell
     absolute magnetization    =     2.38 Bohr mag/cell
[tb_dev] Currently allocated     1.68E-04 Mbytes, locked:    0 /   2
[tb_pin] Currently allocated     0.00E+00 Mbytes, locked:    0 /   0

     iteration # 12     ecut=    60.00 Ry     beta= 0.30
     Davidson diagonalization with overlap

---- Real-time Memory Report at c_bands before calling an iterative solver
          2097 MiB given to the printing process from OS
             0 MiB allocation reported by mallinfo(arena+hblkhd)
       1337045 MiB available memory on the node where the printing process lives
     GPU memory used/free/total (MiB): 2124 / 79026 / 81151
------------------
     c_bands:  1 eigenvalues not converged
     c_bands:  1 eigenvalues not converged
     c_bands:  1 eigenvalues not converged
     c_bands:  1 eigenvalues not converged
     c_bands:  1 eigenvalues not converged
     c_bands:  1 eigenvalues not converged
     c_bands:  1 eigenvalues not converged
     c_bands:  1 eigenvalues not converged
     c_bands:  1 eigenvalues not converged
     c_bands:  1 eigenvalues not converged
     c_bands:  1 eigenvalues not converged
     ethr =  2.14E-05,  avg # of iterations =  8.1

     total cpu time spent up to now is       90.8 secs

     total energy              =   -1665.63500703 Ry
     estimated scf accuracy    <       0.04111212 Ry

     total magnetization       =     2.17 Bohr mag/cell
     absolute magnetization    =     2.23 Bohr mag/cell
[tb_dev] Currently allocated     1.68E-04 Mbytes, locked:    0 /   2
[tb_pin] Currently allocated     0.00E+00 Mbytes, locked:    0 /   0

     iteration # 13     ecut=    60.00 Ry     beta= 0.30
     Davidson diagonalization with overlap

---- Real-time Memory Report at c_bands before calling an iterative solver
          2098 MiB given to the printing process from OS
             0 MiB allocation reported by mallinfo(arena+hblkhd)
       1335559 MiB available memory on the node where the printing process lives
     GPU memory used/free/total (MiB): 2124 / 79026 / 81151
------------------
     c_bands:  1 eigenvalues not converged
     c_bands:  1 eigenvalues not converged
     ethr =  2.14E-05,  avg # of iterations =  2.9

     total cpu time spent up to now is       96.9 secs

     total energy              =   -1665.63644595 Ry
     estimated scf accuracy    <       0.01104951 Ry

     total magnetization       =     2.24 Bohr mag/cell
     absolute magnetization    =     2.28 Bohr mag/cell
[tb_dev] Currently allocated     1.68E-04 Mbytes, locked:    0 /   2
[tb_pin] Currently allocated     0.00E+00 Mbytes, locked:    0 /   0

     iteration # 14     ecut=    60.00 Ry     beta= 0.30
     Davidson diagonalization with overlap

---- Real-time Memory Report at c_bands before calling an iterative solver
          2098 MiB given to the printing process from OS
             0 MiB allocation reported by mallinfo(arena+hblkhd)
       1355630 MiB available memory on the node where the printing process lives
     GPU memory used/free/total (MiB): 2124 / 79026 / 81151
------------------
     c_bands:  1 eigenvalues not converged
     c_bands:  1 eigenvalues not converged
     c_bands:  1 eigenvalues not converged
     c_bands:  1 eigenvalues not converged
     c_bands:  1 eigenvalues not converged
     c_bands:  1 eigenvalues not converged
     c_bands:  1 eigenvalues not converged
     c_bands:  1 eigenvalues not converged
     c_bands:  1 eigenvalues not converged
     c_bands:  1 eigenvalues not converged
     ethr =  8.63E-06,  avg # of iterations = 10.0

     total cpu time spent up to now is      106.5 secs

     total energy              =   -1665.63598729 Ry
     estimated scf accuracy    <       0.00507427 Ry

     total magnetization       =     2.21 Bohr mag/cell
     absolute magnetization    =     2.25 Bohr mag/cell
[tb_dev] Currently allocated     1.68E-04 Mbytes, locked:    0 /   2
[tb_pin] Currently allocated     0.00E+00 Mbytes, locked:    0 /   0

     iteration # 15     ecut=    60.00 Ry     beta= 0.30
     Davidson diagonalization with overlap

---- Real-time Memory Report at c_bands before calling an iterative solver
          2098 MiB given to the printing process from OS
             0 MiB allocation reported by mallinfo(arena+hblkhd)
       1355429 MiB available memory on the node where the printing process lives
     GPU memory used/free/total (MiB): 2124 / 79026 / 81151
------------------
     c_bands:  1 eigenvalues not converged
     c_bands:  1 eigenvalues not converged
     c_bands:  1 eigenvalues not converged
     c_bands:  1 eigenvalues not converged
     c_bands:  1 eigenvalues not converged
     c_bands:  2 eigenvalues not converged
     c_bands:  2 eigenvalues not converged
     c_bands:  1 eigenvalues not converged
     c_bands:  2 eigenvalues not converged
     c_bands:  1 eigenvalues not converged
     c_bands:  1 eigenvalues not converged
     c_bands:  2 eigenvalues not converged
     c_bands:  2 eigenvalues not converged
     c_bands:  2 eigenvalues not converged
     c_bands:  2 eigenvalues not converged
     c_bands:  1 eigenvalues not converged
     c_bands:  1 eigenvalues not converged
     c_bands:  1 eigenvalues not converged
     c_bands:  1 eigenvalues not converged
     c_bands:  2 eigenvalues not converged
     c_bands:  1 eigenvalues not converged
     c_bands:  1 eigenvalues not converged
     c_bands:  1 eigenvalues not converged
     c_bands:  1 eigenvalues not converged
     c_bands:  1 eigenvalues not converged
     c_bands:  1 eigenvalues not converged
     c_bands:  1 eigenvalues not converged
     ethr =  3.96E-06,  avg # of iterations = 15.2

     total cpu time spent up to now is      118.3 secs

     total energy              =   -1665.63672871 Ry
     estimated scf accuracy    <       0.00206156 Ry

     total magnetization       =     2.36 Bohr mag/cell
     absolute magnetization    =     2.40 Bohr mag/cell
[tb_dev] Currently allocated     1.68E-04 Mbytes, locked:    0 /   2
[tb_pin] Currently allocated     0.00E+00 Mbytes, locked:    0 /   0

     iteration # 16     ecut=    60.00 Ry     beta= 0.30
     Davidson diagonalization with overlap

---- Real-time Memory Report at c_bands before calling an iterative solver
          2098 MiB given to the printing process from OS
             0 MiB allocation reported by mallinfo(arena+hblkhd)
       1354349 MiB available memory on the node where the printing process lives
     GPU memory used/free/total (MiB): 2124 / 79026 / 81151
------------------
     c_bands:  1 eigenvalues not converged
     c_bands:  1 eigenvalues not converged
     c_bands:  1 eigenvalues not converged
     c_bands:  1 eigenvalues not converged
     c_bands:  1 eigenvalues not converged
     c_bands:  1 eigenvalues not converged
     c_bands:  1 eigenvalues not converged
     c_bands:  1 eigenvalues not converged
     c_bands:  1 eigenvalues not converged
     c_bands:  1 eigenvalues not converged
     c_bands:  1 eigenvalues not converged
     c_bands:  1 eigenvalues not converged
     c_bands:  1 eigenvalues not converged
     c_bands:  1 eigenvalues not converged
     c_bands:  1 eigenvalues not converged
     ethr =  1.61E-06,  avg # of iterations =  9.7

     total cpu time spent up to now is      127.8 secs

     total energy              =   -1665.63689331 Ry
     estimated scf accuracy    <       0.00062671 Ry

     total magnetization       =     2.31 Bohr mag/cell
     absolute magnetization    =     2.35 Bohr mag/cell
[tb_dev] Currently allocated     1.68E-04 Mbytes, locked:    0 /   2
[tb_pin] Currently allocated     0.00E+00 Mbytes, locked:    0 /   0

     iteration # 17     ecut=    60.00 Ry     beta= 0.30
     Davidson diagonalization with overlap

---- Real-time Memory Report at c_bands before calling an iterative solver
          2098 MiB given to the printing process from OS
             0 MiB allocation reported by mallinfo(arena+hblkhd)
       1352391 MiB available memory on the node where the printing process lives
     GPU memory used/free/total (MiB): 2124 / 79026 / 81151
------------------
     c_bands:  1 eigenvalues not converged
     ethr =  4.90E-07,  avg # of iterations =  4.6

     total cpu time spent up to now is      135.0 secs

     total energy              =   -1665.63695095 Ry
     estimated scf accuracy    <       0.00041785 Ry

     total magnetization       =     2.30 Bohr mag/cell
     absolute magnetization    =     2.34 Bohr mag/cell
[tb_dev] Currently allocated     1.68E-04 Mbytes, locked:    0 /   2
[tb_pin] Currently allocated     0.00E+00 Mbytes, locked:    0 /   0

     iteration # 18     ecut=    60.00 Ry     beta= 0.30
     Davidson diagonalization with overlap

---- Real-time Memory Report at c_bands before calling an iterative solver
          2098 MiB given to the printing process from OS
             0 MiB allocation reported by mallinfo(arena+hblkhd)
       1350667 MiB available memory on the node where the printing process lives
     GPU memory used/free/total (MiB): 2124 / 79026 / 81151
------------------
     ethr =  3.26E-07,  avg # of iterations =  3.0

     total cpu time spent up to now is      141.2 secs

     total energy              =   -1665.63696280 Ry
     estimated scf accuracy    <       0.00036458 Ry

     total magnetization       =     2.30 Bohr mag/cell
     absolute magnetization    =     2.34 Bohr mag/cell
[tb_dev] Currently allocated     1.68E-04 Mbytes, locked:    0 /   2
[tb_pin] Currently allocated     0.00E+00 Mbytes, locked:    0 /   0

     iteration # 19     ecut=    60.00 Ry     beta= 0.30
     Davidson diagonalization with overlap

---- Real-time Memory Report at c_bands before calling an iterative solver
          2098 MiB given to the printing process from OS
             0 MiB allocation reported by mallinfo(arena+hblkhd)
       1342186 MiB available memory on the node where the printing process lives
     GPU memory used/free/total (MiB): 2124 / 79026 / 81151
------------------
     ethr =  2.85E-07,  avg # of iterations =  2.0

     total cpu time spent up to now is      146.9 secs

     total energy              =   -1665.63700089 Ry
     estimated scf accuracy    <       0.00006798 Ry

     total magnetization       =     2.30 Bohr mag/cell
     absolute magnetization    =     2.35 Bohr mag/cell
[tb_dev] Currently allocated     1.68E-04 Mbytes, locked:    0 /   2
[tb_pin] Currently allocated     0.00E+00 Mbytes, locked:    0 /   0

     iteration # 20     ecut=    60.00 Ry     beta= 0.30
     Davidson diagonalization with overlap

---- Real-time Memory Report at c_bands before calling an iterative solver
          2098 MiB given to the printing process from OS
             0 MiB allocation reported by mallinfo(arena+hblkhd)
       1332678 MiB available memory on the node where the printing process lives
     GPU memory used/free/total (MiB): 2124 / 79026 / 81151
------------------
     c_bands:  1 eigenvalues not converged
     c_bands:  1 eigenvalues not converged
     ethr =  5.31E-08,  avg # of iterations =  8.8

     total cpu time spent up to now is      156.1 secs

     total energy              =   -1665.63702596 Ry
     estimated scf accuracy    <       0.00004865 Ry

     total magnetization       =     2.30 Bohr mag/cell
     absolute magnetization    =     2.34 Bohr mag/cell
[tb_dev] Currently allocated     1.68E-04 Mbytes, locked:    0 /   2
[tb_pin] Currently allocated     0.00E+00 Mbytes, locked:    0 /   0

     iteration # 21     ecut=    60.00 Ry     beta= 0.30
     Davidson diagonalization with overlap

---- Real-time Memory Report at c_bands before calling an iterative solver
          2098 MiB given to the printing process from OS
             0 MiB allocation reported by mallinfo(arena+hblkhd)
       1332553 MiB available memory on the node where the printing process lives
     GPU memory used/free/total (MiB): 2124 / 79026 / 81151
------------------
     ethr =  3.80E-08,  avg # of iterations =  2.4

     total cpu time spent up to now is      161.9 secs

     total energy              =   -1665.63702362 Ry
     estimated scf accuracy    <       0.00002982 Ry

     total magnetization       =     2.30 Bohr mag/cell
     absolute magnetization    =     2.34 Bohr mag/cell
[tb_dev] Currently allocated     1.68E-04 Mbytes, locked:    0 /   2
[tb_pin] Currently allocated     0.00E+00 Mbytes, locked:    0 /   0

     iteration # 22     ecut=    60.00 Ry     beta= 0.30
     Davidson diagonalization with overlap

---- Real-time Memory Report at c_bands before calling an iterative solver
          2098 MiB given to the printing process from OS
             0 MiB allocation reported by mallinfo(arena+hblkhd)
       1345880 MiB available memory on the node where the printing process lives
     GPU memory used/free/total (MiB): 2124 / 79026 / 81151
------------------
     ethr =  2.33E-08,  avg # of iterations =  2.2

     total cpu time spent up to now is      167.7 secs

     total energy              =   -1665.63702226 Ry
     estimated scf accuracy    <       0.00002006 Ry

     total magnetization       =     2.30 Bohr mag/cell
     absolute magnetization    =     2.34 Bohr mag/cell
[tb_dev] Currently allocated     1.68E-04 Mbytes, locked:    0 /   2
[tb_pin] Currently allocated     0.00E+00 Mbytes, locked:    0 /   0

     iteration # 23     ecut=    60.00 Ry     beta= 0.30
     Davidson diagonalization with overlap

---- Real-time Memory Report at c_bands before calling an iterative solver
          2098 MiB given to the printing process from OS
             0 MiB allocation reported by mallinfo(arena+hblkhd)
       1335981 MiB available memory on the node where the printing process lives
     GPU memory used/free/total (MiB): 2124 / 79026 / 81151
------------------
     ethr =  1.57E-08,  avg # of iterations =  2.0

     total cpu time spent up to now is      173.4 secs

     total energy              =   -1665.63702298 Ry
     estimated scf accuracy    <       0.00000780 Ry

     total magnetization       =     2.30 Bohr mag/cell
     absolute magnetization    =     2.34 Bohr mag/cell
[tb_dev] Currently allocated     1.68E-04 Mbytes, locked:    0 /   2
[tb_pin] Currently allocated     0.00E+00 Mbytes, locked:    0 /   0

     iteration # 24     ecut=    60.00 Ry     beta= 0.30
     Davidson diagonalization with overlap

---- Real-time Memory Report at c_bands before calling an iterative solver
          2098 MiB given to the printing process from OS
             0 MiB allocation reported by mallinfo(arena+hblkhd)
       1325762 MiB available memory on the node where the printing process lives
     GPU memory used/free/total (MiB): 2124 / 79026 / 81151
------------------
     ethr =  6.09E-09,  avg # of iterations =  3.8

     total cpu time spent up to now is      179.9 secs

     total energy              =   -1665.63702415 Ry
     estimated scf accuracy    <       0.00000328 Ry

     total magnetization       =     2.30 Bohr mag/cell
     absolute magnetization    =     2.34 Bohr mag/cell
[tb_dev] Currently allocated     1.68E-04 Mbytes, locked:    0 /   2
[tb_pin] Currently allocated     0.00E+00 Mbytes, locked:    0 /   0

     iteration # 25     ecut=    60.00 Ry     beta= 0.30
     Davidson diagonalization with overlap

---- Real-time Memory Report at c_bands before calling an iterative solver
          2098 MiB given to the printing process from OS
             0 MiB allocation reported by mallinfo(arena+hblkhd)
       1315027 MiB available memory on the node where the printing process lives
     GPU memory used/free/total (MiB): 2124 / 79026 / 81151
------------------
     ethr =  2.56E-09,  avg # of iterations =  4.5

     total cpu time spent up to now is      186.7 secs

     total energy              =   -1665.63702464 Ry
     estimated scf accuracy    <       0.00000141 Ry

     total magnetization       =     2.30 Bohr mag/cell
     absolute magnetization    =     2.34 Bohr mag/cell
[tb_dev] Currently allocated     1.68E-04 Mbytes, locked:    0 /   2
[tb_pin] Currently allocated     0.00E+00 Mbytes, locked:    0 /   0

     iteration # 26     ecut=    60.00 Ry     beta= 0.30
     Davidson diagonalization with overlap

---- Real-time Memory Report at c_bands before calling an iterative solver
          2098 MiB given to the printing process from OS
             0 MiB allocation reported by mallinfo(arena+hblkhd)
       1347580 MiB available memory on the node where the printing process lives
     GPU memory used/free/total (MiB): 2124 / 79026 / 81151
------------------
     ethr =  1.10E-09,  avg # of iterations =  3.9

     total cpu time spent up to now is      193.4 secs

     total energy              =   -1665.63702457 Ry
     estimated scf accuracy    <       0.00000078 Ry

     total magnetization       =     2.30 Bohr mag/cell
     absolute magnetization    =     2.34 Bohr mag/cell
[tb_dev] Currently allocated     1.68E-04 Mbytes, locked:    0 /   2
[tb_pin] Currently allocated     0.00E+00 Mbytes, locked:    0 /   0

     iteration # 27     ecut=    60.00 Ry     beta= 0.30
     Davidson diagonalization with overlap

---- Real-time Memory Report at c_bands before calling an iterative solver
          2098 MiB given to the printing process from OS
             0 MiB allocation reported by mallinfo(arena+hblkhd)
       1336907 MiB available memory on the node where the printing process lives
     GPU memory used/free/total (MiB): 2124 / 79026 / 81151
------------------
     ethr =  6.13E-10,  avg # of iterations =  2.6

     total cpu time spent up to now is      199.4 secs

     total energy              =   -1665.63702465 Ry
     estimated scf accuracy    <       0.00000015 Ry

     total magnetization       =     2.30 Bohr mag/cell
     absolute magnetization    =     2.34 Bohr mag/cell
[tb_dev] Currently allocated     1.68E-04 Mbytes, locked:    0 /   2
[tb_pin] Currently allocated     0.00E+00 Mbytes, locked:    0 /   0

     iteration # 28     ecut=    60.00 Ry     beta= 0.30
     Davidson diagonalization with overlap

---- Real-time Memory Report at c_bands before calling an iterative solver
          2098 MiB given to the printing process from OS
             0 MiB allocation reported by mallinfo(arena+hblkhd)
       1327069 MiB available memory on the node where the printing process lives
     GPU memory used/free/total (MiB): 2124 / 79026 / 81151
------------------
     ethr =  1.21E-10,  avg # of iterations =  6.8
 
     Magnetic moment per site  (integrated on atomic sphere of radius R)
     atom   1 (R=0.159)  charge= 14.0978  magn=  0.5951
     atom   2 (R=0.159)  charge= 14.0999  magn=  0.5900
     atom   3 (R=0.159)  charge= 14.0991  magn=  0.5887
     atom   4 (R=0.079)  charge=  1.8582  magn=  0.0277
     atom   5 (R=0.079)  charge=  1.8581  magn=  0.0263
     atom   6 (R=0.079)  charge=  1.8588  magn=  0.0262
     atom   7 (R=0.079)  charge=  1.8594  magn=  0.0232
     atom   8 (R=0.079)  charge=  1.8596  magn=  0.0249
     atom   9 (R=0.079)  charge=  1.8592  magn=  0.0244
     atom  10 (R=0.187)  charge=  7.8864  magn=  0.0001
     atom  11 (R=0.079)  charge=  1.9156  magn=  0.0006
     atom  12 (R=0.079)  charge=  0.3959  magn=  0.0000
     atom  13 (R=0.079)  charge=  0.3901  magn=  0.0000
     atom  14 (R=0.079)  charge=  1.9140  magn=  0.0006
     atom  15 (R=0.079)  charge=  0.4004  magn=  0.0000
     atom  16 (R=0.079)  charge=  0.3898  magn=  0.0000
     atom  17 (R=0.079)  charge=  1.9105  magn=  0.0005
     atom  18 (R=0.079)  charge=  0.4031  magn=  0.0000
     atom  19 (R=0.079)  charge=  0.3913  magn=  0.0000
     atom  20 (R=0.079)  charge=  1.9129  magn=  0.0005
     atom  21 (R=0.079)  charge=  0.4004  magn=  0.0000
     atom  22 (R=0.079)  charge=  0.3924  magn=  0.0000

     total cpu time spent up to now is      207.4 secs

     End of self-consistent calculation

 ------ SPIN UP ------------


          k = 0.0000 0.0000 0.0000 ( 11393 PWs)   bands (ev):

   -91.5612 -91.5521 -91.5486 -54.8055 -54.8014 -54.7970 -54.7966 -54.7872
   -54.7770 -54.7725 -54.7597 -54.7592 -48.2396 -20.1879 -20.1672 -20.1045
   -17.9198 -17.3055 -16.9717 -16.4395 -15.0611 -13.4085 -13.4027 -13.3656
   -13.3569 -13.1644  -5.6383  -5.4814  -4.5195  -4.3321  -1.9586  -1.6565
    -1.3437  -1.2471  -1.1644  -1.1489  -1.1250  -1.0406  -1.0104  -0.8637
    -0.8596  -0.7386  -0.7193   0.2588   0.5986   0.8505   0.8842   0.8891
     0.9008   1.1254   1.2443   1.2636   1.7407   2.2723   2.6210   2.6256
     2.6539   2.6561   2.8179   2.8263   3.6977   3.7013   3.7131   3.7202
     3.8733   5.7838   5.7961   5.8074   5.8185   6.4201   6.5469   6.5519
     8.8175  10.4879  11.3466  11.5421  12.6925  12.8158  13.2785  13.3719
    13.8390  14.3053  14.5189  14.7595  15.2037

     occupation numbers 
     1.0000   1.0000   1.0000   1.0000   1.0000   1.0000   1.0000   1.0000
     1.0000   1.0000   1.0000   1.0000   1.0000   1.0000   1.0000   1.0000
     1.0000   1.0000   1.0000   1.0000   1.0000   1.0000   1.0000   1.0000
     1.0000   1.0000   1.0000   1.0000   1.0000   1.0000   1.0000   1.0000
     1.0000   1.0000   1.0000   1.0000   1.0000   1.0000   1.0000   1.0000
     1.0000   1.0000   1.0000   1.0000   1.0000   1.0000   1.0000   1.0000
     1.0000   1.0000   1.0000   1.0000   1.0000   1.0000   1.0000   1.0000
     1.0000   1.0000   1.0000   1.0000   1.0191   1.0198   1.0224   1.0240
     1.0719   0.0000   0.0000   0.0000   0.0000   0.0000   0.0000   0.0000
     0.0000   0.0000   0.0000   0.0000   0.0000   0.0000   0.0000   0.0000
     0.0000   0.0000   0.0000   0.0000   0.0000

          k = 0.0000 0.0000-0.2526 ( 11446 PWs)   bands (ev):

   -91.5612 -91.5521 -91.5486 -54.8055 -54.8015 -54.7971 -54.7967 -54.7873
   -54.7771 -54.7726 -54.7597 -54.7593 -48.2397 -20.1881 -20.1674 -20.1047
   -17.9196 -17.3055 -16.9722 -16.4395 -15.0601 -13.4085 -13.4027 -13.3657
   -13.3569 -13.1654  -5.6358  -5.4729  -4.5331  -4.3323  -1.9649  -1.5783
    -1.4865  -1.3446  -1.1581  -1.1372  -1.0978  -1.0042  -0.9175  -0.8639
    -0.8597  -0.7293  -0.7045   0.2753   0.6108   0.8500   0.8755   0.8858
     0.9022   1.0508   1.2455   1.3346   1.7402   2.1887   2.6210   2.6249
     2.6539   2.6560   2.8179   2.8263   3.6982   3.7022   3.7128   3.7198
     3.8931   5.7825   5.7965   5.8073   5.8177   6.5430   6.5503   6.5592
     8.5331  10.7767  11.1528  11.8984  12.3524  12.8501  13.3175  13.3820
    13.7985  14.2669  14.4428  14.9492  15.1145

     occupation numbers 
     1.0000   1.0000   1.0000   1.0000   1.0000   1.0000   1.0000   1.0000
     1.0000   1.0000   1.0000   1.0000   1.0000   1.0000   1.0000   1.0000
     1.0000   1.0000   1.0000   1.0000   1.0000   1.0000   1.0000   1.0000
     1.0000   1.0000   1.0000   1.0000   1.0000   1.0000   1.0000   1.0000
     1.0000   1.0000   1.0000   1.0000   1.0000   1.0000   1.0000   1.0000
     1.0000   1.0000   1.0000   1.0000   1.0000   1.0000   1.0000   1.0000
     1.0000   1.0000   1.0000   1.0000   1.0000   1.0000   1.0000   1.0000
     1.0000   1.0000   1.0000   1.0000   1.0192   1.0200   1.0223   1.0239
     1.0772   0.0000   0.0000   0.0000   0.0000   0.0000   0.0000   0.0000
     0.0000   0.0000   0.0000   0.0000   0.0000   0.0000   0.0000   0.0000
     0.0000   0.0000   0.0000   0.0000   0.0000

          k = 0.0000 0.1925 0.0000 ( 11360 PWs)   bands (ev):

   -91.5610 -91.5521 -91.5488 -54.8104 -54.8055 -54.7928 -54.7880 -54.7850
   -54.7769 -54.7728 -54.7644 -54.7603 -48.2396 -20.1891 -20.1676 -20.1043
   -17.8795 -17.3481 -16.9408 -16.4740 -14.9581 -13.5368 -13.4528 -13.3671
   -13.3109 -13.1666  -5.7410  -5.3607  -4.5554  -4.2903  -1.9648  -1.6863
    -1.5364  -1.3681  -1.2769  -1.2018  -1.0742  -1.0581  -0.9704  -0.8994
    -0.7960  -0.3593  -0.1855   0.1257   0.5747   0.6021   0.7173   0.7604
     0.8358   1.1634   1.5166   1.6157   1.7341   1.9827   2.0847   2.5039
     2.7034   2.7710   3.0508   3.2509   3.4550   3.4672   3.7975   3.8655
     3.9291   5.7852   5.8296   5.8466   5.9010   6.2639   6.4676   6.7680
     9.0851  10.5016  11.2805  11.5716  12.1876  12.5664  12.9782  13.3935
    13.7001  14.3044  14.6673  14.8942  15.1903

     occupation numbers 
     1.0000   1.0000   1.0000   1.0000   1.0000   1.0000   1.0000   1.0000
     1.0000   1.0000   1.0000   1.0000   1.0000   1.0000   1.0000   1.0000
     1.0000   1.0000   1.0000   1.0000   1.0000   1.0000   1.0000   1.0000
     1.0000   1.0000   1.0000   1.0000   1.0000   1.0000   1.0000   1.0000
     1.0000   1.0000   1.0000   1.0000   1.0000   1.0000   1.0000   1.0000
     1.0000   1.0000   1.0000   1.0000   1.0000   1.0000   1.0000   1.0000
     1.0000   1.0000   1.0000   1.0000   1.0000   1.0000   1.0000   1.0000
     1.0000   1.0000   1.0000   1.0000   1.0006   1.0007   1.0467   1.0696
     1.0829   0.0000   0.0000   0.0000   0.0000   0.0000   0.0000   0.0000
     0.0000   0.0000   0.0000   0.0000   0.0000   0.0000   0.0000   0.0000
     0.0000   0.0000   0.0000   0.0000   0.0000

          k = 0.0000 0.1925-0.2526 ( 11384 PWs)   bands (ev):

   -91.5610 -91.5521 -91.5488 -54.8104 -54.8055 -54.7928 -54.7880 -54.7851
   -54.7769 -54.7728 -54.7644 -54.7603 -48.2396 -20.1892 -20.1677 -20.1044
   -17.8793 -17.3481 -16.9412 -16.4740 -14.9573 -13.5368 -13.4528 -13.3671
   -13.3109 -13.1674  -5.7385  -5.3540  -4.5646  -4.2924  -1.9666  -1.6534
    -1.5501  -1.4307  -1.3073  -1.2479  -1.0623  -0.9817  -0.9616  -0.8572
    -0.7962  -0.3533  -0.1903   0.1447   0.5637   0.5960   0.7159   0.7702
     0.8385   1.1588   1.5132   1.6151   1.7278   1.9839   2.0803   2.4624
     2.7034   2.7710   3.0509   3.2496   3.4549   3.4674   3.7983   3.8661
     3.9459   5.7844   5.8292   5.8474   5.8995   6.2395   6.4741   6.8942
     8.8287  10.8146  10.9765  11.9503  12.1336  12.5329  12.8982  13.3727
    13.6917  14.1873  14.6804  14.9149  15.2078

     occupation numbers 
     1.0000   1.0000   1.0000   1.0000   1.0000   1.0000   1.0000   1.0000
     1.0000   1.0000   1.0000   1.0000   1.0000   1.0000   1.0000   1.0000
     1.0000   1.0000   1.0000   1.0000   1.0000   1.0000   1.0000   1.0000
     1.0000   1.0000   1.0000   1.0000   1.0000   1.0000   1.0000   1.0000
     1.0000   1.0000   1.0000   1.0000   1.0000   1.0000   1.0000   1.0000
     1.0000   1.0000   1.0000   1.0000   1.0000   1.0000   1.0000   1.0000
     1.0000   1.0000   1.0000   1.0000   1.0000   1.0000   1.0000   1.0000
     1.0000   1.0000   1.0000   1.0000   1.0006   1.0007   1.0470   1.0698
     1.0832   0.0000   0.0000   0.0000   0.0000   0.0000   0.0000   0.0000
     0.0000   0.0000   0.0000   0.0000   0.0000   0.0000   0.0000   0.0000
     0.0000   0.0000   0.0000   0.0000   0.0000

          k = 0.0000 0.3849 0.0000 ( 11350 PWs)   bands (ev):

   -91.5606 -91.5520 -91.5493 -54.8157 -54.8032 -54.7898 -54.7810 -54.7787
   -54.7762 -54.7750 -54.7729 -54.7634 -48.2396 -20.1916 -20.1683 -20.1041
   -17.7712 -17.4610 -16.8585 -16.5636 -14.6716 -13.8516 -13.4970 -13.4131
   -13.2490 -13.1767  -5.8486  -5.2188  -4.6041  -4.2290  -2.0367  -1.9360
    -1.6244  -1.3978  -1.2454  -1.1397  -1.0626  -0.9963  -0.7843  -0.7188
    -0.6337  -0.1572  -0.1039   0.1557   0.4121   0.4757   0.5575   0.8928
     0.9744   1.0187   1.1440   1.4586   1.6246   1.8590   2.2081   2.7968
     2.8036   3.1228   3.1919   3.2002   3.2364   3.6126   3.6510   3.9118
     3.9198   5.7689   5.7785   5.8293   5.8453   6.2252   6.2478   7.5636
     9.6219  10.1306  11.2835  11.4636  11.7192  12.1750  12.7126  13.0227
    13.4886  14.2919  14.6097  14.8263  15.1512

     occupation numbers 
     1.0000   1.0000   1.0000   1.0000   1.0000   1.0000   1.0000   1.0000
     1.0000   1.0000   1.0000   1.0000   1.0000   1.0000   1.0000   1.0000
     1.0000   1.0000   1.0000   1.0000   1.0000   1.0000   1.0000   1.0000
     1.0000   1.0000   1.0000   1.0000   1.0000   1.0000   1.0000   1.0000
     1.0000   1.0000   1.0000   1.0000   1.0000   1.0000   1.0000   1.0000
     1.0000   1.0000   1.0000   1.0000   1.0000   1.0000   1.0000   1.0000
     1.0000   1.0000   1.0000   1.0000   1.0000   1.0000   1.0000   1.0000
     1.0000   1.0000   1.0000   1.0000   1.0000   1.0069   1.0112   1.0809
     1.0820   0.0000   0.0000   0.0000   0.0000   0.0000   0.0000   0.0000
     0.0000   0.0000   0.0000   0.0000   0.0000   0.0000   0.0000   0.0000
     0.0000   0.0000   0.0000   0.0000   0.0000

          k = 0.0000 0.3849-0.2526 ( 11352 PWs)   bands (ev):

   -91.5606 -91.5520 -91.5493 -54.8156 -54.8032 -54.7899 -54.7810 -54.7787
   -54.7763 -54.7750 -54.7729 -54.7634 -48.2396 -20.1916 -20.1683 -20.1041
   -17.7711 -17.4610 -16.8587 -16.5636 -14.6711 -13.8516 -13.4970 -13.4131
   -13.2491 -13.1772  -5.8474  -5.2154  -4.6070  -4.2319  -2.0426  -1.9311
    -1.6196  -1.4228  -1.2175  -1.1403  -1.0843  -1.0046  -0.7656  -0.7103
    -0.6340  -0.1566  -0.1008   0.1533   0.4261   0.4821   0.5498   0.8910
     0.9766   1.0328   1.1314   1.4591   1.6124   1.8522   2.2076   2.7938
     2.7994   3.1228   3.1915   3.2003   3.2362   3.6098   3.6521   3.9162
     3.9225   5.7541   5.7789   5.8289   5.8438   6.2249   6.2552   7.6237
     9.4873  10.1569  11.2356  11.4924  11.7392  12.4083  12.7301  12.9997
    13.4162  14.1960  14.5027  14.8008  15.2754

     occupation numbers 
     1.0000   1.0000   1.0000   1.0000   1.0000   1.0000   1.0000   1.0000
     1.0000   1.0000   1.0000   1.0000   1.0000   1.0000   1.0000   1.0000
     1.0000   1.0000   1.0000   1.0000   1.0000   1.0000   1.0000   1.0000
     1.0000   1.0000   1.0000   1.0000   1.0000   1.0000   1.0000   1.0000
     1.0000   1.0000   1.0000   1.0000   1.0000   1.0000   1.0000   1.0000
     1.0000   1.0000   1.0000   1.0000   1.0000   1.0000   1.0000   1.0000
     1.0000   1.0000   1.0000   1.0000   1.0000   1.0000   1.0000   1.0000
     1.0000   1.0000   1.0000   1.0000   1.0000   1.0066   1.0114   1.0816
     1.0823   0.0000   0.0000   0.0000   0.0000   0.0000   0.0000   0.0000
     0.0000   0.0000   0.0000   0.0000   0.0000   0.0000   0.0000   0.0000
     0.0000   0.0000   0.0000   0.0000   0.0000

          k = 0.0000-0.5774 0.0000 ( 11352 PWs)   bands (ev):

   -91.5604 -91.5519 -91.5495 -54.8176 -54.7950 -54.7905 -54.7888 -54.7768
   -54.7757 -54.7735 -54.7718 -54.7663 -48.2396 -20.1930 -20.1686 -20.1040
   -17.6532 -17.5812 -16.7860 -16.6396 -14.2708 -14.2652 -13.5136 -13.4377
   -13.2054 -13.2002  -5.8889  -5.1623  -4.6230  -4.2033  -2.1592  -1.9650
    -1.6367  -1.4281  -1.2727  -1.0999  -0.9686  -0.7361  -0.7155  -0.4965
    -0.3645  -0.3504  -0.2220  -0.1106   0.3279   0.3373   0.5198   0.8898
     0.8983   0.9891   1.1146   1.3505   1.6354   1.9538   2.7033   2.7236
     2.8007   3.0728   3.1478   3.1511   3.5060   3.6503   3.6624   3.8229
     3.8389   5.6216   5.6329   5.8391   5.9718   6.0082   6.4259   8.1399
     9.4647  10.2919  11.0396  11.2480  11.6616  12.2447  12.4345  13.0501
    13.3319  14.1709  14.5083  14.6378  15.1751

     occupation numbers 
     1.0000   1.0000   1.0000   1.0000   1.0000   1.0000   1.0000   1.0000
     1.0000   1.0000   1.0000   1.0000   1.0000   1.0000   1.0000   1.0000
     1.0000   1.0000   1.0000   1.0000   1.0000   1.0000   1.0000   1.0000
     1.0000   1.0000   1.0000   1.0000   1.0000   1.0000   1.0000   1.0000
     1.0000   1.0000   1.0000   1.0000   1.0000   1.0000   1.0000   1.0000
     1.0000   1.0000   1.0000   1.0000   1.0000   1.0000   1.0000   1.0000
     1.0000   1.0000   1.0000   1.0000   1.0000   1.0000   1.0000   1.0000
     1.0000   1.0000   1.0000   1.0000   1.0014   1.0111   1.0128   1.0554
     1.0609   0.0000   0.0000   0.0000   0.0000   0.0000   0.0000   0.0000
     0.0000   0.0000   0.0000   0.0000   0.0000   0.0000   0.0000   0.0000
     0.0000   0.0000   0.0000   0.0000   0.0000

          k = 0.0000-0.5774-0.2526 ( 11344 PWs)   bands (ev):

   -91.5604 -91.5519 -91.5495 -54.8176 -54.7950 -54.7905 -54.7888 -54.7769
   -54.7757 -54.7734 -54.7718 -54.7663 -48.2396 -20.1929 -20.1686 -20.1040
   -17.6532 -17.5811 -16.7861 -16.6397 -14.2705 -14.2649 -13.5137 -13.4377
   -13.2056 -13.2005  -5.8883  -5.1613  -4.6226  -4.2063  -2.1628  -1.9687
    -1.6216  -1.4400  -1.2515  -1.1131  -0.9676  -0.7340  -0.7113  -0.5255
    -0.3618  -0.3508  -0.2213  -0.1099   0.3409   0.3523   0.5302   0.8812
     0.8977   1.0020   1.0998   1.3488   1.6272   1.9465   2.7061   2.7247
     2.8015   3.0728   3.1478   3.1510   3.5071   3.6502   3.6625   3.8221
     3.8378   5.6169   5.6289   5.8367   5.9750   6.0120   6.4259   8.1498
     9.4895  10.2495  11.0782  11.1701  11.6170  12.2978  12.5244  13.1941
    13.2934  14.1604  14.4598  14.4817  15.2047

     occupation numbers 
     1.0000   1.0000   1.0000   1.0000   1.0000   1.0000   1.0000   1.0000
     1.0000   1.0000   1.0000   1.0000   1.0000   1.0000   1.0000   1.0000
     1.0000   1.0000   1.0000   1.0000   1.0000   1.0000   1.0000   1.0000
     1.0000   1.0000   1.0000   1.0000   1.0000   1.0000   1.0000   1.0000
     1.0000   1.0000   1.0000   1.0000   1.0000   1.0000   1.0000   1.0000
     1.0000   1.0000   1.0000   1.0000   1.0000   1.0000   1.0000   1.0000
     1.0000   1.0000   1.0000   1.0000   1.0000   1.0000   1.0000   1.0000
     1.0000   1.0000   1.0000   1.0000   1.0014   1.0111   1.0129   1.0551
     1.0605   0.0000   0.0000   0.0000   0.0000   0.0000   0.0000   0.0000
     0.0000   0.0000   0.0000   0.0000   0.0000   0.0000   0.0000   0.0000
     0.0000   0.0000   0.0000   0.0000   0.0000

          k = 0.1667 0.2887 0.0000 ( 11373 PWs)   bands (ev):

   -91.5607 -91.5520 -91.5492 -54.8119 -54.8078 -54.7901 -54.7821 -54.7801
   -54.7764 -54.7745 -54.7710 -54.7623 -48.2396 -20.1894 -20.1687 -20.1049
   -17.7941 -17.4388 -16.8697 -16.5517 -14.7632 -13.6534 -13.6455 -13.3077
   -13.3001 -13.1727  -5.8493  -5.2148  -4.5544  -4.2825  -1.8724  -1.8255
    -1.6280  -1.5939  -1.3710  -1.1642  -1.0579  -0.9237  -0.8599  -0.8544
    -0.6676  -0.0705  -0.0110   0.1255   0.4970   0.5384   0.6841   0.7023
     0.7834   1.1425   1.3125   1.4938   1.7931   1.8921   1.9199   2.6782
     2.9295   2.9328   3.1617   3.2727   3.2770   3.4856   3.8109   3.8141
     3.9425   5.7688   5.7875   5.8195   6.0134   6.0307   6.3990   7.3468
     9.4289  10.4091  10.9315  11.4657  11.9909  12.3447  12.7365  13.1557
    13.8064  14.1027  14.4011  15.0014  15.2053

     occupation numbers 
     1.0000   1.0000   1.0000   1.0000   1.0000   1.0000   1.0000   1.0000
     1.0000   1.0000   1.0000   1.0000   1.0000   1.0000   1.0000   1.0000
     1.0000   1.0000   1.0000   1.0000   1.0000   1.0000   1.0000   1.0000
     1.0000   1.0000   1.0000   1.0000   1.0000   1.0000   1.0000   1.0000
     1.0000   1.0000   1.0000   1.0000   1.0000   1.0000   1.0000   1.0000
     1.0000   1.0000   1.0000   1.0000   1.0000   1.0000   1.0000   1.0000
     1.0000   1.0000   1.0000   1.0000   1.0000   1.0000   1.0000   1.0000
     1.0000   1.0000   1.0000   1.0000   1.0000   1.0010   1.0512   1.0524
     1.0833   0.0000   0.0000   0.0000   0.0000   0.0000   0.0000   0.0000
     0.0000   0.0000   0.0000   0.0000   0.0000   0.0000   0.0000   0.0000
     0.0000   0.0000   0.0000   0.0000   0.0000

          k = 0.1667 0.2887-0.2526 ( 11348 PWs)   bands (ev):

   -91.5607 -91.5520 -91.5491 -54.8119 -54.8077 -54.7902 -54.7820 -54.7801
   -54.7764 -54.7745 -54.7709 -54.7623 -48.2396 -20.1892 -20.1687 -20.1049
   -17.7940 -17.4388 -16.8700 -16.5517 -14.7626 -13.6534 -13.6455 -13.3077
   -13.3001 -13.1733  -5.8481  -5.2106  -4.5594  -4.2835  -1.8745  -1.8100
    -1.6552  -1.6082  -1.3740  -1.1380  -1.0770  -0.9296  -0.8740  -0.8022
    -0.6677  -0.0677  -0.0116   0.1285   0.4989   0.5433   0.6804   0.7024
     0.7891   1.1509   1.3034   1.4775   1.7931   1.8899   1.9186   2.6674
     2.9294   2.9328   3.1570   3.2726   3.2769   3.4857   3.8122   3.8155
     3.9511   5.7683   5.7818   5.8086   6.0137   6.0310   6.3990   7.4353
     9.2571  10.3995  10.9429  11.7014  11.8942  12.3536  12.9597  13.1022
    13.7176  13.8647  14.4125  15.0470  15.1253

     occupation numbers 
     1.0000   1.0000   1.0000   1.0000   1.0000   1.0000   1.0000   1.0000
     1.0000   1.0000   1.0000   1.0000   1.0000   1.0000   1.0000   1.0000
     1.0000   1.0000   1.0000   1.0000   1.0000   1.0000   1.0000   1.0000
     1.0000   1.0000   1.0000   1.0000   1.0000   1.0000   1.0000   1.0000
     1.0000   1.0000   1.0000   1.0000   1.0000   1.0000   1.0000   1.0000
     1.0000   1.0000   1.0000   1.0000   1.0000   1.0000   1.0000   1.0000
     1.0000   1.0000   1.0000   1.0000   1.0000   1.0000   1.0000   1.0000
     1.0000   1.0000   1.0000   1.0000   1.0000   1.0010   1.0517   1.0528
     1.0829   0.0000   0.0000   0.0000   0.0000   0.0000   0.0000   0.0000
     0.0000   0.0000   0.0000   0.0000   0.0000   0.0000   0.0000   0.0000
     0.0000   0.0000   0.0000   0.0000   0.0000

          k = 0.1667 0.4811 0.0000 ( 11356 PWs)   bands (ev):

   -91.5604 -91.5519 -91.5496 -54.8138 -54.8017 -54.7914 -54.7862 -54.7771
   -54.7759 -54.7729 -54.7720 -54.7651 -48.2396 -20.1920 -20.1690 -20.1045
   -17.6629 -17.5714 -16.7822 -16.6437 -14.4185 -14.0107 -13.7219 -13.3146
   -13.2359 -13.1926  -5.8909  -5.1562  -4.6011  -4.2345  -2.0044  -1.9285
    -1.6322  -1.4640  -1.3945  -1.1608  -1.0107  -0.7967  -0.6543  -0.6276
    -0.4711  -0.2140  -0.1928  -0.0454   0.2889   0.3194   0.5007   0.9038
     0.9391   1.1419   1.1925   1.3422   1.6228   2.0258   2.3938   2.7314
     2.9684   3.1659   3.1800   3.2086   3.3789   3.5932   3.6207   3.7926
     3.8174   5.4948   5.6055   5.7457   6.1290   6.2710   6.3448   8.0675
     9.5057  10.3280  10.6613  11.4320  11.8683  12.0356  12.6021  13.0446
    13.5228  14.0524  14.3311  14.8060  15.3228

     occupation numbers 
     1.0000   1.0000   1.0000   1.0000   1.0000   1.0000   1.0000   1.0000
     1.0000   1.0000   1.0000   1.0000   1.0000   1.0000   1.0000   1.0000
     1.0000   1.0000   1.0000   1.0000   1.0000   1.0000   1.0000   1.0000
     1.0000   1.0000   1.0000   1.0000   1.0000   1.0000   1.0000   1.0000
     1.0000   1.0000   1.0000   1.0000   1.0000   1.0000   1.0000   1.0000
     1.0000   1.0000   1.0000   1.0000   1.0000   1.0000   1.0000   1.0000
     1.0000   1.0000   1.0000   1.0000   1.0000   1.0000   1.0000   1.0000
     1.0000   1.0000   1.0000   1.0000   1.0001   1.0053   1.0077   1.0450
     1.0535   0.0000   0.0000   0.0000   0.0000   0.0000   0.0000   0.0000
     0.0000   0.0000   0.0000   0.0000   0.0000   0.0000   0.0000   0.0000
     0.0000   0.0000   0.0000   0.0000   0.0000

          k = 0.1667 0.4811-0.2526 ( 11352 PWs)   bands (ev):

   -91.5604 -91.5519 -91.5496 -54.8138 -54.8018 -54.7913 -54.7862 -54.7771
   -54.7759 -54.7729 -54.7721 -54.7650 -48.2396 -20.1920 -20.1690 -20.1045
   -17.6629 -17.5714 -16.7823 -16.6437 -14.4181 -14.0106 -13.7219 -13.3146
   -13.2360 -13.1930  -5.8905  -5.1555  -4.6011  -4.2355  -1.9911  -1.9484
    -1.6223  -1.4982  -1.3687  -1.1579  -0.9899  -0.8031  -0.6767  -0.6282
    -0.4717  -0.2098  -0.1960  -0.0505   0.3031   0.3289   0.5116   0.9118
     0.9428   1.1231   1.1863   1.3429   1.6155   2.0221   2.3951   2.7326
     2.9685   3.1658   3.1800   3.2079   3.3784   3.5948   3.6201   3.7933
     3.8193   5.4872   5.6040   5.7438   6.1297   6.2720   6.3448   8.0910
     9.5253  10.2494  10.6423  11.4071  11.9946  12.0438  12.6454  13.0904
    13.5103  13.8884  14.2331  15.1198  15.3270

     occupation numbers 
     1.0000   1.0000   1.0000   1.0000   1.0000   1.0000   1.0000   1.0000
     1.0000   1.0000   1.0000   1.0000   1.0000   1.0000   1.0000   1.0000
     1.0000   1.0000   1.0000   1.0000   1.0000   1.0000   1.0000   1.0000
     1.0000   1.0000   1.0000   1.0000   1.0000   1.0000   1.0000   1.0000
     1.0000   1.0000   1.0000   1.0000   1.0000   1.0000   1.0000   1.0000
     1.0000   1.0000   1.0000   1.0000   1.0000   1.0000   1.0000   1.0000
     1.0000   1.0000   1.0000   1.0000   1.0000   1.0000   1.0000   1.0000
     1.0000   1.0000   1.0000   1.0000   1.0001   1.0054   1.0076   1.0453
     1.0541   0.0000   0.0000   0.0000   0.0000   0.0000   0.0000   0.0000
     0.0000   0.0000   0.0000   0.0000   0.0000   0.0000   0.0000   0.0000
     0.0000   0.0000   0.0000   0.0000   0.0000

          k = 0.3333 0.5774 0.0000 ( 11370 PWs)   bands (ev):

   -91.5603 -91.5518 -91.5498 -54.8065 -54.8039 -54.7990 -54.7871 -54.7765
   -54.7759 -54.7719 -54.7698 -54.7658 -48.2396 -20.1941 -20.1688 -20.1044
   -17.6920 -17.5377 -16.7994 -16.6255 -14.0765 -14.0697 -14.0641 -13.2399
   -13.2329 -13.2297  -5.8596  -5.1961  -4.5817  -4.2931  -2.1225  -1.6744
    -1.6395  -1.5088  -1.3764  -1.3091  -0.8505  -0.6865  -0.6698  -0.6019
    -0.3205  -0.3159  -0.3115  -0.0616   0.1819   0.2228   0.2900   0.7895
     1.0141   1.2801   1.2905   1.2950   1.7859   2.3825   2.4049   2.4148
     3.1587   3.1656   3.1674   3.4177   3.4194   3.4199   3.6497   3.6543
     3.6602   5.5079   5.5218   5.5441   6.3431   6.3517   6.3543   8.2759
     9.4734   9.9427  10.8001  11.3102  11.8527  12.3959  12.6341  12.8137
    13.5685  14.0137  14.4925  15.0629  15.2810

     occupation numbers 
     1.0000   1.0000   1.0000   1.0000   1.0000   1.0000   1.0000   1.0000
     1.0000   1.0000   1.0000   1.0000   1.0000   1.0000   1.0000   1.0000
     1.0000   1.0000   1.0000   1.0000   1.0000   1.0000   1.0000   1.0000
     1.0000   1.0000   1.0000   1.0000   1.0000   1.0000   1.0000   1.0000
     1.0000   1.0000   1.0000   1.0000   1.0000   1.0000   1.0000   1.0000
     1.0000   1.0000   1.0000   1.0000   1.0000   1.0000   1.0000   1.0000
     1.0000   1.0000   1.0000   1.0000   1.0000   1.0000   1.0000   1.0000
     1.0000   1.0000   1.0000   1.0003   1.0003   1.0003   1.0110   1.0117
     1.0125   0.0000   0.0000   0.0000   0.0000   0.0000   0.0000   0.0000
     0.0000   0.0000   0.0000   0.0000   0.0000   0.0000   0.0000   0.0000
     0.0000   0.0000   0.0000   0.0000   0.0000

          k = 0.3333 0.5774-0.2526 ( 11340 PWs)   bands (ev):

   -91.5603 -91.5518 -91.5498 -54.8065 -54.8039 -54.7989 -54.7870 -54.7765
   -54.7759 -54.7719 -54.7697 -54.7657 -48.2396 -20.1941 -20.1687 -20.1043
   -17.6920 -17.5377 -16.7995 -16.6255 -14.0762 -14.0696 -14.0641 -13.2401
   -13.2330 -13.2297  -5.8597  -5.1974  -4.5807  -4.2915  -2.1190  -1.6861
    -1.6403  -1.5098  -1.3611  -1.3019  -0.8487  -0.6906  -0.6776  -0.6343
    -0.3203  -0.3159  -0.3114  -0.0720   0.2056   0.2282   0.3209   0.8196
     0.9667   1.2799   1.2905   1.2951   1.7811   2.3814   2.4064   2.4163
     3.1587   3.1649   3.1672   3.4177   3.4194   3.4199   3.6503   3.6564
     3.6630   5.5028   5.5172   5.5411   6.3431   6.3517   6.3543   8.2741
     9.4965   9.9460  10.8142  11.3097  11.7847  12.3961  12.6202  12.9272
    13.4962  14.0288  14.4846  15.0868  15.4622

     occupation numbers 
     1.0000   1.0000   1.0000   1.0000   1.0000   1.0000   1.0000   1.0000
     1.0000   1.0000   1.0000   1.0000   1.0000   1.0000   1.0000   1.0000
     1.0000   1.0000   1.0000   1.0000   1.0000   1.0000   1.0000   1.0000
     1.0000   1.0000   1.0000   1.0000   1.0000   1.0000   1.0000   1.0000
     1.0000   1.0000   1.0000   1.0000   1.0000   1.0000   1.0000   1.0000
     1.0000   1.0000   1.0000   1.0000   1.0000   1.0000   1.0000   1.0000
     1.0000   1.0000   1.0000   1.0000   1.0000   1.0000   1.0000   1.0000
     1.0000   1.0000   1.0000   1.0003   1.0003   1.0003   1.0111   1.0120
     1.0129   0.0000   0.0000   0.0000   0.0000   0.0000   0.0000   0.0000
     0.0000   0.0000   0.0000   0.0000   0.0000   0.0000   0.0000   0.0000
     0.0000   0.0000   0.0000   0.0000   0.0000

          k =-0.1667 0.0962 0.0000 ( 11360 PWs)   bands (ev):

   -91.5610 -91.5521 -91.5488 -54.8099 -54.8062 -54.7918 -54.7889 -54.7849
   -54.7769 -54.7729 -54.7639 -54.7606 -48.2396 -20.1904 -20.1672 -20.1041
   -17.8955 -17.3284 -16.9553 -16.4575 -14.9581 -13.5365 -13.4531 -13.3672
   -13.3109 -13.1665  -5.6412  -5.4749  -4.5285  -4.3402  -2.0436  -1.6364
    -1.5428  -1.3834  -1.2540  -1.2243  -1.0623  -1.0086  -0.9813  -0.8380
    -0.7940  -0.3583  -0.1704   0.2037   0.5194   0.6186   0.6396   0.7504
     0.8224   1.0608   1.5484   1.6056   1.8357   1.9784   2.0860   2.5077
     2.7037   2.7708   3.0495   3.2523   3.4541   3.4681   3.7975   3.8661
     3.9280   5.7861   5.8269   5.8482   5.8989   6.2610   6.4680   6.7485
     9.0769  10.4098  11.1728  11.5151  12.5971  12.7264  12.9434  13.3828
    13.7415  14.2819  14.4986  14.9421  15.2047

     occupation numbers 
     1.0000   1.0000   1.0000   1.0000   1.0000   1.0000   1.0000   1.0000
     1.0000   1.0000   1.0000   1.0000   1.0000   1.0000   1.0000   1.0000
     1.0000   1.0000   1.0000   1.0000   1.0000   1.0000   1.0000   1.0000
     1.0000   1.0000   1.0000   1.0000   1.0000   1.0000   1.0000   1.0000
     1.0000   1.0000   1.0000   1.0000   1.0000   1.0000   1.0000   1.0000
     1.0000   1.0000   1.0000   1.0000   1.0000   1.0000   1.0000   1.0000
     1.0000   1.0000   1.0000   1.0000   1.0000   1.0000   1.0000   1.0000
     1.0000   1.0000   1.0000   1.0000   1.0006   1.0007   1.0467   1.0698
     1.0828   0.0000   0.0000   0.0000   0.0000   0.0000   0.0000   0.0000
     0.0000   0.0000   0.0000   0.0000   0.0000   0.0000   0.0000   0.0000
     0.0000   0.0000   0.0000   0.0000   0.0000

          k = 0.1667 0.0962 0.0000 ( 11360 PWs)   bands (ev):

   -91.5610 -91.5521 -91.5488 -54.8098 -54.8061 -54.7921 -54.7890 -54.7846
   -54.7769 -54.7730 -54.7636 -54.7607 -48.2396 -20.1885 -20.1677 -20.1047
   -17.8806 -17.3471 -16.9394 -16.4755 -14.9580 -13.5362 -13.4536 -13.3677
   -13.3105 -13.1664  -5.7451  -5.3539  -4.5059  -4.3478  -1.9570  -1.6862
    -1.5551  -1.3818  -1.2819  -1.1850  -1.0899  -1.0587  -0.9631  -0.8932
    -0.7923  -0.3531  -0.1723   0.2482   0.5388   0.5774   0.6441   0.7576
     0.8331   1.1799   1.5424   1.6083   1.7140   1.9746   2.0863   2.5086
     2.7042   2.7701   3.0489   3.2536   3.4531   3.4688   3.7975   3.8652
     3.9295   5.7887   5.8265   5.8532   5.8924   6.2574   6.4691   6.7751
     9.0628  10.5941  11.0339  11.4887  12.3443  12.7736  13.0319  13.4072
    13.6546  14.2069  14.7202  14.8809  15.0338

     occupation numbers 
     1.0000   1.0000   1.0000   1.0000   1.0000   1.0000   1.0000   1.0000
     1.0000   1.0000   1.0000   1.0000   1.0000   1.0000   1.0000   1.0000
     1.0000   1.0000   1.0000   1.0000   1.0000   1.0000   1.0000   1.0000
     1.0000   1.0000   1.0000   1.0000   1.0000   1.0000   1.0000   1.0000
     1.0000   1.0000   1.0000   1.0000   1.0000   1.0000   1.0000   1.0000
     1.0000   1.0000   1.0000   1.0000   1.0000   1.0000   1.0000   1.0000
     1.0000   1.0000   1.0000   1.0000   1.0000   1.0000   1.0000   1.0000
     1.0000   1.0000   1.0000   1.0000   1.0006   1.0008   1.0467   1.0695
     1.0829   0.0000   0.0000   0.0000   0.0000   0.0000   0.0000   0.0000
     0.0000   0.0000   0.0000   0.0000   0.0000   0.0000   0.0000   0.0000
     0.0000   0.0000   0.0000   0.0000   0.0000

          k =-0.1667 0.0962-0.2526 ( 11384 PWs)   bands (ev):

   -91.5610 -91.5521 -91.5488 -54.8099 -54.8062 -54.7919 -54.7889 -54.7849
   -54.7770 -54.7729 -54.7640 -54.7606 -48.2396 -20.1904 -20.1672 -20.1042
   -17.8953 -17.3284 -16.9557 -16.4575 -14.9573 -13.5365 -13.4531 -13.3672
   -13.3109 -13.1673  -5.6394  -5.4685  -4.5368  -4.3421  -2.0442  -1.6290
    -1.5229  -1.4393  -1.3085  -1.2103  -1.0574  -1.0094  -0.9581  -0.7943
    -0.7823  -0.3569  -0.1620   0.2189   0.5194   0.6154   0.6179   0.7538
     0.8371   1.0531   1.5473   1.6060   1.8357   1.9802   2.0806   2.4596
     2.7037   2.7708   3.0496   3.2507   3.4542   3.4683   3.7979   3.8663
     3.9459   5.7874   5.8261   5.8480   5.8988   6.2338   6.4754   6.8743
     8.8309  10.5910  10.9678  12.0350  12.3255  12.6951  12.9459  13.3436
    13.7345  14.2350  14.4512  15.0464  15.2120

     occupation numbers 
     1.0000   1.0000   1.0000   1.0000   1.0000   1.0000   1.0000   1.0000
[...]

     the Fermi energy is     4.3253 ev

!    total energy              =   -1665.63702465 Ry
     total all-electron energy =    -10200.259358 Ry
     estimated scf accuracy    <       0.00000007 Ry
     smearing contrib. (-TS)   =       0.00986214 Ry
     internal energy E=F+TS    =   -1665.64688679 Ry

     The total energy is F=E-TS. E is the sum of the following terms:
     one-electron contribution =   -1723.18708953 Ry
     hartree contribution      =     911.82724918 Ry
     xc contribution           =    -186.37299178 Ry
     ewald contribution        =    -293.93737917 Ry
     DFT-D3 Dispersion         =      -0.12184151 Ry
     one-center paw contrib.   =    -373.85483398 Ry
      -> PAW hartree energy AE =    1006.57098434 Ry
      -> PAW hartree energy PS =   -1004.15119466 Ry
      -> PAW xc energy AE      =    -554.11758275 Ry
      -> PAW xc energy PS      =     177.84295910 Ry
      -> total E_H with PAW    =     914.24703886 Ry
      -> total E_XC with PAW   =    -562.64761544 Ry

     total magnetization       =     2.30 Bohr mag/cell
     absolute magnetization    =     2.34 Bohr mag/cell

     convergence has been achieved in  28 iterations

     Forces acting on atoms (cartesian axes, Ry/au):

     atom    1 type  1   force =    -0.00175586    0.00127683    0.00211454
     atom    2 type  1   force =     0.00124730   -0.00043863    0.00586943
     atom    3 type  1   force =    -0.00054138   -0.00032091    0.00758153
     atom    4 type  2   force =    -0.00409406   -0.00291386   -0.02338751
     atom    5 type  2   force =    -0.00139493    0.00207482   -0.02353244
     atom    6 type  2   force =     0.00394348    0.00160481   -0.01924261
     atom    7 type  2   force =     0.00360511    0.00157447    0.01001073
     atom    8 type  2   force =    -0.00411558    0.00247024    0.00929061
     atom    9 type  2   force =    -0.00230556   -0.00351131    0.01318428
     atom   10 type  3   force =    -0.01342197    0.03367480   -0.01004484
     atom   11 type  2   force =    -0.04366264   -0.01245731    0.03881595
     atom   12 type  4   force =     0.03662078    0.01521943   -0.00294855
     atom   13 type  4   force =    -0.00619235   -0.00262420   -0.04468361
     atom   14 type  2   force =     0.00079231   -0.04210848    0.03714231
     atom   15 type  4   force =    -0.00670764    0.02455885   -0.00698835
     atom   16 type  4   force =     0.01088787   -0.00152635   -0.04503545
     atom   17 type  2   force =    -0.00614182   -0.02170515   -0.03806120
     atom   18 type  4   force =     0.00954786    0.03427157   -0.00429979
     atom   19 type  4   force =     0.01234581   -0.00757399    0.05793933
     atom   20 type  2   force =    -0.03639597   -0.02998950   -0.03242282
     atom   21 type  4   force =     0.03986414    0.00345922    0.01031041
     atom   22 type  4   force =     0.00787508    0.00498465    0.05838803
     The non-local contrib.  to forces
     atom    1 type  1   force =    -0.00041437    0.01246369    0.00934993
     atom    2 type  1   force =    -0.00107439    0.00168398   -0.00467878
     atom    3 type  1   force =     0.00883942   -0.01639113   -0.01351540
     atom    4 type  2   force =    -0.03405592   -0.02663492   -1.14856650
     atom    5 type  2   force =    -0.01465999    0.01913729   -1.15183828
     atom    6 type  2   force =     0.04023493    0.01113089   -1.11230019
     atom    7 type  2   force =     0.03495807    0.01280381    1.05383482
     atom    8 type  2   force =    -0.04059976    0.00770764    1.04471391
     atom    9 type  2   force =    -0.02601297   -0.01127882    1.07738358
     atom   10 type  3   force =     0.00592613   -0.28174369    0.32752098
     atom   11 type  2   force =     1.55194012   -0.21635587   -1.21460177
     atom   12 type  4   force =    -0.11078371   -0.01745583   -0.02451316
     atom   13 type  4   force =     0.00580882    0.01534930    0.11511742
     atom   14 type  2   force =    -1.01004917    1.28618769   -1.29101308
     atom   15 type  4   force =     0.06801237   -0.08846391   -0.02447010
     atom   16 type  4   force =    -0.01756610   -0.00280795    0.11516992
     atom   17 type  2   force =    -0.17732308    1.79138349    1.44782622
     atom   18 type  4   force =     0.04354336   -0.10336079    0.01784322
     atom   19 type  4   force =    -0.04716610    0.00036732   -0.10644861
     atom   20 type  2   force =     1.50837965    0.81136308    1.35201433
     atom   21 type  4   force =    -0.06773183   -0.08879445    0.01575260
     atom   22 type  4   force =    -0.02330366    0.03955719   -0.10668998
     The ionic contribution  to forces
     atom    1 type  1   force =    -0.15046495   -0.29414141    2.07671623
     atom    2 type  1   force =     0.36593655   -0.06250264    2.78310323
     atom    3 type  1   force =    -0.23790651    0.36397528    2.84852547
     atom    4 type  2   force =     0.28158181    0.41508742   33.38217190
     atom    5 type  2   force =     0.27064852   -0.41397812   33.35232977
     atom    6 type  2   force =    -0.53888585   -0.00779873   33.28101203
     atom    7 type  2   force =    -0.38805581    0.00537787  -31.56309162
     atom    8 type  2   force =     0.21500888    0.20393290  -31.50910587
     atom    9 type  2   force =     0.22206919   -0.21682901  -31.60353242
     atom   10 type  3   force =    -1.32911032   -1.26755473   -6.29849602
     atom   11 type  2   force =    -1.82966804    0.39781839   10.52479860
     atom   12 type  4   force =     3.11426336    0.20396751    1.84121420
     atom   13 type  4   force =    -0.15602462   -0.42901290    0.21866701
     atom   14 type  2   force =     1.38048968   -1.42384358   10.64039197
     atom   15 type  4   force =    -2.22626166    2.47221566    1.82013967
     atom   16 type  4   force =     0.52997561    0.10731868    0.22840989
     atom   17 type  2   force =     1.09791534   -3.27919339  -13.63452482
     atom   18 type  4   force =    -1.08925889    2.60236639   -2.01888919
     atom   19 type  4   force =     1.36175080   -0.03490185   -0.39571892
     atom   20 type  2   force =    -3.11907247   -0.67713021  -13.54659565
     atom   21 type  4   force =     1.56209062    2.40280788   -2.09922116
     atom   22 type  4   force =     0.66297875   -1.06798141   -0.32830429
     The local contribution  to forces
     atom    1 type  1   force =     0.14908769    0.28290674   -2.08307707
     atom    2 type  1   force =    -0.36345653    0.06031048   -2.77195174
     atom    3 type  1   force =     0.22848656   -0.34785215   -2.82680178
     atom    4 type  2   force =    -0.25208766   -0.39162001  -32.26796086
     atom    5 type  2   force =    -0.25747072    0.39702238  -32.23517326
     atom    6 type  2   force =     0.50299451   -0.00149985  -32.19855762
     atom    7 type  2   force =     0.35705323   -0.01642365   30.52975816
     atom    8 type  2   force =    -0.17913020   -0.20909991   30.48397913
     atom    9 type  2   force =    -0.19866314    0.22444030   30.55003990
     atom   10 type  3   force =     1.30956110    1.58364117    5.95872677
     atom   11 type  2   force =     0.24492224   -0.19639434   -9.28006615
     atom   12 type  4   force =    -2.96649173   -0.17084538   -1.81904090
     atom   13 type  4   force =     0.14376590    0.41082657   -0.37738981
     atom   14 type  2   force =    -0.37759809    0.10434466   -9.32186612
     atom   15 type  4   force =     2.15164711   -2.35883949   -1.80205246
     atom   16 type  4   force =    -0.50140201   -0.10623617   -0.38755355
     atom   17 type  2   force =    -0.92878962    1.47983453   12.15930286
     atom   18 type  4   force =     1.05541773   -2.46413784    1.99603576
     atom   19 type  4   force =    -1.30183550    0.02703389    0.55918747
     atom   20 type  2   force =     1.58572257   -0.15821080   12.17179906
     atom   21 type  4   force =    -1.45384727   -2.31042352    2.09320693
     atom   22 type  4   force =    -0.63174259    1.03311528    0.49243082
     The core correction contribution to forces
     atom    1 type  1   force =     0.00000929   -0.00007858   -0.00008003
     atom    2 type  1   force =     0.00000480   -0.00001286   -0.00000271
     atom    3 type  1   force =    -0.00005316    0.00009763    0.00003919
     atom    4 type  2   force =     0.00030354    0.00022881    0.01016532
     atom    5 type  2   force =     0.00012140   -0.00015922    0.01020744
     atom    6 type  2   force =    -0.00034628   -0.00010093    0.00981584
     atom    7 type  2   force =    -0.00031043   -0.00012711   -0.00923902
     atom    8 type  2   force =     0.00037446   -0.00007664   -0.00914473
     atom    9 type  2   force =     0.00023730    0.00011114   -0.00947498
     atom   10 type  3   force =     0.00000797    0.00011445   -0.00015622
     atom   11 type  2   force =    -0.01154640    0.00200465    0.00906019
     atom   12 type  4   force =     0.00000000    0.00000000    0.00000000
     atom   13 type  4   force =     0.00000000    0.00000000    0.00000000
     atom   14 type  2   force =     0.00795712   -0.00961213    0.00975929
     atom   15 type  4   force =     0.00000000    0.00000000    0.00000000
     atom   16 type  4   force =     0.00000000    0.00000000    0.00000000
     atom   17 type  2   force =     0.00166471   -0.01377523   -0.01103946
     atom   18 type  4   force =     0.00000000    0.00000000    0.00000000
     atom   19 type  4   force =     0.00000000    0.00000000    0.00000000
     atom   20 type  2   force =    -0.01146889   -0.00636803   -0.01010220
     atom   21 type  4   force =     0.00000000    0.00000000    0.00000000
     atom   22 type  4   force =     0.00000000    0.00000000    0.00000000
     The Hubbard contrib.    to forces
     atom    1 type  1   force =     0.00000000    0.00000000    0.00000000
     atom    2 type  1   force =     0.00000000    0.00000000    0.00000000
     atom    3 type  1   force =     0.00000000    0.00000000    0.00000000
     atom    4 type  2   force =     0.00000000    0.00000000    0.00000000
     atom    5 type  2   force =     0.00000000    0.00000000    0.00000000
     atom    6 type  2   force =     0.00000000    0.00000000    0.00000000
     atom    7 type  2   force =     0.00000000    0.00000000    0.00000000
     atom    8 type  2   force =     0.00000000    0.00000000    0.00000000
     atom    9 type  2   force =     0.00000000    0.00000000    0.00000000
     atom   10 type  3   force =     0.00000000    0.00000000    0.00000000
     atom   11 type  2   force =     0.00000000    0.00000000    0.00000000
     atom   12 type  4   force =     0.00000000    0.00000000    0.00000000
     atom   13 type  4   force =     0.00000000    0.00000000    0.00000000
     atom   14 type  2   force =     0.00000000    0.00000000    0.00000000
     atom   15 type  4   force =     0.00000000    0.00000000    0.00000000
     atom   16 type  4   force =     0.00000000    0.00000000    0.00000000
     atom   17 type  2   force =     0.00000000    0.00000000    0.00000000
     atom   18 type  4   force =     0.00000000    0.00000000    0.00000000
     atom   19 type  4   force =     0.00000000    0.00000000    0.00000000
     atom   20 type  2   force =     0.00000000    0.00000000    0.00000000
     atom   21 type  4   force =     0.00000000    0.00000000    0.00000000
     atom   22 type  4   force =     0.00000000    0.00000000    0.00000000
     The SCF correction term to forces
     atom    1 type  1   force =     0.00002286    0.00008714   -0.00014387
     atom    2 type  1   force =    -0.00002899    0.00001143   -0.00017493
     atom    3 type  1   force =     0.00002853   -0.00009496   -0.00024069
     atom    4 type  2   force =     0.00002502    0.00000443    0.00005948
     atom    5 type  2   force =    -0.00006572    0.00004316    0.00005723
     atom    6 type  2   force =     0.00003327   -0.00004907    0.00005537
     atom    7 type  2   force =     0.00006204    0.00003620   -0.00011620
     atom    8 type  2   force =    -0.00000853   -0.00006484   -0.00012518
     atom    9 type  2   force =    -0.00005443    0.00003259   -0.00012291
     atom   10 type  3   force =     0.00004667    0.00008147   -0.00010505
     atom   11 type  2   force =    -0.00007968   -0.00001644    0.00025942
     atom   12 type  4   force =     0.00001261    0.00000050    0.00003029
     atom   13 type  4   force =    -0.00000287   -0.00000273    0.00001847
     atom   14 type  2   force =     0.00002462   -0.00005557    0.00025990
     atom   15 type  4   force =    -0.00000757    0.00001059    0.00002987
     atom   16 type  4   force =     0.00000269   -0.00000185    0.00001876
     atom   17 type  2   force =    -0.00002124   -0.00006359   -0.00021863
     atom   18 type  4   force =    -0.00001867    0.00001858   -0.00003042
     atom   19 type  4   force =     0.00000822   -0.00000208   -0.00000844
     atom   20 type  2   force =    -0.00004346   -0.00007845   -0.00023064
     atom   21 type  4   force =     0.00001020    0.00002186   -0.00003114
     atom   22 type  4   force =     0.00000456   -0.00001187   -0.00000681

     DFT-D3 dispersion contribution to forces:
     atom    1 type  1   force =     0.00000138    0.00003439   -0.00065480
     atom    2 type  1   force =    -0.00013638    0.00006614   -0.00042980
     atom    3 type  1   force =     0.00006156   -0.00006043   -0.00042941
     atom    4 type  2   force =     0.00013692    0.00001556    0.00073899
     atom    5 type  2   force =     0.00002935    0.00000448    0.00088050
     atom    6 type  2   force =    -0.00008932   -0.00008234    0.00072780
     atom    7 type  2   force =    -0.00010422   -0.00009749   -0.00113958
     atom    8 type  2   force =     0.00023735    0.00006625   -0.00103081
     atom    9 type  2   force =     0.00011626    0.00000764   -0.00111306
     atom   10 type  3   force =     0.00014425   -0.00086872    0.00246055
     atom   11 type  2   force =     0.00076689    0.00048145   -0.00063849
     atom   12 type  4   force =    -0.00038199   -0.00045222   -0.00064313
     atom   13 type  4   force =     0.00025819    0.00021072   -0.00110087
     atom   14 type  2   force =    -0.00003407    0.00086559   -0.00039382
     atom   15 type  4   force =    -0.00010011   -0.00036885   -0.00063949
     atom   16 type  4   force =    -0.00012455    0.00019609   -0.00108462
     atom   17 type  2   force =     0.00040985    0.00010418    0.00058845
     atom   18 type  4   force =    -0.00013791   -0.00061962    0.00073668
     atom   19 type  4   force =    -0.00041383   -0.00007613    0.00092367
     atom   20 type  2   force =     0.00008440    0.00043007    0.00068811
     atom   21 type  4   force =    -0.00065981   -0.00015739    0.00059901
     atom   22 type  4   force =    -0.00006420    0.00030061    0.00095412

     Total force =     0.178700     Total SCF correction =     0.000701

     DFT-D3 dispersion Force =     0.004923

     Writing all to output data dir ./out/pw.save/ :
     XML data file, charge density, pseudopotentials, collected wavefunctions
 
     init_run     :     28.05s CPU      7.19s WALL (       1 calls)
     electrons    :    551.65s CPU    199.78s WALL (       1 calls)
     forces       :      4.10s CPU      3.92s WALL (       1 calls)
     force_dftd3  :      1.06s CPU      1.05s WALL (       1 calls)

     Called by init_run:
     wfcinit      :      1.75s CPU      2.22s WALL (       1 calls)
     wfcinit:atom :      0.20s CPU      0.20s WALL (      80 calls)
     wfcinit:wfcr :      1.04s CPU      1.10s WALL (      80 calls)
     potinit      :     25.37s CPU      4.00s WALL (       1 calls)
     hinit0       :      0.72s CPU      0.69s WALL (       1 calls)

     Called by electrons:
     c_bands      :    124.22s CPU    124.89s WALL (      28 calls)
     sum_band     :     19.23s CPU     19.27s WALL (      28 calls)
     v_of_rho     :      0.80s CPU      0.52s WALL (      29 calls)
     v_h          :      0.49s CPU      0.14s WALL (      29 calls)
     v_xc         :      0.32s CPU      0.38s WALL (      30 calls)
     newd         :      0.73s CPU      0.68s WALL (      29 calls)
                                        0.68s GPU  (      29 calls)
     PAW_pot      :    416.11s CPU     53.01s WALL (      29 calls)
     mix_rho      :      1.70s CPU      1.72s WALL (      28 calls)
     energy_dftd3 :      0.80s CPU      0.80s WALL (       1 calls)

     Called by c_bands:
     init_us_2    :      4.46s CPU      4.45s WALL (    4640 calls)
     cegterg      :     96.76s CPU     97.44s WALL (    2240 calls)

     Called by sum_band:
     sum_band:wei :      0.16s CPU      0.16s WALL (      28 calls)
                                        0.16s GPU  (      28 calls)
     sum_band:loo :     17.61s CPU     17.61s WALL (      28 calls)
                                       17.61s GPU  (      28 calls)
     sum_band:buf :      6.51s CPU      6.62s WALL (    2240 calls)
                                        6.59s GPU  (    2240 calls)
     sum_band:ini :      2.15s CPU      2.20s WALL (    2240 calls)
                                        2.17s GPU  (    2240 calls)
     sum_band:cal :      0.21s CPU      0.49s WALL (    2240 calls)
                                        0.45s GPU  (    2240 calls)
     sum_band:bec :      2.20s CPU      2.25s WALL (    2240 calls)
                                        2.22s GPU  (    2240 calls)
     addusdens    :      1.17s CPU      1.18s WALL (      28 calls)
                                        1.18s GPU  (      28 calls)
     addusd:skk   :      0.02s CPU      0.03s WALL (     112 calls)
                                        0.03s GPU  (     112 calls)

     Called by *egterg:
     cdiaghg      :     35.44s CPU     35.78s WALL (   13352 calls)
                                       35.62s GPU  (   13352 calls)
     cegterg:over :      4.66s CPU      4.70s WALL (   11112 calls)
     cegterg:upda :      4.45s CPU      4.46s WALL (   11112 calls)
     cegterg:last :      1.07s CPU      1.08s WALL (    4479 calls)
     h_psi        :     39.31s CPU     40.01s WALL (   13432 calls)
                                       39.83s GPU  (   13432 calls)
     s_psi        :      8.30s CPU      8.41s WALL (   13432 calls)
     g_psi        :      0.06s CPU      0.54s WALL (   11112 calls)
                                        0.40s GPU  (   11112 calls)

     Called by h_psi:
     h_psi:calbec :      0.51s CPU      1.58s WALL (   13432 calls)
                                        1.41s GPU  (   13432 calls)
     vloc_psi     :     28.04s CPU     28.36s WALL (   13432 calls)
                                       28.19s GPU  (   13432 calls)
     add_vuspsi   :      8.01s CPU      9.06s WALL (   13432 calls)
                                        8.89s GPU  (   13432 calls)

     General routines
     calbec       :      0.64s CPU      0.69s WALL (   15992 calls)
     fft          :      8.27s CPU      1.32s WALL (     738 calls)
                                        0.04s GPU  (     680 calls)
     ffts         :      3.99s CPU      0.99s WALL (    1427 calls)
                                        0.05s GPU  (    1369 calls)
     fftw         :      1.35s CPU     18.37s WALL (   88950 calls)
                                       17.39s GPU  (   88950 calls)
     interpolate  :     12.70s CPU      2.36s WALL (      58 calls)
 
     Parallel routines

     PAW routines
     PAW_pot      :    416.11s CPU     53.01s WALL (      29 calls)
 
     PWSCF        :   9m45.78s CPU   3m32.26s WALL

 
   This run was terminated on:   6:40:15  12Jul2026            

=------------------------------------------------------------------------------=
   JOB DONE.
=------------------------------------------------------------------------------=
Warning: ieee_divide_by_zero is signaling
Warning: ieee_inexact is signaling
FORTRAN STOP
