
     Program PWSCF v.7.3.1 starts on 12Jul2026 at  4:22:28 

     This program is part of the open-source Quantum ESPRESSO suite
     for quantum simulation of materials; please cite
         "P. Giannozzi et al., J. Phys.:Condens. Matter 21 395502 (2009);
         "P. Giannozzi et al., J. Phys.:Condens. Matter 29 465901 (2017);
         "P. Giannozzi et al., J. Chem. Phys. 152 154105 (2020);
          URL http://www.quantum-espresso.org", 
     in publications or presentations arising from this work. More details at
     http://www.quantum-espresso.org/quote

     Parallel version (MPI & OpenMP), running on      14 processor cores
     Number of MPI processes:                 1
     Threads/MPI process:                    14

     MPI processes distributed on     1 nodes
     763336 MiB available memory on the printing compute node when the environment starts
 
     Reading input from pw.in

     Current dimensions of program PWSCF are:
     Max number of different atomic species (ntypx) = 10
     Max number of k-points (npk) =  40000
     Max angular momentum in pseudopotentials (lmaxx) =  4
     file Co.pbe-spn-kjpaw_psl.0.3.1.UPF: wavefunction(s)  3P 3D renormalized
     file O.pbe-n-kjpaw_psl.1.0.0.UPF: wavefunction(s)  2S 2P renormalized
     file Na.pbe-spn-kjpaw_psl.1.0.0.UPF: wavefunction(s)  2P renormalized
 
     Subspace diagonalization in iterative solution of the eigenvalue problem:
     a serial algorithm will be used

 
     G-vector sticks info
     --------------------
     sticks:   dense  smooth     PW     G-vecs:    dense   smooth      PW
     Sum         979     499    151                59641    21167    3485
 
     Using Slab Decomposition
 


     bravais-lattice index     =            4
     lattice parameter (alat)  =       5.4575  a.u.
     unit-cell volume          =     336.3339 (a.u.)^3
     number of atoms/cell      =            4
     number of atomic types    =            3
     number of electrons       =        38.00
     number of Kohn-Sham states=           27
     kinetic-energy cutoff     =      60.0000  Ry
     charge density cutoff     =     480.0000  Ry
     scf convergence threshold =      1.0E-07
     mixing beta               =       0.3000
     number of iterations used =            8  local-TF  mixing
     Exchange-correlation= SLA  PW   PBX  PBC
                           (   1   4   3   4   0   0   0)

     GPU acceleration is ACTIVE.  4 visible GPUs per MPI rank
     GPU-aware MPI enabled


     GPU used by master process:

        Device Number: 0
        Device name: NVIDIA A100-SXM4-80GB
        Compute capability : 80
        Ratio of single to double precision performance  : 2
        Memory Clock Rate (KHz): 1593000
        Memory Bus Width (bits): 5120
        Peak Memory Bandwidth (GB/s): ******

     celldm(1)=   5.457529  celldm(2)=   0.000000  celldm(3)=   2.389197
     celldm(4)=   0.000000  celldm(5)=   0.000000  celldm(6)=   0.000000

     crystal axes: (cart. coord. in units of alat)
               a(1) = (   1.000000   0.000000   0.000000 )  
               a(2) = (  -0.500000   0.866025   0.000000 )  
               a(3) = (   0.000000   0.000000   2.389197 )  

     reciprocal axes: (cart. coord. in units 2 pi/alat)
               b(1) = (  1.000000  0.577350 -0.000000 )  
               b(2) = (  0.000000  1.154701  0.000000 )  
               b(3) = (  0.000000 -0.000000  0.418551 )  


     PseudoPot. # 1 for Co read from file:
     ../../pseudo/Co.pbe-spn-kjpaw_psl.0.3.1.UPF
     MD5 check sum: 3c0a43779828c046024e4f3be63f8e67
     Pseudo is Projector augmented-wave + core cor, Zval = 17.0
     Generated using &quot;atomic&quot; code by A. Dal Corso  v.6.2.2
     Shape of augmentation charge: PSQ
     Using radial grid of 1193 points,  6 beta functions with: 
                l(1) =   0
                l(2) =   0
                l(3) =   1
                l(4) =   1
                l(5) =   2
                l(6) =   2
     Q(r) pseudized with 0 coefficients 


     PseudoPot. # 2 for O  read from file:
     ../../pseudo/O.pbe-n-kjpaw_psl.1.0.0.UPF
     MD5 check sum: e99d9cef9b487d1ca56f5b95ecd0fd7a
     Pseudo is Projector augmented-wave + core cor, Zval =  6.0
     Generated using &quot;atomic&quot; code by A. Dal Corso  v.6.3
     Shape of augmentation charge: PSQ
     Using radial grid of 1095 points,  4 beta functions with: 
                l(1) =   0
                l(2) =   0
                l(3) =   1
                l(4) =   1
     Q(r) pseudized with 0 coefficients 


     PseudoPot. # 3 for Na read from file:
     ../../pseudo/Na.pbe-spn-kjpaw_psl.1.0.0.UPF
     MD5 check sum: 05b4deb74e3932c23ab016979dc8b5d4
     Pseudo is Projector augmented-wave + core cor, Zval =  9.0
     Generated using &quot;atomic&quot; code by A. Dal Corso  v.6.3
     Shape of augmentation charge: PSQ
     Using radial grid of 1121 points,  4 beta functions with: 
                l(1) =   0
                l(2) =   0
                l(3) =   1
                l(4) =   1
     Q(r) pseudized with 0 coefficients 


     atomic species   valence    mass     pseudopotential
     Co               17.00    58.93300     Co( 1.00)
     O                 6.00    15.99900     O ( 1.00)
     Na                9.00    22.98977     Na( 1.00)

      6 Sym. Ops. (no inversion) found


                                    s                        frac. trans.

      isym =  1     identity                                     

 cryst.   s( 1) = (     1          0          0      )
                  (     0          1          0      )
                  (     0          0          1      )

 cart.    s( 1) = (  1.0000000  0.0000000  0.0000000 )
                  (  0.0000000  1.0000000  0.0000000 )
                  (  0.0000000  0.0000000  1.0000000 )


      isym =  2     120 deg rotation - cryst. axis [0,0,1]       

 cryst.   s( 2) = (     0          1          0      )
                  (    -1         -1          0      )
                  (     0          0          1      )

 cart.    s( 2) = ( -0.5000000 -0.8660254  0.0000000 )
                  (  0.8660254 -0.5000000  0.0000000 )
                  (  0.0000000  0.0000000  1.0000000 )


      isym =  3     120 deg rotation - cryst. axis [0,0,-1]      

 cryst.   s( 3) = (    -1         -1          0      )
                  (     1          0          0      )
                  (     0          0          1      )

 cart.    s( 3) = ( -0.5000000  0.8660254  0.0000000 )
                  ( -0.8660254 -0.5000000  0.0000000 )
                  (  0.0000000  0.0000000  1.0000000 )


      isym =  4     inv. 180 deg rotation - cart. axis [1,0,0]   

 cryst.   s( 4) = (    -1          0          0      )
                  (     1          1          0      )
                  (     0          0          1      )

 cart.    s( 4) = ( -1.0000000  0.0000000  0.0000000 )
                  (  0.0000000  1.0000000  0.0000000 )
                  (  0.0000000  0.0000000  1.0000000 )


      isym =  5     inv. 180 deg rotation - cryst. axis [0,1,0]  

 cryst.   s( 5) = (     1          1          0      )
                  (     0         -1          0      )
                  (     0          0          1      )

 cart.    s( 5) = (  0.5000000  0.8660254  0.0000000 )
                  (  0.8660254 -0.5000000  0.0000000 )
                  (  0.0000000  0.0000000  1.0000000 )


      isym =  6     inv. 180 deg rotation - cryst. axis [1,1,0]  

 cryst.   s( 6) = (     0         -1          0      )
                  (    -1          0          0      )
                  (     0          0          1      )

 cart.    s( 6) = (  0.5000000 -0.8660254  0.0000000 )
                  ( -0.8660254 -0.5000000  0.0000000 )
                  (  0.0000000  0.0000000  1.0000000 )


     point group C_3v (3m)  
     there are  3 classes
     the character table:

       E     2C3   3s_v 
A_1    1.00  1.00  1.00
A_2    1.00  1.00 -1.00
E      2.00 -1.00  0.00

     the symmetry operations in each class and the name of the first element:

     E        1
          identity                                               
     2C3      2    3
          120 deg rotation - cryst. axis [0,0,1]                 
     3s_v     4    5    6
          inv. 180 deg rotation - cart. axis [1,0,0]             

   Cartesian axes

     site n.     atom                  positions (alat units)
         1        Co     tau(   1) = (   0.0000000   0.0000000   0.0000000  )
         2        O      tau(   2) = (  -0.0000000   0.5773503   0.3324100  )
         3        O      tau(   3) = (   0.5000000   0.2886751   2.0567867  )
         4        Na     tau(   4) = (   0.0000000   0.0000000   1.3677285  )

   Crystallographic axes

     site n.     atom                  positions (cryst. coord.)
         1        Co     tau(   1) = (  0.0000000  0.0000000  0.0000000  )
         2        O      tau(   2) = (  0.3333333  0.6666667  0.1391304  )
         3        O      tau(   3) = (  0.6666667  0.3333333  0.8608696  )
         4        Na     tau(   4) = (  0.0000000  0.0000000  0.5724638  )

     number of k points=    25  Marzari-Vanderbilt smearing, width (Ry)=  0.0200
                       cart. coord. in units 2pi/alat
        k(    1) = (   0.0000000   0.0000000   0.0000000), wk =   0.0104167
        k(    2) = (   0.0000000   0.0000000   0.1395169), wk =   0.0208333
        k(    3) = (   0.0000000   0.1443376   0.0000000), wk =   0.0625000
        k(    4) = (   0.0000000   0.1443376   0.1395169), wk =   0.0625000
        k(    5) = (   0.0000000   0.2886751   0.0000000), wk =   0.0625000
        k(    6) = (   0.0000000   0.2886751   0.1395169), wk =   0.0625000
        k(    7) = (   0.0000000   0.4330127   0.0000000), wk =   0.0625000
        k(    8) = (   0.0000000   0.4330127   0.1395169), wk =   0.0625000
        k(    9) = (   0.0000000  -0.5773503   0.0000000), wk =   0.0312500
        k(   10) = (   0.0000000  -0.5773503   0.1395169), wk =   0.0625000
        k(   11) = (   0.1250000   0.2165064   0.0000000), wk =   0.0625000
        k(   12) = (   0.1250000   0.2165064   0.1395169), wk =   0.1250000
        k(   13) = (   0.1250000   0.3608439   0.0000000), wk =   0.1250000
        k(   14) = (   0.1250000   0.3608439   0.1395169), wk =   0.1250000
        k(   15) = (   0.1250000   0.5051815   0.0000000), wk =   0.1250000
        k(   16) = (   0.1250000   0.5051815   0.1395169), wk =   0.1250000
        k(   17) = (   0.2500000   0.4330127   0.0000000), wk =   0.0625000
        k(   18) = (   0.2500000   0.4330127   0.1395169), wk =   0.1250000
        k(   19) = (   0.2500000   0.5773503   0.0000000), wk =   0.0625000
        k(   20) = (   0.2500000   0.5773503   0.1395169), wk =   0.1250000
        k(   21) = (   0.0000000  -0.1443376   0.1395169), wk =   0.0625000
        k(   22) = (   0.0000000  -0.2886751   0.1395169), wk =   0.0625000
        k(   23) = (   0.0000000  -0.4330127   0.1395169), wk =   0.0625000
        k(   24) = (  -0.1250000  -0.3608439   0.1395169), wk =   0.1250000
        k(   25) = (  -0.1250000  -0.5051815   0.1395169), wk =   0.1250000

                       cryst. coord.
        k(    1) = (   0.0000000   0.0000000   0.0000000), wk =   0.0104167
        k(    2) = (   0.0000000   0.0000000   0.3333333), wk =   0.0208333
        k(    3) = (   0.0000000   0.1250000   0.0000000), wk =   0.0625000
        k(    4) = (   0.0000000   0.1250000   0.3333333), wk =   0.0625000
        k(    5) = (   0.0000000   0.2500000   0.0000000), wk =   0.0625000
        k(    6) = (   0.0000000   0.2500000   0.3333333), wk =   0.0625000
        k(    7) = (   0.0000000   0.3750000   0.0000000), wk =   0.0625000
        k(    8) = (   0.0000000   0.3750000   0.3333333), wk =   0.0625000
        k(    9) = (   0.0000000  -0.5000000   0.0000000), wk =   0.0312500
        k(   10) = (   0.0000000  -0.5000000   0.3333333), wk =   0.0625000
        k(   11) = (   0.1250000   0.1250000   0.0000000), wk =   0.0625000
        k(   12) = (   0.1250000   0.1250000   0.3333333), wk =   0.1250000
        k(   13) = (   0.1250000   0.2500000   0.0000000), wk =   0.1250000
        k(   14) = (   0.1250000   0.2500000   0.3333333), wk =   0.1250000
        k(   15) = (   0.1250000   0.3750000   0.0000000), wk =   0.1250000
        k(   16) = (   0.1250000   0.3750000   0.3333333), wk =   0.1250000
        k(   17) = (   0.2500000   0.2500000   0.0000000), wk =   0.0625000
        k(   18) = (   0.2500000   0.2500000   0.3333333), wk =   0.1250000
        k(   19) = (   0.2500000   0.3750000   0.0000000), wk =   0.0625000
        k(   20) = (   0.2500000   0.3750000   0.3333333), wk =   0.1250000
        k(   21) = (   0.0000000  -0.1250000   0.3333333), wk =   0.0625000
        k(   22) = (   0.0000000  -0.2500000   0.3333333), wk =   0.0625000
        k(   23) = (   0.0000000  -0.3750000   0.3333333), wk =   0.0625000
        k(   24) = (  -0.1250000  -0.2500000   0.3333333), wk =   0.1250000
        k(   25) = (  -0.1250000  -0.3750000   0.3333333), wk =   0.1250000

     Dense  grid:    59641 G-vectors     FFT dimensions: (  40,  40,  96)

     Smooth grid:    21167 G-vectors     FFT dimensions: (  27,  27,  72)

     Dynamical RAM for                 wfc:       1.09 MB

     Dynamical RAM for     wfc (w. buffer):      28.28 MB

     Dynamical RAM for           str. fact:       2.73 MB

     Dynamical RAM for           local pot:       0.00 MB

     Dynamical RAM for          nlocal pot:       1.69 MB

     Dynamical RAM for                qrad:       5.27 MB

     Dynamical RAM for          rho,v,vnew:       6.25 MB

     Dynamical RAM for               rhoin:       2.08 MB

     Dynamical RAM for            rho*nmix:      14.56 MB

     Dynamical RAM for           G-vectors:       3.57 MB

     Dynamical RAM for          h,s,v(r/c):       0.13 MB

     Dynamical RAM for          <psi|beta>:       0.02 MB

     Dynamical RAM for                 psi:       2.18 MB

     Dynamical RAM for                hpsi:       2.18 MB

     Dynamical RAM for                spsi:       2.18 MB

     Dynamical RAM for      wfcinit/wfcrot:       2.19 MB

     Dynamical RAM for           addusdens:     171.09 MB

     Dynamical RAM for          addusforce:     173.37 MB

     Estimated static dynamical RAM per process >      59.38 MB

     Estimated max dynamical RAM per process >     247.31 MB

     Check: negative core charge=   -0.000008

     Initial potential from superposition of free atoms

     starting charge      37.9934, renormalised to      38.0000
     Starting wfcs are   23 randomized atomic wfcs +    4 random wfcs
     Checking if some PAW data can be deallocated... 

     total cpu time spent up to now is        3.2 secs

     Self-consistent Calculation
[tb_dev] Currently allocated     6.54E-01 Mbytes, locked:    0 /   6
[tb_pin] Currently allocated     0.00E+00 Mbytes, locked:    0 /   0

     iteration #  1     ecut=    60.00 Ry     beta= 0.30
     Davidson diagonalization with overlap

---- Real-time Memory Report at c_bands before calling an iterative solver
           633 MiB given to the printing process from OS
             0 MiB allocation reported by mallinfo(arena+hblkhd)
        763060 MiB available memory on the node where the printing process lives
     GPU memory used/free/total (MiB): 974 / 80176 / 81151
------------------
     ethr =  1.00E-02,  avg # of iterations =  9.8

     total cpu time spent up to now is        4.4 secs

     total energy              =    -569.29107053 Ry
     estimated scf accuracy    <       0.85162008 Ry
[tb_dev] Currently allocated     3.05E-05 Mbytes, locked:    0 /   2
[tb_pin] Currently allocated     0.00E+00 Mbytes, locked:    0 /   0

     iteration #  2     ecut=    60.00 Ry     beta= 0.30
     Davidson diagonalization with overlap

---- Real-time Memory Report at c_bands before calling an iterative solver
           666 MiB given to the printing process from OS
             0 MiB allocation reported by mallinfo(arena+hblkhd)
        763015 MiB available memory on the node where the printing process lives
     GPU memory used/free/total (MiB): 988 / 80162 / 81151
------------------
     ethr =  2.24E-03,  avg # of iterations =  2.0

     total cpu time spent up to now is        5.1 secs

     total energy              =    -569.29208541 Ry
     estimated scf accuracy    <       0.39281317 Ry
[tb_dev] Currently allocated     3.05E-05 Mbytes, locked:    0 /   2
[tb_pin] Currently allocated     0.00E+00 Mbytes, locked:    0 /   0

     iteration #  3     ecut=    60.00 Ry     beta= 0.30
     Davidson diagonalization with overlap

---- Real-time Memory Report at c_bands before calling an iterative solver
           667 MiB given to the printing process from OS
             0 MiB allocation reported by mallinfo(arena+hblkhd)
        763012 MiB available memory on the node where the printing process lives
     GPU memory used/free/total (MiB): 988 / 80162 / 81151
------------------
     ethr =  1.03E-03,  avg # of iterations =  2.4

     total cpu time spent up to now is        5.8 secs

     total energy              =    -569.25900302 Ry
     estimated scf accuracy    <       0.20887232 Ry
[tb_dev] Currently allocated     3.05E-05 Mbytes, locked:    0 /   2
[tb_pin] Currently allocated     0.00E+00 Mbytes, locked:    0 /   0

     iteration #  4     ecut=    60.00 Ry     beta= 0.30
     Davidson diagonalization with overlap

---- Real-time Memory Report at c_bands before calling an iterative solver
           668 MiB given to the printing process from OS
             0 MiB allocation reported by mallinfo(arena+hblkhd)
        763010 MiB available memory on the node where the printing process lives
     GPU memory used/free/total (MiB): 988 / 80162 / 81151
------------------
     ethr =  5.50E-04,  avg # of iterations =  4.1
     Minimization algorithm failed to find Fermi energy: reverting to bisection
     Possible cause: smearing is larger than the electronic band-gap.

     total cpu time spent up to now is        6.6 secs

     total energy              =    -569.27637891 Ry
     estimated scf accuracy    <       0.04046828 Ry
[tb_dev] Currently allocated     3.05E-05 Mbytes, locked:    0 /   2
[tb_pin] Currently allocated     0.00E+00 Mbytes, locked:    0 /   0

     iteration #  5     ecut=    60.00 Ry     beta= 0.30
     Davidson diagonalization with overlap

---- Real-time Memory Report at c_bands before calling an iterative solver
           670 MiB given to the printing process from OS
             0 MiB allocation reported by mallinfo(arena+hblkhd)
        763017 MiB available memory on the node where the printing process lives
     GPU memory used/free/total (MiB): 988 / 80162 / 81151
------------------
     c_bands:  1 eigenvalues not converged
     ethr =  1.06E-04,  avg # of iterations =  9.3
     Minimization algorithm failed to find Fermi energy: reverting to bisection
     Possible cause: smearing is larger than the electronic band-gap.

     total cpu time spent up to now is        7.7 secs

     total energy              =    -569.26984569 Ry
     estimated scf accuracy    <       0.03731912 Ry
[tb_dev] Currently allocated     3.05E-05 Mbytes, locked:    0 /   2
[tb_pin] Currently allocated     0.00E+00 Mbytes, locked:    0 /   0

     iteration #  6     ecut=    60.00 Ry     beta= 0.30
     Davidson diagonalization with overlap

---- Real-time Memory Report at c_bands before calling an iterative solver
           672 MiB given to the printing process from OS
             0 MiB allocation reported by mallinfo(arena+hblkhd)
        762979 MiB available memory on the node where the printing process lives
     GPU memory used/free/total (MiB): 988 / 80162 / 81151
------------------
     ethr =  9.82E-05,  avg # of iterations =  3.4

     total cpu time spent up to now is        8.5 secs

     total energy              =    -569.27496925 Ry
     estimated scf accuracy    <       0.00866351 Ry
[tb_dev] Currently allocated     3.05E-05 Mbytes, locked:    0 /   2
[tb_pin] Currently allocated     0.00E+00 Mbytes, locked:    0 /   0

     iteration #  7     ecut=    60.00 Ry     beta= 0.30
     Davidson diagonalization with overlap

---- Real-time Memory Report at c_bands before calling an iterative solver
           673 MiB given to the printing process from OS
             0 MiB allocation reported by mallinfo(arena+hblkhd)
        762979 MiB available memory on the node where the printing process lives
     GPU memory used/free/total (MiB): 988 / 80162 / 81151
------------------
     ethr =  2.28E-05,  avg # of iterations =  5.2

     total cpu time spent up to now is        9.4 secs

     total energy              =    -569.27697178 Ry
     estimated scf accuracy    <       0.00120822 Ry
[tb_dev] Currently allocated     3.05E-05 Mbytes, locked:    0 /   2
[tb_pin] Currently allocated     0.00E+00 Mbytes, locked:    0 /   0

     iteration #  8     ecut=    60.00 Ry     beta= 0.30
     Davidson diagonalization with overlap

---- Real-time Memory Report at c_bands before calling an iterative solver
           673 MiB given to the printing process from OS
             0 MiB allocation reported by mallinfo(arena+hblkhd)
        762979 MiB available memory on the node where the printing process lives
     GPU memory used/free/total (MiB): 988 / 80162 / 81151
------------------
     c_bands:  1 eigenvalues not converged
     ethr =  3.18E-06,  avg # of iterations =  7.9

     total cpu time spent up to now is       10.4 secs

     total energy              =    -569.27731513 Ry
     estimated scf accuracy    <       0.00068863 Ry
[tb_dev] Currently allocated     3.05E-05 Mbytes, locked:    0 /   2
[tb_pin] Currently allocated     0.00E+00 Mbytes, locked:    0 /   0

     iteration #  9     ecut=    60.00 Ry     beta= 0.30
     Davidson diagonalization with overlap

---- Real-time Memory Report at c_bands before calling an iterative solver
           674 MiB given to the printing process from OS
             0 MiB allocation reported by mallinfo(arena+hblkhd)
        762966 MiB available memory on the node where the printing process lives
     GPU memory used/free/total (MiB): 988 / 80162 / 81151
------------------
     ethr =  1.81E-06,  avg # of iterations =  2.4
     Minimization algorithm failed to find Fermi energy: reverting to bisection
     Possible cause: smearing is larger than the electronic band-gap.

     total cpu time spent up to now is       11.1 secs

     total energy              =    -569.27735368 Ry
     estimated scf accuracy    <       0.00046350 Ry
[tb_dev] Currently allocated     3.05E-05 Mbytes, locked:    0 /   2
[tb_pin] Currently allocated     0.00E+00 Mbytes, locked:    0 /   0

     iteration # 10     ecut=    60.00 Ry     beta= 0.30
     Davidson diagonalization with overlap

---- Real-time Memory Report at c_bands before calling an iterative solver
           676 MiB given to the printing process from OS
             0 MiB allocation reported by mallinfo(arena+hblkhd)
        762967 MiB available memory on the node where the printing process lives
     GPU memory used/free/total (MiB): 988 / 80162 / 81151
------------------
     ethr =  1.22E-06,  avg # of iterations =  1.1

     total cpu time spent up to now is       11.8 secs

     total energy              =    -569.27737204 Ry
     estimated scf accuracy    <       0.00007814 Ry
[tb_dev] Currently allocated     3.05E-05 Mbytes, locked:    0 /   2
[tb_pin] Currently allocated     0.00E+00 Mbytes, locked:    0 /   0

     iteration # 11     ecut=    60.00 Ry     beta= 0.30
     Davidson diagonalization with overlap

---- Real-time Memory Report at c_bands before calling an iterative solver
           676 MiB given to the printing process from OS
             0 MiB allocation reported by mallinfo(arena+hblkhd)
        762964 MiB available memory on the node where the printing process lives
     GPU memory used/free/total (MiB): 988 / 80162 / 81151
------------------
     ethr =  2.06E-07,  avg # of iterations =  4.4

     total cpu time spent up to now is       12.6 secs

     total energy              =    -569.27737140 Ry
     estimated scf accuracy    <       0.00012060 Ry
[tb_dev] Currently allocated     3.05E-05 Mbytes, locked:    0 /   2
[tb_pin] Currently allocated     0.00E+00 Mbytes, locked:    0 /   0

     iteration # 12     ecut=    60.00 Ry     beta= 0.30
     Davidson diagonalization with overlap

---- Real-time Memory Report at c_bands before calling an iterative solver
           676 MiB given to the printing process from OS
             0 MiB allocation reported by mallinfo(arena+hblkhd)
        762955 MiB available memory on the node where the printing process lives
     GPU memory used/free/total (MiB): 988 / 80162 / 81151
------------------
     ethr =  2.06E-07,  avg # of iterations =  1.8

     total cpu time spent up to now is       13.3 secs

     total energy              =    -569.27738091 Ry
     estimated scf accuracy    <       0.00015572 Ry
[tb_dev] Currently allocated     3.05E-05 Mbytes, locked:    0 /   2
[tb_pin] Currently allocated     0.00E+00 Mbytes, locked:    0 /   0

     iteration # 13     ecut=    60.00 Ry     beta= 0.30
     Davidson diagonalization with overlap

---- Real-time Memory Report at c_bands before calling an iterative solver
           676 MiB given to the printing process from OS
             0 MiB allocation reported by mallinfo(arena+hblkhd)
        762952 MiB available memory on the node where the printing process lives
     GPU memory used/free/total (MiB): 988 / 80162 / 81151
------------------
     ethr =  2.06E-07,  avg # of iterations =  1.1

     total cpu time spent up to now is       13.9 secs

     total energy              =    -569.27739760 Ry
     estimated scf accuracy    <       0.00000529 Ry
[tb_dev] Currently allocated     3.05E-05 Mbytes, locked:    0 /   2
[tb_pin] Currently allocated     0.00E+00 Mbytes, locked:    0 /   0

     iteration # 14     ecut=    60.00 Ry     beta= 0.30
     Davidson diagonalization with overlap

---- Real-time Memory Report at c_bands before calling an iterative solver
           676 MiB given to the printing process from OS
             0 MiB allocation reported by mallinfo(arena+hblkhd)
        762943 MiB available memory on the node where the printing process lives
     GPU memory used/free/total (MiB): 988 / 80162 / 81151
------------------
     ethr =  1.39E-08,  avg # of iterations =  4.6

     total cpu time spent up to now is       14.8 secs

     total energy              =    -569.27739950 Ry
     estimated scf accuracy    <       0.00000028 Ry
[tb_dev] Currently allocated     3.05E-05 Mbytes, locked:    0 /   2
[tb_pin] Currently allocated     0.00E+00 Mbytes, locked:    0 /   0

     iteration # 15     ecut=    60.00 Ry     beta= 0.30
     Davidson diagonalization with overlap

---- Real-time Memory Report at c_bands before calling an iterative solver
           676 MiB given to the printing process from OS
             0 MiB allocation reported by mallinfo(arena+hblkhd)
        762944 MiB available memory on the node where the printing process lives
     GPU memory used/free/total (MiB): 988 / 80162 / 81151
------------------
     ethr =  7.41E-10,  avg # of iterations =  7.0

     total cpu time spent up to now is       15.9 secs

     total energy              =    -569.27739979 Ry
     estimated scf accuracy    <       0.00000023 Ry
[tb_dev] Currently allocated     3.05E-05 Mbytes, locked:    0 /   2
[tb_pin] Currently allocated     0.00E+00 Mbytes, locked:    0 /   0

     iteration # 16     ecut=    60.00 Ry     beta= 0.30
     Davidson diagonalization with overlap

---- Real-time Memory Report at c_bands before calling an iterative solver
           676 MiB given to the printing process from OS
             0 MiB allocation reported by mallinfo(arena+hblkhd)
        762942 MiB available memory on the node where the printing process lives
     GPU memory used/free/total (MiB): 988 / 80162 / 81151
------------------
     ethr =  6.06E-10,  avg # of iterations =  2.3

     total cpu time spent up to now is       16.5 secs

     End of self-consistent calculation

          k = 0.0000 0.0000 0.0000 (  2625 PWs)   bands (ev):

   -87.4354 -50.6838 -50.6838 -50.6609 -45.9478 -17.7747 -17.7702 -17.7702
   -12.0400 -10.1593   1.4044   2.5247   2.5247   4.8868   5.8237   5.8237
     6.4681   6.5846   6.5846   8.0030  10.0702  10.0702  13.3812  15.2139
    17.8557  22.8656  24.7769

     occupation numbers 
     1.0000   1.0000   1.0000   1.0000   1.0000   1.0000   1.0000   1.0000
     1.0000   1.0000   1.0000   1.0000   1.0000   1.0000   1.0000   1.0000
     1.0000   1.0000   1.0000   0.0261   0.0000   0.0000   0.0000   0.0000
     0.0000   0.0000   0.0000

          k = 0.0000 0.0000 0.1395 (  2666 PWs)   bands (ev):

   -87.4355 -50.6840 -50.6840 -50.6611 -45.9479 -17.7753 -17.7706 -17.7706
   -12.0354 -10.1665   1.5436   2.5248   2.5248   4.2557   5.8228   5.8228
     6.5846   6.5846   7.3074   7.9183  10.0709  10.0709  12.4391  16.0949
    17.8617  22.8395  24.6189

     occupation numbers 
     1.0000   1.0000   1.0000   1.0000   1.0000   1.0000   1.0000   1.0000
     1.0000   1.0000   1.0000   1.0000   1.0000   1.0000   1.0000   1.0000
     1.0000   1.0000   1.0808   0.0730   0.0000   0.0000   0.0000   0.0000
     0.0000   0.0000   0.0000

          k = 0.0000 0.1443 0.0000 (  2643 PWs)   bands (ev):

   -87.4347 -50.6924 -50.6859 -50.6598 -45.9427 -17.8146 -17.7798 -17.7666
   -11.8727 -10.1509   1.6070   2.2753   2.6224   4.7731   5.2914   5.3205
     6.7512   6.8513   7.0033   8.1661   9.6059   9.9698  13.7025  15.8344
    18.4926  21.7372  22.8015

     occupation numbers 
     1.0000   1.0000   1.0000   1.0000   1.0000   1.0000   1.0000   1.0000
     1.0000   1.0000   1.0000   1.0000   1.0000   1.0000   1.0000   1.0000
     1.0001   1.0006   1.0064   0.0021   0.0000   0.0000   0.0000   0.0000
     0.0000   0.0000   0.0000

          k = 0.0000 0.1443 0.1395 (  2651 PWs)   bands (ev):

   -87.4347 -50.6924 -50.6859 -50.6598 -45.9427 -17.8147 -17.7798 -17.7669
   -11.8687 -10.1568   1.7125   2.2564   2.6225   4.7387   4.8502   5.3201
     6.8014   7.0032   7.4638   8.0019   9.7366   9.9702  12.9080  16.6598
    18.3299  21.5695  23.0828

     occupation numbers 
     1.0000   1.0000   1.0000   1.0000   1.0000   1.0000   1.0000   1.0000
     1.0000   1.0000   1.0000   1.0000   1.0000   1.0000   1.0000   1.0000
     1.0002   1.0064   1.0093   0.0264   0.0000   0.0000   0.0000   0.0000
     0.0000   0.0000   0.0000

          k = 0.0000 0.2887 0.0000 (  2620 PWs)   bands (ev):

   -87.4328 -50.7128 -50.6907 -50.6566 -45.9301 -17.9194 -17.8022 -17.7464
   -11.4378 -10.1389   1.7719   2.2449   2.8517   3.3752   4.7226   5.5907
     6.9382   7.3108   7.3524   8.3612   9.2493   9.8426  14.3361  17.2351
    18.1151  19.9309  21.5547

     occupation numbers 
     1.0000   1.0000   1.0000   1.0000   1.0000   1.0000   1.0000   1.0000
     1.0000   1.0000   1.0000   1.0000   1.0000   1.0000   1.0000   1.0000
     1.0025   1.0813   1.0824   0.0000   0.0000   0.0000   0.0000   0.0000
     0.0000   0.0000   0.0000

          k = 0.0000 0.2887 0.1395 (  2636 PWs)   bands (ev):

   -87.4328 -50.7129 -50.6908 -50.6567 -45.9302 -17.9195 -17.8024 -17.7466
   -11.4353 -10.1422   1.7338   2.3079   2.8518   3.4196   4.7224   5.4405
     6.8628   7.3108   7.6383   7.9572   9.6943   9.8423  13.8902  17.7889
    17.9569  19.4649  21.7171

     occupation numbers 
     1.0000   1.0000   1.0000   1.0000   1.0000   1.0000   1.0000   1.0000
     1.0000   1.0000   1.0000   1.0000   1.0000   1.0000   1.0000   1.0000
     1.0007   1.0813   0.6245   0.0465   0.0000   0.0000   0.0000   0.0000
     0.0000   0.0000   0.0000

          k = 0.0000 0.4330 0.0000 (  2652 PWs)   bands (ev):

   -87.4310 -50.7335 -50.6959 -50.6536 -45.9177 -18.0226 -17.8252 -17.7267
   -10.9376 -10.1515   1.2903   2.2557   3.0328   3.3565   4.4353   5.0682
     6.8704   7.2210   7.4372   9.0045   9.8754  10.1099  14.5331  15.7285
    18.2513  19.4708  20.2707

     occupation numbers 
     1.0000   1.0000   1.0000   1.0000   1.0000   1.0000   1.0000   1.0000
     1.0000   1.0000   1.0000   1.0000   1.0000   1.0000   1.0000   1.0000
     1.0008   1.0561   1.0394   0.0000   0.0000   0.0000   0.0000   0.0000
     0.0000   0.0000   0.0000

          k = 0.0000 0.4330 0.1395 (  2641 PWs)   bands (ev):

   -87.4310 -50.7334 -50.6958 -50.6536 -45.9177 -18.0225 -17.8250 -17.7268
   -10.9366 -10.1525   1.2831   2.2378   3.0330   3.4030   4.4351   5.0905
     6.8515   7.2210   7.4489   8.7388   9.8751  10.4120  14.5563  15.3474
    18.7756  19.3946  20.0326

     occupation numbers 
     1.0000   1.0000   1.0000   1.0000   1.0000   1.0000   1.0000   1.0000
     1.0000   1.0000   1.0000   1.0000   1.0000   1.0000   1.0000   1.0000
     1.0006   1.0561   1.0272   0.0000   0.0000   0.0000   0.0000   0.0000
     0.0000   0.0000   0.0000

          k = 0.0000-0.5774 0.0000 (  2642 PWs)   bands (ev):

   -87.4303 -50.7420 -50.6978 -50.6522 -45.9125 -18.0648 -17.8344 -17.7183
   -10.6915 -10.1801   0.8978   2.3586   3.0725   3.6437   4.4042   4.6855
     6.7378   7.1022   7.3813   9.3813   9.9245  11.5070  12.7321  16.6621
    16.9800  19.4315  20.0649

     occupation numbers 
     1.0000   1.0000   1.0000   1.0000   1.0000   1.0000   1.0000   1.0000
     1.0000   1.0000   1.0000   1.0000   1.0000   1.0000   1.0000   1.0000
     1.0001   1.0208   1.0758   0.0000   0.0000   0.0000   0.0000   0.0000
     0.0000   0.0000   0.0000

          k = 0.0000-0.5774 0.1395 (  2638 PWs)   bands (ev):

   -87.4303 -50.7420 -50.6978 -50.6523 -45.9125 -18.0646 -17.8343 -17.7185
   -10.6916 -10.1799   0.8974   2.3384   3.0727   3.6561   4.4041   4.7248
     6.7299   7.1022   7.3757   9.3633   9.9242  11.5112  12.6239  16.4704
    17.5889  19.1886  19.9437

     occupation numbers 
     1.0000   1.0000   1.0000   1.0000   1.0000   1.0000   1.0000   1.0000
     1.0000   1.0000   1.0000   1.0000   1.0000   1.0000   1.0000   1.0000
     1.0001   1.0208   1.0776   0.0000   0.0000   0.0000   0.0000   0.0000
     0.0000   0.0000   0.0000

          k = 0.1250 0.2165 0.0000 (  2659 PWs)   bands (ev):

   -87.4334 -50.7061 -50.6904 -50.6577 -45.9339 -17.8844 -17.8009 -17.7527
   -11.5713 -10.1401   1.8282   2.1776   2.7394   3.8365   4.6283   5.6307
     6.9784   7.1994   7.3126   8.3317   9.2079   9.8065  14.1674  16.8663
    19.0502  19.8758  21.7633

     occupation numbers 
     1.0000   1.0000   1.0000   1.0000   1.0000   1.0000   1.0000   1.0000
     1.0000   1.0000   1.0000   1.0000   1.0000   1.0000   1.0000   1.0000
     1.0045   1.0486   1.0816   0.0001   0.0000   0.0000   0.0000   0.0000
     0.0000   0.0000   0.0000

          k = 0.1250 0.2165 0.1395 (  2634 PWs)   bands (ev):

   -87.4334 -50.7059 -50.6903 -50.6575 -45.9338 -17.8840 -17.8008 -17.7525
   -11.5685 -10.1439   1.8180   2.2292   2.7415   3.8739   4.6273   5.3618
     6.9822   7.1775   7.5898   8.1822   9.4758   9.7566  13.7225  17.4276
    18.9473  19.4598  22.0202

     occupation numbers 
     1.0000   1.0000   1.0000   1.0000   1.0000   1.0000   1.0000   1.0000
     1.0000   1.0000   1.0000   1.0000   1.0000   1.0000   1.0000   1.0000
     1.0048   1.0413   0.7554   0.0016   0.0000   0.0000   0.0000   0.0000
     0.0000   0.0000   0.0000

          k = 0.1250 0.3608 0.0000 (  2630 PWs)   bands (ev):

   -87.4315 -50.7243 -50.6973 -50.6545 -45.9213 -17.9768 -17.8342 -17.7325
   -11.1025 -10.1349   1.6962   2.2176   2.9416   3.2321   4.1447   5.4012
     7.0106   7.3387   7.5056   8.7702   9.3586   9.9479  14.8092  16.6091
    18.2210  20.0366  20.3751

     occupation numbers 
     1.0000   1.0000   1.0000   1.0000   1.0000   1.0000   1.0000   1.0000
     1.0000   1.0000   1.0000   1.0000   1.0000   1.0000   1.0000   1.0000
     1.0071   1.0833   0.9443   0.0000   0.0000   0.0000   0.0000   0.0000
     0.0000   0.0000   0.0000

          k = 0.1250 0.3608 0.1395 (  2633 PWs)   bands (ev):

   -87.4315 -50.7244 -50.6973 -50.6545 -45.9214 -17.9768 -17.8343 -17.7325
   -11.1012 -10.1364   1.6703   2.2169   2.9587   3.2836   4.1447   5.3802
     7.0025   7.3256   7.5018   8.5295   9.5679  10.0364  14.7276  16.4151
    18.3822  19.8418  20.5005

     occupation numbers 
     1.0000   1.0000   1.0000   1.0000   1.0000   1.0000   1.0000   1.0000
     1.0000   1.0000   1.0000   1.0000   1.0000   1.0000   1.0000   1.0000
     1.0063   1.0829   0.9512   0.0000   0.0000   0.0000   0.0000   0.0000
     0.0000   0.0000   0.0000

          k = 0.1250 0.5052 0.0000 (  2636 PWs)   bands (ev):

   -87.4303 -50.7373 -50.7024 -50.6523 -45.9125 -18.0408 -17.8586 -17.7183
   -10.7242 -10.1484   1.1794   2.2094   3.0669   3.6371   3.9788   4.7898
     6.8617   7.1768   7.4878   9.2880   9.6227  11.1828  13.6483  16.3030
    17.9396  18.9759  20.1192

     occupation numbers 
     1.0000   1.0000   1.0000   1.0000   1.0000   1.0000   1.0000   1.0000
     1.0000   1.0000   1.0000   1.0000   1.0000   1.0000   1.0000   1.0000
     1.0007   1.0411   0.9746   0.0000   0.0000   0.0000   0.0000   0.0000
     0.0000   0.0000   0.0000

          k = 0.1250 0.5052 0.1395 (  2647 PWs)   bands (ev):

   -87.4303 -50.7374 -50.7024 -50.6524 -45.9125 -18.0409 -17.8586 -17.7186
   -10.7240 -10.1487   1.1790   2.1944   3.0662   3.6538   3.9783   4.8174
     6.8548   7.1790   7.4764   9.2356   9.6626  11.1790  13.5691  16.1875
    18.3280  18.8907  20.0877

     occupation numbers 
     1.0000   1.0000   1.0000   1.0000   1.0000   1.0000   1.0000   1.0000
     1.0000   1.0000   1.0000   1.0000   1.0000   1.0000   1.0000   1.0000
     1.0006   1.0418   0.9920   0.0000   0.0000   0.0000   0.0000   0.0000
     0.0000   0.0000   0.0000

          k = 0.2500 0.4330 0.0000 (  2639 PWs)   bands (ev):

   -87.4303 -50.7309 -50.7088 -50.6523 -45.9125 -18.0078 -17.8920 -17.7185
   -10.7537 -10.1201   1.6615   2.0080   2.8297   3.4842   3.8386   4.8925
     6.9532   7.2275   7.6199   9.1260   9.3912  11.0168  14.6159  16.2507
    17.6157  19.6333  20.2275

     occupation numbers 
     1.0000   1.0000   1.0000   1.0000   1.0000   1.0000   1.0000   1.0000
     1.0000   1.0000   1.0000   1.0000   1.0000   1.0000   1.0000   1.0000
     1.0031   1.0583   0.6750   0.0000   0.0000   0.0000   0.0000   0.0000
     0.0000   0.0000   0.0000

          k = 0.2500 0.4330 0.1395 (  2630 PWs)   bands (ev):

   -87.4302 -50.7308 -50.7087 -50.6523 -45.9125 -18.0076 -17.8919 -17.7186
   -10.7535 -10.1203   1.6568   1.9966   2.8331   3.5096   3.8422   4.8920
     6.9557   7.2312   7.5847   9.2259   9.3634  10.8899  14.6451  16.2756
    17.4830  19.7587  20.1623

     occupation numbers 
     1.0000   1.0000   1.0000   1.0000   1.0000   1.0000   1.0000   1.0000
     1.0000   1.0000   1.0000   1.0000   1.0000   1.0000   1.0000   1.0000
     1.0033   1.0596   0.7687   0.0000   0.0000   0.0000   0.0000   0.0000
     0.0000   0.0000   0.0000

          k = 0.2500 0.5774 0.0000 (  2630 PWs)   bands (ev):

   -87.4297 -50.7314 -50.7157 -50.6514 -45.9088 -18.0088 -17.9274 -17.7127
   -10.6118 -10.1027   1.5520   2.0800   2.5978   3.6337   4.0302   4.4541
     6.7565   7.3781   7.5788   9.2751   9.3573  12.4075  13.3149  16.4756
    17.7882  18.2411  19.9166

     occupation numbers 
     1.0000   1.0000   1.0000   1.0000   1.0000   1.0000   1.0000   1.0000
     1.0000   1.0000   1.0000   1.0000   1.0000   1.0000   1.0000   1.0000
     1.0001   1.0769   0.7837   0.0000   0.0000   0.0000   0.0000   0.0000
     0.0000   0.0000   0.0000

          k = 0.2500 0.5774 0.1395 (  2649 PWs)   bands (ev):

   -87.4297 -50.7314 -50.7158 -50.6515 -45.9089 -18.0089 -17.9276 -17.7130
   -10.6118 -10.1027   1.5513   2.0758   2.6009   3.6377   4.0272   4.4589
     6.7574   7.3785   7.5668   9.3200   9.3900  12.2732  13.2179  16.4402
    17.8510  18.5036  19.8733

     occupation numbers 
     1.0000   1.0000   1.0000   1.0000   1.0000   1.0000   1.0000   1.0000
     1.0000   1.0000   1.0000   1.0000   1.0000   1.0000   1.0000   1.0000
     1.0001   1.0768   0.8133   0.0000   0.0000   0.0000   0.0000   0.0000
     0.0000   0.0000   0.0000

          k = 0.0000-0.1443 0.1395 (  2651 PWs)   bands (ev):

   -87.4347 -50.6924 -50.6859 -50.6598 -45.9427 -17.8147 -17.7798 -17.7669
   -11.8688 -10.1568   1.7164   2.2526   2.6225   4.6437   4.9526   5.3201
     6.7908   7.0031   7.4357   8.0866   9.6445   9.9707  12.9718  16.6172
    18.3431  21.6814  22.9031

     occupation numbers 
     1.0000   1.0000   1.0000   1.0000   1.0000   1.0000   1.0000   1.0000
     1.0000   1.0000   1.0000   1.0000   1.0000   1.0000   1.0000   1.0000
     1.0002   1.0064   1.0408   0.0079   0.0000   0.0000   0.0000   0.0000
     0.0000   0.0000   0.0000

          k = 0.0000-0.2887 0.1395 (  2636 PWs)   bands (ev):

   -87.4328 -50.7129 -50.6908 -50.6566 -45.9302 -17.9195 -17.8024 -17.7466
   -11.4355 -10.1418   1.7468   2.2836   2.8518   3.4335   4.7223   5.4078
     6.8848   7.3107   7.4879   8.4249   9.2718   9.8429  14.1273  17.3440
    18.4420  19.4003  21.8600

     occupation numbers 
     1.0000   1.0000   1.0000   1.0000   1.0000   1.0000   1.0000   1.0000
     1.0000   1.0000   1.0000   1.0000   1.0000   1.0000   1.0000   1.0000
     1.0011   1.0813   0.9745   0.0000   0.0000   0.0000   0.0000   0.0000
     0.0000   0.0000   0.0000

          k = 0.0000-0.4330 0.1395 (  2641 PWs)   bands (ev):

   -87.4310 -50.7334 -50.6958 -50.6536 -45.9177 -18.0225 -17.8250 -17.7268
   -10.9372 -10.1518   1.2785   2.2368   3.0330   3.4244   4.4351   5.0505
     6.8641   7.2210   7.4119   9.0703   9.8754   9.9966  14.6313  15.7371
    18.3105  19.3731  20.1996

     occupation numbers 
     1.0000   1.0000   1.0000   1.0000   1.0000   1.0000   1.0000   1.0000
     1.0000   1.0000   1.0000   1.0000   1.0000   1.0000   1.0000   1.0000
     1.0007   1.0561   1.0601   0.0000   0.0000   0.0000   0.0000   0.0000
     0.0000   0.0000   0.0000

          k =-0.1250-0.3608 0.1395 (  2633 PWs)   bands (ev):

   -87.4315 -50.7244 -50.6973 -50.6545 -45.9214 -17.9768 -17.8343 -17.7325
   -11.1014 -10.1361   1.6703   2.2117   2.9516   3.3043   4.1427   5.3544
     7.0233   7.3513   7.4214   8.8373   9.3630   9.9186  14.8824  16.4488
    18.3324  19.9403  20.7457

     occupation numbers 
     1.0000   1.0000   1.0000   1.0000   1.0000   1.0000   1.0000   1.0000
     1.0000   1.0000   1.0000   1.0000   1.0000   1.0000   1.0000   1.0000
     1.0083   1.0826   1.0532   0.0000   0.0000   0.0000   0.0000   0.0000
     0.0000   0.0000   0.0000

          k =-0.1250-0.5052 0.1395 (  2647 PWs)   bands (ev):

   -87.4303 -50.7374 -50.7024 -50.6524 -45.9125 -18.0409 -17.8586 -17.7186
   -10.7244 -10.1483   1.1759   2.1964   3.0682   3.6603   3.9815   4.7991
     6.8608   7.1781   7.4667   9.3492   9.6306  11.0308  13.6189  16.5110
    17.9384  18.9544  20.1752

     occupation numbers 
     1.0000   1.0000   1.0000   1.0000   1.0000   1.0000   1.0000   1.0000
     1.0000   1.0000   1.0000   1.0000   1.0000   1.0000   1.0000   1.0000
     1.0007   1.0415   1.0055   0.0000   0.0000   0.0000   0.0000   0.0000
     0.0000   0.0000   0.0000

     the Fermi energy is     7.7214 ev

!    total energy              =    -569.27739981 Ry
     total all-electron energy =     -3412.767955 Ry
     estimated scf accuracy    <       0.00000003 Ry
     smearing contrib. (-TS)   =       0.00660171 Ry
     internal energy E=F+TS    =    -569.28400152 Ry

     The total energy is F=E-TS. E is the sum of the following terms:
     one-electron contribution =    -433.52695585 Ry
     hartree contribution      =     234.56804293 Ry
     xc contribution           =     -60.18528233 Ry
     ewald contribution        =    -188.20998527 Ry
     one-center paw contrib.   =    -121.92982099 Ry
      -> PAW hartree energy AE =     344.56313050 Ry
      -> PAW hartree energy PS =    -344.54516456 Ry
      -> PAW xc energy AE      =    -179.09929019 Ry
      -> PAW xc energy PS      =      57.15150326 Ry
      -> total E_H with PAW    =     234.58600887 Ry
      -> total E_XC with PAW   =    -182.13306926 Ry

     convergence has been achieved in  16 iterations

     Forces acting on atoms (cartesian axes, Ry/au):

     atom    1 type  1   force =     0.00000000    0.00000000    0.04229813
     atom    2 type  2   force =     0.00000000    0.00000000   -0.00551810
     atom    3 type  2   force =     0.00000000    0.00000000   -0.04636757
     atom    4 type  3   force =     0.00000000    0.00000000    0.00958753
     The non-local contrib.  to forces
     atom    1 type  1   force =     0.00000000    0.00000000   -0.01186083
     atom    2 type  2   force =    -0.00000000   -0.00000000   -0.91431200
     atom    3 type  2   force =     0.00000000    0.00000000    0.47004658
     atom    4 type  3   force =     0.00000000   -0.00000000   -0.21994688
     The ionic contribution  to forces
     atom    1 type  1   force =    -0.00000000   -0.00000000   11.05243542
     atom    2 type  2   force =     0.00000000   -0.00000000   29.50189661
     atom    3 type  2   force =    -0.00000000    0.00000000  -22.34621197
     atom    4 type  3   force =     0.00000000   -0.00000000  -18.20812006
     The local contribution  to forces
     atom    1 type  1   force =    -0.00000000   -0.00000000  -10.99725656
     atom    2 type  2   force =     0.00000001   -0.00000001  -28.60090357
     atom    3 type  2   force =    -0.00000001    0.00000001   21.83374812
     atom    4 type  3   force =    -0.00000000   -0.00000000   18.43700251
     The core correction contribution to forces
     atom    1 type  1   force =     0.00000000   -0.00000000   -0.00035426
     atom    2 type  2   force =    -0.00000000    0.00000000    0.00776707
     atom    3 type  2   force =     0.00000000   -0.00000000   -0.00360143
     atom    4 type  3   force =     0.00000000   -0.00000000    0.00008592
     The Hubbard contrib.    to forces
     atom    1 type  1   force =     0.00000000    0.00000000    0.00000000
     atom    2 type  2   force =     0.00000000    0.00000000    0.00000000
     atom    3 type  2   force =     0.00000000    0.00000000    0.00000000
     atom    4 type  3   force =     0.00000000    0.00000000    0.00000000
     The SCF correction term to forces
     atom    1 type  1   force =    -0.00000000    0.00000000   -0.00068047
     atom    2 type  2   force =    -0.00000000    0.00000000    0.00001895
     atom    3 type  2   force =     0.00000000   -0.00000000   -0.00036371
     atom    4 type  3   force =    -0.00000000    0.00000000    0.00055122

     Total force =     0.063730     Total SCF correction =     0.000948

     Writing all to output data dir ./out/pw.save/ :
     XML data file, charge density, pseudopotentials, collected wavefunctions
 
     init_run     :     10.92s CPU      2.76s WALL (       1 calls)
     electrons    :     61.15s CPU     13.34s WALL (       1 calls)
     forces       :      0.33s CPU      0.30s WALL (       1 calls)

     Called by init_run:
     wfcinit      :      0.15s CPU      0.22s WALL (       1 calls)
     wfcinit:atom :      0.02s CPU      0.02s WALL (      25 calls)
     wfcinit:wfcr :      0.11s CPU      0.14s WALL (      25 calls)
     potinit      :     10.25s CPU      1.99s WALL (       1 calls)
     hinit0       :      0.44s CPU      0.42s WALL (       1 calls)

     Called by electrons:
     c_bands      :      5.97s CPU      6.06s WALL (      16 calls)
     sum_band     :      0.92s CPU      0.93s WALL (      16 calls)
     v_of_rho     :      0.23s CPU      0.10s WALL (      17 calls)
     v_h          :      0.18s CPU      0.02s WALL (      17 calls)
     v_xc         :      0.06s CPU      0.08s WALL (      18 calls)
     newd         :      0.40s CPU      0.32s WALL (      17 calls)
                                        0.32s GPU  (      17 calls)
     PAW_pot      :     56.57s CPU      6.05s WALL (      17 calls)
     mix_rho      :      0.33s CPU      0.32s WALL (      16 calls)

     Called by c_bands:
     init_us_2    :      0.35s CPU      0.34s WALL (     850 calls)
     cegterg      :      5.33s CPU      5.42s WALL (     400 calls)

     Called by sum_band:
     sum_band:wei :      0.01s CPU      0.02s WALL (      16 calls)
                                        0.02s GPU  (      16 calls)
     sum_band:loo :      0.57s CPU      0.57s WALL (      16 calls)
                                        0.57s GPU  (      16 calls)
     sum_band:buf :      0.07s CPU      0.08s WALL (     400 calls)
                                        0.07s GPU  (     400 calls)
     sum_band:ini :      0.16s CPU      0.17s WALL (     400 calls)
                                        0.16s GPU  (     400 calls)
     sum_band:cal :      0.02s CPU      0.02s WALL (     400 calls)
                                        0.02s GPU  (     400 calls)
     sum_band:bec :      0.09s CPU      0.10s WALL (     400 calls)
                                        0.09s GPU  (     400 calls)
     addusdens    :      0.27s CPU      0.28s WALL (      16 calls)
                                        0.28s GPU  (      16 calls)
     addusd:skk   :      0.00s CPU      0.00s WALL (      48 calls)
                                        0.00s GPU  (      48 calls)

     Called by *egterg:
     cdiaghg      :      1.88s CPU      1.96s WALL (    2119 calls)
                                        1.93s GPU  (    2119 calls)
     cegterg:over :      0.40s CPU      0.42s WALL (    1719 calls)
     cegterg:upda :      0.33s CPU      0.33s WALL (    1719 calls)
     cegterg:last :      0.06s CPU      0.06s WALL (     852 calls)
     h_psi        :      1.86s CPU      1.94s WALL (    2144 calls)
                                        1.91s GPU  (    2144 calls)
     s_psi        :      0.33s CPU      0.35s WALL (    2144 calls)
     g_psi        :      0.01s CPU      0.04s WALL (    1719 calls)
                                        0.02s GPU  (    1719 calls)

     Called by h_psi:
     h_psi:calbec :      0.08s CPU      0.14s WALL (    2144 calls)
                                        0.12s GPU  (    2144 calls)
     vloc_psi     :      1.25s CPU      1.28s WALL (    2144 calls)
                                        1.25s GPU  (    2144 calls)
     add_vuspsi   :      0.30s CPU      0.36s WALL (    2144 calls)
                                        0.33s GPU  (    2144 calls)

     General routines
     calbec       :      0.08s CPU      0.11s WALL (    2644 calls)
     fft          :      2.83s CPU      0.81s WALL (     230 calls)
                                        0.01s GPU  (     213 calls)
     ffts         :      4.00s CPU      0.76s WALL (     540 calls)
                                        0.01s GPU  (     523 calls)
     fftw         :      0.12s CPU      0.41s WALL (    6778 calls)
                                        0.33s GPU  (    6778 calls)
     interpolate  :      6.87s CPU      1.54s WALL (      17 calls)
 
     Parallel routines

     PAW routines
     PAW_pot      :     56.57s CPU      6.05s WALL (      17 calls)
     PAW_symme    :      0.01s CPU      0.00s WALL (      33 calls)
 
     PWSCF        :   1m13.06s CPU     16.88s WALL

 
   This run was terminated on:   4:22:44  12Jul2026            

=------------------------------------------------------------------------------=
   JOB DONE.
=------------------------------------------------------------------------------=
Warning: ieee_divide_by_zero is signaling
Warning: ieee_inexact is signaling
FORTRAN STOP
