
     Program PWSCF v.7.3.1 starts on 12Jul2026 at  4:23:29 

     This program is part of the open-source Quantum ESPRESSO suite
     for quantum simulation of materials; please cite
         "P. Giannozzi et al., J. Phys.:Condens. Matter 21 395502 (2009);
         "P. Giannozzi et al., J. Phys.:Condens. Matter 29 465901 (2017);
         "P. Giannozzi et al., J. Chem. Phys. 152 154105 (2020);
          URL http://www.quantum-espresso.org", 
     in publications or presentations arising from this work. More details at
     http://www.quantum-espresso.org/quote

     Parallel version (MPI & OpenMP), running on      14 processor cores
     Number of MPI processes:                 1
     Threads/MPI process:                    14

     MPI processes distributed on     1 nodes
     763302 MiB available memory on the printing compute node when the environment starts
 
     Reading input from pw.in

     Current dimensions of program PWSCF are:
     Max number of different atomic species (ntypx) = 10
     Max number of k-points (npk) =  40000
     Max angular momentum in pseudopotentials (lmaxx) =  4
     file Co.pbe-spn-kjpaw_psl.0.3.1.UPF: wavefunction(s)  3P 3D renormalized
     file O.pbe-n-kjpaw_psl.1.0.0.UPF: wavefunction(s)  2S 2P renormalized
     file Na.pbe-spn-kjpaw_psl.1.0.0.UPF: wavefunction(s)  2P renormalized
 
     Subspace diagonalization in iterative solution of the eigenvalue problem:
     a serial algorithm will be used

 
     G-vector sticks info
     --------------------
     sticks:   dense  smooth     PW     G-vecs:    dense   smooth      PW
     Sum         979     499    151                59641    21167    3485
 
     Using Slab Decomposition
 


     bravais-lattice index     =            4
     lattice parameter (alat)  =       5.4575  a.u.
     unit-cell volume          =     336.3339 (a.u.)^3
     number of atoms/cell      =            4
     number of atomic types    =            3
     number of electrons       =        38.00
     number of Kohn-Sham states=           27
     kinetic-energy cutoff     =      60.0000  Ry
     charge density cutoff     =     480.0000  Ry
     scf convergence threshold =      1.0E-07
     mixing beta               =       0.3000
     number of iterations used =            8  local-TF  mixing
     Exchange-correlation= SLA  PW   PBX  PBC
                           (   1   4   3   4   0   0   0)

     GPU acceleration is ACTIVE.  4 visible GPUs per MPI rank
     GPU-aware MPI enabled


     GPU used by master process:

        Device Number: 0
        Device name: NVIDIA A100-SXM4-80GB
        Compute capability : 80
        Ratio of single to double precision performance  : 2
        Memory Clock Rate (KHz): 1593000
        Memory Bus Width (bits): 5120
        Peak Memory Bandwidth (GB/s): ******

     celldm(1)=   5.457529  celldm(2)=   0.000000  celldm(3)=   2.389197
     celldm(4)=   0.000000  celldm(5)=   0.000000  celldm(6)=   0.000000

     crystal axes: (cart. coord. in units of alat)
               a(1) = (   1.000000   0.000000   0.000000 )  
               a(2) = (  -0.500000   0.866025   0.000000 )  
               a(3) = (   0.000000   0.000000   2.389197 )  

     reciprocal axes: (cart. coord. in units 2 pi/alat)
               b(1) = (  1.000000  0.577350 -0.000000 )  
               b(2) = (  0.000000  1.154701  0.000000 )  
               b(3) = (  0.000000 -0.000000  0.418551 )  


     PseudoPot. # 1 for Co read from file:
     ../../pseudo/Co.pbe-spn-kjpaw_psl.0.3.1.UPF
     MD5 check sum: 3c0a43779828c046024e4f3be63f8e67
     Pseudo is Projector augmented-wave + core cor, Zval = 17.0
     Generated using &quot;atomic&quot; code by A. Dal Corso  v.6.2.2
     Shape of augmentation charge: PSQ
     Using radial grid of 1193 points,  6 beta functions with: 
                l(1) =   0
                l(2) =   0
                l(3) =   1
                l(4) =   1
                l(5) =   2
                l(6) =   2
     Q(r) pseudized with 0 coefficients 


     PseudoPot. # 2 for O  read from file:
     ../../pseudo/O.pbe-n-kjpaw_psl.1.0.0.UPF
     MD5 check sum: e99d9cef9b487d1ca56f5b95ecd0fd7a
     Pseudo is Projector augmented-wave + core cor, Zval =  6.0
     Generated using &quot;atomic&quot; code by A. Dal Corso  v.6.3
     Shape of augmentation charge: PSQ
     Using radial grid of 1095 points,  4 beta functions with: 
                l(1) =   0
                l(2) =   0
                l(3) =   1
                l(4) =   1
     Q(r) pseudized with 0 coefficients 


     PseudoPot. # 3 for Na read from file:
     ../../pseudo/Na.pbe-spn-kjpaw_psl.1.0.0.UPF
     MD5 check sum: 05b4deb74e3932c23ab016979dc8b5d4
     Pseudo is Projector augmented-wave + core cor, Zval =  9.0
     Generated using &quot;atomic&quot; code by A. Dal Corso  v.6.3
     Shape of augmentation charge: PSQ
     Using radial grid of 1121 points,  4 beta functions with: 
                l(1) =   0
                l(2) =   0
                l(3) =   1
                l(4) =   1
     Q(r) pseudized with 0 coefficients 


     atomic species   valence    mass     pseudopotential
     Co               17.00    58.93300     Co( 1.00)
     O                 6.00    15.99900     O ( 1.00)
     Na                9.00    22.98977     Na( 1.00)

     Starting magnetic structure 
     atomic species   magnetization
     Co              0.300
     O               0.000
     Na              0.000

      6 Sym. Ops. (no inversion) found


                                    s                        frac. trans.

      isym =  1     identity                                     

 cryst.   s( 1) = (     1          0          0      )
                  (     0          1          0      )
                  (     0          0          1      )

 cart.    s( 1) = (  1.0000000  0.0000000  0.0000000 )
                  (  0.0000000  1.0000000  0.0000000 )
                  (  0.0000000  0.0000000  1.0000000 )


      isym =  2     120 deg rotation - cryst. axis [0,0,1]       

 cryst.   s( 2) = (     0          1          0      )
                  (    -1         -1          0      )
                  (     0          0          1      )

 cart.    s( 2) = ( -0.5000000 -0.8660254  0.0000000 )
                  (  0.8660254 -0.5000000  0.0000000 )
                  (  0.0000000  0.0000000  1.0000000 )


      isym =  3     120 deg rotation - cryst. axis [0,0,-1]      

 cryst.   s( 3) = (    -1         -1          0      )
                  (     1          0          0      )
                  (     0          0          1      )

 cart.    s( 3) = ( -0.5000000  0.8660254  0.0000000 )
                  ( -0.8660254 -0.5000000  0.0000000 )
                  (  0.0000000  0.0000000  1.0000000 )


      isym =  4     inv. 180 deg rotation - cart. axis [1,0,0]   

 cryst.   s( 4) = (    -1          0          0      )
                  (     1          1          0      )
                  (     0          0          1      )

 cart.    s( 4) = ( -1.0000000  0.0000000  0.0000000 )
                  (  0.0000000  1.0000000  0.0000000 )
                  (  0.0000000  0.0000000  1.0000000 )


      isym =  5     inv. 180 deg rotation - cryst. axis [0,1,0]  

 cryst.   s( 5) = (     1          1          0      )
                  (     0         -1          0      )
                  (     0          0          1      )

 cart.    s( 5) = (  0.5000000  0.8660254  0.0000000 )
                  (  0.8660254 -0.5000000  0.0000000 )
                  (  0.0000000  0.0000000  1.0000000 )


      isym =  6     inv. 180 deg rotation - cryst. axis [1,1,0]  

 cryst.   s( 6) = (     0         -1          0      )
                  (    -1          0          0      )
                  (     0          0          1      )

 cart.    s( 6) = (  0.5000000 -0.8660254  0.0000000 )
                  ( -0.8660254 -0.5000000  0.0000000 )
                  (  0.0000000  0.0000000  1.0000000 )


     point group C_3v (3m)  
     there are  3 classes
     the character table:

       E     2C3   3s_v 
A_1    1.00  1.00  1.00
A_2    1.00  1.00 -1.00
E      2.00 -1.00  0.00

     the symmetry operations in each class and the name of the first element:

     E        1
          identity                                               
     2C3      2    3
          120 deg rotation - cryst. axis [0,0,1]                 
     3s_v     4    5    6
          inv. 180 deg rotation - cart. axis [1,0,0]             

   Cartesian axes

     site n.     atom                  positions (alat units)
         1        Co     tau(   1) = (   0.0000000   0.0000000   0.0000000  )
         2        O      tau(   2) = (  -0.0000000   0.5773503   0.3116343  )
         3        O      tau(   3) = (   0.5000000   0.2886751   2.0775623  )
         4        Na     tau(   4) = (   0.0000000   0.0000000   1.3677285  )

   Crystallographic axes

     site n.     atom                  positions (cryst. coord.)
         1        Co     tau(   1) = (  0.0000000  0.0000000  0.0000000  )
         2        O      tau(   2) = (  0.3333333  0.6666667  0.1304348  )
         3        O      tau(   3) = (  0.6666667  0.3333333  0.8695652  )
         4        Na     tau(   4) = (  0.0000000  0.0000000  0.5724638  )

     number of k points=    25  Marzari-Vanderbilt smearing, width (Ry)=  0.0200
                       cart. coord. in units 2pi/alat
        k(    1) = (   0.0000000   0.0000000   0.0000000), wk =   0.0052083
        k(    2) = (   0.0000000   0.0000000   0.1395169), wk =   0.0104167
        k(    3) = (   0.0000000   0.1443376   0.0000000), wk =   0.0312500
        k(    4) = (   0.0000000   0.1443376   0.1395169), wk =   0.0312500
        k(    5) = (   0.0000000   0.2886751   0.0000000), wk =   0.0312500
        k(    6) = (   0.0000000   0.2886751   0.1395169), wk =   0.0312500
        k(    7) = (   0.0000000   0.4330127   0.0000000), wk =   0.0312500
        k(    8) = (   0.0000000   0.4330127   0.1395169), wk =   0.0312500
        k(    9) = (   0.0000000  -0.5773503   0.0000000), wk =   0.0156250
        k(   10) = (   0.0000000  -0.5773503   0.1395169), wk =   0.0312500
        k(   11) = (   0.1250000   0.2165064   0.0000000), wk =   0.0312500
        k(   12) = (   0.1250000   0.2165064   0.1395169), wk =   0.0625000
        k(   13) = (   0.1250000   0.3608439   0.0000000), wk =   0.0625000
        k(   14) = (   0.1250000   0.3608439   0.1395169), wk =   0.0625000
        k(   15) = (   0.1250000   0.5051815   0.0000000), wk =   0.0625000
        k(   16) = (   0.1250000   0.5051815   0.1395169), wk =   0.0625000
        k(   17) = (   0.2500000   0.4330127   0.0000000), wk =   0.0312500
        k(   18) = (   0.2500000   0.4330127   0.1395169), wk =   0.0625000
        k(   19) = (   0.2500000   0.5773503   0.0000000), wk =   0.0312500
        k(   20) = (   0.2500000   0.5773503   0.1395169), wk =   0.0625000
        k(   21) = (   0.0000000  -0.1443376   0.1395169), wk =   0.0312500
        k(   22) = (   0.0000000  -0.2886751   0.1395169), wk =   0.0312500
        k(   23) = (   0.0000000  -0.4330127   0.1395169), wk =   0.0312500
        k(   24) = (  -0.1250000  -0.3608439   0.1395169), wk =   0.0625000
        k(   25) = (  -0.1250000  -0.5051815   0.1395169), wk =   0.0625000

                       cryst. coord.
        k(    1) = (   0.0000000   0.0000000   0.0000000), wk =   0.0052083
        k(    2) = (   0.0000000   0.0000000   0.3333333), wk =   0.0104167
        k(    3) = (   0.0000000   0.1250000   0.0000000), wk =   0.0312500
        k(    4) = (   0.0000000   0.1250000   0.3333333), wk =   0.0312500
        k(    5) = (   0.0000000   0.2500000   0.0000000), wk =   0.0312500
        k(    6) = (   0.0000000   0.2500000   0.3333333), wk =   0.0312500
        k(    7) = (   0.0000000   0.3750000   0.0000000), wk =   0.0312500
        k(    8) = (   0.0000000   0.3750000   0.3333333), wk =   0.0312500
        k(    9) = (   0.0000000  -0.5000000   0.0000000), wk =   0.0156250
        k(   10) = (   0.0000000  -0.5000000   0.3333333), wk =   0.0312500
        k(   11) = (   0.1250000   0.1250000   0.0000000), wk =   0.0312500
        k(   12) = (   0.1250000   0.1250000   0.3333333), wk =   0.0625000
        k(   13) = (   0.1250000   0.2500000   0.0000000), wk =   0.0625000
        k(   14) = (   0.1250000   0.2500000   0.3333333), wk =   0.0625000
        k(   15) = (   0.1250000   0.3750000   0.0000000), wk =   0.0625000
        k(   16) = (   0.1250000   0.3750000   0.3333333), wk =   0.0625000
        k(   17) = (   0.2500000   0.2500000   0.0000000), wk =   0.0312500
        k(   18) = (   0.2500000   0.2500000   0.3333333), wk =   0.0625000
        k(   19) = (   0.2500000   0.3750000   0.0000000), wk =   0.0312500
        k(   20) = (   0.2500000   0.3750000   0.3333333), wk =   0.0625000
        k(   21) = (   0.0000000  -0.1250000   0.3333333), wk =   0.0312500
        k(   22) = (   0.0000000  -0.2500000   0.3333333), wk =   0.0312500
        k(   23) = (   0.0000000  -0.3750000   0.3333333), wk =   0.0312500
        k(   24) = (  -0.1250000  -0.2500000   0.3333333), wk =   0.0625000
        k(   25) = (  -0.1250000  -0.3750000   0.3333333), wk =   0.0625000

     Dense  grid:    59641 G-vectors     FFT dimensions: (  40,  40,  96)

     Smooth grid:    21167 G-vectors     FFT dimensions: (  27,  27,  72)

     Dynamical RAM for                 wfc:       1.09 MB

     Dynamical RAM for     wfc (w. buffer):      55.47 MB

     Dynamical RAM for           str. fact:       2.73 MB

     Dynamical RAM for           local pot:       0.00 MB

     Dynamical RAM for          nlocal pot:       1.69 MB

     Dynamical RAM for                qrad:       5.27 MB

     Dynamical RAM for          rho,v,vnew:      12.49 MB

     Dynamical RAM for               rhoin:       4.16 MB

     Dynamical RAM for            rho*nmix:      29.12 MB

     Dynamical RAM for           G-vectors:       3.57 MB

     Dynamical RAM for          h,s,v(r/c):       0.13 MB

     Dynamical RAM for          <psi|beta>:       0.02 MB

     Dynamical RAM for                 psi:       2.18 MB

     Dynamical RAM for                hpsi:       2.18 MB

     Dynamical RAM for                spsi:       2.18 MB

     Dynamical RAM for      wfcinit/wfcrot:       2.19 MB

     Dynamical RAM for           addusdens:     172.00 MB

     Dynamical RAM for          addusforce:     173.84 MB

     Estimated static dynamical RAM per process >      96.07 MB

     Estimated max dynamical RAM per process >     299.02 MB

     Check: negative core charge=   -0.000008
     Generating pointlists ...
     new r_m :   0.2706 (alat units)  1.4770 (a.u.) for type    1
     new r_m :   0.2706 (alat units)  1.4770 (a.u.) for type    2
     new r_m :   0.3774 (alat units)  2.0598 (a.u.) for type    3

     Initial potential from superposition of free atoms

     starting charge      37.9934, renormalised to      38.0000
     Starting wfcs are   23 randomized atomic wfcs +    4 random wfcs
     Checking if some PAW data can be deallocated... 

     total cpu time spent up to now is        3.6 secs

     Self-consistent Calculation
[tb_dev] Currently allocated     6.54E-01 Mbytes, locked:    0 /   6
[tb_pin] Currently allocated     0.00E+00 Mbytes, locked:    0 /   0

     iteration #  1     ecut=    60.00 Ry     beta= 0.30
     Davidson diagonalization with overlap

---- Real-time Memory Report at c_bands before calling an iterative solver
           667 MiB given to the printing process from OS
             0 MiB allocation reported by mallinfo(arena+hblkhd)
        763012 MiB available memory on the node where the printing process lives
     GPU memory used/free/total (MiB): 998 / 80152 / 81151
------------------
     ethr =  1.00E-02,  avg # of iterations =  9.8

     total cpu time spent up to now is        5.7 secs

     total energy              =    -569.06563437 Ry
     estimated scf accuracy    <       1.51917902 Ry

     total magnetization       =     4.01 Bohr mag/cell
     absolute magnetization    =     4.01 Bohr mag/cell
[tb_dev] Currently allocated     3.05E-05 Mbytes, locked:    0 /   2
[tb_pin] Currently allocated     0.00E+00 Mbytes, locked:    0 /   0

     iteration #  2     ecut=    60.00 Ry     beta= 0.30
     Davidson diagonalization with overlap

---- Real-time Memory Report at c_bands before calling an iterative solver
           711 MiB given to the printing process from OS
             0 MiB allocation reported by mallinfo(arena+hblkhd)
        762969 MiB available memory on the node where the printing process lives
     GPU memory used/free/total (MiB): 1014 / 80136 / 81151
------------------
     ethr =  4.00E-03,  avg # of iterations =  1.9

     total cpu time spent up to now is        6.9 secs

     total energy              =    -569.06213589 Ry
     estimated scf accuracy    <       0.54343720 Ry

     total magnetization       =     3.73 Bohr mag/cell
     absolute magnetization    =     3.73 Bohr mag/cell
[tb_dev] Currently allocated     3.05E-05 Mbytes, locked:    0 /   2
[tb_pin] Currently allocated     0.00E+00 Mbytes, locked:    0 /   0

     iteration #  3     ecut=    60.00 Ry     beta= 0.30
     Davidson diagonalization with overlap

---- Real-time Memory Report at c_bands before calling an iterative solver
           711 MiB given to the printing process from OS
             0 MiB allocation reported by mallinfo(arena+hblkhd)
        762956 MiB available memory on the node where the printing process lives
     GPU memory used/free/total (MiB): 1014 / 80136 / 81151
------------------
     ethr =  1.43E-03,  avg # of iterations =  2.4

     total cpu time spent up to now is        8.1 secs

     total energy              =    -569.24260926 Ry
     estimated scf accuracy    <       0.74920454 Ry

     total magnetization       =     1.60 Bohr mag/cell
     absolute magnetization    =     1.71 Bohr mag/cell
[tb_dev] Currently allocated     3.05E-05 Mbytes, locked:    0 /   2
[tb_pin] Currently allocated     0.00E+00 Mbytes, locked:    0 /   0

     iteration #  4     ecut=    60.00 Ry     beta= 0.30
     Davidson diagonalization with overlap

---- Real-time Memory Report at c_bands before calling an iterative solver
           712 MiB given to the printing process from OS
             0 MiB allocation reported by mallinfo(arena+hblkhd)
        762939 MiB available memory on the node where the printing process lives
     GPU memory used/free/total (MiB): 1014 / 80136 / 81151
------------------
     ethr =  1.43E-03,  avg # of iterations =  1.8

     total cpu time spent up to now is        9.2 secs

     total energy              =    -569.27546787 Ry
     estimated scf accuracy    <       1.85819569 Ry

     total magnetization       =     1.02 Bohr mag/cell
     absolute magnetization    =     1.30 Bohr mag/cell
[tb_dev] Currently allocated     3.05E-05 Mbytes, locked:    0 /   2
[tb_pin] Currently allocated     0.00E+00 Mbytes, locked:    0 /   0

     iteration #  5     ecut=    60.00 Ry     beta= 0.30
     Davidson diagonalization with overlap

---- Real-time Memory Report at c_bands before calling an iterative solver
           714 MiB given to the printing process from OS
             0 MiB allocation reported by mallinfo(arena+hblkhd)
        762936 MiB available memory on the node where the printing process lives
     GPU memory used/free/total (MiB): 1014 / 80136 / 81151
------------------
     ethr =  1.43E-03,  avg # of iterations =  1.4

     total cpu time spent up to now is       10.3 secs

     total energy              =    -569.09925256 Ry
     estimated scf accuracy    <       1.28796304 Ry

     total magnetization       =     0.61 Bohr mag/cell
     absolute magnetization    =     1.12 Bohr mag/cell
[tb_dev] Currently allocated     3.05E-05 Mbytes, locked:    0 /   2
[tb_pin] Currently allocated     0.00E+00 Mbytes, locked:    0 /   0

     iteration #  6     ecut=    60.00 Ry     beta= 0.30
     Davidson diagonalization with overlap

---- Real-time Memory Report at c_bands before calling an iterative solver
           715 MiB given to the printing process from OS
             0 MiB allocation reported by mallinfo(arena+hblkhd)
        762946 MiB available memory on the node where the printing process lives
     GPU memory used/free/total (MiB): 1014 / 80136 / 81151
------------------
     ethr =  1.43E-03,  avg # of iterations =  2.1

     total cpu time spent up to now is       11.4 secs

     total energy              =    -569.24394887 Ry
     estimated scf accuracy    <       0.06807894 Ry

     total magnetization       =     0.36 Bohr mag/cell
     absolute magnetization    =     0.62 Bohr mag/cell
[tb_dev] Currently allocated     3.05E-05 Mbytes, locked:    0 /   2
[tb_pin] Currently allocated     0.00E+00 Mbytes, locked:    0 /   0

     iteration #  7     ecut=    60.00 Ry     beta= 0.30
     Davidson diagonalization with overlap

---- Real-time Memory Report at c_bands before calling an iterative solver
           717 MiB given to the printing process from OS
             0 MiB allocation reported by mallinfo(arena+hblkhd)
        762917 MiB available memory on the node where the printing process lives
     GPU memory used/free/total (MiB): 1014 / 80136 / 81151
------------------
     ethr =  1.79E-04,  avg # of iterations =  6.7

     total cpu time spent up to now is       13.1 secs

     total energy              =    -569.25125999 Ry
     estimated scf accuracy    <       0.04195836 Ry

     total magnetization       =     0.20 Bohr mag/cell
     absolute magnetization    =     0.57 Bohr mag/cell
[tb_dev] Currently allocated     3.05E-05 Mbytes, locked:    0 /   2
[tb_pin] Currently allocated     0.00E+00 Mbytes, locked:    0 /   0

     iteration #  8     ecut=    60.00 Ry     beta= 0.30
     Davidson diagonalization with overlap

---- Real-time Memory Report at c_bands before calling an iterative solver
           717 MiB given to the printing process from OS
             0 MiB allocation reported by mallinfo(arena+hblkhd)
        762862 MiB available memory on the node where the printing process lives
     GPU memory used/free/total (MiB): 1014 / 80136 / 81151
------------------
     ethr =  1.10E-04,  avg # of iterations =  4.1

     total cpu time spent up to now is       14.6 secs

     total energy              =    -569.26012740 Ry
     estimated scf accuracy    <       0.02154163 Ry

     total magnetization       =    -0.15 Bohr mag/cell
     absolute magnetization    =     0.17 Bohr mag/cell
[tb_dev] Currently allocated     3.05E-05 Mbytes, locked:    0 /   2
[tb_pin] Currently allocated     0.00E+00 Mbytes, locked:    0 /   0

     iteration #  9     ecut=    60.00 Ry     beta= 0.30
     Davidson diagonalization with overlap

---- Real-time Memory Report at c_bands before calling an iterative solver
           720 MiB given to the printing process from OS
             0 MiB allocation reported by mallinfo(arena+hblkhd)
        762840 MiB available memory on the node where the printing process lives
     GPU memory used/free/total (MiB): 1014 / 80136 / 81151
------------------
     ethr =  5.67E-05,  avg # of iterations =  2.0

     total cpu time spent up to now is       15.7 secs

     total energy              =    -569.26643503 Ry
     estimated scf accuracy    <       0.00568056 Ry

     total magnetization       =     0.15 Bohr mag/cell
     absolute magnetization    =     0.32 Bohr mag/cell
[tb_dev] Currently allocated     3.05E-05 Mbytes, locked:    0 /   2
[tb_pin] Currently allocated     0.00E+00 Mbytes, locked:    0 /   0

     iteration # 10     ecut=    60.00 Ry     beta= 0.30
     Davidson diagonalization with overlap

---- Real-time Memory Report at c_bands before calling an iterative solver
           721 MiB given to the printing process from OS
             0 MiB allocation reported by mallinfo(arena+hblkhd)
        762811 MiB available memory on the node where the printing process lives
     GPU memory used/free/total (MiB): 1014 / 80136 / 81151
------------------
     c_bands:  1 eigenvalues not converged
     ethr =  1.49E-05,  avg # of iterations =  4.8

     total cpu time spent up to now is       17.3 secs

     total energy              =    -569.26774584 Ry
     estimated scf accuracy    <       0.00100394 Ry

     total magnetization       =     0.07 Bohr mag/cell
     absolute magnetization    =     0.19 Bohr mag/cell
[tb_dev] Currently allocated     3.05E-05 Mbytes, locked:    0 /   2
[tb_pin] Currently allocated     0.00E+00 Mbytes, locked:    0 /   0

     iteration # 11     ecut=    60.00 Ry     beta= 0.30
     Davidson diagonalization with overlap

---- Real-time Memory Report at c_bands before calling an iterative solver
           722 MiB given to the printing process from OS
             0 MiB allocation reported by mallinfo(arena+hblkhd)
        762804 MiB available memory on the node where the printing process lives
     GPU memory used/free/total (MiB): 1014 / 80136 / 81151
------------------
     ethr =  2.64E-06,  avg # of iterations =  6.6

     total cpu time spent up to now is       19.0 secs

     total energy              =    -569.26844798 Ry
     estimated scf accuracy    <       0.00100563 Ry

     total magnetization       =     0.14 Bohr mag/cell
     absolute magnetization    =     0.25 Bohr mag/cell
[tb_dev] Currently allocated     3.05E-05 Mbytes, locked:    0 /   2
[tb_pin] Currently allocated     0.00E+00 Mbytes, locked:    0 /   0

     iteration # 12     ecut=    60.00 Ry     beta= 0.30
     Davidson diagonalization with overlap

---- Real-time Memory Report at c_bands before calling an iterative solver
           722 MiB given to the printing process from OS
             0 MiB allocation reported by mallinfo(arena+hblkhd)
        762774 MiB available memory on the node where the printing process lives
     GPU memory used/free/total (MiB): 1014 / 80136 / 81151
------------------
     ethr =  2.64E-06,  avg # of iterations =  1.6

     total cpu time spent up to now is       20.2 secs

     total energy              =    -569.26838905 Ry
     estimated scf accuracy    <       0.00126151 Ry

     total magnetization       =     0.13 Bohr mag/cell
     absolute magnetization    =     0.20 Bohr mag/cell
[tb_dev] Currently allocated     3.05E-05 Mbytes, locked:    0 /   2
[tb_pin] Currently allocated     0.00E+00 Mbytes, locked:    0 /   0

     iteration # 13     ecut=    60.00 Ry     beta= 0.30
     Davidson diagonalization with overlap

---- Real-time Memory Report at c_bands before calling an iterative solver
           722 MiB given to the printing process from OS
             0 MiB allocation reported by mallinfo(arena+hblkhd)
        762791 MiB available memory on the node where the printing process lives
     GPU memory used/free/total (MiB): 1014 / 80136 / 81151
------------------
     ethr =  2.64E-06,  avg # of iterations =  2.0

     total cpu time spent up to now is       21.3 secs

     total energy              =    -569.26875570 Ry
     estimated scf accuracy    <       0.00050001 Ry

     total magnetization       =     0.07 Bohr mag/cell
     absolute magnetization    =     0.12 Bohr mag/cell
[tb_dev] Currently allocated     3.05E-05 Mbytes, locked:    0 /   2
[tb_pin] Currently allocated     0.00E+00 Mbytes, locked:    0 /   0

     iteration # 14     ecut=    60.00 Ry     beta= 0.30
     Davidson diagonalization with overlap

---- Real-time Memory Report at c_bands before calling an iterative solver
           722 MiB given to the printing process from OS
             0 MiB allocation reported by mallinfo(arena+hblkhd)
        762799 MiB available memory on the node where the printing process lives
     GPU memory used/free/total (MiB): 1014 / 80136 / 81151
------------------
     ethr =  1.32E-06,  avg # of iterations =  1.1

     total cpu time spent up to now is       22.4 secs

     total energy              =    -569.26879123 Ry
     estimated scf accuracy    <       0.00007027 Ry

     total magnetization       =     0.08 Bohr mag/cell
     absolute magnetization    =     0.13 Bohr mag/cell
[tb_dev] Currently allocated     3.05E-05 Mbytes, locked:    0 /   2
[tb_pin] Currently allocated     0.00E+00 Mbytes, locked:    0 /   0

     iteration # 15     ecut=    60.00 Ry     beta= 0.30
     Davidson diagonalization with overlap

---- Real-time Memory Report at c_bands before calling an iterative solver
           722 MiB given to the printing process from OS
             0 MiB allocation reported by mallinfo(arena+hblkhd)
        762807 MiB available memory on the node where the printing process lives
     GPU memory used/free/total (MiB): 1014 / 80136 / 81151
------------------
     ethr =  1.85E-07,  avg # of iterations =  5.0

     total cpu time spent up to now is       24.0 secs

     total energy              =    -569.26881908 Ry
     estimated scf accuracy    <       0.00001496 Ry

     total magnetization       =     0.08 Bohr mag/cell
     absolute magnetization    =     0.12 Bohr mag/cell
[tb_dev] Currently allocated     3.05E-05 Mbytes, locked:    0 /   2
[tb_pin] Currently allocated     0.00E+00 Mbytes, locked:    0 /   0

     iteration # 16     ecut=    60.00 Ry     beta= 0.30
     Davidson diagonalization with overlap

---- Real-time Memory Report at c_bands before calling an iterative solver
           722 MiB given to the printing process from OS
             0 MiB allocation reported by mallinfo(arena+hblkhd)
        762816 MiB available memory on the node where the printing process lives
     GPU memory used/free/total (MiB): 1014 / 80136 / 81151
------------------
     ethr =  3.94E-08,  avg # of iterations =  4.6

     total cpu time spent up to now is       25.5 secs

     total energy              =    -569.26882492 Ry
     estimated scf accuracy    <       0.00001266 Ry

     total magnetization       =     0.08 Bohr mag/cell
     absolute magnetization    =     0.11 Bohr mag/cell
[tb_dev] Currently allocated     3.05E-05 Mbytes, locked:    0 /   2
[tb_pin] Currently allocated     0.00E+00 Mbytes, locked:    0 /   0

     iteration # 17     ecut=    60.00 Ry     beta= 0.30
     Davidson diagonalization with overlap

---- Real-time Memory Report at c_bands before calling an iterative solver
           722 MiB given to the printing process from OS
             0 MiB allocation reported by mallinfo(arena+hblkhd)
        762822 MiB available memory on the node where the printing process lives
     GPU memory used/free/total (MiB): 1014 / 80136 / 81151
------------------
     ethr =  3.33E-08,  avg # of iterations =  1.9

     total cpu time spent up to now is       26.6 secs

     total energy              =    -569.26883434 Ry
     estimated scf accuracy    <       0.00000463 Ry

     total magnetization       =     0.07 Bohr mag/cell
     absolute magnetization    =     0.10 Bohr mag/cell
[tb_dev] Currently allocated     3.05E-05 Mbytes, locked:    0 /   2
[tb_pin] Currently allocated     0.00E+00 Mbytes, locked:    0 /   0

     iteration # 18     ecut=    60.00 Ry     beta= 0.30
     Davidson diagonalization with overlap

---- Real-time Memory Report at c_bands before calling an iterative solver
           722 MiB given to the printing process from OS
             0 MiB allocation reported by mallinfo(arena+hblkhd)
        762830 MiB available memory on the node where the printing process lives
     GPU memory used/free/total (MiB): 1014 / 80136 / 81151
------------------
     ethr =  1.22E-08,  avg # of iterations =  3.7

     total cpu time spent up to now is       28.0 secs

     total energy              =    -569.26883723 Ry
     estimated scf accuracy    <       0.00000308 Ry

     total magnetization       =     0.06 Bohr mag/cell
     absolute magnetization    =     0.09 Bohr mag/cell
[tb_dev] Currently allocated     3.05E-05 Mbytes, locked:    0 /   2
[tb_pin] Currently allocated     0.00E+00 Mbytes, locked:    0 /   0

     iteration # 19     ecut=    60.00 Ry     beta= 0.30
     Davidson diagonalization with overlap

---- Real-time Memory Report at c_bands before calling an iterative solver
           722 MiB given to the printing process from OS
             0 MiB allocation reported by mallinfo(arena+hblkhd)
        762836 MiB available memory on the node where the printing process lives
     GPU memory used/free/total (MiB): 1014 / 80136 / 81151
------------------
     ethr =  8.10E-09,  avg # of iterations =  4.6

     total cpu time spent up to now is       29.5 secs

     total energy              =    -569.26883851 Ry
     estimated scf accuracy    <       0.00000223 Ry

     total magnetization       =     0.05 Bohr mag/cell
     absolute magnetization    =     0.08 Bohr mag/cell
[tb_dev] Currently allocated     3.05E-05 Mbytes, locked:    0 /   2
[tb_pin] Currently allocated     0.00E+00 Mbytes, locked:    0 /   0

     iteration # 20     ecut=    60.00 Ry     beta= 0.30
     Davidson diagonalization with overlap

---- Real-time Memory Report at c_bands before calling an iterative solver
           722 MiB given to the printing process from OS
             0 MiB allocation reported by mallinfo(arena+hblkhd)
        762840 MiB available memory on the node where the printing process lives
     GPU memory used/free/total (MiB): 1014 / 80136 / 81151
------------------
     ethr =  5.86E-09,  avg # of iterations =  4.8

     total cpu time spent up to now is       31.0 secs

     total energy              =    -569.26884399 Ry
     estimated scf accuracy    <       0.00000106 Ry

     total magnetization       =     0.04 Bohr mag/cell
     absolute magnetization    =     0.06 Bohr mag/cell
[tb_dev] Currently allocated     3.05E-05 Mbytes, locked:    0 /   2
[tb_pin] Currently allocated     0.00E+00 Mbytes, locked:    0 /   0

     iteration # 21     ecut=    60.00 Ry     beta= 0.30
     Davidson diagonalization with overlap

---- Real-time Memory Report at c_bands before calling an iterative solver
           722 MiB given to the printing process from OS
             0 MiB allocation reported by mallinfo(arena+hblkhd)
        762901 MiB available memory on the node where the printing process lives
     GPU memory used/free/total (MiB): 1014 / 80136 / 81151
------------------
     ethr =  2.79E-09,  avg # of iterations =  5.2

     total cpu time spent up to now is       32.7 secs

     total energy              =    -569.26883944 Ry
     estimated scf accuracy    <       0.00000054 Ry

     total magnetization       =     0.03 Bohr mag/cell
     absolute magnetization    =     0.04 Bohr mag/cell
[tb_dev] Currently allocated     3.05E-05 Mbytes, locked:    0 /   2
[tb_pin] Currently allocated     0.00E+00 Mbytes, locked:    0 /   0

     iteration # 22     ecut=    60.00 Ry     beta= 0.30
     Davidson diagonalization with overlap

---- Real-time Memory Report at c_bands before calling an iterative solver
           722 MiB given to the printing process from OS
             0 MiB allocation reported by mallinfo(arena+hblkhd)
        762919 MiB available memory on the node where the printing process lives
     GPU memory used/free/total (MiB): 1014 / 80136 / 81151
------------------
     ethr =  1.41E-09,  avg # of iterations =  5.3

     total cpu time spent up to now is       34.3 secs

     total energy              =    -569.26884977 Ry
     estimated scf accuracy    <       0.00000028 Ry

     total magnetization       =     0.01 Bohr mag/cell
     absolute magnetization    =     0.01 Bohr mag/cell
[tb_dev] Currently allocated     3.05E-05 Mbytes, locked:    0 /   2
[tb_pin] Currently allocated     0.00E+00 Mbytes, locked:    0 /   0

     iteration # 23     ecut=    60.00 Ry     beta= 0.30
     Davidson diagonalization with overlap

---- Real-time Memory Report at c_bands before calling an iterative solver
           722 MiB given to the printing process from OS
             0 MiB allocation reported by mallinfo(arena+hblkhd)
        762932 MiB available memory on the node where the printing process lives
     GPU memory used/free/total (MiB): 1014 / 80136 / 81151
------------------
     ethr =  7.36E-10,  avg # of iterations =  5.4
 
     Magnetic moment per site  (integrated on atomic sphere of radius R)
     atom   1 (R=0.271)  charge= 14.0711  magn=  0.0032
     atom   2 (R=0.271)  charge=  5.1786  magn=  0.0006
     atom   3 (R=0.271)  charge=  5.2225  magn=  0.0003
     atom   4 (R=0.377)  charge=  8.1029  magn= -0.0001

     total cpu time spent up to now is       35.9 secs

     End of self-consistent calculation

 ------ SPIN UP ------------


          k = 0.0000 0.0000 0.0000 (  2625 PWs)   bands (ev):

   -87.4919 -50.7725 -50.7725 -50.6612 -45.8978 -17.7295 -17.7185 -17.7185
   -12.3165 -10.0910   1.3889   2.1081   2.1081   4.9111   5.7730   5.7730
     6.4370   6.5249   6.5249   8.1004  10.3315  10.3315  13.1588  15.4107
    17.9358  23.0051  24.7843

     occupation numbers 
     1.0000   1.0000   1.0000   1.0000   1.0000   1.0000   1.0000   1.0000
     1.0000   1.0000   1.0000   1.0000   1.0000   1.0000   1.0000   1.0000
     1.0000   1.0000   1.0000   0.0124   0.0000   0.0000   0.0000   0.0000
     0.0000   0.0000   0.0000

          k = 0.0000 0.0000 0.1395 (  2666 PWs)   bands (ev):

   -87.4919 -50.7727 -50.7727 -50.6614 -45.8979 -17.7301 -17.7189 -17.7189
   -12.3129 -10.0970   1.5155   2.1081   2.1081   4.3028   5.7723   5.7723
     6.5249   6.5249   7.2732   7.9937  10.3320  10.3320  12.3108  16.1955
    18.0690  22.6018  24.6307

     occupation numbers 
     1.0000   1.0000   1.0000   1.0000   1.0000   1.0000   1.0000   1.0000
     1.0000   1.0000   1.0000   1.0000   1.0000   1.0000   1.0000   1.0000
     1.0000   1.0000   1.0588   0.0510   0.0000   0.0000   0.0000   0.0000
     0.0000   0.0000   0.0000

          k = 0.0000 0.1443 0.0000 (  2643 PWs)   bands (ev):

   -87.4911 -50.7815 -50.7747 -50.6600 -45.8927 -17.7629 -17.7281 -17.7216
   -12.1390 -10.1038   1.5573   1.9403   2.2235   4.7033   5.2336   5.3234
     6.7261   6.8629   6.9666   8.2001   9.8348  10.2159  13.4569  16.0220
    18.5544  21.7526  22.9805

     occupation numbers 
     1.0000   1.0000   1.0000   1.0000   1.0000   1.0000   1.0000   1.0000
     1.0000   1.0000   1.0000   1.0000   1.0000   1.0000   1.0000   1.0000
     1.0000   1.0003   1.0020   0.0025   0.0000   0.0000   0.0000   0.0000
     0.0000   0.0000   0.0000

          k = 0.0000 0.1443 0.1395 (  2651 PWs)   bands (ev):

   -87.4911 -50.7815 -50.7747 -50.6600 -45.8927 -17.7630 -17.7281 -17.7219
   -12.1359 -10.1087   1.6259   1.9570   2.2236   4.7136   4.8407   5.2333
     6.7750   6.9666   7.4906   8.0387   9.9386  10.2162  12.7417  16.7281
    18.5642  21.5707  22.9319

     occupation numbers 
     1.0000   1.0000   1.0000   1.0000   1.0000   1.0000   1.0000   1.0000
     1.0000   1.0000   1.0000   1.0000   1.0000   1.0000   1.0000   1.0000
     1.0001   1.0020   1.0299   0.0291   0.0000   0.0000   0.0000   0.0000
     0.0000   0.0000   0.0000

          k = 0.0000 0.2887 0.0000 (  2620 PWs)   bands (ev):

   -87.4892 -50.8030 -50.7797 -50.6567 -45.8801 -17.8677 -17.7506 -17.7019
   -11.6733 -10.1486   1.5041   2.1700   2.5118   3.3330   4.5821   5.6939
     7.0154   7.2677   7.3902   8.3000   9.3347  10.0680  14.0751  17.3627
    18.1127  19.9304  21.6113

     occupation numbers 
     1.0000   1.0000   1.0000   1.0000   1.0000   1.0000   1.0000   1.0000
     1.0000   1.0000   1.0000   1.0000   1.0000   1.0000   1.0000   1.0000
     1.0041   1.0570   1.0830   0.0004   0.0000   0.0000   0.0000   0.0000
     0.0000   0.0000   0.0000

          k = 0.0000 0.2887 0.1395 (  2636 PWs)   bands (ev):

   -87.4892 -50.8030 -50.7798 -50.6568 -45.8802 -17.8678 -17.7508 -17.7021
   -11.6714 -10.1512   1.4709   2.2264   2.5119   3.3780   4.5819   5.5409
     6.9118   7.2677   7.6781   7.9889   9.7139  10.0677  13.6697  17.6845
    18.1115  19.6610  21.7498

     occupation numbers 
     1.0000   1.0000   1.0000   1.0000   1.0000   1.0000   1.0000   1.0000
     1.0000   1.0000   1.0000   1.0000   1.0000   1.0000   1.0000   1.0000
     1.0008   1.0569   0.6364   0.0540   0.0000   0.0000   0.0000   0.0000
     0.0000   0.0000   0.0000

          k = 0.0000 0.4330 0.0000 (  2652 PWs)   bands (ev):

   -87.4873 -50.8246 -50.7850 -50.6537 -45.8677 -17.9709 -17.7736 -17.6827
   -11.1216 -10.2371   1.0520   2.1539   2.7919   3.3950   4.2202   5.2159
     6.9815   7.1358   7.3804   9.0481  10.0414  10.1006  14.4433  15.5075
    18.4364  19.2729  20.4051

     occupation numbers 
     1.0000   1.0000   1.0000   1.0000   1.0000   1.0000   1.0000   1.0000
     1.0000   1.0000   1.0000   1.0000   1.0000   1.0000   1.0000   1.0000
     1.0025   1.0186   1.0833   0.0000   0.0000   0.0000   0.0000   0.0000
     0.0000   0.0000   0.0000

          k = 0.0000 0.4330 0.1395 (  2641 PWs)   bands (ev):

   -87.4873 -50.8246 -50.7849 -50.6537 -45.8677 -17.9707 -17.7733 -17.6827
   -11.1208 -10.2379   1.0454   2.1403   2.7921   3.4373   4.2201   5.2360
     6.9642   7.1358   7.3855   8.7816  10.1003  10.3474  14.4805  15.1737
    18.7398  19.2640  20.3320

     occupation numbers 
     1.0000   1.0000   1.0000   1.0000   1.0000   1.0000   1.0000   1.0000
     1.0000   1.0000   1.0000   1.0000   1.0000   1.0000   1.0000   1.0000
     1.0019   1.0186   1.0832   0.0000   0.0000   0.0000   0.0000   0.0000
     0.0000   0.0000   0.0000

          k = 0.0000-0.5774 0.0000 (  2642 PWs)   bands (ev):

   -87.4865 -50.8336 -50.7871 -50.6522 -45.8625 -18.0130 -17.7827 -17.6744
   -10.8275 -10.3230   0.6714   2.2747   2.8863   3.7094   4.1503   4.8227
     6.7867   6.9905   7.3289   9.4579  10.1538  11.4319  12.6625  16.5043
    16.8382  19.4578  20.2001

     occupation numbers 
     1.0000   1.0000   1.0000   1.0000   1.0000   1.0000   1.0000   1.0000
     1.0000   1.0000   1.0000   1.0000   1.0000   1.0000   1.0000   1.0000
     1.0001   1.0028   1.0761   0.0000   0.0000   0.0000   0.0000   0.0000
     0.0000   0.0000   0.0000

          k = 0.0000-0.5774 0.1395 (  2638 PWs)   bands (ev):

   -87.4865 -50.8335 -50.7870 -50.6523 -45.8625 -18.0128 -17.7826 -17.6746
   -10.8276 -10.3227   0.6708   2.2579   2.8864   3.7217   4.1503   4.8586
     6.7816   6.9905   7.3214   9.4371  10.1535  11.4403  12.5553  16.3615
    17.3576  19.1293  20.1453

     occupation numbers 
     1.0000   1.0000   1.0000   1.0000   1.0000   1.0000   1.0000   1.0000
     1.0000   1.0000   1.0000   1.0000   1.0000   1.0000   1.0000   1.0000
     1.0001   1.0028   1.0741   0.0000   0.0000   0.0000   0.0000   0.0000
     0.0000   0.0000   0.0000

          k = 0.1250 0.2165 0.0000 (  2659 PWs)   bands (ev):

   -87.4898 -50.7958 -50.7794 -50.6579 -45.8839 -17.8326 -17.7492 -17.7081
   -11.8172 -10.1318   1.5892   2.0721   2.3904   3.7524   4.5159   5.7311
     6.9686   7.2158   7.3381   8.2702   9.3728  10.0181  13.9031  17.0306
    19.0139  19.9021  21.9241

     occupation numbers 
     1.0000   1.0000   1.0000   1.0000   1.0000   1.0000   1.0000   1.0000
     1.0000   1.0000   1.0000   1.0000   1.0000   1.0000   1.0000   1.0000
     1.0020   1.0395   1.0782   0.0007   0.0000   0.0000   0.0000   0.0000
     0.0000   0.0000   0.0000

          k = 0.1250 0.2165 0.1395 (  2634 PWs)   bands (ev):

   -87.4897 -50.7957 -50.7793 -50.6577 -45.8838 -17.8322 -17.7491 -17.7078
   -11.8150 -10.1349   1.5631   2.1373   2.3931   3.7906   4.5144   5.4570
     6.9668   7.1585   7.6586   8.1853   9.5844   9.9550  13.5189  17.4266
    19.1547  19.5050  22.0748

     occupation numbers 
     1.0000   1.0000   1.0000   1.0000   1.0000   1.0000   1.0000   1.0000
     1.0000   1.0000   1.0000   1.0000   1.0000   1.0000   1.0000   1.0000
     1.0020   1.0235   0.6901   0.0033   0.0000   0.0000   0.0000   0.0000
     0.0000   0.0000   0.0000

          k = 0.1250 0.3608 0.0000 (  2630 PWs)   bands (ev):

   -87.4878 -50.8150 -50.7865 -50.6546 -45.8713 -17.9250 -17.7825 -17.6883
   -11.3080 -10.1911   1.4506   2.0785   2.6997   3.2055   4.0196   5.5503
     7.0349   7.2959   7.5310   8.7757   9.4339  10.0518  14.5795  16.5019
    18.3244  20.0686  20.3834

     occupation numbers 
     1.0000   1.0000   1.0000   1.0000   1.0000   1.0000   1.0000   1.0000
     1.0000   1.0000   1.0000   1.0000   1.0000   1.0000   1.0000   1.0000
     1.0054   1.0665   0.9762   0.0000   0.0000   0.0000   0.0000   0.0000
     0.0000   0.0000   0.0000

          k = 0.1250 0.3608 0.1395 (  2633 PWs)   bands (ev):

   -87.4879 -50.8150 -50.7866 -50.6545 -45.8713 -17.9250 -17.7826 -17.6883
   -11.3069 -10.1924   1.4291   2.0782   2.7046   3.2639   4.0191   5.5295
     7.0286   7.2898   7.5003   8.5640   9.7545  10.0120  14.5126  16.3683
    18.2937  20.0634  20.5211

     occupation numbers 
     1.0000   1.0000   1.0000   1.0000   1.0000   1.0000   1.0000   1.0000
     1.0000   1.0000   1.0000   1.0000   1.0000   1.0000   1.0000   1.0000
     1.0049   1.0645   1.0189   0.0000   0.0000   0.0000   0.0000   0.0000
     0.0000   0.0000   0.0000

          k = 0.1250 0.5052 0.0000 (  2636 PWs)   bands (ev):

   -87.4865 -50.8286 -50.7919 -50.6522 -45.8625 -17.9891 -17.8069 -17.6745
   -10.8746 -10.2746   0.9569   2.0567   2.9232   3.5796   3.8980   4.9130
     6.8476   7.0827   7.4927   9.3725   9.8091  11.1151  13.5859  16.0797
    17.8632  18.8449  20.2642

     occupation numbers 
     1.0000   1.0000   1.0000   1.0000   1.0000   1.0000   1.0000   1.0000
     1.0000   1.0000   1.0000   1.0000   1.0000   1.0000   1.0000   1.0000
     1.0002   1.0101   1.0276   0.0000   0.0000   0.0000   0.0000   0.0000
     0.0000   0.0000   0.0000

          k = 0.1250 0.5052 0.1395 (  2647 PWs)   bands (ev):

   -87.4865 -50.8287 -50.7919 -50.6523 -45.8625 -17.9892 -17.8070 -17.6747
   -10.8744 -10.2748   0.9562   2.0456   2.9209   3.5937   3.8997   4.9379
     6.8438   7.0851   7.4796   9.3148   9.8624  11.0982  13.5185  16.0024
    18.1774  18.7014  20.3050

     occupation numbers 
     1.0000   1.0000   1.0000   1.0000   1.0000   1.0000   1.0000   1.0000
     1.0000   1.0000   1.0000   1.0000   1.0000   1.0000   1.0000   1.0000
     1.0002   1.0104   1.0411   0.0000   0.0000   0.0000   0.0000   0.0000
     0.0000   0.0000   0.0000

          k = 0.2500 0.4330 0.0000 (  2639 PWs)   bands (ev):

   -87.4865 -50.8219 -50.7986 -50.6523 -45.8625 -17.9560 -17.8404 -17.6746
   -10.9150 -10.2330   1.4806   1.7791   2.5941   3.4932   3.8233   5.0187
     6.8934   7.1600   7.6595   9.2773   9.4815  10.9569  14.5470  16.0195
    17.4992  19.4889  20.1183

     occupation numbers 
     1.0000   1.0000   1.0000   1.0000   1.0000   1.0000   1.0000   1.0000
     1.0000   1.0000   1.0000   1.0000   1.0000   1.0000   1.0000   1.0000
     1.0006   1.0239   0.6876   0.0000   0.0000   0.0000   0.0000   0.0000
     0.0000   0.0000   0.0000

          k = 0.2500 0.4330 0.1395 (  2630 PWs)   bands (ev):

   -87.4865 -50.8218 -50.7985 -50.6523 -45.8625 -17.9558 -17.8402 -17.6747
   -10.9149 -10.2331   1.4757   1.7713   2.5968   3.5128   3.8293   5.0186
     6.8942   7.1657   7.6261   9.3616   9.4824  10.8102  14.5933  16.0681
    17.3437  19.6029  19.9895

     occupation numbers 
     1.0000   1.0000   1.0000   1.0000   1.0000   1.0000   1.0000   1.0000
     1.0000   1.0000   1.0000   1.0000   1.0000   1.0000   1.0000   1.0000
     1.0006   1.0253   0.7757   0.0000   0.0000   0.0000   0.0000   0.0000
     0.0000   0.0000   0.0000

          k = 0.2500 0.5774 0.0000 (  2630 PWs)   bands (ev):

   -87.4860 -50.8223 -50.8059 -50.6513 -45.8588 -17.9571 -17.8757 -17.6689
   -10.7455 -10.2469   1.3415   1.8668   2.3840   3.6537   4.0863   4.5274
     6.6603   7.3284   7.5946   9.4079   9.4895  12.3345  13.2427  16.4205
    17.5786  17.9876  19.7216

     occupation numbers 
     1.0000   1.0000   1.0000   1.0000   1.0000   1.0000   1.0000   1.0000
     1.0000   1.0000   1.0000   1.0000   1.0000   1.0000   1.0000   1.0000
     1.0000   1.0760   0.8520   0.0000   0.0000   0.0000   0.0000   0.0000
     0.0000   0.0000   0.0000

          k = 0.2500 0.5774 0.1395 (  2649 PWs)   bands (ev):

   -87.4860 -50.8224 -50.8060 -50.6515 -45.8588 -17.9572 -17.8759 -17.6692
   -10.7455 -10.2469   1.3407   1.8635   2.3868   3.6553   4.0853   4.5314
     6.6624   7.3301   7.5844   9.4451   9.5273  12.2034  13.1520  16.3674
    17.6292  18.2489  19.6887

     occupation numbers 
     1.0000   1.0000   1.0000   1.0000   1.0000   1.0000   1.0000   1.0000
     1.0000   1.0000   1.0000   1.0000   1.0000   1.0000   1.0000   1.0000
     1.0000   1.0764   0.8749   0.0000   0.0000   0.0000   0.0000   0.0000
     0.0000   0.0000   0.0000

          k = 0.0000-0.1443 0.1395 (  2651 PWs)   bands (ev):

   -87.4911 -50.7815 -50.7747 -50.6600 -45.8927 -17.7630 -17.7281 -17.7219
   -12.1359 -10.1087   1.6309   1.9520   2.2236   4.6124   4.9561   5.2333
     6.7485   6.9664   7.4817   8.1007   9.8557  10.2166  12.8109  16.6762
    18.5810  21.6765  22.7750

     occupation numbers 
     1.0000   1.0000   1.0000   1.0000   1.0000   1.0000   1.0000   1.0000
     1.0000   1.0000   1.0000   1.0000   1.0000   1.0000   1.0000   1.0000
     1.0000   1.0020   1.0390   0.0124   0.0000   0.0000   0.0000   0.0000
     0.0000   0.0000   0.0000

          k = 0.0000-0.2887 0.1395 (  2636 PWs)   bands (ev):

   -87.4892 -50.8030 -50.7798 -50.6568 -45.8802 -17.8677 -17.7508 -17.7021
   -11.6715 -10.1510   1.4781   2.2082   2.5119   3.3911   4.5819   5.5181
     6.9162   7.2676   7.5454   8.4240   9.3097  10.0682  13.9169  17.3069
    18.4202  19.7029  21.8779

     occupation numbers 
     1.0000   1.0000   1.0000   1.0000   1.0000   1.0000   1.0000   1.0000
     1.0000   1.0000   1.0000   1.0000   1.0000   1.0000   1.0000   1.0000
     1.0009   1.0569   0.9522   0.0000   0.0000   0.0000   0.0000   0.0000
     0.0000   0.0000   0.0000

          k = 0.0000-0.4330 0.1395 (  2641 PWs)   bands (ev):

   -87.4873 -50.8246 -50.7849 -50.6537 -45.8677 -17.9707 -17.7733 -17.6827
   -11.1212 -10.2373   1.0417   2.1377   2.7920   3.4577   4.2201   5.2011
     6.9758   7.1358   7.3513   9.1205   9.9206  10.1006  14.5530  15.5355
    18.3305  19.2470  20.4029

     occupation numbers 
     1.0000   1.0000   1.0000   1.0000   1.0000   1.0000   1.0000   1.0000
     1.0000   1.0000   1.0000   1.0000   1.0000   1.0000   1.0000   1.0000
     1.0023   1.0186   1.0808   0.0000   0.0000   0.0000   0.0000   0.0000
     0.0000   0.0000   0.0000

          k =-0.1250-0.3608 0.1395 (  2633 PWs)   bands (ev):

   -87.4879 -50.8150 -50.7866 -50.6545 -45.8713 -17.9250 -17.7826 -17.6883
   -11.3071 -10.1921   1.4287   2.0737   2.7006   3.2800   4.0181   5.5065
     7.0395   7.3175   7.4302   8.8627   9.4616   9.9857  14.6707  16.3843
    18.2294  20.2321  20.7002

     occupation numbers 
     1.0000   1.0000   1.0000   1.0000   1.0000   1.0000   1.0000   1.0000
     1.0000   1.0000   1.0000   1.0000   1.0000   1.0000   1.0000   1.0000
     1.0058   1.0730   1.0740   0.0000   0.0000   0.0000   0.0000   0.0000
     0.0000   0.0000   0.0000

          k =-0.1250-0.5052 0.1395 (  2647 PWs)   bands (ev):

   -87.4865 -50.8287 -50.7919 -50.6523 -45.8625 -17.9892 -17.8070 -17.6747
   -10.8747 -10.2744   0.9536   2.0467   2.9231   3.5920   3.9104   4.9218
     6.8474   7.0854   7.4714   9.4256   9.8299  10.9570  13.5552  16.3037
    17.8533  18.7645  20.2561

     occupation numbers 
     1.0000   1.0000   1.0000   1.0000   1.0000   1.0000   1.0000   1.0000
     1.0000   1.0000   1.0000   1.0000   1.0000   1.0000   1.0000   1.0000
     1.0002   1.0104   1.0484   0.0000   0.0000   0.0000   0.0000   0.0000
     0.0000   0.0000   0.0000

 ------ SPIN DOWN ----------


          k = 0.0000 0.0000 0.0000 (  2625 PWs)   bands (ev):

   -87.4881 -50.7691 -50.7691 -50.6566 -45.8978 -17.7295 -17.7185 -17.7185
   -12.3158 -10.0899   1.3901   2.1089   2.1089   4.9123   5.7738   5.7738
     6.4381   6.5306   6.5306   8.1031  10.3327  10.3327  13.1594  15.4113
    17.9363  23.0058  24.7846

     occupation numbers 
     1.0000   1.0000   1.0000   1.0000   1.0000   1.0000   1.0000   1.0000
     1.0000   1.0000   1.0000   1.0000   1.0000   1.0000   1.0000   1.0000
     1.0000   1.0000   1.0000   0.0119   0.0000   0.0000   0.0000   0.0000
     0.0000   0.0000   0.0000

          k = 0.0000 0.0000 0.1395 (  2666 PWs)   bands (ev):

   -87.4881 -50.7694 -50.7694 -50.6568 -45.8979 -17.7302 -17.7190 -17.7190
   -12.3122 -10.0960   1.5167   2.1089   2.1089   4.3038   5.7731   5.7731
     6.5307   6.5307   7.2745   7.9964  10.3332  10.3332  12.3112  16.1961
    18.0698  22.6021  24.6309

     occupation numbers 
     1.0000   1.0000   1.0000   1.0000   1.0000   1.0000   1.0000   1.0000
     1.0000   1.0000   1.0000   1.0000   1.0000   1.0000   1.0000   1.0000
     1.0000   1.0000   1.0593   0.0494   0.0000   0.0000   0.0000   0.0000
     0.0000   0.0000   0.0000

          k = 0.0000 0.1443 0.0000 (  2643 PWs)   bands (ev):

   -87.4873 -50.7782 -50.7713 -50.6555 -45.8927 -17.7629 -17.7281 -17.7216
   -12.1383 -10.1027   1.5583   1.9413   2.2243   4.7047   5.2354   5.3246
     6.7285   6.8669   6.9715   8.2026   9.8360  10.2171  13.4575  16.0226
    18.5549  21.7531  22.9812

     occupation numbers 
     1.0000   1.0000   1.0000   1.0000   1.0000   1.0000   1.0000   1.0000
     1.0000   1.0000   1.0000   1.0000   1.0000   1.0000   1.0000   1.0000
     1.0000   1.0004   1.0021   0.0024   0.0000   0.0000   0.0000   0.0000
     0.0000   0.0000   0.0000

          k = 0.0000 0.1443 0.1395 (  2651 PWs)   bands (ev):

   -87.4873 -50.7782 -50.7714 -50.6555 -45.8927 -17.7630 -17.7282 -17.7219
   -12.1351 -10.1076   1.6269   1.9581   2.2244   4.7150   4.8418   5.2352
     6.7798   6.9714   7.4926   8.0411   9.9397  10.2173  12.7421  16.7287
    18.5651  21.5712  22.9323

     occupation numbers 
     1.0000   1.0000   1.0000   1.0000   1.0000   1.0000   1.0000   1.0000
     1.0000   1.0000   1.0000   1.0000   1.0000   1.0000   1.0000   1.0000
     1.0001   1.0021   1.0278   0.0282   0.0000   0.0000   0.0000   0.0000
     0.0000   0.0000   0.0000

          k = 0.0000 0.2887 0.0000 (  2620 PWs)   bands (ev):

   -87.4854 -50.7996 -50.7764 -50.6522 -45.8801 -17.8677 -17.7506 -17.7019
   -11.6726 -10.1475   1.5049   2.1712   2.5126   3.3342   4.5838   5.6953
     7.0202   7.2726   7.3929   8.3014   9.3360  10.0693  14.0756  17.3633
    18.1132  19.9310  21.6118

     occupation numbers 
     1.0000   1.0000   1.0000   1.0000   1.0000   1.0000   1.0000   1.0000
     1.0000   1.0000   1.0000   1.0000   1.0000   1.0000   1.0000   1.0000
     1.0044   1.0586   1.0828   0.0004   0.0000   0.0000   0.0000   0.0000
     0.0000   0.0000   0.0000

          k = 0.0000 0.2887 0.1395 (  2636 PWs)   bands (ev):

   -87.4854 -50.7997 -50.7765 -50.6523 -45.8802 -17.8678 -17.7508 -17.7021
   -11.6706 -10.1501   1.4718   2.2276   2.5126   3.3792   4.5837   5.5422
     6.9163   7.2726   7.6816   7.9900   9.7151  10.0690  13.6701  17.6849
    18.1121  19.6618  21.7501

     occupation numbers 
     1.0000   1.0000   1.0000   1.0000   1.0000   1.0000   1.0000   1.0000
     1.0000   1.0000   1.0000   1.0000   1.0000   1.0000   1.0000   1.0000
     1.0009   1.0586   0.6270   0.0534   0.0000   0.0000   0.0000   0.0000
     0.0000   0.0000   0.0000

          k = 0.0000 0.4330 0.0000 (  2652 PWs)   bands (ev):

   -87.4835 -50.8213 -50.7817 -50.6491 -45.8677 -17.9709 -17.7736 -17.6827
   -11.1209 -10.2359   1.0530   2.1547   2.7928   3.3963   4.2214   5.2172
     6.9851   7.1408   7.3849   9.0493  10.0422  10.1023  14.4437  15.5079
    18.4369  19.2731  20.4056

     occupation numbers 
     1.0000   1.0000   1.0000   1.0000   1.0000   1.0000   1.0000   1.0000
     1.0000   1.0000   1.0000   1.0000   1.0000   1.0000   1.0000   1.0000
     1.0026   1.0196   1.0833   0.0000   0.0000   0.0000   0.0000   0.0000
     0.0000   0.0000   0.0000

          k = 0.0000 0.4330 0.1395 (  2641 PWs)   bands (ev):

   -87.4835 -50.8212 -50.7816 -50.6492 -45.8677 -17.9708 -17.7734 -17.6827
   -11.1201 -10.2368   1.0465   2.1410   2.7930   3.4385   4.2213   5.2373
     6.9679   7.1408   7.3899   8.7826  10.1020  10.3485  14.4809  15.1740
    18.7402  19.2644  20.3326

     occupation numbers 
     1.0000   1.0000   1.0000   1.0000   1.0000   1.0000   1.0000   1.0000
     1.0000   1.0000   1.0000   1.0000   1.0000   1.0000   1.0000   1.0000
     1.0020   1.0196   1.0830   0.0000   0.0000   0.0000   0.0000   0.0000
     0.0000   0.0000   0.0000

          k = 0.0000-0.5774 0.0000 (  2642 PWs)   bands (ev):

   -87.4827 -50.8302 -50.7837 -50.6477 -45.8625 -18.0131 -17.7827 -17.6744
   -10.8269 -10.3217   0.6725   2.2754   2.8874   3.7106   4.1511   4.8240
     6.7899   6.9955   7.3341   9.4594  10.1557  11.4326  12.6630  16.5046
    16.8384  19.4582  20.2006

     occupation numbers 
     1.0000   1.0000   1.0000   1.0000   1.0000   1.0000   1.0000   1.0000
     1.0000   1.0000   1.0000   1.0000   1.0000   1.0000   1.0000   1.0000
     1.0001   1.0031   1.0773   0.0000   0.0000   0.0000   0.0000   0.0000
     0.0000   0.0000   0.0000

          k = 0.0000-0.5774 0.1395 (  2638 PWs)   bands (ev):

   -87.4827 -50.8302 -50.7837 -50.6478 -45.8625 -18.0128 -17.7827 -17.6746
   -10.8270 -10.3214   0.6719   2.2586   2.8876   3.7230   4.1511   4.8598
     6.7847   6.9955   7.3266   9.4385  10.1554  11.4410  12.5557  16.3618
    17.3578  19.1297  20.1460

     occupation numbers 
     1.0000   1.0000   1.0000   1.0000   1.0000   1.0000   1.0000   1.0000
     1.0000   1.0000   1.0000   1.0000   1.0000   1.0000   1.0000   1.0000
     1.0001   1.0031   1.0755   0.0000   0.0000   0.0000   0.0000   0.0000
     0.0000   0.0000   0.0000

          k = 0.1250 0.2165 0.0000 (  2659 PWs)   bands (ev):

   -87.4860 -50.7925 -50.7760 -50.6534 -45.8839 -17.8326 -17.7492 -17.7081
   -11.8165 -10.1307   1.5900   2.0734   2.3912   3.7537   4.5177   5.7324
     6.9739   7.2184   7.3422   8.2719   9.3739  10.0193  13.9036  17.0311
    19.0144  19.9027  21.9244

     occupation numbers 
     1.0000   1.0000   1.0000   1.0000   1.0000   1.0000   1.0000   1.0000
     1.0000   1.0000   1.0000   1.0000   1.0000   1.0000   1.0000   1.0000
     1.0022   1.0403   1.0791   0.0007   0.0000   0.0000   0.0000   0.0000
     0.0000   0.0000   0.0000

          k = 0.1250 0.2165 0.1395 (  2634 PWs)   bands (ev):

   -87.4859 -50.7923 -50.7760 -50.6532 -45.8838 -17.8323 -17.7491 -17.7078
   -11.8142 -10.1338   1.5638   2.1386   2.3939   3.7919   4.5163   5.4581
     6.9722   7.1624   7.6617   8.1870   9.5855   9.9562  13.5193  17.4271
    19.1554  19.5058  22.0750

     occupation numbers 
     1.0000   1.0000   1.0000   1.0000   1.0000   1.0000   1.0000   1.0000
     1.0000   1.0000   1.0000   1.0000   1.0000   1.0000   1.0000   1.0000
     1.0021   1.0245   0.6816   0.0032   0.0000   0.0000   0.0000   0.0000
     0.0000   0.0000   0.0000

          k = 0.1250 0.3608 0.0000 (  2630 PWs)   bands (ev):

   -87.4840 -50.8117 -50.7832 -50.6500 -45.8713 -17.9250 -17.7826 -17.6883
   -11.3073 -10.1900   1.4515   2.0795   2.7005   3.2067   4.0211   5.5516
     7.0399   7.2994   7.5356   8.7766   9.4352  10.0531  14.5799  16.5024
    18.3250  20.0689  20.3836

     occupation numbers 
     1.0000   1.0000   1.0000   1.0000   1.0000   1.0000   1.0000   1.0000
     1.0000   1.0000   1.0000   1.0000   1.0000   1.0000   1.0000   1.0000
     1.0058   1.0676   0.9688   0.0000   0.0000   0.0000   0.0000   0.0000
     0.0000   0.0000   0.0000

          k = 0.1250 0.3608 0.1395 (  2633 PWs)   bands (ev):

   -87.4840 -50.8117 -50.7832 -50.6500 -45.8713 -17.9250 -17.7826 -17.6883
   -11.3062 -10.1912   1.4300   2.0793   2.7054   3.2651   4.0206   5.5309
     7.0336   7.2936   7.5044   8.5651   9.7560  10.0132  14.5129  16.3688
    18.2941  20.0641  20.5215

     occupation numbers 
     1.0000   1.0000   1.0000   1.0000   1.0000   1.0000   1.0000   1.0000
     1.0000   1.0000   1.0000   1.0000   1.0000   1.0000   1.0000   1.0000
     1.0053   1.0657   1.0139   0.0000   0.0000   0.0000   0.0000   0.0000
     0.0000   0.0000   0.0000

          k = 0.1250 0.5052 0.0000 (  2636 PWs)   bands (ev):

   -87.4827 -50.8253 -50.7886 -50.6477 -45.8625 -17.9891 -17.8070 -17.6745
   -10.8739 -10.2734   0.9580   2.0577   2.9240   3.5809   3.8991   4.9143
     6.8508   7.0877   7.4978   9.3740   9.8109  11.1158  13.5864  16.0799
    17.8633  18.8452  20.2645

     occupation numbers 
     1.0000   1.0000   1.0000   1.0000   1.0000   1.0000   1.0000   1.0000
     1.0000   1.0000   1.0000   1.0000   1.0000   1.0000   1.0000   1.0000
     1.0003   1.0107   1.0218   0.0000   0.0000   0.0000   0.0000   0.0000
     0.0000   0.0000   0.0000

          k = 0.1250 0.5052 0.1395 (  2647 PWs)   bands (ev):

   -87.4827 -50.8254 -50.7886 -50.6478 -45.8625 -17.9892 -17.8070 -17.6747
   -10.8737 -10.2736   0.9572   2.0465   2.9217   3.5949   3.9008   4.9392
     6.8470   7.0901   7.4846   9.3162   9.8643  11.0989  13.5190  16.0027
    18.1775  18.7017  20.3057

     occupation numbers 
     1.0000   1.0000   1.0000   1.0000   1.0000   1.0000   1.0000   1.0000
     1.0000   1.0000   1.0000   1.0000   1.0000   1.0000   1.0000   1.0000
     1.0002   1.0110   1.0361   0.0000   0.0000   0.0000   0.0000   0.0000
     0.0000   0.0000   0.0000

          k = 0.2500 0.4330 0.0000 (  2639 PWs)   bands (ev):

   -87.4827 -50.8185 -50.7953 -50.6478 -45.8625 -17.9560 -17.8404 -17.6747
   -10.9144 -10.2317   1.4816   1.7803   2.5948   3.4943   3.8246   5.0200
     6.8965   7.1650   7.6644   9.2790   9.4830  10.9577  14.5475  16.0198
    17.4993  19.4890  20.1186

     occupation numbers 
     1.0000   1.0000   1.0000   1.0000   1.0000   1.0000   1.0000   1.0000
     1.0000   1.0000   1.0000   1.0000   1.0000   1.0000   1.0000   1.0000
     1.0006   1.0251   0.6742   0.0000   0.0000   0.0000   0.0000   0.0000
     0.0000   0.0000   0.0000

          k = 0.2500 0.4330 0.1395 (  2630 PWs)   bands (ev):

   -87.4827 -50.8184 -50.7952 -50.6478 -45.8625 -17.9558 -17.8403 -17.6747
   -10.9142 -10.2319   1.4766   1.7725   2.5975   3.5140   3.8306   5.0199
     6.8974   7.1708   7.6310   9.3633   9.4841  10.8109  14.5939  16.0683
    17.3438  19.6032  19.9898

     occupation numbers 
     1.0000   1.0000   1.0000   1.0000   1.0000   1.0000   1.0000   1.0000
     1.0000   1.0000   1.0000   1.0000   1.0000   1.0000   1.0000   1.0000
     1.0006   1.0265   0.7633   0.0000   0.0000   0.0000   0.0000   0.0000
     0.0000   0.0000   0.0000

          k = 0.2500 0.5774 0.0000 (  2630 PWs)   bands (ev):

   -87.4822 -50.8190 -50.8026 -50.6468 -45.8588 -17.9571 -17.8757 -17.6689
   -10.7449 -10.2456   1.3425   1.8680   2.3848   3.6546   4.0874   4.5287
     6.6635   7.3332   7.5998   9.4096   9.4913  12.3352  13.2433  16.4205
    17.5789  17.9877  19.7218

     occupation numbers 
     1.0000   1.0000   1.0000   1.0000   1.0000   1.0000   1.0000   1.0000
     1.0000   1.0000   1.0000   1.0000   1.0000   1.0000   1.0000   1.0000
     1.0000   1.0771   0.8402   0.0000   0.0000   0.0000   0.0000   0.0000
     0.0000   0.0000   0.0000

          k = 0.2500 0.5774 0.1395 (  2649 PWs)   bands (ev):

   -87.4822 -50.8191 -50.8026 -50.6469 -45.8589 -17.9572 -17.8759 -17.6693
   -10.7449 -10.2455   1.3417   1.8646   2.3876   3.6562   4.0864   4.5327
     6.6657   7.3350   7.5895   9.4467   9.5291  12.2041  13.1525  16.3674
    17.6295  18.2491  19.6890

     occupation numbers 
     1.0000   1.0000   1.0000   1.0000   1.0000   1.0000   1.0000   1.0000
     1.0000   1.0000   1.0000   1.0000   1.0000   1.0000   1.0000   1.0000
     1.0000   1.0775   0.8636   0.0000   0.0000   0.0000   0.0000   0.0000
     0.0000   0.0000   0.0000

          k = 0.0000-0.1443 0.1395 (  2651 PWs)   bands (ev):

   -87.4873 -50.7782 -50.7714 -50.6555 -45.8927 -17.7630 -17.7282 -17.7219
   -12.1352 -10.1076   1.6319   1.9531   2.2243   4.6136   4.9573   5.2351
     6.7533   6.9713   7.4837   8.1031   9.8568  10.2178  12.8113  16.6767
    18.5819  21.6770  22.7754

     occupation numbers 
     1.0000   1.0000   1.0000   1.0000   1.0000   1.0000   1.0000   1.0000
     1.0000   1.0000   1.0000   1.0000   1.0000   1.0000   1.0000   1.0000
     1.0000   1.0021   1.0371   0.0119   0.0000   0.0000   0.0000   0.0000
     0.0000   0.0000   0.0000

          k = 0.0000-0.2887 0.1395 (  2636 PWs)   bands (ev):

   -87.4854 -50.7997 -50.7765 -50.6523 -45.8802 -17.8678 -17.7508 -17.7021
   -11.6708 -10.1499   1.4789   2.2094   2.5126   3.3923   4.5836   5.5194
     6.9210   7.2724   7.5481   8.4256   9.3109  10.0695  13.9173  17.3073
    18.4207  19.7039  21.8781

     occupation numbers 
     1.0000   1.0000   1.0000   1.0000   1.0000   1.0000   1.0000   1.0000
     1.0000   1.0000   1.0000   1.0000   1.0000   1.0000   1.0000   1.0000
     1.0009   1.0586   0.9473   0.0000   0.0000   0.0000   0.0000   0.0000
     0.0000   0.0000   0.0000

          k = 0.0000-0.4330 0.1395 (  2641 PWs)   bands (ev):

   -87.4835 -50.8212 -50.7816 -50.6491 -45.8677 -17.9708 -17.7734 -17.6827
   -11.1205 -10.2361   1.0428   2.1384   2.7930   3.4590   4.2213   5.2024
     6.9795   7.1408   7.3557   9.1218   9.9215  10.1023  14.5534  15.5359
    18.3307  19.2472  20.4038

     occupation numbers 
     1.0000   1.0000   1.0000   1.0000   1.0000   1.0000   1.0000   1.0000
     1.0000   1.0000   1.0000   1.0000   1.0000   1.0000   1.0000   1.0000
     1.0024   1.0196   1.0814   0.0000   0.0000   0.0000   0.0000   0.0000
     0.0000   0.0000   0.0000

          k =-0.1250-0.3608 0.1395 (  2633 PWs)   bands (ev):

   -87.4841 -50.8117 -50.7833 -50.6500 -45.8713 -17.9250 -17.7826 -17.6883
   -11.3064 -10.1909   1.4296   2.0747   2.7014   3.2812   4.0196   5.5078
     7.0447   7.3210   7.4343   8.8640   9.4629   9.9870  14.6711  16.3848
    18.2297  20.2328  20.6993

     occupation numbers 
     1.0000   1.0000   1.0000   1.0000   1.0000   1.0000   1.0000   1.0000
     1.0000   1.0000   1.0000   1.0000   1.0000   1.0000   1.0000   1.0000
     1.0062   1.0740   1.0722   0.0000   0.0000   0.0000   0.0000   0.0000
     0.0000   0.0000   0.0000

          k =-0.1250-0.5052 0.1395 (  2647 PWs)   bands (ev):

   -87.4827 -50.8254 -50.7886 -50.6478 -45.8625 -17.9892 -17.8070 -17.6747
   -10.8741 -10.2732   0.9547   2.0476   2.9239   3.5933   3.9115   4.9231
     6.8506   7.0904   7.4764   9.4271   9.8317  10.9577  13.5557  16.3040
    17.8535  18.7647  20.2567

     occupation numbers 
     1.0000   1.0000   1.0000   1.0000   1.0000   1.0000   1.0000   1.0000
     1.0000   1.0000   1.0000   1.0000   1.0000   1.0000   1.0000   1.0000
     1.0003   1.0111   1.0440   0.0000   0.0000   0.0000   0.0000   0.0000
     0.0000   0.0000   0.0000

     the Fermi energy is     7.7656 ev

!    total energy              =    -569.26885125 Ry
     total all-electron energy =     -3412.759407 Ry
     estimated scf accuracy    <       0.00000009 Ry
     smearing contrib. (-TS)   =       0.00567924 Ry
     internal energy E=F+TS    =    -569.27453050 Ry

     The total energy is F=E-TS. E is the sum of the following terms:
     one-electron contribution =    -445.18730853 Ry
     hartree contribution      =     240.36322941 Ry
     xc contribution           =     -60.23498728 Ry
     ewald contribution        =    -182.28179011 Ry
     one-center paw contrib.   =    -121.93367399 Ry
      -> PAW hartree energy AE =     345.15419093 Ry
      -> PAW hartree energy PS =    -345.13740832 Ry
      -> PAW xc energy AE      =    -179.17764952 Ry
      -> PAW xc energy PS      =      57.22719292 Ry
      -> total E_H with PAW    =     240.38001202 Ry
      -> total E_XC with PAW   =    -182.18544388 Ry

     total magnetization       =     0.00 Bohr mag/cell
     absolute magnetization    =     0.00 Bohr mag/cell

     convergence has been achieved in  23 iterations

     Forces acting on atoms (cartesian axes, Ry/au):

     atom    1 type  1   force =    -0.00000000   -0.00000000    0.03814435
     atom    2 type  2   force =     0.00000000    0.00000000    0.03195616
     atom    3 type  2   force =     0.00000000    0.00000000   -0.07962996
     atom    4 type  3   force =    -0.00000000   -0.00000000    0.00952944
     The non-local contrib.  to forces
     atom    1 type  1   force =     0.00000000    0.00000000   -0.01578643
     atom    2 type  2   force =     0.00000000    0.00000000   -0.87854143
     atom    3 type  2   force =     0.00000000    0.00000000    0.43883548
     atom    4 type  3   force =     0.00000000   -0.00000000   -0.17067762
     The ionic contribution  to forces
     atom    1 type  1   force =     0.00000000   -0.00000000   11.05243542
     atom    2 type  2   force =     0.00000000   -0.00000000   29.94069770
     atom    3 type  2   force =    -0.00000000    0.00000000  -22.72243768
     atom    4 type  3   force =     0.00000000   -0.00000000  -18.27069544
     The local contribution  to forces
     atom    1 type  1   force =     0.00000000   -0.00000000  -10.99758530
     atom    2 type  2   force =     0.00000001   -0.00000001  -29.03693629
     atom    3 type  2   force =    -0.00000001    0.00000001   22.20679091
     atom    4 type  3   force =    -0.00000000   -0.00000000   18.45047228
     The core correction contribution to forces
     atom    1 type  1   force =    -0.00000000    0.00000000   -0.00032354
     atom    2 type  2   force =    -0.00000000    0.00000000    0.00721976
     atom    3 type  2   force =     0.00000000   -0.00000000   -0.00308443
     atom    4 type  3   force =    -0.00000000    0.00000000    0.00005911
     The Hubbard contrib.    to forces
     atom    1 type  1   force =     0.00000000    0.00000000    0.00000000
     atom    2 type  2   force =     0.00000000    0.00000000    0.00000000
     atom    3 type  2   force =     0.00000000    0.00000000    0.00000000
     atom    4 type  3   force =     0.00000000    0.00000000    0.00000000
     The SCF correction term to forces
     atom    1 type  1   force =     0.00000000   -0.00000000   -0.00059587
     atom    2 type  2   force =     0.00000000   -0.00000000   -0.00048364
     atom    3 type  2   force =    -0.00000000    0.00000000    0.00026570
     atom    4 type  3   force =     0.00000000   -0.00000000    0.00037103

     Total force =     0.094382     Total SCF correction =     0.000893

     Writing all to output data dir ./out/pw.save/ :
     XML data file, charge density, pseudopotentials, collected wavefunctions
 
     init_run     :     12.72s CPU      3.16s WALL (       1 calls)
     electrons    :    117.33s CPU     32.30s WALL (       1 calls)
     forces       :      0.58s CPU      0.57s WALL (       1 calls)

     Called by init_run:
     wfcinit      :      0.27s CPU      0.33s WALL (       1 calls)
     wfcinit:atom :      0.04s CPU      0.04s WALL (      50 calls)
     wfcinit:wfcr :      0.17s CPU      0.21s WALL (      50 calls)
     potinit      :     11.92s CPU      2.26s WALL (       1 calls)
     hinit0       :      0.44s CPU      0.43s WALL (       1 calls)

     Called by electrons:
     c_bands      :     15.76s CPU     16.10s WALL (      23 calls)
     sum_band     :      2.58s CPU      2.59s WALL (      23 calls)
     v_of_rho     :      0.38s CPU      0.19s WALL (      24 calls)
     v_h          :      0.26s CPU      0.04s WALL (      24 calls)
     v_xc         :      0.11s CPU      0.15s WALL (      25 calls)
     newd         :      0.57s CPU      0.45s WALL (      24 calls)
                                        0.45s GPU  (      24 calls)
     PAW_pot      :    101.18s CPU     12.85s WALL (      24 calls)
     mix_rho      :      0.67s CPU      0.67s WALL (      23 calls)

     Called by c_bands:
     init_us_2    :      0.98s CPU      0.97s WALL (    2400 calls)
     cegterg      :     13.94s CPU     14.27s WALL (    1150 calls)

     Called by sum_band:
     sum_band:wei :      0.03s CPU      0.03s WALL (      23 calls)
                                        0.03s GPU  (      23 calls)
     sum_band:loo :      1.61s CPU      1.63s WALL (      23 calls)
                                        1.63s GPU  (      23 calls)
     sum_band:buf :      0.20s CPU      0.22s WALL (    1150 calls)
                                        0.21s GPU  (    1150 calls)
     sum_band:ini :      0.46s CPU      0.48s WALL (    1150 calls)
                                        0.47s GPU  (    1150 calls)
     sum_band:cal :      0.04s CPU      0.07s WALL (    1150 calls)
                                        0.05s GPU  (    1150 calls)
     sum_band:bec :      0.25s CPU      0.28s WALL (    1150 calls)
                                        0.26s GPU  (    1150 calls)
     addusdens    :      0.79s CPU      0.79s WALL (      23 calls)
                                        0.79s GPU  (      23 calls)
     addusd:skk   :      0.00s CPU      0.00s WALL (      69 calls)
                                        0.00s GPU  (      69 calls)

     Called by *egterg:
     cdiaghg      :      4.92s CPU      5.10s WALL (    5587 calls)
                                        5.04s GPU  (    5587 calls)
     cegterg:over :      1.01s CPU      1.06s WALL (    4437 calls)
     cegterg:upda :      0.85s CPU      0.87s WALL (    4437 calls)
     cegterg:last :      0.15s CPU      0.15s WALL (    2346 calls)
     h_psi        :      4.81s CPU      5.05s WALL (    5637 calls)
                                        4.98s GPU  (    5637 calls)
     s_psi        :      0.86s CPU      0.92s WALL (    5637 calls)
     g_psi        :      0.02s CPU      0.11s WALL (    4437 calls)
                                        0.05s GPU  (    4437 calls)

     Called by h_psi:
     h_psi:calbec :      0.17s CPU      0.31s WALL (    5637 calls)
                                        0.24s GPU  (    5637 calls)
     vloc_psi     :      3.28s CPU      3.40s WALL (    5637 calls)
                                        3.33s GPU  (    5637 calls)
     add_vuspsi   :      0.78s CPU      0.94s WALL (    5637 calls)
                                        0.86s GPU  (    5637 calls)

     General routines
     calbec       :      0.18s CPU      0.22s WALL (    6987 calls)
     fft          :      3.38s CPU      0.87s WALL (     613 calls)
                                        0.02s GPU  (     565 calls)
     ffts         :      4.46s CPU      0.81s WALL (     848 calls)
                                        0.02s GPU  (     800 calls)
     fftw         :      0.33s CPU      1.10s WALL (   18292 calls)
                                        0.89s GPU  (   18292 calls)
     interpolate  :      7.98s CPU      1.65s WALL (      48 calls)
 
     Parallel routines

     PAW routines
     PAW_pot      :    101.18s CPU     12.85s WALL (      24 calls)
     PAW_symme    :      0.02s CPU      0.00s WALL (      47 calls)
 
     PWSCF        :   2m11.51s CPU     36.55s WALL

 
   This run was terminated on:   4:24: 5  12Jul2026            

=------------------------------------------------------------------------------=
   JOB DONE.
=------------------------------------------------------------------------------=
Warning: ieee_divide_by_zero is signaling
Warning: ieee_inexact is signaling
FORTRAN STOP
