
     Program PWSCF v.7.3.1 starts on 12Jul2026 at  2:13: 7 

     This program is part of the open-source Quantum ESPRESSO suite
     for quantum simulation of materials; please cite
         "P. Giannozzi et al., J. Phys.:Condens. Matter 21 395502 (2009);
         "P. Giannozzi et al., J. Phys.:Condens. Matter 29 465901 (2017);
         "P. Giannozzi et al., J. Chem. Phys. 152 154105 (2020);
          URL http://www.quantum-espresso.org", 
     in publications or presentations arising from this work. More details at
     http://www.quantum-espresso.org/quote

     Parallel version (MPI & OpenMP), running on      14 processor cores
     Number of MPI processes:                 1
     Threads/MPI process:                    14

     MPI processes distributed on     1 nodes
     853950 MiB available memory on the printing compute node when the environment starts
 
     Reading input from pw.in

     Current dimensions of program PWSCF are:
     Max number of different atomic species (ntypx) = 10
     Max number of k-points (npk) =  40000
     Max angular momentum in pseudopotentials (lmaxx) =  4
     file Co.pbe-spn-kjpaw_psl.0.3.1.UPF: wavefunction(s)  3P 3D renormalized
     file O.pbe-n-kjpaw_psl.1.0.0.UPF: wavefunction(s)  2S 2P renormalized
     file Na.pbe-spn-kjpaw_psl.1.0.0.UPF: wavefunction(s)  2P renormalized
 
     Subspace diagonalization in iterative solution of the eigenvalue problem:
     a serial algorithm will be used

 
     G-vector sticks info
     --------------------
     sticks:   dense  smooth     PW     G-vecs:    dense   smooth      PW
     Sum         979     499    151                47419    16845    2747
 
     Using Slab Decomposition
 


     bravais-lattice index     =            4
     lattice parameter (alat)  =       5.4575  a.u.
     unit-cell volume          =     268.0923 (a.u.)^3
     number of atoms/cell      =            4
     number of atomic types    =            3
     number of electrons       =        38.00
     number of Kohn-Sham states=           27
     kinetic-energy cutoff     =      60.0000  Ry
     charge density cutoff     =     480.0000  Ry
     scf convergence threshold =      1.0E-08
     mixing beta               =       0.3000
     number of iterations used =            8  plain     mixing
     Exchange-correlation= SLA  PW   PBX  PBC
                           (   1   4   3   4   0   0   0)

     GPU acceleration is ACTIVE.  1 visible GPUs per MPI rank
     GPU-aware MPI enabled


     GPU used by master process:

        Device Number: 0
        Device name: NVIDIA A100-SXM4-80GB
        Compute capability : 80
        Ratio of single to double precision performance  : 2
        Memory Clock Rate (KHz): 1593000
        Memory Bus Width (bits): 5120
        Peak Memory Bandwidth (GB/s): ******

     celldm(1)=   5.457529  celldm(2)=   0.000000  celldm(3)=   1.904432
     celldm(4)=   0.000000  celldm(5)=   0.000000  celldm(6)=   0.000000

     crystal axes: (cart. coord. in units of alat)
               a(1) = (   1.000000   0.000000   0.000000 )  
               a(2) = (  -0.500000   0.866025   0.000000 )  
               a(3) = (   0.000000   0.000000   1.904432 )  

     reciprocal axes: (cart. coord. in units 2 pi/alat)
               b(1) = (  1.000000  0.577350 -0.000000 )  
               b(2) = (  0.000000  1.154701  0.000000 )  
               b(3) = (  0.000000 -0.000000  0.525091 )  


     PseudoPot. # 1 for Co read from file:
     ../../pseudo/Co.pbe-spn-kjpaw_psl.0.3.1.UPF
     MD5 check sum: 3c0a43779828c046024e4f3be63f8e67
     Pseudo is Projector augmented-wave + core cor, Zval = 17.0
     Generated using &quot;atomic&quot; code by A. Dal Corso  v.6.2.2
     Shape of augmentation charge: PSQ
     Using radial grid of 1193 points,  6 beta functions with: 
                l(1) =   0
                l(2) =   0
                l(3) =   1
                l(4) =   1
                l(5) =   2
                l(6) =   2
     Q(r) pseudized with 0 coefficients 


     PseudoPot. # 2 for O  read from file:
     ../../pseudo/O.pbe-n-kjpaw_psl.1.0.0.UPF
     MD5 check sum: e99d9cef9b487d1ca56f5b95ecd0fd7a
     Pseudo is Projector augmented-wave + core cor, Zval =  6.0
     Generated using &quot;atomic&quot; code by A. Dal Corso  v.6.3
     Shape of augmentation charge: PSQ
     Using radial grid of 1095 points,  4 beta functions with: 
                l(1) =   0
                l(2) =   0
                l(3) =   1
                l(4) =   1
     Q(r) pseudized with 0 coefficients 


     PseudoPot. # 3 for Na read from file:
     ../../pseudo/Na.pbe-spn-kjpaw_psl.1.0.0.UPF
     MD5 check sum: 05b4deb74e3932c23ab016979dc8b5d4
     Pseudo is Projector augmented-wave + core cor, Zval =  9.0
     Generated using &quot;atomic&quot; code by A. Dal Corso  v.6.3
     Shape of augmentation charge: PSQ
     Using radial grid of 1121 points,  4 beta functions with: 
                l(1) =   0
                l(2) =   0
                l(3) =   1
                l(4) =   1
     Q(r) pseudized with 0 coefficients 


     atomic species   valence    mass     pseudopotential
     Co               17.00    58.93300     Co( 1.00)
     O                 6.00    15.99900     O ( 1.00)
     Na                9.00    22.98977     Na( 1.00)

     Starting magnetic structure 
     atomic species   magnetization
     Co              0.300
     O               0.000
     Na              0.000

      6 Sym. Ops. (no inversion) found


                                    s                        frac. trans.

      isym =  1     identity                                     

 cryst.   s( 1) = (     1          0          0      )
                  (     0          1          0      )
                  (     0          0          1      )

 cart.    s( 1) = (  1.0000000  0.0000000  0.0000000 )
                  (  0.0000000  1.0000000  0.0000000 )
                  (  0.0000000  0.0000000  1.0000000 )


      isym =  2     120 deg rotation - cryst. axis [0,0,1]       

 cryst.   s( 2) = (     0          1          0      )
                  (    -1         -1          0      )
                  (     0          0          1      )

 cart.    s( 2) = ( -0.5000000 -0.8660254  0.0000000 )
                  (  0.8660254 -0.5000000  0.0000000 )
                  (  0.0000000  0.0000000  1.0000000 )


      isym =  3     120 deg rotation - cryst. axis [0,0,-1]      

 cryst.   s( 3) = (    -1         -1          0      )
                  (     1          0          0      )
                  (     0          0          1      )

 cart.    s( 3) = ( -0.5000000  0.8660254  0.0000000 )
                  ( -0.8660254 -0.5000000  0.0000000 )
                  (  0.0000000  0.0000000  1.0000000 )


      isym =  4     inv. 180 deg rotation - cart. axis [1,0,0]   

 cryst.   s( 4) = (    -1          0          0      )
                  (     1          1          0      )
                  (     0          0          1      )

 cart.    s( 4) = ( -1.0000000  0.0000000  0.0000000 )
                  (  0.0000000  1.0000000  0.0000000 )
                  (  0.0000000  0.0000000  1.0000000 )


      isym =  5     inv. 180 deg rotation - cryst. axis [0,1,0]  

 cryst.   s( 5) = (     1          1          0      )
                  (     0         -1          0      )
                  (     0          0          1      )

 cart.    s( 5) = (  0.5000000  0.8660254  0.0000000 )
                  (  0.8660254 -0.5000000  0.0000000 )
                  (  0.0000000  0.0000000  1.0000000 )


      isym =  6     inv. 180 deg rotation - cryst. axis [1,1,0]  

 cryst.   s( 6) = (     0         -1          0      )
                  (    -1          0          0      )
                  (     0          0          1      )

 cart.    s( 6) = (  0.5000000 -0.8660254  0.0000000 )
                  ( -0.8660254 -0.5000000  0.0000000 )
                  (  0.0000000  0.0000000  1.0000000 )


     point group C_3v (3m)  
     there are  3 classes
     the character table:

       E     2C3   3s_v 
A_1    1.00  1.00  1.00
A_2    1.00  1.00 -1.00
E      2.00 -1.00  0.00

     the symmetry operations in each class and the name of the first element:

     E        1
          identity                                               
     2C3      2    3
          120 deg rotation - cryst. axis [0,0,1]                 
     3s_v     4    5    6
          inv. 180 deg rotation - cart. axis [1,0,0]             

   Cartesian axes

     site n.     atom                  positions (alat units)
         1        Co     tau(   1) = (   0.0000000   0.0000000   0.0000000  )
         2        O      tau(   2) = (  -0.0000000   0.5773503   0.3324100  )
         3        O      tau(   3) = (   0.5000000   0.2886751   1.5720222  )
         4        Na     tau(   4) = (  -0.0000000   0.5773503   0.9522161  )

   Crystallographic axes

     site n.     atom                  positions (cryst. coord.)
         1        Co     tau(   1) = (  0.0000000  0.0000000  0.0000000  )
         2        O      tau(   2) = (  0.3333333  0.6666667  0.1745455  )
         3        O      tau(   3) = (  0.6666667  0.3333333  0.8254545  )
         4        Na     tau(   4) = (  0.3333333  0.6666667  0.5000000  )

     number of k points=    25  Marzari-Vanderbilt smearing, width (Ry)=  0.0200
                       cart. coord. in units 2pi/alat
        k(    1) = (   0.0000000   0.0000000   0.0000000), wk =   0.0052083
        k(    2) = (   0.0000000   0.0000000   0.1750303), wk =   0.0104167
        k(    3) = (   0.0000000   0.1443376   0.0000000), wk =   0.0312500
        k(    4) = (   0.0000000   0.1443376   0.1750303), wk =   0.0312500
        k(    5) = (   0.0000000   0.2886751   0.0000000), wk =   0.0312500
        k(    6) = (   0.0000000   0.2886751   0.1750303), wk =   0.0312500
        k(    7) = (   0.0000000   0.4330127   0.0000000), wk =   0.0312500
        k(    8) = (   0.0000000   0.4330127   0.1750303), wk =   0.0312500
        k(    9) = (   0.0000000  -0.5773503   0.0000000), wk =   0.0156250
        k(   10) = (   0.0000000  -0.5773503   0.1750303), wk =   0.0312500
        k(   11) = (   0.1250000   0.2165064   0.0000000), wk =   0.0312500
        k(   12) = (   0.1250000   0.2165064   0.1750303), wk =   0.0625000
        k(   13) = (   0.1250000   0.3608439   0.0000000), wk =   0.0625000
        k(   14) = (   0.1250000   0.3608439   0.1750303), wk =   0.0625000
        k(   15) = (   0.1250000   0.5051815   0.0000000), wk =   0.0625000
        k(   16) = (   0.1250000   0.5051815   0.1750303), wk =   0.0625000
        k(   17) = (   0.2500000   0.4330127   0.0000000), wk =   0.0312500
        k(   18) = (   0.2500000   0.4330127   0.1750303), wk =   0.0625000
        k(   19) = (   0.2500000   0.5773503   0.0000000), wk =   0.0312500
        k(   20) = (   0.2500000   0.5773503   0.1750303), wk =   0.0625000
        k(   21) = (   0.0000000  -0.1443376   0.1750303), wk =   0.0312500
        k(   22) = (   0.0000000  -0.2886751   0.1750303), wk =   0.0312500
        k(   23) = (   0.0000000  -0.4330127   0.1750303), wk =   0.0312500
        k(   24) = (  -0.1250000  -0.3608439   0.1750303), wk =   0.0625000
        k(   25) = (  -0.1250000  -0.5051815   0.1750303), wk =   0.0625000

                       cryst. coord.
        k(    1) = (   0.0000000   0.0000000   0.0000000), wk =   0.0052083
        k(    2) = (   0.0000000   0.0000000   0.3333333), wk =   0.0104167
        k(    3) = (   0.0000000   0.1250000   0.0000000), wk =   0.0312500
        k(    4) = (   0.0000000   0.1250000   0.3333333), wk =   0.0312500
        k(    5) = (   0.0000000   0.2500000   0.0000000), wk =   0.0312500
        k(    6) = (   0.0000000   0.2500000   0.3333333), wk =   0.0312500
        k(    7) = (   0.0000000   0.3750000   0.0000000), wk =   0.0312500
        k(    8) = (   0.0000000   0.3750000   0.3333333), wk =   0.0312500
        k(    9) = (   0.0000000  -0.5000000   0.0000000), wk =   0.0156250
        k(   10) = (   0.0000000  -0.5000000   0.3333333), wk =   0.0312500
        k(   11) = (   0.1250000   0.1250000   0.0000000), wk =   0.0312500
        k(   12) = (   0.1250000   0.1250000   0.3333333), wk =   0.0625000
        k(   13) = (   0.1250000   0.2500000   0.0000000), wk =   0.0625000
        k(   14) = (   0.1250000   0.2500000   0.3333333), wk =   0.0625000
        k(   15) = (   0.1250000   0.3750000   0.0000000), wk =   0.0625000
        k(   16) = (   0.1250000   0.3750000   0.3333333), wk =   0.0625000
        k(   17) = (   0.2500000   0.2500000   0.0000000), wk =   0.0312500
        k(   18) = (   0.2500000   0.2500000   0.3333333), wk =   0.0625000
        k(   19) = (   0.2500000   0.3750000   0.0000000), wk =   0.0312500
        k(   20) = (   0.2500000   0.3750000   0.3333333), wk =   0.0625000
        k(   21) = (   0.0000000  -0.1250000   0.3333333), wk =   0.0312500
        k(   22) = (   0.0000000  -0.2500000   0.3333333), wk =   0.0312500
        k(   23) = (   0.0000000  -0.3750000   0.3333333), wk =   0.0312500
        k(   24) = (  -0.1250000  -0.2500000   0.3333333), wk =   0.0625000
        k(   25) = (  -0.1250000  -0.3750000   0.3333333), wk =   0.0625000

     Dense  grid:    47419 G-vectors     FFT dimensions: (  40,  40,  75)

     Smooth grid:    16845 G-vectors     FFT dimensions: (  27,  27,  54)

     Dynamical RAM for                 wfc:       0.87 MB

     Dynamical RAM for     wfc (w. buffer):      44.21 MB

     Dynamical RAM for           str. fact:       2.17 MB

     Dynamical RAM for           local pot:       0.00 MB

     Dynamical RAM for          nlocal pot:       1.35 MB

     Dynamical RAM for                qrad:       5.27 MB

     Dynamical RAM for          rho,v,vnew:       9.83 MB

     Dynamical RAM for               rhoin:       3.28 MB

     Dynamical RAM for            rho*nmix:      23.15 MB

     Dynamical RAM for           G-vectors:       2.84 MB

     Dynamical RAM for          h,s,v(r/c):       0.13 MB

     Dynamical RAM for          <psi|beta>:       0.02 MB

     Dynamical RAM for                 psi:       1.73 MB

     Dynamical RAM for                hpsi:       1.73 MB

     Dynamical RAM for                spsi:       1.73 MB

     Dynamical RAM for      wfcinit/wfcrot:       1.75 MB

     Dynamical RAM for           addusdens:     136.75 MB

     Dynamical RAM for          addusforce:     138.21 MB

     Estimated static dynamical RAM per process >      77.34 MB

     Estimated max dynamical RAM per process >     238.71 MB

     Check: negative core charge=   -0.000009
     Generating pointlists ...
     new r_m :   0.2748 (alat units)  1.4998 (a.u.) for type    1
     new r_m :   0.2557 (alat units)  1.3953 (a.u.) for type    2
     new r_m :   0.2557 (alat units)  1.3953 (a.u.) for type    3

     Initial potential from superposition of free atoms

     starting charge      37.9934, renormalised to      38.0000
     Starting wfcs are   23 randomized atomic wfcs +    4 random wfcs
     Checking if some PAW data can be deallocated... 

     total cpu time spent up to now is        2.8 secs

     Self-consistent Calculation
[tb_dev] Currently allocated     6.54E-01 Mbytes, locked:    0 /   6
[tb_pin] Currently allocated     0.00E+00 Mbytes, locked:    0 /   0

     iteration #  1     ecut=    60.00 Ry     beta= 0.30
     Davidson diagonalization with overlap

---- Real-time Memory Report at c_bands before calling an iterative solver
           651 MiB given to the printing process from OS
             0 MiB allocation reported by mallinfo(arena+hblkhd)
        852879 MiB available memory on the node where the printing process lives
     GPU memory used/free/total (MiB): 924 / 80226 / 81151
------------------
     ethr =  1.00E-02,  avg # of iterations =  9.8

     total cpu time spent up to now is        4.8 secs

     total energy              =    -568.77839124 Ry
     estimated scf accuracy    <       1.45954767 Ry

     total magnetization       =     4.00 Bohr mag/cell
     absolute magnetization    =     4.00 Bohr mag/cell
[tb_dev] Currently allocated     3.05E-05 Mbytes, locked:    0 /   2
[tb_pin] Currently allocated     0.00E+00 Mbytes, locked:    0 /   0

     iteration #  2     ecut=    60.00 Ry     beta= 0.30
     Davidson diagonalization with overlap

---- Real-time Memory Report at c_bands before calling an iterative solver
           692 MiB given to the printing process from OS
             0 MiB allocation reported by mallinfo(arena+hblkhd)
        852411 MiB available memory on the node where the printing process lives
     GPU memory used/free/total (MiB): 936 / 80214 / 81151
------------------
     ethr =  3.84E-03,  avg # of iterations =  2.1

     total cpu time spent up to now is        5.9 secs

     total energy              =    -568.91330748 Ry
     estimated scf accuracy    <       1.94931684 Ry

     total magnetization       =     1.07 Bohr mag/cell
     absolute magnetization    =     1.37 Bohr mag/cell
[tb_dev] Currently allocated     3.05E-05 Mbytes, locked:    0 /   2
[tb_pin] Currently allocated     0.00E+00 Mbytes, locked:    0 /   0

     iteration #  3     ecut=    60.00 Ry     beta= 0.30
     Davidson diagonalization with overlap

---- Real-time Memory Report at c_bands before calling an iterative solver
           695 MiB given to the printing process from OS
             0 MiB allocation reported by mallinfo(arena+hblkhd)
        852405 MiB available memory on the node where the printing process lives
     GPU memory used/free/total (MiB): 936 / 80214 / 81151
------------------
     ethr =  3.84E-03,  avg # of iterations =  1.0

     total cpu time spent up to now is        6.9 secs

     total energy              =    -569.13134263 Ry
     estimated scf accuracy    <       0.17347304 Ry

     total magnetization       =     3.72 Bohr mag/cell
     absolute magnetization    =     3.72 Bohr mag/cell
[tb_dev] Currently allocated     3.05E-05 Mbytes, locked:    0 /   2
[tb_pin] Currently allocated     0.00E+00 Mbytes, locked:    0 /   0

     iteration #  4     ecut=    60.00 Ry     beta= 0.30
     Davidson diagonalization with overlap

---- Real-time Memory Report at c_bands before calling an iterative solver
           696 MiB given to the printing process from OS
             0 MiB allocation reported by mallinfo(arena+hblkhd)
        852388 MiB available memory on the node where the printing process lives
     GPU memory used/free/total (MiB): 936 / 80214 / 81151
------------------
     ethr =  4.57E-04,  avg # of iterations =  4.5

     total cpu time spent up to now is        8.2 secs

     total energy              =    -569.19327545 Ry
     estimated scf accuracy    <       0.17034703 Ry

     total magnetization       =     2.31 Bohr mag/cell
     absolute magnetization    =     2.32 Bohr mag/cell
[tb_dev] Currently allocated     3.05E-05 Mbytes, locked:    0 /   2
[tb_pin] Currently allocated     0.00E+00 Mbytes, locked:    0 /   0

     iteration #  5     ecut=    60.00 Ry     beta= 0.30
     Davidson diagonalization with overlap

---- Real-time Memory Report at c_bands before calling an iterative solver
           697 MiB given to the printing process from OS
             0 MiB allocation reported by mallinfo(arena+hblkhd)
        852365 MiB available memory on the node where the printing process lives
     GPU memory used/free/total (MiB): 936 / 80214 / 81151
------------------
     ethr =  4.48E-04,  avg # of iterations =  1.3

     total cpu time spent up to now is        9.2 secs

     total energy              =    -569.21243153 Ry
     estimated scf accuracy    <       0.12701634 Ry

     total magnetization       =     2.20 Bohr mag/cell
     absolute magnetization    =     2.22 Bohr mag/cell
[tb_dev] Currently allocated     3.05E-05 Mbytes, locked:    0 /   2
[tb_pin] Currently allocated     0.00E+00 Mbytes, locked:    0 /   0

     iteration #  6     ecut=    60.00 Ry     beta= 0.30
     Davidson diagonalization with overlap

---- Real-time Memory Report at c_bands before calling an iterative solver
           698 MiB given to the printing process from OS
             0 MiB allocation reported by mallinfo(arena+hblkhd)
        852398 MiB available memory on the node where the printing process lives
     GPU memory used/free/total (MiB): 936 / 80214 / 81151
------------------
     ethr =  3.34E-04,  avg # of iterations =  1.4

     total cpu time spent up to now is       10.2 secs

     total energy              =    -569.23836463 Ry
     estimated scf accuracy    <       0.10022679 Ry

     total magnetization       =     1.30 Bohr mag/cell
     absolute magnetization    =     1.44 Bohr mag/cell
[tb_dev] Currently allocated     3.05E-05 Mbytes, locked:    0 /   2
[tb_pin] Currently allocated     0.00E+00 Mbytes, locked:    0 /   0

     iteration #  7     ecut=    60.00 Ry     beta= 0.30
     Davidson diagonalization with overlap

---- Real-time Memory Report at c_bands before calling an iterative solver
           699 MiB given to the printing process from OS
             0 MiB allocation reported by mallinfo(arena+hblkhd)
        852389 MiB available memory on the node where the printing process lives
     GPU memory used/free/total (MiB): 936 / 80214 / 81151
------------------
     ethr =  2.64E-04,  avg # of iterations =  1.1

     total cpu time spent up to now is       11.2 secs

     total energy              =    -569.20985853 Ry
     estimated scf accuracy    <       0.09931341 Ry

     total magnetization       =     0.61 Bohr mag/cell
     absolute magnetization    =     0.93 Bohr mag/cell
[tb_dev] Currently allocated     3.05E-05 Mbytes, locked:    0 /   2
[tb_pin] Currently allocated     0.00E+00 Mbytes, locked:    0 /   0

     iteration #  8     ecut=    60.00 Ry     beta= 0.30
     Davidson diagonalization with overlap

---- Real-time Memory Report at c_bands before calling an iterative solver
           700 MiB given to the printing process from OS
             0 MiB allocation reported by mallinfo(arena+hblkhd)
        852371 MiB available memory on the node where the printing process lives
     GPU memory used/free/total (MiB): 936 / 80214 / 81151
------------------
     ethr =  2.61E-04,  avg # of iterations =  1.1

     total cpu time spent up to now is       12.2 secs

     total energy              =    -569.16303599 Ry
     estimated scf accuracy    <       0.05927364 Ry

     total magnetization       =     1.68 Bohr mag/cell
     absolute magnetization    =     1.75 Bohr mag/cell
[tb_dev] Currently allocated     3.05E-05 Mbytes, locked:    0 /   2
[tb_pin] Currently allocated     0.00E+00 Mbytes, locked:    0 /   0

     iteration #  9     ecut=    60.00 Ry     beta= 0.30
     Davidson diagonalization with overlap

---- Real-time Memory Report at c_bands before calling an iterative solver
           701 MiB given to the printing process from OS
             0 MiB allocation reported by mallinfo(arena+hblkhd)
        852361 MiB available memory on the node where the printing process lives
     GPU memory used/free/total (MiB): 936 / 80214 / 81151
------------------
     ethr =  1.56E-04,  avg # of iterations =  1.8

     total cpu time spent up to now is       13.3 secs

     total energy              =    -569.17983545 Ry
     estimated scf accuracy    <       0.05184297 Ry

     total magnetization       =     3.07 Bohr mag/cell
     absolute magnetization    =     3.09 Bohr mag/cell
[tb_dev] Currently allocated     3.05E-05 Mbytes, locked:    0 /   2
[tb_pin] Currently allocated     0.00E+00 Mbytes, locked:    0 /   0

     iteration # 10     ecut=    60.00 Ry     beta= 0.30
     Davidson diagonalization with overlap

---- Real-time Memory Report at c_bands before calling an iterative solver
           702 MiB given to the printing process from OS
             0 MiB allocation reported by mallinfo(arena+hblkhd)
        852335 MiB available memory on the node where the printing process lives
     GPU memory used/free/total (MiB): 936 / 80214 / 81151
------------------
     ethr =  1.36E-04,  avg # of iterations =  2.1

     total cpu time spent up to now is       14.4 secs

     total energy              =    -569.18684006 Ry
     estimated scf accuracy    <       0.05713905 Ry

     total magnetization       =     0.32 Bohr mag/cell
     absolute magnetization    =     0.74 Bohr mag/cell
[tb_dev] Currently allocated     3.05E-05 Mbytes, locked:    0 /   2
[tb_pin] Currently allocated     0.00E+00 Mbytes, locked:    0 /   0

     iteration # 11     ecut=    60.00 Ry     beta= 0.30
     Davidson diagonalization with overlap

---- Real-time Memory Report at c_bands before calling an iterative solver
           702 MiB given to the printing process from OS
             0 MiB allocation reported by mallinfo(arena+hblkhd)
        852316 MiB available memory on the node where the printing process lives
     GPU memory used/free/total (MiB): 936 / 80214 / 81151
------------------
     ethr =  1.36E-04,  avg # of iterations =  1.1

     negative rho (up, down):  4.305E-04 0.000E+00

     total cpu time spent up to now is       15.4 secs

     total energy              =    -567.98347980 Ry
     estimated scf accuracy    <       0.04311232 Ry

     total magnetization       =     2.31 Bohr mag/cell
     absolute magnetization    =     2.33 Bohr mag/cell
[tb_dev] Currently allocated     3.05E-05 Mbytes, locked:    0 /   2
[tb_pin] Currently allocated     0.00E+00 Mbytes, locked:    0 /   0

     iteration # 12     ecut=    60.00 Ry     beta= 0.30
     Davidson diagonalization with overlap

---- Real-time Memory Report at c_bands before calling an iterative solver
           702 MiB given to the printing process from OS
             0 MiB allocation reported by mallinfo(arena+hblkhd)
        852299 MiB available memory on the node where the printing process lives
     GPU memory used/free/total (MiB): 936 / 80214 / 81151
------------------
     ethr =  1.13E-04,  avg # of iterations =  8.6

     negative rho (up, down):  3.131E-02 0.000E+00

     total cpu time spent up to now is       17.3 secs

     total energy              =    -569.52876111 Ry
     estimated scf accuracy    <       4.21599767 Ry

     total magnetization       =    -4.71 Bohr mag/cell
     absolute magnetization    =     4.83 Bohr mag/cell
[tb_dev] Currently allocated     3.05E-05 Mbytes, locked:    0 /   2
[tb_pin] Currently allocated     0.00E+00 Mbytes, locked:    0 /   0

     iteration # 13     ecut=    60.00 Ry     beta= 0.30
     Davidson diagonalization with overlap

---- Real-time Memory Report at c_bands before calling an iterative solver
           703 MiB given to the printing process from OS
             0 MiB allocation reported by mallinfo(arena+hblkhd)
        852279 MiB available memory on the node where the printing process lives
     GPU memory used/free/total (MiB): 936 / 80214 / 81151
------------------
     ethr =  1.13E-04,  avg # of iterations =  3.6

     total cpu time spent up to now is       18.6 secs

     total energy              =    -568.99734665 Ry
     estimated scf accuracy    <       5.65766979 Ry

     total magnetization       =    -5.04 Bohr mag/cell
     absolute magnetization    =     5.07 Bohr mag/cell
[tb_dev] Currently allocated     3.05E-05 Mbytes, locked:    0 /   2
[tb_pin] Currently allocated     0.00E+00 Mbytes, locked:    0 /   0

     iteration # 14     ecut=    60.00 Ry     beta= 0.30
     Davidson diagonalization with overlap

---- Real-time Memory Report at c_bands before calling an iterative solver
           703 MiB given to the printing process from OS
             0 MiB allocation reported by mallinfo(arena+hblkhd)
        852267 MiB available memory on the node where the printing process lives
     GPU memory used/free/total (MiB): 936 / 80214 / 81151
------------------
     ethr =  1.13E-04,  avg # of iterations =  6.2

     total cpu time spent up to now is       20.2 secs

     total energy              =    -568.74757747 Ry
     estimated scf accuracy    <       0.69586820 Ry

     total magnetization       =    -2.09 Bohr mag/cell
     absolute magnetization    =     2.12 Bohr mag/cell
[tb_dev] Currently allocated     3.05E-05 Mbytes, locked:    0 /   2
[tb_pin] Currently allocated     0.00E+00 Mbytes, locked:    0 /   0

     iteration # 15     ecut=    60.00 Ry     beta= 0.30
     Davidson diagonalization with overlap

---- Real-time Memory Report at c_bands before calling an iterative solver
           703 MiB given to the printing process from OS
             0 MiB allocation reported by mallinfo(arena+hblkhd)
        852251 MiB available memory on the node where the printing process lives
     GPU memory used/free/total (MiB): 936 / 80214 / 81151
------------------
     ethr =  1.13E-04,  avg # of iterations =  5.9

     total cpu time spent up to now is       21.8 secs

     total energy              =    -569.21337887 Ry
     estimated scf accuracy    <       0.10040057 Ry

     total magnetization       =     1.28 Bohr mag/cell
     absolute magnetization    =     1.41 Bohr mag/cell
[tb_dev] Currently allocated     3.05E-05 Mbytes, locked:    0 /   2
[tb_pin] Currently allocated     0.00E+00 Mbytes, locked:    0 /   0

     iteration # 16     ecut=    60.00 Ry     beta= 0.30
     Davidson diagonalization with overlap

---- Real-time Memory Report at c_bands before calling an iterative solver
           703 MiB given to the printing process from OS
             0 MiB allocation reported by mallinfo(arena+hblkhd)
        852269 MiB available memory on the node where the printing process lives
     GPU memory used/free/total (MiB): 936 / 80214 / 81151
------------------
     ethr =  1.13E-04,  avg # of iterations =  1.7

     total cpu time spent up to now is       22.8 secs

     total energy              =    -569.20293250 Ry
     estimated scf accuracy    <       0.14604110 Ry

     total magnetization       =     1.74 Bohr mag/cell
     absolute magnetization    =     1.82 Bohr mag/cell
[tb_dev] Currently allocated     3.05E-05 Mbytes, locked:    0 /   2
[tb_pin] Currently allocated     0.00E+00 Mbytes, locked:    0 /   0

     iteration # 17     ecut=    60.00 Ry     beta= 0.30
     Davidson diagonalization with overlap

---- Real-time Memory Report at c_bands before calling an iterative solver
           703 MiB given to the printing process from OS
             0 MiB allocation reported by mallinfo(arena+hblkhd)
        852270 MiB available memory on the node where the printing process lives
     GPU memory used/free/total (MiB): 936 / 80214 / 81151
------------------
     ethr =  1.13E-04,  avg # of iterations =  1.4

     total cpu time spent up to now is       23.8 secs

     total energy              =    -569.18880273 Ry
     estimated scf accuracy    <       0.13954846 Ry

     total magnetization       =     2.25 Bohr mag/cell
     absolute magnetization    =     2.30 Bohr mag/cell
[tb_dev] Currently allocated     3.05E-05 Mbytes, locked:    0 /   2
[tb_pin] Currently allocated     0.00E+00 Mbytes, locked:    0 /   0

     iteration # 18     ecut=    60.00 Ry     beta= 0.30
     Davidson diagonalization with overlap

---- Real-time Memory Report at c_bands before calling an iterative solver
           703 MiB given to the printing process from OS
             0 MiB allocation reported by mallinfo(arena+hblkhd)
        852253 MiB available memory on the node where the printing process lives
     GPU memory used/free/total (MiB): 936 / 80214 / 81151
------------------
     ethr =  1.13E-04,  avg # of iterations =  1.4

     total cpu time spent up to now is       24.8 secs

     total energy              =    -569.19169334 Ry
     estimated scf accuracy    <       0.11072640 Ry

     total magnetization       =     2.73 Bohr mag/cell
     absolute magnetization    =     2.77 Bohr mag/cell
[tb_dev] Currently allocated     3.05E-05 Mbytes, locked:    0 /   2
[tb_pin] Currently allocated     0.00E+00 Mbytes, locked:    0 /   0

     iteration # 19     ecut=    60.00 Ry     beta= 0.30
     Davidson diagonalization with overlap

---- Real-time Memory Report at c_bands before calling an iterative solver
           703 MiB given to the printing process from OS
             0 MiB allocation reported by mallinfo(arena+hblkhd)
        852255 MiB available memory on the node where the printing process lives
     GPU memory used/free/total (MiB): 936 / 80214 / 81151
------------------
     ethr =  1.13E-04,  avg # of iterations =  2.3

     total cpu time spent up to now is       25.9 secs

     total energy              =    -569.26472592 Ry
     estimated scf accuracy    <       0.08827788 Ry

     total magnetization       =     0.37 Bohr mag/cell
     absolute magnetization    =     0.75 Bohr mag/cell
[tb_dev] Currently allocated     3.05E-05 Mbytes, locked:    0 /   2
[tb_pin] Currently allocated     0.00E+00 Mbytes, locked:    0 /   0

     iteration # 20     ecut=    60.00 Ry     beta= 0.30
     Davidson diagonalization with overlap

---- Real-time Memory Report at c_bands before calling an iterative solver
           703 MiB given to the printing process from OS
             0 MiB allocation reported by mallinfo(arena+hblkhd)
        852238 MiB available memory on the node where the printing process lives
     GPU memory used/free/total (MiB): 936 / 80214 / 81151
------------------
     ethr =  1.13E-04,  avg # of iterations =  3.2
     Minimization algorithm failed to find Fermi energy: reverting to bisection
     Possible cause: smearing is larger than the electronic band-gap.

     total cpu time spent up to now is       27.1 secs

     total energy              =    -569.29066959 Ry
     estimated scf accuracy    <       0.01985733 Ry

     total magnetization       =     0.15 Bohr mag/cell
     absolute magnetization    =     0.27 Bohr mag/cell
[tb_dev] Currently allocated     3.05E-05 Mbytes, locked:    0 /   2
[tb_pin] Currently allocated     0.00E+00 Mbytes, locked:    0 /   0

     iteration # 21     ecut=    60.00 Ry     beta= 0.30
     Davidson diagonalization with overlap

---- Real-time Memory Report at c_bands before calling an iterative solver
           703 MiB given to the printing process from OS
             0 MiB allocation reported by mallinfo(arena+hblkhd)
        852264 MiB available memory on the node where the printing process lives
     GPU memory used/free/total (MiB): 936 / 80214 / 81151
------------------
     ethr =  5.23E-05,  avg # of iterations =  1.4
     Minimization algorithm failed to find Fermi energy: reverting to bisection
     Possible cause: smearing is larger than the electronic band-gap.

     total cpu time spent up to now is       28.1 secs

     total energy              =    -569.27268676 Ry
     estimated scf accuracy    <       0.00472091 Ry

     total magnetization       =     0.17 Bohr mag/cell
     absolute magnetization    =     0.28 Bohr mag/cell
[tb_dev] Currently allocated     3.05E-05 Mbytes, locked:    0 /   2
[tb_pin] Currently allocated     0.00E+00 Mbytes, locked:    0 /   0

     iteration # 22     ecut=    60.00 Ry     beta= 0.30
     Davidson diagonalization with overlap

---- Real-time Memory Report at c_bands before calling an iterative solver
           703 MiB given to the printing process from OS
             0 MiB allocation reported by mallinfo(arena+hblkhd)
        852265 MiB available memory on the node where the printing process lives
     GPU memory used/free/total (MiB): 936 / 80214 / 81151
------------------
     ethr =  1.24E-05,  avg # of iterations =  5.0

     total cpu time spent up to now is       29.5 secs

     total energy              =    -569.28745143 Ry
     estimated scf accuracy    <       0.06909434 Ry

     total magnetization       =    -0.02 Bohr mag/cell
     absolute magnetization    =     0.15 Bohr mag/cell
[tb_dev] Currently allocated     3.05E-05 Mbytes, locked:    0 /   2
[tb_pin] Currently allocated     0.00E+00 Mbytes, locked:    0 /   0

     iteration # 23     ecut=    60.00 Ry     beta= 0.30
     Davidson diagonalization with overlap

---- Real-time Memory Report at c_bands before calling an iterative solver
           703 MiB given to the printing process from OS
             0 MiB allocation reported by mallinfo(arena+hblkhd)
        852265 MiB available memory on the node where the printing process lives
     GPU memory used/free/total (MiB): 936 / 80214 / 81151
------------------
     ethr =  1.24E-05,  avg # of iterations =  3.5

     total cpu time spent up to now is       30.8 secs

     total energy              =    -569.26823349 Ry
     estimated scf accuracy    <       0.15657716 Ry

     total magnetization       =    -0.11 Bohr mag/cell
     absolute magnetization    =     0.23 Bohr mag/cell
[tb_dev] Currently allocated     3.05E-05 Mbytes, locked:    0 /   2
[tb_pin] Currently allocated     0.00E+00 Mbytes, locked:    0 /   0

     iteration # 24     ecut=    60.00 Ry     beta= 0.30
     Davidson diagonalization with overlap

---- Real-time Memory Report at c_bands before calling an iterative solver
           703 MiB given to the printing process from OS
             0 MiB allocation reported by mallinfo(arena+hblkhd)
        852267 MiB available memory on the node where the printing process lives
     GPU memory used/free/total (MiB): 936 / 80214 / 81151
------------------
     ethr =  1.24E-05,  avg # of iterations =  3.8

     total cpu time spent up to now is       32.1 secs

     total energy              =    -569.27476608 Ry
     estimated scf accuracy    <       0.34561762 Ry

     total magnetization       =    -1.40 Bohr mag/cell
     absolute magnetization    =     1.42 Bohr mag/cell
[tb_dev] Currently allocated     3.05E-05 Mbytes, locked:    0 /   2
[tb_pin] Currently allocated     0.00E+00 Mbytes, locked:    0 /   0

     iteration # 25     ecut=    60.00 Ry     beta= 0.30
     Davidson diagonalization with overlap

---- Real-time Memory Report at c_bands before calling an iterative solver
           703 MiB given to the printing process from OS
             0 MiB allocation reported by mallinfo(arena+hblkhd)
        852270 MiB available memory on the node where the printing process lives
     GPU memory used/free/total (MiB): 936 / 80214 / 81151
------------------
     ethr =  1.24E-05,  avg # of iterations =  1.8

     total cpu time spent up to now is       33.1 secs

     total energy              =    -569.26103046 Ry
     estimated scf accuracy    <       0.19902020 Ry

     total magnetization       =    -0.21 Bohr mag/cell
     absolute magnetization    =     0.34 Bohr mag/cell
[tb_dev] Currently allocated     3.05E-05 Mbytes, locked:    0 /   2
[tb_pin] Currently allocated     0.00E+00 Mbytes, locked:    0 /   0

     iteration # 26     ecut=    60.00 Ry     beta= 0.30
     Davidson diagonalization with overlap

---- Real-time Memory Report at c_bands before calling an iterative solver
           703 MiB given to the printing process from OS
             0 MiB allocation reported by mallinfo(arena+hblkhd)
        852268 MiB available memory on the node where the printing process lives
     GPU memory used/free/total (MiB): 936 / 80214 / 81151
------------------
     ethr =  1.24E-05,  avg # of iterations =  3.6

     total cpu time spent up to now is       34.3 secs

     total energy              =    -569.25534196 Ry
     estimated scf accuracy    <       0.64665629 Ry

     total magnetization       =    -2.63 Bohr mag/cell
     absolute magnetization    =     2.64 Bohr mag/cell
[tb_dev] Currently allocated     3.05E-05 Mbytes, locked:    0 /   2
[tb_pin] Currently allocated     0.00E+00 Mbytes, locked:    0 /   0

     iteration # 27     ecut=    60.00 Ry     beta= 0.30
     Davidson diagonalization with overlap

---- Real-time Memory Report at c_bands before calling an iterative solver
           703 MiB given to the printing process from OS
             0 MiB allocation reported by mallinfo(arena+hblkhd)
        852269 MiB available memory on the node where the printing process lives
     GPU memory used/free/total (MiB): 936 / 80214 / 81151
------------------
     ethr =  1.24E-05,  avg # of iterations =  3.1

     total cpu time spent up to now is       35.5 secs

     total energy              =    -569.21801973 Ry
     estimated scf accuracy    <       0.25440603 Ry

     total magnetization       =    -0.69 Bohr mag/cell
     absolute magnetization    =     0.77 Bohr mag/cell
[tb_dev] Currently allocated     3.05E-05 Mbytes, locked:    0 /   2
[tb_pin] Currently allocated     0.00E+00 Mbytes, locked:    0 /   0

     iteration # 28     ecut=    60.00 Ry     beta= 0.30
     Davidson diagonalization with overlap

---- Real-time Memory Report at c_bands before calling an iterative solver
           703 MiB given to the printing process from OS
             0 MiB allocation reported by mallinfo(arena+hblkhd)
        852272 MiB available memory on the node where the printing process lives
     GPU memory used/free/total (MiB): 936 / 80214 / 81151
------------------
     ethr =  1.24E-05,  avg # of iterations =  5.8
     Minimization algorithm failed to find Fermi energy: reverting to bisection
     Possible cause: smearing is larger than the electronic band-gap.

     total cpu time spent up to now is       37.1 secs

     total energy              =    -569.29142658 Ry
     estimated scf accuracy    <       0.00663823 Ry

     total magnetization       =     0.06 Bohr mag/cell
     absolute magnetization    =     0.25 Bohr mag/cell
[tb_dev] Currently allocated     3.05E-05 Mbytes, locked:    0 /   2
[tb_pin] Currently allocated     0.00E+00 Mbytes, locked:    0 /   0

     iteration # 29     ecut=    60.00 Ry     beta= 0.30
     Davidson diagonalization with overlap

---- Real-time Memory Report at c_bands before calling an iterative solver
           703 MiB given to the printing process from OS
             0 MiB allocation reported by mallinfo(arena+hblkhd)
        852278 MiB available memory on the node where the printing process lives
     GPU memory used/free/total (MiB): 936 / 80214 / 81151
------------------
     ethr =  1.24E-05,  avg # of iterations =  1.1
     Minimization algorithm failed to find Fermi energy: reverting to bisection
     Possible cause: smearing is larger than the electronic band-gap.

     total cpu time spent up to now is       38.0 secs

     total energy              =    -569.29005742 Ry
     estimated scf accuracy    <       0.00526208 Ry

     total magnetization       =     0.10 Bohr mag/cell
     absolute magnetization    =     0.24 Bohr mag/cell
[tb_dev] Currently allocated     3.05E-05 Mbytes, locked:    0 /   2
[tb_pin] Currently allocated     0.00E+00 Mbytes, locked:    0 /   0

     iteration # 30     ecut=    60.00 Ry     beta= 0.30
     Davidson diagonalization with overlap

---- Real-time Memory Report at c_bands before calling an iterative solver
           703 MiB given to the printing process from OS
             0 MiB allocation reported by mallinfo(arena+hblkhd)
        852279 MiB available memory on the node where the printing process lives
     GPU memory used/free/total (MiB): 936 / 80214 / 81151
------------------
     ethr =  1.24E-05,  avg # of iterations =  1.0
     Minimization algorithm failed to find Fermi energy: reverting to bisection
     Possible cause: smearing is larger than the electronic band-gap.

     total cpu time spent up to now is       39.0 secs

     total energy              =    -569.29011534 Ry
     estimated scf accuracy    <       0.00910242 Ry

     total magnetization       =     0.05 Bohr mag/cell
     absolute magnetization    =     0.23 Bohr mag/cell
[tb_dev] Currently allocated     3.05E-05 Mbytes, locked:    0 /   2
[tb_pin] Currently allocated     0.00E+00 Mbytes, locked:    0 /   0

     iteration # 31     ecut=    60.00 Ry     beta= 0.30
     Davidson diagonalization with overlap

---- Real-time Memory Report at c_bands before calling an iterative solver
           703 MiB given to the printing process from OS
             0 MiB allocation reported by mallinfo(arena+hblkhd)
        852279 MiB available memory on the node where the printing process lives
     GPU memory used/free/total (MiB): 936 / 80214 / 81151
------------------
     ethr =  1.24E-05,  avg # of iterations =  1.0
     Minimization algorithm failed to find Fermi energy: reverting to bisection
     Possible cause: smearing is larger than the electronic band-gap.

     total cpu time spent up to now is       39.9 secs

     total energy              =    -569.28951675 Ry
     estimated scf accuracy    <       0.00921256 Ry

     total magnetization       =     0.05 Bohr mag/cell
     absolute magnetization    =     0.23 Bohr mag/cell
[tb_dev] Currently allocated     3.05E-05 Mbytes, locked:    0 /   2
[tb_pin] Currently allocated     0.00E+00 Mbytes, locked:    0 /   0

     iteration # 32     ecut=    60.00 Ry     beta= 0.30
     Davidson diagonalization with overlap

---- Real-time Memory Report at c_bands before calling an iterative solver
           703 MiB given to the printing process from OS
             0 MiB allocation reported by mallinfo(arena+hblkhd)
        852275 MiB available memory on the node where the printing process lives
     GPU memory used/free/total (MiB): 936 / 80214 / 81151
------------------
     ethr =  1.24E-05,  avg # of iterations =  1.0
     Minimization algorithm failed to find Fermi energy: reverting to bisection
     Possible cause: smearing is larger than the electronic band-gap.

     total cpu time spent up to now is       40.9 secs

     total energy              =    -569.28864901 Ry
     estimated scf accuracy    <       0.01074330 Ry

     total magnetization       =     0.04 Bohr mag/cell
     absolute magnetization    =     0.23 Bohr mag/cell
[tb_dev] Currently allocated     3.05E-05 Mbytes, locked:    0 /   2
[tb_pin] Currently allocated     0.00E+00 Mbytes, locked:    0 /   0

     iteration # 33     ecut=    60.00 Ry     beta= 0.30
     Davidson diagonalization with overlap

---- Real-time Memory Report at c_bands before calling an iterative solver
           703 MiB given to the printing process from OS
             0 MiB allocation reported by mallinfo(arena+hblkhd)
        852274 MiB available memory on the node where the printing process lives
     GPU memory used/free/total (MiB): 936 / 80214 / 81151
------------------
     ethr =  1.24E-05,  avg # of iterations =  1.0
     Minimization algorithm failed to find Fermi energy: reverting to bisection
     Possible cause: smearing is larger than the electronic band-gap.

     total cpu time spent up to now is       41.8 secs

     total energy              =    -569.28820857 Ry
     estimated scf accuracy    <       0.01307520 Ry

     total magnetization       =     0.03 Bohr mag/cell
     absolute magnetization    =     0.24 Bohr mag/cell
[tb_dev] Currently allocated     3.05E-05 Mbytes, locked:    0 /   2
[tb_pin] Currently allocated     0.00E+00 Mbytes, locked:    0 /   0

     iteration # 34     ecut=    60.00 Ry     beta= 0.30
     Davidson diagonalization with overlap

---- Real-time Memory Report at c_bands before calling an iterative solver
           703 MiB given to the printing process from OS
             0 MiB allocation reported by mallinfo(arena+hblkhd)
        852275 MiB available memory on the node where the printing process lives
     GPU memory used/free/total (MiB): 936 / 80214 / 81151
------------------
     ethr =  1.24E-05,  avg # of iterations =  1.0
     Minimization algorithm failed to find Fermi energy: reverting to bisection
     Possible cause: smearing is larger than the electronic band-gap.

     total cpu time spent up to now is       42.8 secs

     total energy              =    -569.28996789 Ry
     estimated scf accuracy    <       0.01422372 Ry

     total magnetization       =     0.02 Bohr mag/cell
     absolute magnetization    =     0.24 Bohr mag/cell
[tb_dev] Currently allocated     3.05E-05 Mbytes, locked:    0 /   2
[tb_pin] Currently allocated     0.00E+00 Mbytes, locked:    0 /   0

     iteration # 35     ecut=    60.00 Ry     beta= 0.30
     Davidson diagonalization with overlap

---- Real-time Memory Report at c_bands before calling an iterative solver
           703 MiB given to the printing process from OS
             0 MiB allocation reported by mallinfo(arena+hblkhd)
        852740 MiB available memory on the node where the printing process lives
     GPU memory used/free/total (MiB): 936 / 80214 / 81151
------------------
     ethr =  1.24E-05,  avg # of iterations =  1.0
     Minimization algorithm failed to find Fermi energy: reverting to bisection
     Possible cause: smearing is larger than the electronic band-gap.

     total cpu time spent up to now is       43.8 secs

     total energy              =    -569.29300686 Ry
     estimated scf accuracy    <       0.00950475 Ry

     total magnetization       =     0.05 Bohr mag/cell
     absolute magnetization    =     0.23 Bohr mag/cell
[tb_dev] Currently allocated     3.05E-05 Mbytes, locked:    0 /   2
[tb_pin] Currently allocated     0.00E+00 Mbytes, locked:    0 /   0

     iteration # 36     ecut=    60.00 Ry     beta= 0.30
     Davidson diagonalization with overlap

---- Real-time Memory Report at c_bands before calling an iterative solver
           703 MiB given to the printing process from OS
             0 MiB allocation reported by mallinfo(arena+hblkhd)
        852617 MiB available memory on the node where the printing process lives
     GPU memory used/free/total (MiB): 936 / 80214 / 81151
------------------
     ethr =  1.24E-05,  avg # of iterations =  1.4
     Minimization algorithm failed to find Fermi energy: reverting to bisection
     Possible cause: smearing is larger than the electronic band-gap.

     total cpu time spent up to now is       44.7 secs

     total energy              =    -569.29335467 Ry
     estimated scf accuracy    <       0.00019751 Ry

     total magnetization       =     0.15 Bohr mag/cell
     absolute magnetization    =     0.19 Bohr mag/cell
[tb_dev] Currently allocated     3.05E-05 Mbytes, locked:    0 /   2
[tb_pin] Currently allocated     0.00E+00 Mbytes, locked:    0 /   0

     iteration # 37     ecut=    60.00 Ry     beta= 0.30
     Davidson diagonalization with overlap

---- Real-time Memory Report at c_bands before calling an iterative solver
           703 MiB given to the printing process from OS
             0 MiB allocation reported by mallinfo(arena+hblkhd)
        852522 MiB available memory on the node where the printing process lives
     GPU memory used/free/total (MiB): 936 / 80214 / 81151
------------------
     c_bands:  1 eigenvalues not converged
     ethr =  5.20E-07,  avg # of iterations =  4.7
     Minimization algorithm failed to find Fermi energy: reverting to bisection
     Possible cause: smearing is larger than the electronic band-gap.

     total cpu time spent up to now is       46.1 secs

     total energy              =    -569.29349024 Ry
     estimated scf accuracy    <       0.00008131 Ry

     total magnetization       =     0.16 Bohr mag/cell
     absolute magnetization    =     0.18 Bohr mag/cell
[tb_dev] Currently allocated     3.05E-05 Mbytes, locked:    0 /   2
[tb_pin] Currently allocated     0.00E+00 Mbytes, locked:    0 /   0

     iteration # 38     ecut=    60.00 Ry     beta= 0.30
     Davidson diagonalization with overlap

---- Real-time Memory Report at c_bands before calling an iterative solver
           703 MiB given to the printing process from OS
             0 MiB allocation reported by mallinfo(arena+hblkhd)
        852408 MiB available memory on the node where the printing process lives
     GPU memory used/free/total (MiB): 936 / 80214 / 81151
------------------
     ethr =  2.14E-07,  avg # of iterations =  2.1
     Minimization algorithm failed to find Fermi energy: reverting to bisection
     Possible cause: smearing is larger than the electronic band-gap.

     total cpu time spent up to now is       47.2 secs

     total energy              =    -569.29352557 Ry
     estimated scf accuracy    <       0.00004544 Ry

     total magnetization       =     0.16 Bohr mag/cell
     absolute magnetization    =     0.17 Bohr mag/cell
[tb_dev] Currently allocated     3.05E-05 Mbytes, locked:    0 /   2
[tb_pin] Currently allocated     0.00E+00 Mbytes, locked:    0 /   0

     iteration # 39     ecut=    60.00 Ry     beta= 0.30
     Davidson diagonalization with overlap

---- Real-time Memory Report at c_bands before calling an iterative solver
           703 MiB given to the printing process from OS
             0 MiB allocation reported by mallinfo(arena+hblkhd)
        852202 MiB available memory on the node where the printing process lives
     GPU memory used/free/total (MiB): 936 / 80214 / 81151
------------------
     ethr =  1.20E-07,  avg # of iterations =  2.0
     Minimization algorithm failed to find Fermi energy: reverting to bisection
     Possible cause: smearing is larger than the electronic band-gap.

     total cpu time spent up to now is       48.2 secs

     total energy              =    -569.29354603 Ry
     estimated scf accuracy    <       0.00001500 Ry

     total magnetization       =     0.16 Bohr mag/cell
     absolute magnetization    =     0.17 Bohr mag/cell
[tb_dev] Currently allocated     3.05E-05 Mbytes, locked:    0 /   2
[tb_pin] Currently allocated     0.00E+00 Mbytes, locked:    0 /   0

     iteration # 40     ecut=    60.00 Ry     beta= 0.30
     Davidson diagonalization with overlap

---- Real-time Memory Report at c_bands before calling an iterative solver
           703 MiB given to the printing process from OS
             0 MiB allocation reported by mallinfo(arena+hblkhd)
        852180 MiB available memory on the node where the printing process lives
     GPU memory used/free/total (MiB): 936 / 80214 / 81151
------------------
     ethr =  3.95E-08,  avg # of iterations =  3.3
     Minimization algorithm failed to find Fermi energy: reverting to bisection
     Possible cause: smearing is larger than the electronic band-gap.

     total cpu time spent up to now is       49.5 secs

     total energy              =    -569.29355559 Ry
     estimated scf accuracy    <       0.00000613 Ry

     total magnetization       =     0.16 Bohr mag/cell
     absolute magnetization    =     0.17 Bohr mag/cell
[tb_dev] Currently allocated     3.05E-05 Mbytes, locked:    0 /   2
[tb_pin] Currently allocated     0.00E+00 Mbytes, locked:    0 /   0

     iteration # 41     ecut=    60.00 Ry     beta= 0.30
     Davidson diagonalization with overlap

---- Real-time Memory Report at c_bands before calling an iterative solver
           703 MiB given to the printing process from OS
             0 MiB allocation reported by mallinfo(arena+hblkhd)
        852167 MiB available memory on the node where the printing process lives
     GPU memory used/free/total (MiB): 936 / 80214 / 81151
------------------
     ethr =  1.61E-08,  avg # of iterations =  3.8
     Minimization algorithm failed to find Fermi energy: reverting to bisection
     Possible cause: smearing is larger than the electronic band-gap.

     total cpu time spent up to now is       50.7 secs

     total energy              =    -569.29356057 Ry
     estimated scf accuracy    <       0.00000137 Ry

     total magnetization       =     0.16 Bohr mag/cell
     absolute magnetization    =     0.17 Bohr mag/cell
[tb_dev] Currently allocated     3.05E-05 Mbytes, locked:    0 /   2
[tb_pin] Currently allocated     0.00E+00 Mbytes, locked:    0 /   0

     iteration # 42     ecut=    60.00 Ry     beta= 0.30
     Davidson diagonalization with overlap

---- Real-time Memory Report at c_bands before calling an iterative solver
           703 MiB given to the printing process from OS
             0 MiB allocation reported by mallinfo(arena+hblkhd)
        852163 MiB available memory on the node where the printing process lives
     GPU memory used/free/total (MiB): 936 / 80214 / 81151
------------------
     ethr =  3.60E-09,  avg # of iterations =  4.7
     Minimization algorithm failed to find Fermi energy: reverting to bisection
     Possible cause: smearing is larger than the electronic band-gap.

     total cpu time spent up to now is       52.1 secs

     total energy              =    -569.29356153 Ry
     estimated scf accuracy    <       0.00000070 Ry

     total magnetization       =     0.16 Bohr mag/cell
     absolute magnetization    =     0.17 Bohr mag/cell
[tb_dev] Currently allocated     3.05E-05 Mbytes, locked:    0 /   2
[tb_pin] Currently allocated     0.00E+00 Mbytes, locked:    0 /   0

     iteration # 43     ecut=    60.00 Ry     beta= 0.30
     Davidson diagonalization with overlap

---- Real-time Memory Report at c_bands before calling an iterative solver
           703 MiB given to the printing process from OS
             0 MiB allocation reported by mallinfo(arena+hblkhd)
        852123 MiB available memory on the node where the printing process lives
     GPU memory used/free/total (MiB): 936 / 80214 / 81151
------------------
     ethr =  1.83E-09,  avg # of iterations =  2.5
     Minimization algorithm failed to find Fermi energy: reverting to bisection
     Possible cause: smearing is larger than the electronic band-gap.

     total cpu time spent up to now is       53.2 secs

     total energy              =    -569.29356185 Ry
     estimated scf accuracy    <       0.00000026 Ry

     total magnetization       =     0.16 Bohr mag/cell
     absolute magnetization    =     0.17 Bohr mag/cell
[tb_dev] Currently allocated     3.05E-05 Mbytes, locked:    0 /   2
[tb_pin] Currently allocated     0.00E+00 Mbytes, locked:    0 /   0

     iteration # 44     ecut=    60.00 Ry     beta= 0.30
     Davidson diagonalization with overlap

---- Real-time Memory Report at c_bands before calling an iterative solver
           703 MiB given to the printing process from OS
             0 MiB allocation reported by mallinfo(arena+hblkhd)
        852117 MiB available memory on the node where the printing process lives
     GPU memory used/free/total (MiB): 936 / 80214 / 81151
------------------
     ethr =  6.82E-10,  avg # of iterations =  4.8
     Minimization algorithm failed to find Fermi energy: reverting to bisection
     Possible cause: smearing is larger than the electronic band-gap.

     total cpu time spent up to now is       54.6 secs

     total energy              =    -569.29356216 Ry
     estimated scf accuracy    <       0.00000004 Ry

     total magnetization       =     0.16 Bohr mag/cell
     absolute magnetization    =     0.17 Bohr mag/cell
[tb_dev] Currently allocated     3.05E-05 Mbytes, locked:    0 /   2
[tb_pin] Currently allocated     0.00E+00 Mbytes, locked:    0 /   0

     iteration # 45     ecut=    60.00 Ry     beta= 0.30
     Davidson diagonalization with overlap

---- Real-time Memory Report at c_bands before calling an iterative solver
           703 MiB given to the printing process from OS
             0 MiB allocation reported by mallinfo(arena+hblkhd)
        852123 MiB available memory on the node where the printing process lives
     GPU memory used/free/total (MiB): 936 / 80214 / 81151
------------------
     ethr =  1.13E-10,  avg # of iterations =  4.6
     Minimization algorithm failed to find Fermi energy: reverting to bisection
     Possible cause: smearing is larger than the electronic band-gap.

     total cpu time spent up to now is       56.0 secs

     total energy              =    -569.29356219 Ry
     estimated scf accuracy    <       0.00000002 Ry

     total magnetization       =     0.16 Bohr mag/cell
     absolute magnetization    =     0.17 Bohr mag/cell
[tb_dev] Currently allocated     3.05E-05 Mbytes, locked:    0 /   2
[tb_pin] Currently allocated     0.00E+00 Mbytes, locked:    0 /   0

     iteration # 46     ecut=    60.00 Ry     beta= 0.30
     Davidson diagonalization with overlap

---- Real-time Memory Report at c_bands before calling an iterative solver
           703 MiB given to the printing process from OS
             0 MiB allocation reported by mallinfo(arena+hblkhd)
        852110 MiB available memory on the node where the printing process lives
     GPU memory used/free/total (MiB): 936 / 80214 / 81151
------------------
     ethr =  4.61E-11,  avg # of iterations =  3.1
     Minimization algorithm failed to find Fermi energy: reverting to bisection
     Possible cause: smearing is larger than the electronic band-gap.
 
     Magnetic moment per site  (integrated on atomic sphere of radius R)
     atom   1 (R=0.275)  charge= 14.1652  magn=  0.1292
     atom   2 (R=0.256)  charge=  4.9930  magn=  0.0117
     atom   3 (R=0.256)  charge=  4.9441  magn=  0.0077
     atom   4 (R=0.256)  charge=  7.5628  magn=  0.0006

     total cpu time spent up to now is       57.1 secs

     End of self-consistent calculation

 ------ SPIN UP ------------


          k = 0.0000 0.0000 0.0000 (  2113 PWs)   bands (ev):

   -84.7459 -47.9964 -47.9964 -47.9926 -41.8325 -13.9240 -13.6731 -13.6731
    -9.6272  -7.6332   3.6604   5.0291   5.0291   7.7205   8.1512   8.1512
     9.2324   9.2324  10.1183  12.2288  12.5836  12.5836  17.8996  19.8861
    25.4870  26.9947  26.9947

     occupation numbers 
     1.0000   1.0000   1.0000   1.0000   1.0000   1.0000   1.0000   1.0000
     1.0000   1.0000   1.0000   1.0000   1.0000   1.0000   1.0000   1.0000
     1.0000   1.0000   1.0833   0.0000   0.0000   0.0000   0.0000   0.0000
     0.0000   0.0000   0.0000

          k = 0.0000 0.0000 0.1750 (  2114 PWs)   bands (ev):

   -84.7459 -47.9965 -47.9965 -47.9924 -41.8325 -13.9441 -13.6733 -13.6733
    -9.4515  -7.8298   4.0669   5.0237   5.0237   6.9066   8.1633   8.1633
     9.2318   9.2318  10.2151  12.5761  12.5761  13.0536  17.1475  19.9649
    25.4523  27.2929  27.2929

     occupation numbers 
     1.0000   1.0000   1.0000   1.0000   1.0000   1.0000   1.0000   1.0000
     1.0000   1.0000   1.0000   1.0000   1.0000   1.0000   1.0000   1.0000
     1.0000   1.0000   1.0459   0.0000   0.0000   0.0000   0.0000   0.0000
     0.0000   0.0000   0.0000

          k = 0.0000 0.1443 0.0000 (  2123 PWs)   bands (ev):

   -84.7452 -48.0050 -47.9986 -47.9913 -41.8272 -13.9098 -13.7209 -13.6831
    -9.4511  -7.6361   3.8959   4.7636   5.1225   7.1272   7.7003   7.9932
     9.4450   9.5984  10.1499  12.0860  12.4841  12.8706  18.5151  20.3156
    24.7929  25.5305  27.3362

     occupation numbers 
     1.0000   1.0000   1.0000   1.0000   1.0000   1.0000   1.0000   1.0000
     1.0000   1.0000   1.0000   1.0000   1.0000   1.0000   1.0000   1.0000
     1.0000   1.0003   1.0804   0.0000   0.0000   0.0000   0.0000   0.0000
     0.0000   0.0000   0.0000

          k = 0.0000 0.1443 0.1750 (  2102 PWs)   bands (ev):

   -84.7451 -48.0050 -47.9985 -47.9911 -41.8271 -13.9263 -13.7206 -13.6829
    -9.2915  -7.8117   4.2256   4.6916   5.1192   7.1769   7.4124   7.7061
     9.4317   9.5985  10.2848  11.8575  12.4812  13.6946  17.7392  20.6229
    24.7173  25.6695  26.6606

     occupation numbers 
     1.0000   1.0000   1.0000   1.0000   1.0000   1.0000   1.0000   1.0000
     1.0000   1.0000   1.0000   1.0000   1.0000   1.0000   1.0000   1.0000
     1.0000   1.0003   0.9547   0.0000   0.0000   0.0000   0.0000   0.0000
     0.0000   0.0000   0.0000

          k = 0.0000 0.2887 0.0000 (  2112 PWs)   bands (ev):

   -84.7433 -48.0257 -48.0035 -47.9881 -41.8142 -13.8753 -13.8333 -13.7067
    -8.9893  -7.6569   4.3010   4.5372   5.3422   5.6077   7.0959   8.0398
     9.5137   9.9114  10.1553  11.6005  12.3612  14.0826  19.5180  21.1490
    22.1646  24.8543  26.0731

     occupation numbers 
     1.0000   1.0000   1.0000   1.0000   1.0000   1.0000   1.0000   1.0000
     1.0000   1.0000   1.0000   1.0000   1.0000   1.0000   1.0000   1.0000
     1.0001   1.0265   1.0792   0.0000   0.0000   0.0000   0.0000   0.0000
     0.0000   0.0000   0.0000

          k = 0.0000 0.2887 0.1750 (  2100 PWs)   bands (ev):

   -84.7433 -48.0257 -48.0034 -47.9880 -41.8142 -13.8848 -13.8327 -13.7065
    -8.8746  -7.7755   4.1141   4.7494   5.3436   5.7332   7.0934   7.9106
     9.4778   9.9099  10.2529  11.2398  12.3645  14.6153  18.9383  21.3716
    22.5673  24.5410  25.4543

     occupation numbers 
     1.0000   1.0000   1.0000   1.0000   1.0000   1.0000   1.0000   1.0000
     1.0000   1.0000   1.0000   1.0000   1.0000   1.0000   1.0000   1.0000
     1.0000   1.0261   1.0039   0.0000   0.0000   0.0000   0.0000   0.0000
     0.0000   0.0000   0.0000

          k = 0.0000 0.4330 0.0000 (  2098 PWs)   bands (ev):

   -84.7414 -48.0464 -48.0084 -47.9848 -41.8012 -13.9427 -13.8404 -13.7299
    -8.4313  -7.7319   3.7166   4.6363   5.5170   5.5473   6.7735   7.3465
     9.3938   9.8542  10.0550  11.8212  12.3995  15.4697  19.2867  20.2816
    21.9758  24.0365  25.3157

     occupation numbers 
     1.0000   1.0000   1.0000   1.0000   1.0000   1.0000   1.0000   1.0000
     1.0000   1.0000   1.0000   1.0000   1.0000   1.0000   1.0000   1.0000
     1.0000   1.0145   1.0721   0.0000   0.0000   0.0000   0.0000   0.0000
     0.0000   0.0000   0.0000

          k = 0.0000 0.4330 0.1750 (  2109 PWs)   bands (ev):

   -84.7415 -48.0465 -48.0084 -47.9850 -41.8013 -13.9422 -13.8448 -13.7300
    -8.3805  -7.7763   3.6212   4.5410   5.5262   5.7116   6.7600   7.4959
     9.3773   9.8533  10.0667  11.6284  12.4058  15.5729  18.8880  20.4321
    22.6207  23.9574  25.5645

     occupation numbers 
     1.0000   1.0000   1.0000   1.0000   1.0000   1.0000   1.0000   1.0000
     1.0000   1.0000   1.0000   1.0000   1.0000   1.0000   1.0000   1.0000
     1.0000   1.0144   1.0753   0.0000   0.0000   0.0000   0.0000   0.0000
     0.0000   0.0000   0.0000

          k = 0.0000-0.5774 0.0000 (  2102 PWs)   bands (ev):

   -84.7407 -48.0551 -48.0104 -47.9835 -41.7959 -13.9873 -13.8262 -13.7395
    -8.0827  -7.8648   3.2904   4.6864   5.5543   5.9676   6.7204   6.8465
     9.2560   9.7570   9.9995  12.0342  12.4506  16.5888  17.9126  20.3941
    21.7284  24.0797  25.1617

     occupation numbers 
     1.0000   1.0000   1.0000   1.0000   1.0000   1.0000   1.0000   1.0000
     1.0000   1.0000   1.0000   1.0000   1.0000   1.0000   1.0000   1.0000
     1.0000   1.0041   1.0538   0.0000   0.0000   0.0000   0.0000   0.0000
     0.0000   0.0000   0.0000

          k = 0.0000-0.5774 0.1750 (  2116 PWs)   bands (ev):

   -84.7407 -48.0551 -48.0106 -47.9837 -41.7959 -13.9867 -13.8289 -13.7399
    -8.0681  -7.8704   3.2280   4.5895   5.5640   5.9729   6.7059   7.0952
     9.2462   9.7569   9.9890  12.0401  12.4558  16.1508  17.8128  21.1404
    22.0532  24.0783  25.3846

     occupation numbers 
     1.0000   1.0000   1.0000   1.0000   1.0000   1.0000   1.0000   1.0000
     1.0000   1.0000   1.0000   1.0000   1.0000   1.0000   1.0000   1.0000
     1.0000   1.0041   1.0502   0.0000   0.0000   0.0000   0.0000   0.0000
     0.0000   0.0000   0.0000

          k = 0.1250 0.2165 0.0000 (  2101 PWs)   bands (ev):

   -84.7438 -48.0187 -48.0029 -47.9890 -41.8180 -13.8852 -13.7954 -13.7048
    -9.1322  -7.6469   4.3015   4.5044   5.2188   6.1191   7.0183   8.1474
     9.5799   9.8996  10.1526  11.8276  12.1058  13.7877  19.3256  21.0379
    22.8333  25.1784  26.2889

     occupation numbers 
     1.0000   1.0000   1.0000   1.0000   1.0000   1.0000   1.0000   1.0000
     1.0000   1.0000   1.0000   1.0000   1.0000   1.0000   1.0000   1.0000
     1.0002   1.0236   1.0798   0.0000   0.0000   0.0000   0.0000   0.0000
     0.0000   0.0000   0.0000

          k = 0.1250 0.2165 0.1750 (  2101 PWs)   bands (ev):

   -84.7438 -48.0187 -48.0029 -47.9889 -41.8179 -13.8971 -13.7950 -13.7049
    -8.9979  -7.7896   4.2583   4.6604   5.2251   6.1970   7.0243   7.8729
     9.5794   9.8410  10.2454  11.5293  12.2268  14.2326  18.7824  21.5388
    22.9809  24.9982  25.2697

     occupation numbers 
     1.0000   1.0000   1.0000   1.0000   1.0000   1.0000   1.0000   1.0000
     1.0000   1.0000   1.0000   1.0000   1.0000   1.0000   1.0000   1.0000
     1.0002   1.0125   1.0137   0.0000   0.0000   0.0000   0.0000   0.0000
     0.0000   0.0000   0.0000

          k = 0.1250 0.3608 0.0000 (  2106 PWs)   bands (ev):

   -84.7420 -48.0373 -48.0100 -47.9858 -41.8050 -13.8942 -13.8508 -13.7402
    -8.6235  -7.6866   4.1846   4.6082   5.2764   5.5212   6.4805   7.7235
     9.5802   9.9489  10.1324  11.7390  12.0790  15.0211  19.8942  20.8411
    22.1028  23.9456  25.5468

     occupation numbers 
     1.0000   1.0000   1.0000   1.0000   1.0000   1.0000   1.0000   1.0000
     1.0000   1.0000   1.0000   1.0000   1.0000   1.0000   1.0000   1.0000
     1.0002   1.0370   1.0829   0.0000   0.0000   0.0000   0.0000   0.0000
     0.0000   0.0000   0.0000

          k = 0.1250 0.3608 0.1750 (  2102 PWs)   bands (ev):

   -84.7420 -48.0373 -48.0100 -47.9859 -41.8050 -13.8936 -13.8567 -13.7400
    -8.5407  -7.7669   4.0298   4.5648   5.4476   5.6178   6.4821   7.7409
     9.5744   9.9391  10.1199  11.5197  12.1424  15.1702  19.7430  20.6205
    22.8929  23.9243  25.1345

     occupation numbers 
     1.0000   1.0000   1.0000   1.0000   1.0000   1.0000   1.0000   1.0000
     1.0000   1.0000   1.0000   1.0000   1.0000   1.0000   1.0000   1.0000
     1.0002   1.0341   1.0833   0.0000   0.0000   0.0000   0.0000   0.0000
     0.0000   0.0000   0.0000

          k = 0.1250 0.5052 0.0000 (  2104 PWs)   bands (ev):

   -84.7407 -48.0504 -48.0152 -47.9835 -41.7959 -13.9617 -13.8263 -13.7657
    -8.1579  -7.7901   3.5827   4.5612   5.5940   5.8269   6.3077   6.9961
     9.3897   9.8222  10.1058  11.9455  12.1902  16.3386  18.5667  20.7671
    22.1162  23.8358  24.9961

     occupation numbers 
     1.0000   1.0000   1.0000   1.0000   1.0000   1.0000   1.0000   1.0000
     1.0000   1.0000   1.0000   1.0000   1.0000   1.0000   1.0000   1.0000
     1.0000   1.0099   1.0825   0.0000   0.0000   0.0000   0.0000   0.0000
     0.0000   0.0000   0.0000

          k = 0.1250 0.5052 0.1750 (  2107 PWs)   bands (ev):

   -84.7407 -48.0504 -48.0151 -47.9837 -41.7959 -13.9612 -13.8291 -13.7656
    -8.1369  -7.8027   3.5207   4.4707   5.5870   5.8741   6.3213   7.1685
     9.3783   9.8267  10.0882  11.9177  12.2260  16.1870  18.3017  21.1792
    22.5029  23.9499  25.1343

     occupation numbers 
     1.0000   1.0000   1.0000   1.0000   1.0000   1.0000   1.0000   1.0000
     1.0000   1.0000   1.0000   1.0000   1.0000   1.0000   1.0000   1.0000
     1.0000   1.0105   1.0801   0.0000   0.0000   0.0000   0.0000   0.0000
     0.0000   0.0000   0.0000

          k = 0.2500 0.4330 0.0000 (  2095 PWs)   bands (ev):

   -84.7407 -48.0438 -48.0215 -47.9835 -41.7959 -13.9262 -13.8265 -13.8011
    -8.2103  -7.7382   4.1309   4.3313   5.2497   5.8308   6.0396   7.1394
     9.4853   9.8680  10.2448  11.7711  12.0062  16.1899  19.1337  21.2812
    22.6215  23.2726  25.0038

     occupation numbers 
     1.0000   1.0000   1.0000   1.0000   1.0000   1.0000   1.0000   1.0000
     1.0000   1.0000   1.0000   1.0000   1.0000   1.0000   1.0000   1.0000
     1.0000   1.0170   1.0145   0.0000   0.0000   0.0000   0.0000   0.0000
     0.0000   0.0000   0.0000

          k = 0.2500 0.4330 0.1750 (  2101 PWs)   bands (ev):

   -84.7407 -48.0438 -48.0215 -47.9837 -41.7959 -13.9257 -13.8298 -13.8010
    -8.1626  -7.7793   4.1049   4.1983   5.2489   5.9668   6.0738   7.1610
     9.4910   9.8747  10.1899  11.8608  12.0048  16.0026  19.0841  21.5699
    22.7361  23.6443  24.5614

     occupation numbers 
     1.0000   1.0000   1.0000   1.0000   1.0000   1.0000   1.0000   1.0000
     1.0000   1.0000   1.0000   1.0000   1.0000   1.0000   1.0000   1.0000
     1.0000   1.0182   1.0646   0.0000   0.0000   0.0000   0.0000   0.0000
     0.0000   0.0000   0.0000

          k = 0.2500 0.5774 0.0000 (  2102 PWs)   bands (ev):

   -84.7402 -48.0444 -48.0285 -47.9827 -41.7921 -13.9271 -13.8390 -13.8164
    -7.9930  -7.7966   3.9813   4.4174   4.9816   6.0027   6.3122   6.6102
     9.2956  10.0143  10.1987  11.8462  11.9541  16.9926  18.3870  21.6863
    22.2579  23.7912  24.8870

     occupation numbers 
     1.0000   1.0000   1.0000   1.0000   1.0000   1.0000   1.0000   1.0000
     1.0000   1.0000   1.0000   1.0000   1.0000   1.0000   1.0000   1.0000
     1.0000   1.0589   1.0588   0.0000   0.0000   0.0000   0.0000   0.0000
     0.0000   0.0000   0.0000

          k = 0.2500 0.5774 0.1750 (  2105 PWs)   bands (ev):

   -84.7402 -48.0443 -48.0286 -47.9828 -41.7921 -13.9267 -13.8390 -13.8185
    -7.9865  -7.7950   3.9330   4.3559   4.9629   6.0158   6.3462   6.6864
     9.3043  10.0150  10.1676  11.9239  12.0255  16.8346  18.2032  22.2017
    22.4187  23.6475  24.4924

     occupation numbers 
     1.0000   1.0000   1.0000   1.0000   1.0000   1.0000   1.0000   1.0000
     1.0000   1.0000   1.0000   1.0000   1.0000   1.0000   1.0000   1.0000
     1.0000   1.0592   1.0753   0.0000   0.0000   0.0000   0.0000   0.0000
     0.0000   0.0000   0.0000

          k = 0.0000-0.1443 0.1750 (  2102 PWs)   bands (ev):

   -84.7451 -48.0050 -47.9985 -47.9911 -41.8271 -13.9265 -13.7206 -13.6829
    -9.2893  -7.8143   4.2390   4.6900   5.1157   7.0820   7.5000   7.7120
     9.4170   9.6007  10.2631  11.9867  12.4764  13.5422  17.8190  20.6183
    24.7101  25.5945  26.8848

     occupation numbers 
     1.0000   1.0000   1.0000   1.0000   1.0000   1.0000   1.0000   1.0000
     1.0000   1.0000   1.0000   1.0000   1.0000   1.0000   1.0000   1.0000
     1.0000   1.0003   0.9896   0.0000   0.0000   0.0000   0.0000   0.0000
     0.0000   0.0000   0.0000

          k = 0.0000-0.2887 0.1750 (  2100 PWs)   bands (ev):

   -84.7433 -48.0257 -48.0034 -47.9880 -41.8142 -13.8856 -13.8326 -13.7065
    -8.8596  -7.7928   4.1705   4.7020   5.3357   5.7672   7.1051   7.8240
     9.4709   9.9124  10.1659  11.5574  12.3575  14.2247  19.2953  21.5459
    22.4526  24.6856  25.2688

     occupation numbers 
     1.0000   1.0000   1.0000   1.0000   1.0000   1.0000   1.0000   1.0000
     1.0000   1.0000   1.0000   1.0000   1.0000   1.0000   1.0000   1.0000
     1.0000   1.0267   1.0759   0.0000   0.0000   0.0000   0.0000   0.0000
     0.0000   0.0000   0.0000

          k = 0.0000-0.4330 0.1750 (  2109 PWs)   bands (ev):

   -84.7415 -48.0465 -48.0084 -47.9850 -41.8013 -13.9424 -13.8454 -13.7300
    -8.3431  -7.8168   3.6285   4.5405   5.5172   5.8188   6.7724   7.3270
     9.3834   9.8536  10.0255  11.8630  12.4014  15.1108  19.2855  20.9170
    22.3119  24.2867  24.8350

     occupation numbers 
     1.0000   1.0000   1.0000   1.0000   1.0000   1.0000   1.0000   1.0000
     1.0000   1.0000   1.0000   1.0000   1.0000   1.0000   1.0000   1.0000
     1.0000   1.0144   1.0628   0.0000   0.0000   0.0000   0.0000   0.0000
     0.0000   0.0000   0.0000

          k =-0.1250-0.3608 0.1750 (  2102 PWs)   bands (ev):

   -84.7420 -48.0373 -48.0100 -47.9859 -41.8050 -13.8939 -13.8569 -13.7400
    -8.5248  -7.7846   4.0495   4.5491   5.4245   5.6819   6.4873   7.6568
     9.5899   9.9527  10.0563  11.7330  12.0807  14.9353  20.0131  20.7890
    22.9094  23.9142  24.7138

     occupation numbers 
     1.0000   1.0000   1.0000   1.0000   1.0000   1.0000   1.0000   1.0000
     1.0000   1.0000   1.0000   1.0000   1.0000   1.0000   1.0000   1.0000
     1.0003   1.0382   1.0725   0.0000   0.0000   0.0000   0.0000   0.0000
     0.0000   0.0000   0.0000

          k =-0.1250-0.5052 0.1750 (  2107 PWs)   bands (ev):

   -84.7407 -48.0504 -48.0151 -47.9837 -41.7959 -13.9613 -13.8294 -13.7655
    -8.1069  -7.8340   3.5180   4.4804   5.5802   5.9229   6.3487   7.0709
     9.3900   9.8260  10.0681  12.0220  12.1980  15.9434  18.5181  21.6157
    22.2585  23.8166  24.8718

     occupation numbers 
     1.0000   1.0000   1.0000   1.0000   1.0000   1.0000   1.0000   1.0000
     1.0000   1.0000   1.0000   1.0000   1.0000   1.0000   1.0000   1.0000
     1.0000   1.0104   1.0757   0.0000   0.0000   0.0000   0.0000   0.0000
     0.0000   0.0000   0.0000

 ------ SPIN DOWN ----------


          k = 0.0000 0.0000 0.0000 (  2113 PWs)   bands (ev):

   -84.5904 -47.8728 -47.8728 -47.7846 -41.8313 -13.9204 -13.6721 -13.6721
    -9.6114  -7.6157   3.7169   5.0680   5.0680   7.7542   8.1598   8.1598
     9.3182   9.3182  10.3856  12.2427  12.6536  12.6536  17.9217  19.9178
    25.4920  27.0020  27.0020

     occupation numbers 
     1.0000   1.0000   1.0000   1.0000   1.0000   1.0000   1.0000   1.0000
     1.0000   1.0000   1.0000   1.0000   1.0000   1.0000   1.0000   1.0000
     1.0000   1.0000   0.7271   0.0000   0.0000   0.0000   0.0000   0.0000
     0.0000   0.0000   0.0000

          k = 0.0000 0.0000 0.1750 (  2114 PWs)   bands (ev):

   -84.5904 -47.8729 -47.8729 -47.7844 -41.8312 -13.9403 -13.6724 -13.6724
    -9.4362  -7.8119   4.1295   5.0625   5.0625   6.9371   8.1719   8.1719
     9.3176   9.3176  10.4748  12.6462  12.6462  13.0725  17.1720  19.9910
    25.4731  27.3015  27.3015

     occupation numbers 
     1.0000   1.0000   1.0000   1.0000   1.0000   1.0000   1.0000   1.0000
     1.0000   1.0000   1.0000   1.0000   1.0000   1.0000   1.0000   1.0000
     1.0000   1.0000   0.4830   0.0000   0.0000   0.0000   0.0000   0.0000
     0.0000   0.0000   0.0000

          k = 0.0000 0.1443 0.0000 (  2123 PWs)   bands (ev):

   -84.5896 -47.8815 -47.8750 -47.7833 -41.8260 -13.9062 -13.7200 -13.6822
    -9.4353  -7.6185   3.9521   4.7999   5.1599   7.1463   7.7195   8.0263
     9.5304   9.6779  10.4091  12.1550  12.5523  12.8877  18.5364  20.3458
    24.8060  25.5358  27.3427

     occupation numbers 
     1.0000   1.0000   1.0000   1.0000   1.0000   1.0000   1.0000   1.0000
     1.0000   1.0000   1.0000   1.0000   1.0000   1.0000   1.0000   1.0000
     1.0001   1.0012   0.6636   0.0000   0.0000   0.0000   0.0000   0.0000
     0.0000   0.0000   0.0000

          k = 0.0000 0.1443 0.1750 (  2102 PWs)   bands (ev):

   -84.5896 -47.8815 -47.8749 -47.7831 -41.8259 -13.9226 -13.7196 -13.6820
    -9.2761  -7.7937   4.2834   4.7307   5.1565   7.1985   7.4434   7.7253
     9.5215   9.6780  10.5319  11.9193  12.5494  13.7232  17.7609  20.6496
    24.7324  25.6852  26.6768

     occupation numbers 
     1.0000   1.0000   1.0000   1.0000   1.0000   1.0000   1.0000   1.0000
     1.0000   1.0000   1.0000   1.0000   1.0000   1.0000   1.0000   1.0000
     1.0001   1.0012   0.3389   0.0000   0.0000   0.0000   0.0000   0.0000
     0.0000   0.0000   0.0000

          k = 0.0000 0.2887 0.0000 (  2112 PWs)   bands (ev):

   -84.5878 -47.9024 -47.8800 -47.7800 -41.8130 -13.8718 -13.8322 -13.7057
    -8.9732  -7.6389   4.3344   4.5847   5.3757   5.6334   7.1160   8.0727
     9.6253  10.0021  10.3883  11.6814  12.4232  14.0954  19.5351  21.1712
    22.1858  24.8659  26.0893

     occupation numbers 
     1.0000   1.0000   1.0000   1.0000   1.0000   1.0000   1.0000   1.0000
     1.0000   1.0000   1.0000   1.0000   1.0000   1.0000   1.0000   1.0000
     1.0005   1.0547   0.7200   0.0000   0.0000   0.0000   0.0000   0.0000
     0.0000   0.0000   0.0000

          k = 0.0000 0.2887 0.1750 (  2100 PWs)   bands (ev):

   -84.5877 -47.9024 -47.8799 -47.7799 -41.8129 -13.8812 -13.8317 -13.7055
    -8.8590  -7.7573   4.1456   4.7947   5.3770   5.7689   7.1134   7.9400
     9.5960  10.0008  10.4749  11.3125  12.4265  14.6397  18.9541  21.3926
    22.5860  24.5635  25.4719

     occupation numbers 
     1.0000   1.0000   1.0000   1.0000   1.0000   1.0000   1.0000   1.0000
     1.0000   1.0000   1.0000   1.0000   1.0000   1.0000   1.0000   1.0000
     1.0003   1.0543   0.4827   0.0000   0.0000   0.0000   0.0000   0.0000
     0.0000   0.0000   0.0000

          k = 0.0000 0.4330 0.0000 (  2098 PWs)   bands (ev):

   -84.5859 -47.9232 -47.8849 -47.7767 -41.8000 -13.9416 -13.8370 -13.7290
    -8.4152  -7.7135   3.7375   4.6557   5.5474   5.6042   6.7872   7.3812
     9.5602   9.9624  10.2362  11.9103  12.4559  15.4815  19.2992  20.2945
    22.0041  24.0511  25.3338

     occupation numbers 
     1.0000   1.0000   1.0000   1.0000   1.0000   1.0000   1.0000   1.0000
     1.0000   1.0000   1.0000   1.0000   1.0000   1.0000   1.0000   1.0000
     1.0001   1.0413   1.0247   0.0000   0.0000   0.0000   0.0000   0.0000
     0.0000   0.0000   0.0000

          k = 0.0000 0.4330 0.1750 (  2109 PWs)   bands (ev):

   -84.5859 -47.9233 -47.8849 -47.7769 -41.8001 -13.9411 -13.8413 -13.7290
    -8.3646  -7.7577   3.6431   4.5598   5.5566   5.7702   6.7737   7.5293
     9.5451   9.9615  10.2461  11.7131  12.4622  15.5873  18.8996  20.4452
    22.6533  23.9722  25.5854

     occupation numbers 
     1.0000   1.0000   1.0000   1.0000   1.0000   1.0000   1.0000   1.0000
     1.0000   1.0000   1.0000   1.0000   1.0000   1.0000   1.0000   1.0000
     1.0001   1.0410   1.0129   0.0000   0.0000   0.0000   0.0000   0.0000
     0.0000   0.0000   0.0000

          k = 0.0000-0.5774 0.0000 (  2102 PWs)   bands (ev):

   -84.5851 -47.9319 -47.8869 -47.7754 -41.7947 -13.9861 -13.8228 -13.7385
    -8.0678  -7.8449   3.3090   4.7004   5.5843   6.0300   6.7289   6.8758
     9.4591   9.8734  10.1497  12.1260  12.5055  16.6003  17.9256  20.4071
    21.7514  24.0952  25.1817

     occupation numbers 
     1.0000   1.0000   1.0000   1.0000   1.0000   1.0000   1.0000   1.0000
     1.0000   1.0000   1.0000   1.0000   1.0000   1.0000   1.0000   1.0000
     1.0000   1.0180   1.0805   0.0000   0.0000   0.0000   0.0000   0.0000
     0.0000   0.0000   0.0000

          k = 0.0000-0.5774 0.1750 (  2116 PWs)   bands (ev):

   -84.5851 -47.9319 -47.8871 -47.7756 -41.7947 -13.9855 -13.8255 -13.7390
    -8.0535  -7.8502   3.2471   4.6036   5.5940   6.0332   6.7144   7.1260
     9.4496   9.8734  10.1423  12.1298  12.5107  16.1564  17.8262  21.1545
    22.0782  24.0968  25.4067

     occupation numbers 
     1.0000   1.0000   1.0000   1.0000   1.0000   1.0000   1.0000   1.0000
     1.0000   1.0000   1.0000   1.0000   1.0000   1.0000   1.0000   1.0000
     1.0000   1.0180   1.0818   0.0000   0.0000   0.0000   0.0000   0.0000
     0.0000   0.0000   0.0000

          k = 0.1250 0.2165 0.0000 (  2101 PWs)   bands (ev):

   -84.5883 -47.8953 -47.8794 -47.7809 -41.8167 -13.8817 -13.7944 -13.7038
    -9.1162  -7.6291   4.3522   4.5407   5.2524   6.1409   7.0413   8.1787
     9.6915   9.9758  10.3978  11.9024  12.1688  13.8031  19.3442  21.0654
    22.8492  25.1873  26.3064

     occupation numbers 
     1.0000   1.0000   1.0000   1.0000   1.0000   1.0000   1.0000   1.0000
     1.0000   1.0000   1.0000   1.0000   1.0000   1.0000   1.0000   1.0000
     1.0015   1.0457   0.6946   0.0000   0.0000   0.0000   0.0000   0.0000
     0.0000   0.0000   0.0000

          k = 0.1250 0.2165 0.1750 (  2101 PWs)   bands (ev):

   -84.5883 -47.8953 -47.8794 -47.7809 -41.8167 -13.8935 -13.7940 -13.7039
    -8.9823  -7.7715   4.2918   4.7140   5.2597   6.2241   7.0474   7.9025
     9.6907   9.9201  10.4808  11.5937  12.2942  14.2576  18.8013  21.5663
    22.9908  25.0225  25.2835

     occupation numbers 
     1.0000   1.0000   1.0000   1.0000   1.0000   1.0000   1.0000   1.0000
     1.0000   1.0000   1.0000   1.0000   1.0000   1.0000   1.0000   1.0000
     1.0015   1.0287   0.4669   0.0000   0.0000   0.0000   0.0000   0.0000
     0.0000   0.0000   0.0000

          k = 0.1250 0.3608 0.0000 (  2106 PWs)   bands (ev):

   -84.5864 -47.9140 -47.8866 -47.7777 -41.8038 -13.8931 -13.8473 -13.7392
    -8.6073  -7.6684   4.2097   4.6320   5.3263   5.5520   6.5014   7.7566
     9.7307  10.1085  10.2731  11.8166  12.1417  15.0337  19.9068  20.8542
    22.1331  23.9611  25.5636

     occupation numbers 
     1.0000   1.0000   1.0000   1.0000   1.0000   1.0000   1.0000   1.0000
     1.0000   1.0000   1.0000   1.0000   1.0000   1.0000   1.0000   1.0000
     1.0028   1.0828   0.9742   0.0000   0.0000   0.0000   0.0000   0.0000
     0.0000   0.0000   0.0000

          k = 0.1250 0.3608 0.1750 (  2102 PWs)   bands (ev):

   -84.5864 -47.9140 -47.8865 -47.7778 -41.8038 -13.8925 -13.8532 -13.7391
    -8.5249  -7.7484   4.0559   4.5866   5.4815   5.6697   6.5030   7.7721
     9.7228  10.0768  10.2823  11.5927  12.2044  15.1882  19.7547  20.6364
    22.9184  23.9445  25.1515

     occupation numbers 
     1.0000   1.0000   1.0000   1.0000   1.0000   1.0000   1.0000   1.0000
     1.0000   1.0000   1.0000   1.0000   1.0000   1.0000   1.0000   1.0000
     1.0025   1.0778   0.9590   0.0000   0.0000   0.0000   0.0000   0.0000
     0.0000   0.0000   0.0000

          k = 0.1250 0.5052 0.0000 (  2104 PWs)   bands (ev):

   -84.5851 -47.9272 -47.8917 -47.7754 -41.7947 -13.9606 -13.8228 -13.7647
    -8.1421  -7.7710   3.6014   4.5782   5.6226   5.8757   6.3291   7.0281
     9.6256   9.9410  10.2206  12.0280  12.2501  16.3507  18.5801  20.7791
    22.1373  23.8568  25.0129

     occupation numbers 
     1.0000   1.0000   1.0000   1.0000   1.0000   1.0000   1.0000   1.0000
     1.0000   1.0000   1.0000   1.0000   1.0000   1.0000   1.0000   1.0000
     1.0005   1.0347   1.0409   0.0000   0.0000   0.0000   0.0000   0.0000
     0.0000   0.0000   0.0000

          k = 0.1250 0.5052 0.1750 (  2107 PWs)   bands (ev):

   -84.5851 -47.9272 -47.8917 -47.7755 -41.7947 -13.9601 -13.8257 -13.7646
    -8.1213  -7.7835   3.5400   4.4877   5.6161   5.9189   6.3449   7.2013
     9.6130   9.9465  10.2057  11.9997  12.2844  16.1951  18.3139  21.1929
    22.5280  23.9671  25.1554

     occupation numbers 
     1.0000   1.0000   1.0000   1.0000   1.0000   1.0000   1.0000   1.0000
     1.0000   1.0000   1.0000   1.0000   1.0000   1.0000   1.0000   1.0000
     1.0004   1.0363   1.0537   0.0000   0.0000   0.0000   0.0000   0.0000
     0.0000   0.0000   0.0000

          k = 0.2500 0.4330 0.0000 (  2095 PWs)   bands (ev):

   -84.5851 -47.9206 -47.8981 -47.7754 -41.7947 -13.9251 -13.8231 -13.8001
    -8.1943  -7.7194   4.1482   4.3524   5.2695   5.8806   6.0664   7.1726
     9.7494   9.9873  10.3338  11.8353  12.0792  16.2024  19.1471  21.2919
    22.6313  23.3088  25.0206

     occupation numbers 
     1.0000   1.0000   1.0000   1.0000   1.0000   1.0000   1.0000   1.0000
     1.0000   1.0000   1.0000   1.0000   1.0000   1.0000   1.0000   1.0000
     1.0037   1.0496   0.8558   0.0000   0.0000   0.0000   0.0000   0.0000
     0.0000   0.0000   0.0000

          k = 0.2500 0.4330 0.1750 (  2101 PWs)   bands (ev):

   -84.5851 -47.9206 -47.8981 -47.7756 -41.7947 -13.9246 -13.8264 -13.8000
    -8.1470  -7.7601   4.1225   4.2199   5.2685   6.0046   6.1136   7.1940
     9.7559   9.9927  10.2801  11.9264  12.0752  16.0124  19.0950  21.5865
    22.7505  23.6614  24.5867

     occupation numbers 
     1.0000   1.0000   1.0000   1.0000   1.0000   1.0000   1.0000   1.0000
     1.0000   1.0000   1.0000   1.0000   1.0000   1.0000   1.0000   1.0000
     1.0041   1.0515   0.9628   0.0000   0.0000   0.0000   0.0000   0.0000
     0.0000   0.0000   0.0000

          k = 0.2500 0.5774 0.0000 (  2102 PWs)   bands (ev):

   -84.5846 -47.9212 -47.9052 -47.7746 -41.7909 -13.9260 -13.8380 -13.8130
    -7.9781  -7.7765   3.9988   4.4343   5.0002   6.0326   6.3579   6.6388
     9.5794  10.1214  10.2946  11.9094  12.0254  17.0049  18.4020  21.6978
    22.2639  23.8327  24.8998

     occupation numbers 
     1.0000   1.0000   1.0000   1.0000   1.0000   1.0000   1.0000   1.0000
     1.0000   1.0000   1.0000   1.0000   1.0000   1.0000   1.0000   1.0000
     1.0002   1.0833   0.9371   0.0000   0.0000   0.0000   0.0000   0.0000
     0.0000   0.0000   0.0000

          k = 0.2500 0.5774 0.1750 (  2105 PWs)   bands (ev):

   -84.5846 -47.9211 -47.9053 -47.7746 -41.7909 -13.9256 -13.8380 -13.8151
    -7.9719  -7.7747   3.9509   4.3729   4.9815   6.0433   6.3892   6.7202
     9.5900  10.1216  10.2643  11.9879  12.0963  16.8395  18.2161  22.2218
    22.4263  23.6627  24.5228

     occupation numbers 
     1.0000   1.0000   1.0000   1.0000   1.0000   1.0000   1.0000   1.0000
     1.0000   1.0000   1.0000   1.0000   1.0000   1.0000   1.0000   1.0000
     1.0003   1.0833   0.9878   0.0000   0.0000   0.0000   0.0000   0.0000
     0.0000   0.0000   0.0000

          k = 0.0000-0.1443 0.1750 (  2102 PWs)   bands (ev):

   -84.5896 -47.8815 -47.8749 -47.7831 -41.8259 -13.9228 -13.7196 -13.6820
    -9.2739  -7.7963   4.2969   4.7292   5.1530   7.1031   7.5319   7.7313
     9.5024   9.6800  10.5129  12.0517  12.5447  13.5682  17.8416  20.6447
    24.7244  25.6100  26.9032

     occupation numbers 
     1.0000   1.0000   1.0000   1.0000   1.0000   1.0000   1.0000   1.0000
     1.0000   1.0000   1.0000   1.0000   1.0000   1.0000   1.0000   1.0000
     1.0000   1.0013   0.3846   0.0000   0.0000   0.0000   0.0000   0.0000
     0.0000   0.0000   0.0000

          k = 0.0000-0.2887 0.1750 (  2100 PWs)   bands (ev):

   -84.5877 -47.9023 -47.8799 -47.7800 -41.8129 -13.8821 -13.8315 -13.7055
    -8.8440  -7.7745   4.1992   4.7501   5.3691   5.8037   7.1252   7.8544
     9.5753  10.0032  10.3966  11.6365  12.4196  14.2452  19.3146  21.5689
    22.4665  24.6968  25.2974

     occupation numbers 
     1.0000   1.0000   1.0000   1.0000   1.0000   1.0000   1.0000   1.0000
     1.0000   1.0000   1.0000   1.0000   1.0000   1.0000   1.0000   1.0000
     1.0002   1.0551   0.6978   0.0000   0.0000   0.0000   0.0000   0.0000
     0.0000   0.0000   0.0000

          k = 0.0000-0.4330 0.1750 (  2109 PWs)   bands (ev):

   -84.5859 -47.9233 -47.8849 -47.7769 -41.8001 -13.9413 -13.8419 -13.7290
    -8.3275  -7.7979   3.6497   4.5598   5.5476   5.8809   6.7862   7.3587
     9.5414   9.9619  10.2139  11.9497  12.4577  15.1226  19.2970  20.9362
    22.3317  24.2996  24.8632

     occupation numbers 
     1.0000   1.0000   1.0000   1.0000   1.0000   1.0000   1.0000   1.0000
     1.0000   1.0000   1.0000   1.0000   1.0000   1.0000   1.0000   1.0000
     1.0001   1.0411   1.0470   0.0000   0.0000   0.0000   0.0000   0.0000
     0.0000   0.0000   0.0000

          k =-0.1250-0.3608 0.1750 (  2102 PWs)   bands (ev):

   -84.5864 -47.9140 -47.8865 -47.7778 -41.8038 -13.8928 -13.8534 -13.7391
    -8.5090  -7.7660   4.0744   4.5720   5.4585   5.7348   6.5084   7.6875
     9.7321  10.0815  10.2328  11.8069  12.1434  14.9518  20.0258  20.8078
    22.9291  23.9313  24.7343

     occupation numbers 
     1.0000   1.0000   1.0000   1.0000   1.0000   1.0000   1.0000   1.0000
     1.0000   1.0000   1.0000   1.0000   1.0000   1.0000   1.0000   1.0000
     1.0029   1.0788   1.0285   0.0000   0.0000   0.0000   0.0000   0.0000
     0.0000   0.0000   0.0000

          k =-0.1250-0.5052 0.1750 (  2107 PWs)   bands (ev):

   -84.5851 -47.9272 -47.8917 -47.7755 -41.7947 -13.9601 -13.8259 -13.7646
    -8.0918  -7.8143   3.5371   4.4972   5.6085   5.9678   6.3760   7.1019
     9.6237   9.9428  10.1891  12.1050  12.2557  15.9515  18.5294  21.6354
    22.2743  23.8333  24.8954

     occupation numbers 
     1.0000   1.0000   1.0000   1.0000   1.0000   1.0000   1.0000   1.0000
     1.0000   1.0000   1.0000   1.0000   1.0000   1.0000   1.0000   1.0000
     1.0005   1.0352   1.0650   0.0000   0.0000   0.0000   0.0000   0.0000
     0.0000   0.0000   0.0000

     the Fermi energy is    10.5064 ev

!    total energy              =    -569.29356221 Ry
     total all-electron energy =     -3412.784118 Ry
     estimated scf accuracy    <          6.4E-09 Ry
     smearing contrib. (-TS)   =       0.00652819 Ry
     internal energy E=F+TS    =    -569.30009040 Ry

     The total energy is F=E-TS. E is the sum of the following terms:
     one-electron contribution =    -311.69702547 Ry
     hartree contribution      =     177.87395568 Ry
     xc contribution           =     -60.50148931 Ry
     ewald contribution        =    -253.04629781 Ry
     one-center paw contrib.   =    -121.92923350 Ry
      -> PAW hartree energy AE =     347.28710129 Ry
      -> PAW hartree energy PS =    -347.26794161 Ry
      -> PAW xc energy AE      =    -179.46467240 Ry
      -> PAW xc energy PS      =      57.51627922 Ry
      -> total E_H with PAW    =     177.89311537 Ry
      -> total E_XC with PAW   =    -182.44988249 Ry

     total magnetization       =     0.16 Bohr mag/cell
     absolute magnetization    =     0.17 Bohr mag/cell

     convergence has been achieved in  46 iterations

     Forces acting on atoms (cartesian axes, Ry/au):

     atom    1 type  1   force =    -0.00000000   -0.00000000   -0.00203300
     atom    2 type  2   force =     0.00000000    0.00000000   -0.16497000
     atom    3 type  2   force =    -0.00000000   -0.00000000   -0.03641410
     atom    4 type  3   force =    -0.00000000   -0.00000000    0.20341710
     The non-local contrib.  to forces
     atom    1 type  1   force =     0.00000000    0.00000000    0.01981125
     atom    2 type  2   force =     0.00000000    0.00000000   -0.80564975
     atom    3 type  2   force =     0.00000000    0.00000000    0.52007885
     atom    4 type  3   force =     0.00000000   -0.00000000    0.52865444
     The ionic contribution  to forces
     atom    1 type  1   force =    -0.00000000    0.00000000    0.00000000
     atom    2 type  2   force =     0.00000000   -0.00000000   15.95864141
     atom    3 type  2   force =    -0.00000000    0.00000000  -18.60875347
     atom    4 type  3   force =     0.00000000   -0.00000000    2.65011205
     The local contribution  to forces
     atom    1 type  1   force =    -0.00000000   -0.00000000   -0.02169599
     atom    2 type  2   force =     0.00000001   -0.00000001  -15.32651620
     atom    3 type  2   force =    -0.00000001    0.00000001   18.05666039
     atom    4 type  3   force =     0.00000006   -0.00000004   -2.97495545
     The core correction contribution to forces
     atom    1 type  1   force =     0.00000000   -0.00000000   -0.00013315
     atom    2 type  2   force =    -0.00000000    0.00000000    0.00854646
     atom    3 type  2   force =     0.00000000   -0.00000000   -0.00437256
     atom    4 type  3   force =     0.00000000   -0.00000000   -0.00038689
     The Hubbard contrib.    to forces
     atom    1 type  1   force =     0.00000000    0.00000000    0.00000000
     atom    2 type  2   force =     0.00000000    0.00000000    0.00000000
     atom    3 type  2   force =     0.00000000    0.00000000    0.00000000
     atom    4 type  3   force =     0.00000000    0.00000000    0.00000000
     The SCF correction term to forces
     atom    1 type  1   force =    -0.00000000    0.00000000   -0.00001621
     atom    2 type  2   force =     0.00000000   -0.00000000    0.00000699
     atom    3 type  2   force =    -0.00000000    0.00000000   -0.00002841
     atom    4 type  3   force =     0.00000000   -0.00000000   -0.00000815

     Total force =     0.264431     Total SCF correction =     0.000034

     Writing all to output data dir ./out/pw.save/ :
     XML data file, charge density, pseudopotentials, collected wavefunctions
 
     init_run     :      9.45s CPU      2.35s WALL (       1 calls)
     electrons    :    202.23s CPU     54.34s WALL (       1 calls)
     forces       :      0.60s CPU      0.54s WALL (       1 calls)

     Called by init_run:
     wfcinit      :      0.25s CPU      0.31s WALL (       1 calls)
     wfcinit:atom :      0.04s CPU      0.04s WALL (      50 calls)
     wfcinit:wfcr :      0.16s CPU      0.20s WALL (      50 calls)
     potinit      :      8.68s CPU      1.50s WALL (       1 calls)
     hinit0       :      0.44s CPU      0.43s WALL (       1 calls)

     Called by electrons:
     c_bands      :     25.01s CPU     25.12s WALL (      46 calls)
     sum_band     :      4.66s CPU      4.66s WALL (      46 calls)
     v_of_rho     :      0.65s CPU      0.27s WALL (      47 calls)
     v_h          :      0.46s CPU      0.05s WALL (      47 calls)
     v_xc         :      0.19s CPU      0.22s WALL (      48 calls)
     newd         :      1.06s CPU      0.73s WALL (      47 calls)
                                        0.73s GPU  (      47 calls)
     PAW_pot      :    173.39s CPU     23.32s WALL (      47 calls)
     mix_rho      :      0.66s CPU      0.66s WALL (      46 calls)

     Called by c_bands:
     init_us_2    :      1.79s CPU      1.77s WALL (    4700 calls)
     cegterg      :     21.86s CPU     21.95s WALL (    2300 calls)

     Called by sum_band:
     sum_band:wei :      0.08s CPU      0.08s WALL (      46 calls)
                                        0.08s GPU  (      46 calls)
     sum_band:loo :      2.90s CPU      2.89s WALL (      46 calls)
                                        2.89s GPU  (      46 calls)
     sum_band:buf :      0.27s CPU      0.32s WALL (    2300 calls)
                                        0.29s GPU  (    2300 calls)
     sum_band:ini :      0.86s CPU      0.89s WALL (    2300 calls)
                                        0.87s GPU  (    2300 calls)
     sum_band:cal :      0.08s CPU      0.13s WALL (    2300 calls)
                                        0.10s GPU  (    2300 calls)
     sum_band:bec :      0.48s CPU      0.52s WALL (    2300 calls)
                                        0.49s GPU  (    2300 calls)
     addusdens    :      1.46s CPU      1.46s WALL (      46 calls)
                                        1.46s GPU  (      46 calls)
     addusd:skk   :      0.01s CPU      0.01s WALL (     138 calls)
                                        0.01s GPU  (     138 calls)

     Called by *egterg:
     cdiaghg      :      7.84s CPU      8.09s WALL (    8996 calls)
                                        7.98s GPU  (    8996 calls)
     cegterg:over :      1.17s CPU      1.21s WALL (    6696 calls)
     cegterg:upda :      1.47s CPU      1.48s WALL (    6696 calls)
     cegterg:last :      0.25s CPU      0.24s WALL (    4262 calls)
     h_psi        :      7.61s CPU      7.69s WALL (    9046 calls)
                                        7.58s GPU  (    9046 calls)
     s_psi        :      1.37s CPU      1.42s WALL (    9046 calls)
     g_psi        :      0.03s CPU      0.16s WALL (    6696 calls)
                                        0.07s GPU  (    6696 calls)

     Called by h_psi:
     h_psi:calbec :      0.23s CPU      0.47s WALL (    9046 calls)
                                        0.36s GPU  (    9046 calls)
     vloc_psi     :      5.20s CPU      5.17s WALL (    9046 calls)
                                        5.06s GPU  (    9046 calls)
     add_vuspsi   :      1.23s CPU      1.44s WALL (    9046 calls)
                                        1.33s GPU  (    9046 calls)

     General routines
     calbec       :      0.26s CPU      0.30s WALL (   11546 calls)
     fft          :      3.24s CPU      0.64s WALL (    1188 calls)
                                        0.04s GPU  (    1094 calls)
     ffts         :      1.87s CPU      0.33s WALL (     186 calls)
                                        0.00s GPU  (      92 calls)
     fftw         :      0.51s CPU      1.75s WALL (   32656 calls)
                                        1.40s GPU  (   32656 calls)
     interpolate  :      5.27s CPU      0.95s WALL (      94 calls)
 
     Parallel routines

     PAW routines
     PAW_pot      :    173.39s CPU     23.32s WALL (      47 calls)
     PAW_symme    :      0.05s CPU      0.01s WALL (      93 calls)
 
     PWSCF        :   3m33.08s CPU     57.73s WALL

 
   This run was terminated on:   2:14: 4  12Jul2026            

=------------------------------------------------------------------------------=
   JOB DONE.
=------------------------------------------------------------------------------=
Warning: ieee_divide_by_zero is signaling
Warning: ieee_inexact is signaling
FORTRAN STOP
