
     Program PWSCF v.7.3.1 starts on 12Jul2026 at  2:44:13 

     This program is part of the open-source Quantum ESPRESSO suite
     for quantum simulation of materials; please cite
         "P. Giannozzi et al., J. Phys.:Condens. Matter 21 395502 (2009);
         "P. Giannozzi et al., J. Phys.:Condens. Matter 29 465901 (2017);
         "P. Giannozzi et al., J. Chem. Phys. 152 154105 (2020);
          URL http://www.quantum-espresso.org", 
     in publications or presentations arising from this work. More details at
     http://www.quantum-espresso.org/quote

     Parallel version (MPI & OpenMP), running on      14 processor cores
     Number of MPI processes:                 1
     Threads/MPI process:                    14

     MPI processes distributed on     1 nodes
     847503 MiB available memory on the printing compute node when the environment starts
 
     Reading input from pw.in

     Current dimensions of program PWSCF are:
     Max number of different atomic species (ntypx) = 10
     Max number of k-points (npk) =  40000
     Max angular momentum in pseudopotentials (lmaxx) =  4
     file Co.pbe-spn-kjpaw_psl.0.3.1.UPF: wavefunction(s)  3P 3D renormalized
     file O.pbe-n-kjpaw_psl.1.0.0.UPF: wavefunction(s)  2S 2P renormalized
     file Na.pbe-spn-kjpaw_psl.1.0.0.UPF: wavefunction(s)  2P renormalized
 
     Subspace diagonalization in iterative solution of the eigenvalue problem:
     a serial algorithm will be used

 
     G-vector sticks info
     --------------------
     sticks:   dense  smooth     PW     G-vecs:    dense   smooth      PW
     Sum        2941    1483    421               142753    50601    7659
 
     Using Slab Decomposition
 


     bravais-lattice index     =            4
     lattice parameter (alat)  =       9.4527  a.u.
     unit-cell volume          =     804.2768 (a.u.)^3
     number of atoms/cell      =           10
     number of atomic types    =            3
     number of electrons       =        96.00
     number of Kohn-Sham states=           64
     kinetic-energy cutoff     =      60.0000  Ry
     charge density cutoff     =     480.0000  Ry
     scf convergence threshold =      1.0E-07
     mixing beta               =       0.3000
     number of iterations used =            8  local-TF  mixing
     Exchange-correlation= SLA  PW   PBX  PBC
                           (   1   4   3   4   0   0   0)

     GPU acceleration is ACTIVE.  1 visible GPUs per MPI rank
     GPU-aware MPI enabled


     GPU used by master process:

        Device Number: 0
        Device name: NVIDIA A100-SXM4-80GB
        Compute capability : 80
        Ratio of single to double precision performance  : 2
        Memory Clock Rate (KHz): 1593000
        Memory Bus Width (bits): 5120
        Peak Memory Bandwidth (GB/s): ******

     celldm(1)=   9.452718  celldm(2)=   0.000000  celldm(3)=   1.099524
     celldm(4)=   0.000000  celldm(5)=   0.000000  celldm(6)=   0.000000

     crystal axes: (cart. coord. in units of alat)
               a(1) = (   1.000000   0.000000   0.000000 )  
               a(2) = (  -0.500000   0.866025   0.000000 )  
               a(3) = (   0.000000   0.000000   1.099524 )  

     reciprocal axes: (cart. coord. in units 2 pi/alat)
               b(1) = (  1.000000  0.577350 -0.000000 )  
               b(2) = (  0.000000  1.154701  0.000000 )  
               b(3) = (  0.000000 -0.000000  0.909484 )  


     PseudoPot. # 1 for Co read from file:
     ../../pseudo/Co.pbe-spn-kjpaw_psl.0.3.1.UPF
     MD5 check sum: 3c0a43779828c046024e4f3be63f8e67
     Pseudo is Projector augmented-wave + core cor, Zval = 17.0
     Generated using &quot;atomic&quot; code by A. Dal Corso  v.6.2.2
     Shape of augmentation charge: PSQ
     Using radial grid of 1193 points,  6 beta functions with: 
                l(1) =   0
                l(2) =   0
                l(3) =   1
                l(4) =   1
                l(5) =   2
                l(6) =   2
     Q(r) pseudized with 0 coefficients 


     PseudoPot. # 2 for O  read from file:
     ../../pseudo/O.pbe-n-kjpaw_psl.1.0.0.UPF
     MD5 check sum: e99d9cef9b487d1ca56f5b95ecd0fd7a
     Pseudo is Projector augmented-wave + core cor, Zval =  6.0
     Generated using &quot;atomic&quot; code by A. Dal Corso  v.6.3
     Shape of augmentation charge: PSQ
     Using radial grid of 1095 points,  4 beta functions with: 
                l(1) =   0
                l(2) =   0
                l(3) =   1
                l(4) =   1
     Q(r) pseudized with 0 coefficients 


     PseudoPot. # 3 for Na read from file:
     ../../pseudo/Na.pbe-spn-kjpaw_psl.1.0.0.UPF
     MD5 check sum: 05b4deb74e3932c23ab016979dc8b5d4
     Pseudo is Projector augmented-wave + core cor, Zval =  9.0
     Generated using &quot;atomic&quot; code by A. Dal Corso  v.6.3
     Shape of augmentation charge: PSQ
     Using radial grid of 1121 points,  4 beta functions with: 
                l(1) =   0
                l(2) =   0
                l(3) =   1
                l(4) =   1
     Q(r) pseudized with 0 coefficients 


     atomic species   valence    mass     pseudopotential
     Co               17.00    58.93300     Co( 1.00)
     O                 6.00    15.99900     O ( 1.00)
     Na                9.00    22.98977     Na( 1.00)

     Starting magnetic structure 
     atomic species   magnetization
     Co              0.300
     O               0.000
     Na              0.000

      6 Sym. Ops. (no inversion) found


                                    s                        frac. trans.

      isym =  1     identity                                     

 cryst.   s( 1) = (     1          0          0      )
                  (     0          1          0      )
                  (     0          0          1      )

 cart.    s( 1) = (  1.0000000  0.0000000  0.0000000 )
                  (  0.0000000  1.0000000  0.0000000 )
                  (  0.0000000  0.0000000  1.0000000 )


      isym =  2     120 deg rotation - cryst. axis [0,0,1]       

 cryst.   s( 2) = (     0          1          0      )
                  (    -1         -1          0      )
                  (     0          0          1      )

 cart.    s( 2) = ( -0.5000000 -0.8660254  0.0000000 )
                  (  0.8660254 -0.5000000  0.0000000 )
                  (  0.0000000  0.0000000  1.0000000 )


      isym =  3     120 deg rotation - cryst. axis [0,0,-1]      

 cryst.   s( 3) = (    -1         -1          0      )
                  (     1          0          0      )
                  (     0          0          1      )

 cart.    s( 3) = ( -0.5000000  0.8660254  0.0000000 )
                  ( -0.8660254 -0.5000000  0.0000000 )
                  (  0.0000000  0.0000000  1.0000000 )


      isym =  4     inv. 180 deg rotation - cart. axis [0,1,0]   

 cryst.   s( 4) = (     1          0          0      )
                  (    -1         -1          0      )
                  (     0          0          1      )

 cart.    s( 4) = (  1.0000000  0.0000000  0.0000000 )
                  (  0.0000000 -1.0000000  0.0000000 )
                  (  0.0000000  0.0000000  1.0000000 )


      isym =  5     inv. 180 deg rotation - cryst. axis [1,-1,0] 

 cryst.   s( 5) = (     0          1          0      )
                  (     1          0          0      )
                  (     0          0          1      )

 cart.    s( 5) = ( -0.5000000  0.8660254  0.0000000 )
                  (  0.8660254  0.5000000  0.0000000 )
                  (  0.0000000  0.0000000  1.0000000 )


      isym =  6     inv. 180 deg rotation - cryst. axis [2,1,0]  

 cryst.   s( 6) = (    -1         -1          0      )
                  (     0          1          0      )
                  (     0          0          1      )

 cart.    s( 6) = ( -0.5000000 -0.8660254  0.0000000 )
                  ( -0.8660254  0.5000000  0.0000000 )
                  (  0.0000000  0.0000000  1.0000000 )


     point group C_3v (3m)  
     there are  3 classes
     the character table:

       E     2C3   3s_v 
A_1    1.00  1.00  1.00
A_2    1.00  1.00 -1.00
E      2.00 -1.00  0.00

     the symmetry operations in each class and the name of the first element:

     E        1
          identity                                               
     2C3      2    3
          120 deg rotation - cryst. axis [0,0,1]                 
     3s_v     4    6    5
          inv. 180 deg rotation - cart. axis [0,1,0]             

   Cartesian axes

     site n.     atom                  positions (alat units)
         1        Co     tau(   1) = (   0.0000000   0.0000000   0.0000000  )
         2        Co     tau(   2) = (  -0.0000000   0.5773503   0.0000000  )
         3        Co     tau(   3) = (   0.5000000   0.2886751   0.0000000  )
         4        O      tau(   4) = (   0.1666667   0.2886751   0.1919170  )
         5        O      tau(   5) = (   0.6666667   0.0000000   0.1919170  )
         6        O      tau(   6) = (  -0.3333333   0.5773503   0.1919170  )
         7        O      tau(   7) = (   0.3333333   0.0000000   0.9076074  )
         8        O      tau(   8) = (   0.3333333   0.5773503   0.9076074  )
         9        O      tau(   9) = (  -0.1666667   0.2886751   0.9076074  )
        10        Na     tau(  10) = (   0.0000000   0.0000000   0.6996973  )

   Crystallographic axes

     site n.     atom                  positions (cryst. coord.)
         1        Co     tau(   1) = (  0.0000000  0.0000000  0.0000000  )
         2        Co     tau(   2) = (  0.3333333  0.6666667  0.0000000  )
         3        Co     tau(   3) = (  0.6666667  0.3333333  0.0000000  )
         4        O      tau(   4) = (  0.3333333  0.3333333  0.1745455  )
         5        O      tau(   5) = (  0.6666667  0.0000000  0.1745455  )
         6        O      tau(   6) = (  0.0000000  0.6666667  0.1745455  )
         7        O      tau(   7) = (  0.3333333  0.0000000  0.8254545  )
         8        O      tau(   8) = (  0.6666667  0.6666667  0.8254545  )
         9        O      tau(   9) = ( -0.0000000  0.3333333  0.8254545  )
        10        Na     tau(  10) = (  0.0000000  0.0000000  0.6363636  )

     number of k points=    17  Marzari-Vanderbilt smearing, width (Ry)=  0.0200
                       cart. coord. in units 2pi/alat
        k(    1) = (   0.0000000   0.0000000   0.0000000), wk =   0.0092593
        k(    2) = (   0.0000000   0.0000000   0.3031614), wk =   0.0185185
        k(    3) = (   0.0000000   0.1924501   0.0000000), wk =   0.0555556
        k(    4) = (   0.0000000   0.1924501   0.3031614), wk =   0.1111111
        k(    5) = (   0.0000000   0.3849002   0.0000000), wk =   0.0555556
        k(    6) = (   0.0000000   0.3849002   0.3031614), wk =   0.1111111
        k(    7) = (   0.0000000  -0.5773503   0.0000000), wk =   0.0277778
        k(    8) = (   0.0000000  -0.5773503   0.3031614), wk =   0.0555556
        k(    9) = (   0.1666667   0.2886751   0.0000000), wk =   0.0555556
        k(   10) = (   0.1666667   0.2886751   0.3031614), wk =   0.0555556
        k(   11) = (   0.1666667   0.4811252   0.0000000), wk =   0.1111111
        k(   12) = (   0.1666667   0.4811252   0.3031614), wk =   0.1111111
        k(   13) = (   0.3333333   0.5773503   0.0000000), wk =   0.0185185
        k(   14) = (   0.3333333   0.5773503   0.3031614), wk =   0.0185185
        k(   15) = (  -0.1666667  -0.2886751   0.3031614), wk =   0.0555556
        k(   16) = (  -0.1666667  -0.4811252   0.3031614), wk =   0.1111111
        k(   17) = (  -0.3333333  -0.5773503   0.3031614), wk =   0.0185185

                       cryst. coord.
        k(    1) = (   0.0000000   0.0000000   0.0000000), wk =   0.0092593
        k(    2) = (   0.0000000   0.0000000   0.3333333), wk =   0.0185185
        k(    3) = (   0.0000000   0.1666667   0.0000000), wk =   0.0555556
        k(    4) = (   0.0000000   0.1666667   0.3333333), wk =   0.1111111
        k(    5) = (   0.0000000   0.3333333   0.0000000), wk =   0.0555556
        k(    6) = (   0.0000000   0.3333333   0.3333333), wk =   0.1111111
        k(    7) = (   0.0000000  -0.5000000   0.0000000), wk =   0.0277778
        k(    8) = (   0.0000000  -0.5000000   0.3333333), wk =   0.0555556
        k(    9) = (   0.1666667   0.1666667   0.0000000), wk =   0.0555556
        k(   10) = (   0.1666667   0.1666667   0.3333333), wk =   0.0555556
        k(   11) = (   0.1666667   0.3333333   0.0000000), wk =   0.1111111
        k(   12) = (   0.1666667   0.3333333   0.3333333), wk =   0.1111111
        k(   13) = (   0.3333333   0.3333333   0.0000000), wk =   0.0185185
        k(   14) = (   0.3333333   0.3333333   0.3333333), wk =   0.0185185
        k(   15) = (  -0.1666667  -0.1666667   0.3333333), wk =   0.0555556
        k(   16) = (  -0.1666667  -0.3333333   0.3333333), wk =   0.1111111
        k(   17) = (  -0.3333333  -0.3333333   0.3333333), wk =   0.0185185

     Dense  grid:   142753 G-vectors     FFT dimensions: (  72,  72,  75)

     Smooth grid:    50601 G-vectors     FFT dimensions: (  48,  48,  54)

     Dynamical RAM for                 wfc:       6.16 MB

     Dynamical RAM for     wfc (w. buffer):     215.74 MB

     Dynamical RAM for           str. fact:       6.53 MB

     Dynamical RAM for           local pot:       0.00 MB

     Dynamical RAM for          nlocal pot:      10.59 MB

     Dynamical RAM for                qrad:       5.27 MB

     Dynamical RAM for          rho,v,vnew:      30.87 MB

     Dynamical RAM for               rhoin:      10.29 MB

     Dynamical RAM for            rho*nmix:      69.70 MB

     Dynamical RAM for           G-vectors:       8.55 MB

     Dynamical RAM for          h,s,v(r/c):       0.75 MB

     Dynamical RAM for          <psi|beta>:       0.11 MB

     Dynamical RAM for                 psi:      12.33 MB

     Dynamical RAM for                hpsi:      12.33 MB

     Dynamical RAM for                spsi:      12.33 MB

     Dynamical RAM for      wfcinit/wfcrot:      12.42 MB

     Dynamical RAM for           addusdens:     420.40 MB

     Dynamical RAM for          addusforce:     442.23 MB

     Estimated static dynamical RAM per process >     314.37 MB

     Estimated max dynamical RAM per process >     826.30 MB

     Check: negative core charge=   -0.000009
     Generating pointlists ...
     new r_m :   0.1587 (alat units)  1.4998 (a.u.) for type    1
     new r_m :   0.1587 (alat units)  1.4998 (a.u.) for type    2
     new r_m :   0.1621 (alat units)  1.5319 (a.u.) for type    3

     Initial potential from superposition of free atoms

     starting charge      95.9928, renormalised to      96.0000
     Starting wfcs are   59 randomized atomic wfcs +    5 random wfcs
     Checking if some PAW data can be deallocated... 

     total cpu time spent up to now is        4.9 secs

     Self-consistent Calculation
[tb_dev] Currently allocated     9.94E-01 Mbytes, locked:    0 /   6
[tb_pin] Currently allocated     0.00E+00 Mbytes, locked:    0 /   0

     iteration #  1     ecut=    60.00 Ry     beta= 0.30
     Davidson diagonalization with overlap

---- Real-time Memory Report at c_bands before calling an iterative solver
           885 MiB given to the printing process from OS
             0 MiB allocation reported by mallinfo(arena+hblkhd)
        846594 MiB available memory on the node where the printing process lives
     GPU memory used/free/total (MiB): 1438 / 79712 / 81151
------------------
     ethr =  1.00E-02,  avg # of iterations = 10.1

     total cpu time spent up to now is        8.6 secs

     total energy              =   -1488.14731599 Ry
     estimated scf accuracy    <       6.42050920 Ry

     total magnetization       =    14.03 Bohr mag/cell
     absolute magnetization    =    14.03 Bohr mag/cell
[tb_dev] Currently allocated     7.63E-05 Mbytes, locked:    0 /   2
[tb_pin] Currently allocated     0.00E+00 Mbytes, locked:    0 /   0

     iteration #  2     ecut=    60.00 Ry     beta= 0.30
     Davidson diagonalization with overlap

---- Real-time Memory Report at c_bands before calling an iterative solver
           940 MiB given to the printing process from OS
             0 MiB allocation reported by mallinfo(arena+hblkhd)
        846455 MiB available memory on the node where the printing process lives
     GPU memory used/free/total (MiB): 1486 / 79664 / 81151
------------------
     ethr =  6.69E-03,  avg # of iterations =  1.9

     total cpu time spent up to now is       11.0 secs

     total energy              =   -1488.48831586 Ry
     estimated scf accuracy    <       0.99626290 Ry

     total magnetization       =    10.91 Bohr mag/cell
     absolute magnetization    =    10.91 Bohr mag/cell
[tb_dev] Currently allocated     7.63E-05 Mbytes, locked:    0 /   2
[tb_pin] Currently allocated     0.00E+00 Mbytes, locked:    0 /   0

     iteration #  3     ecut=    60.00 Ry     beta= 0.30
     Davidson diagonalization with overlap

---- Real-time Memory Report at c_bands before calling an iterative solver
           947 MiB given to the printing process from OS
             0 MiB allocation reported by mallinfo(arena+hblkhd)
        846469 MiB available memory on the node where the printing process lives
     GPU memory used/free/total (MiB): 1486 / 79664 / 81151
------------------
     ethr =  1.04E-03,  avg # of iterations =  3.0

     total cpu time spent up to now is       13.6 secs

     total energy              =   -1488.77145668 Ry
     estimated scf accuracy    <       1.91309699 Ry

     total magnetization       =     4.77 Bohr mag/cell
     absolute magnetization    =     5.32 Bohr mag/cell
[tb_dev] Currently allocated     7.63E-05 Mbytes, locked:    0 /   2
[tb_pin] Currently allocated     0.00E+00 Mbytes, locked:    0 /   0

     iteration #  4     ecut=    60.00 Ry     beta= 0.30
     Davidson diagonalization with overlap

---- Real-time Memory Report at c_bands before calling an iterative solver
           950 MiB given to the printing process from OS
             0 MiB allocation reported by mallinfo(arena+hblkhd)
        846513 MiB available memory on the node where the printing process lives
     GPU memory used/free/total (MiB): 1486 / 79664 / 81151
------------------
     ethr =  1.04E-03,  avg # of iterations =  1.3

     total cpu time spent up to now is       15.9 secs

     total energy              =   -1488.83634058 Ry
     estimated scf accuracy    <       0.87282171 Ry

     total magnetization       =     5.54 Bohr mag/cell
     absolute magnetization    =     5.92 Bohr mag/cell
[tb_dev] Currently allocated     7.63E-05 Mbytes, locked:    0 /   2
[tb_pin] Currently allocated     0.00E+00 Mbytes, locked:    0 /   0

     iteration #  5     ecut=    60.00 Ry     beta= 0.30
     Davidson diagonalization with overlap

---- Real-time Memory Report at c_bands before calling an iterative solver
           953 MiB given to the printing process from OS
             0 MiB allocation reported by mallinfo(arena+hblkhd)
        846486 MiB available memory on the node where the printing process lives
     GPU memory used/free/total (MiB): 1486 / 79664 / 81151
------------------
     ethr =  9.09E-04,  avg # of iterations =  1.2

     total cpu time spent up to now is       18.2 secs

     total energy              =   -1488.87209785 Ry
     estimated scf accuracy    <       1.54218668 Ry

     total magnetization       =     6.53 Bohr mag/cell
     absolute magnetization    =     6.78 Bohr mag/cell
[tb_dev] Currently allocated     7.63E-05 Mbytes, locked:    0 /   2
[tb_pin] Currently allocated     0.00E+00 Mbytes, locked:    0 /   0

     iteration #  6     ecut=    60.00 Ry     beta= 0.30
     Davidson diagonalization with overlap

---- Real-time Memory Report at c_bands before calling an iterative solver
           957 MiB given to the printing process from OS
             0 MiB allocation reported by mallinfo(arena+hblkhd)
        846483 MiB available memory on the node where the printing process lives
     GPU memory used/free/total (MiB): 1486 / 79664 / 81151
------------------
     ethr =  9.09E-04,  avg # of iterations =  1.1

     total cpu time spent up to now is       20.5 secs

     total energy              =   -1489.16676382 Ry
     estimated scf accuracy    <       0.95110359 Ry

     total magnetization       =     2.31 Bohr mag/cell
     absolute magnetization    =     3.72 Bohr mag/cell
[tb_dev] Currently allocated     7.63E-05 Mbytes, locked:    0 /   2
[tb_pin] Currently allocated     0.00E+00 Mbytes, locked:    0 /   0

     iteration #  7     ecut=    60.00 Ry     beta= 0.30
     Davidson diagonalization with overlap

---- Real-time Memory Report at c_bands before calling an iterative solver
           962 MiB given to the printing process from OS
             0 MiB allocation reported by mallinfo(arena+hblkhd)
        846465 MiB available memory on the node where the printing process lives
     GPU memory used/free/total (MiB): 1486 / 79664 / 81151
------------------
     ethr =  9.09E-04,  avg # of iterations =  1.1

     total cpu time spent up to now is       22.9 secs

     total energy              =   -1489.13476729 Ry
     estimated scf accuracy    <       0.82660495 Ry

     total magnetization       =     2.23 Bohr mag/cell
     absolute magnetization    =     2.69 Bohr mag/cell
[tb_dev] Currently allocated     7.63E-05 Mbytes, locked:    0 /   2
[tb_pin] Currently allocated     0.00E+00 Mbytes, locked:    0 /   0

     iteration #  8     ecut=    60.00 Ry     beta= 0.30
     Davidson diagonalization with overlap

---- Real-time Memory Report at c_bands before calling an iterative solver
           976 MiB given to the printing process from OS
             0 MiB allocation reported by mallinfo(arena+hblkhd)
        846426 MiB available memory on the node where the printing process lives
     GPU memory used/free/total (MiB): 1486 / 79664 / 81151
------------------
     ethr =  8.61E-04,  avg # of iterations =  1.1

     total cpu time spent up to now is       25.2 secs

     total energy              =   -1489.16131873 Ry
     estimated scf accuracy    <       0.17170058 Ry

     total magnetization       =     2.01 Bohr mag/cell
     absolute magnetization    =     2.68 Bohr mag/cell
[tb_dev] Currently allocated     7.63E-05 Mbytes, locked:    0 /   2
[tb_pin] Currently allocated     0.00E+00 Mbytes, locked:    0 /   0

     iteration #  9     ecut=    60.00 Ry     beta= 0.30
     Davidson diagonalization with overlap

---- Real-time Memory Report at c_bands before calling an iterative solver
           980 MiB given to the printing process from OS
             0 MiB allocation reported by mallinfo(arena+hblkhd)
        846422 MiB available memory on the node where the printing process lives
     GPU memory used/free/total (MiB): 1486 / 79664 / 81151
------------------
     c_bands:  1 eigenvalues not converged
     ethr =  1.79E-04,  avg # of iterations =  5.8

     total cpu time spent up to now is       28.2 secs

     total energy              =   -1489.16919128 Ry
     estimated scf accuracy    <       0.02667818 Ry

     total magnetization       =     2.13 Bohr mag/cell
     absolute magnetization    =     2.41 Bohr mag/cell
[tb_dev] Currently allocated     7.63E-05 Mbytes, locked:    0 /   2
[tb_pin] Currently allocated     0.00E+00 Mbytes, locked:    0 /   0

     iteration # 10     ecut=    60.00 Ry     beta= 0.30
     Davidson diagonalization with overlap

---- Real-time Memory Report at c_bands before calling an iterative solver
           980 MiB given to the printing process from OS
             0 MiB allocation reported by mallinfo(arena+hblkhd)
        846404 MiB available memory on the node where the printing process lives
     GPU memory used/free/total (MiB): 1486 / 79664 / 81151
------------------
     c_bands:  1 eigenvalues not converged
     ethr =  2.78E-05,  avg # of iterations = 12.2

     total cpu time spent up to now is       32.3 secs

     total energy              =   -1489.17510908 Ry
     estimated scf accuracy    <       0.00270440 Ry

     total magnetization       =     2.34 Bohr mag/cell
     absolute magnetization    =     2.39 Bohr mag/cell
[tb_dev] Currently allocated     7.63E-05 Mbytes, locked:    0 /   2
[tb_pin] Currently allocated     0.00E+00 Mbytes, locked:    0 /   0

     iteration # 11     ecut=    60.00 Ry     beta= 0.30
     Davidson diagonalization with overlap

---- Real-time Memory Report at c_bands before calling an iterative solver
           980 MiB given to the printing process from OS
             0 MiB allocation reported by mallinfo(arena+hblkhd)
        846393 MiB available memory on the node where the printing process lives
     GPU memory used/free/total (MiB): 1486 / 79664 / 81151
------------------
     c_bands:  1 eigenvalues not converged
     c_bands:  1 eigenvalues not converged
     c_bands:  2 eigenvalues not converged
     c_bands:  3 eigenvalues not converged
     ethr =  2.82E-06,  avg # of iterations = 10.6

     total cpu time spent up to now is       36.1 secs

     total energy              =   -1489.17674905 Ry
     estimated scf accuracy    <       0.00167688 Ry

     total magnetization       =     2.33 Bohr mag/cell
     absolute magnetization    =     2.37 Bohr mag/cell
[tb_dev] Currently allocated     7.63E-05 Mbytes, locked:    0 /   2
[tb_pin] Currently allocated     0.00E+00 Mbytes, locked:    0 /   0

     iteration # 12     ecut=    60.00 Ry     beta= 0.30
     Davidson diagonalization with overlap

---- Real-time Memory Report at c_bands before calling an iterative solver
           980 MiB given to the printing process from OS
             0 MiB allocation reported by mallinfo(arena+hblkhd)
        846390 MiB available memory on the node where the printing process lives
     GPU memory used/free/total (MiB): 1486 / 79664 / 81151
------------------
     c_bands:  2 eigenvalues not converged
     c_bands:  1 eigenvalues not converged
     ethr =  1.75E-06,  avg # of iterations =  3.1

     total cpu time spent up to now is       38.7 secs

     total energy              =   -1489.17682634 Ry
     estimated scf accuracy    <       0.00167665 Ry

     total magnetization       =     2.33 Bohr mag/cell
     absolute magnetization    =     2.36 Bohr mag/cell
[tb_dev] Currently allocated     7.63E-05 Mbytes, locked:    0 /   2
[tb_pin] Currently allocated     0.00E+00 Mbytes, locked:    0 /   0

     iteration # 13     ecut=    60.00 Ry     beta= 0.30
     Davidson diagonalization with overlap

---- Real-time Memory Report at c_bands before calling an iterative solver
           980 MiB given to the printing process from OS
             0 MiB allocation reported by mallinfo(arena+hblkhd)
        846356 MiB available memory on the node where the printing process lives
     GPU memory used/free/total (MiB): 1486 / 79664 / 81151
------------------
     c_bands:  1 eigenvalues not converged
     ethr =  1.75E-06,  avg # of iterations =  2.4

     total cpu time spent up to now is       41.3 secs

     total energy              =   -1489.17699524 Ry
     estimated scf accuracy    <       0.00020376 Ry

     total magnetization       =     2.28 Bohr mag/cell
     absolute magnetization    =     2.32 Bohr mag/cell
[tb_dev] Currently allocated     7.63E-05 Mbytes, locked:    0 /   2
[tb_pin] Currently allocated     0.00E+00 Mbytes, locked:    0 /   0

     iteration # 14     ecut=    60.00 Ry     beta= 0.30
     Davidson diagonalization with overlap

---- Real-time Memory Report at c_bands before calling an iterative solver
           980 MiB given to the printing process from OS
             0 MiB allocation reported by mallinfo(arena+hblkhd)
        846369 MiB available memory on the node where the printing process lives
     GPU memory used/free/total (MiB): 1486 / 79664 / 81151
------------------
     ethr =  2.12E-07,  avg # of iterations =  6.8

     total cpu time spent up to now is       44.5 secs

     total energy              =   -1489.17705613 Ry
     estimated scf accuracy    <       0.00005568 Ry

     total magnetization       =     2.31 Bohr mag/cell
     absolute magnetization    =     2.34 Bohr mag/cell
[tb_dev] Currently allocated     7.63E-05 Mbytes, locked:    0 /   2
[tb_pin] Currently allocated     0.00E+00 Mbytes, locked:    0 /   0

     iteration # 15     ecut=    60.00 Ry     beta= 0.30
     Davidson diagonalization with overlap

---- Real-time Memory Report at c_bands before calling an iterative solver
           980 MiB given to the printing process from OS
             0 MiB allocation reported by mallinfo(arena+hblkhd)
        846376 MiB available memory on the node where the printing process lives
     GPU memory used/free/total (MiB): 1486 / 79664 / 81151
------------------
     ethr =  5.80E-08,  avg # of iterations =  4.4

     total cpu time spent up to now is       47.3 secs

     total energy              =   -1489.17706669 Ry
     estimated scf accuracy    <       0.00005969 Ry

     total magnetization       =     2.30 Bohr mag/cell
     absolute magnetization    =     2.34 Bohr mag/cell
[tb_dev] Currently allocated     7.63E-05 Mbytes, locked:    0 /   2
[tb_pin] Currently allocated     0.00E+00 Mbytes, locked:    0 /   0

     iteration # 16     ecut=    60.00 Ry     beta= 0.30
     Davidson diagonalization with overlap

---- Real-time Memory Report at c_bands before calling an iterative solver
           980 MiB given to the printing process from OS
             0 MiB allocation reported by mallinfo(arena+hblkhd)
        847018 MiB available memory on the node where the printing process lives
     GPU memory used/free/total (MiB): 1486 / 79664 / 81151
------------------
     ethr =  5.80E-08,  avg # of iterations =  1.6

     total cpu time spent up to now is       49.7 secs

     total energy              =   -1489.17707089 Ry
     estimated scf accuracy    <       0.00000532 Ry

     total magnetization       =     2.31 Bohr mag/cell
     absolute magnetization    =     2.35 Bohr mag/cell
[tb_dev] Currently allocated     7.63E-05 Mbytes, locked:    0 /   2
[tb_pin] Currently allocated     0.00E+00 Mbytes, locked:    0 /   0

     iteration # 17     ecut=    60.00 Ry     beta= 0.30
     Davidson diagonalization with overlap

---- Real-time Memory Report at c_bands before calling an iterative solver
           980 MiB given to the printing process from OS
             0 MiB allocation reported by mallinfo(arena+hblkhd)
        846583 MiB available memory on the node where the printing process lives
     GPU memory used/free/total (MiB): 1486 / 79664 / 81151
------------------
     ethr =  5.55E-09,  avg # of iterations =  8.3

     total cpu time spent up to now is       53.2 secs

     total energy              =   -1489.17707391 Ry
     estimated scf accuracy    <       0.00000356 Ry

     total magnetization       =     2.31 Bohr mag/cell
     absolute magnetization    =     2.35 Bohr mag/cell
[tb_dev] Currently allocated     7.63E-05 Mbytes, locked:    0 /   2
[tb_pin] Currently allocated     0.00E+00 Mbytes, locked:    0 /   0

     iteration # 18     ecut=    60.00 Ry     beta= 0.30
     Davidson diagonalization with overlap

---- Real-time Memory Report at c_bands before calling an iterative solver
           980 MiB given to the printing process from OS
             0 MiB allocation reported by mallinfo(arena+hblkhd)
        846453 MiB available memory on the node where the printing process lives
     GPU memory used/free/total (MiB): 1908 / 79243 / 81151
------------------
     ethr =  3.71E-09,  avg # of iterations =  2.3

     total cpu time spent up to now is       55.7 secs

     total energy              =   -1489.17707440 Ry
     estimated scf accuracy    <       0.00000096 Ry

     total magnetization       =     2.31 Bohr mag/cell
     absolute magnetization    =     2.35 Bohr mag/cell
[tb_dev] Currently allocated     7.63E-05 Mbytes, locked:    0 /   2
[tb_pin] Currently allocated     0.00E+00 Mbytes, locked:    0 /   0

     iteration # 19     ecut=    60.00 Ry     beta= 0.30
     Davidson diagonalization with overlap

---- Real-time Memory Report at c_bands before calling an iterative solver
           980 MiB given to the printing process from OS
             0 MiB allocation reported by mallinfo(arena+hblkhd)
        846440 MiB available memory on the node where the printing process lives
     GPU memory used/free/total (MiB): 1486 / 79664 / 81151
------------------
     ethr =  1.00E-09,  avg # of iterations =  5.3

     total cpu time spent up to now is       58.7 secs

     total energy              =   -1489.17707463 Ry
     estimated scf accuracy    <       0.00000019 Ry

     total magnetization       =     2.31 Bohr mag/cell
     absolute magnetization    =     2.35 Bohr mag/cell
[tb_dev] Currently allocated     7.63E-05 Mbytes, locked:    0 /   2
[tb_pin] Currently allocated     0.00E+00 Mbytes, locked:    0 /   0

     iteration # 20     ecut=    60.00 Ry     beta= 0.30
     Davidson diagonalization with overlap

---- Real-time Memory Report at c_bands before calling an iterative solver
           980 MiB given to the printing process from OS
             0 MiB allocation reported by mallinfo(arena+hblkhd)
        846177 MiB available memory on the node where the printing process lives
     GPU memory used/free/total (MiB): 1486 / 79664 / 81151
------------------
     ethr =  2.02E-10,  avg # of iterations =  7.8
 
     Magnetic moment per site  (integrated on atomic sphere of radius R)
     atom   1 (R=0.159)  charge= 14.1621  magn=  0.5027
     atom   2 (R=0.159)  charge= 14.0904  magn=  0.6264
     atom   3 (R=0.159)  charge= 14.0904  magn=  0.6264
     atom   4 (R=0.159)  charge=  5.2115  magn=  0.0704
     atom   5 (R=0.159)  charge=  5.2115  magn=  0.0704
     atom   6 (R=0.159)  charge=  5.2115  magn=  0.0704
     atom   7 (R=0.159)  charge=  5.2782  magn=  0.0564
     atom   8 (R=0.159)  charge=  5.2782  magn=  0.0564
     atom   9 (R=0.159)  charge=  5.2782  magn=  0.0564
     atom  10 (R=0.162)  charge=  7.7853  magn=  0.0014

     total cpu time spent up to now is       62.1 secs

     End of self-consistent calculation

 ------ SPIN UP ------------


          k = 0.0000 0.0000 0.0000 (  6307 PWs)   bands (ev):

   -89.6681 -89.6644 -89.4262 -52.9163 -52.9100 -52.8944 -52.8944 -52.8709
   -52.8709 -52.7108 -52.7108 -52.6268 -43.7548 -16.0798 -15.7537 -15.7537
   -13.0484 -11.4576 -11.4576 -11.3271 -11.3271 -11.1231   0.5940   0.6710
     0.6710   0.9324   0.9324   1.0594   1.0594   1.2239   1.2596   2.7617
     2.7617   2.9201   2.9201   3.2866   3.2983   4.5160   4.5312   4.5724
     4.5724   4.6861   4.7390   4.7390   5.6398   5.6398   5.6969   5.6969
     5.7790   7.6964   7.6964   7.7937   7.7937   8.4950   8.4950  11.7385
    15.9508  17.2037  18.3084  18.3084  18.5564  18.5895  18.9051  18.9051

     occupation numbers 
     1.0000   1.0000   1.0000   1.0000   1.0000   1.0000   1.0000   1.0000
     1.0000   1.0000   1.0000   1.0000   1.0000   1.0000   1.0000   1.0000
     1.0000   1.0000   1.0000   1.0000   1.0000   1.0000   1.0000   1.0000
     1.0000   1.0000   1.0000   1.0000   1.0000   1.0000   1.0000   1.0000
     1.0000   1.0000   1.0000   1.0000   1.0000   1.0000   1.0000   1.0000
     1.0000   1.0000   1.0000   1.0000   1.0181   1.0181   1.0317   1.0317
     1.0585   0.0000   0.0000   0.0000   0.0000   0.0000   0.0000   0.0000
     0.0000   0.0000   0.0000   0.0000   0.0000   0.0000   0.0000   0.0000

          k = 0.0000 0.0000 0.3032 (  6332 PWs)   bands (ev):

   -89.6682 -89.6644 -89.4262 -52.9162 -52.9103 -52.8944 -52.8944 -52.8710
   -52.8710 -52.7109 -52.7109 -52.6269 -43.7548 -16.0859 -15.7537 -15.7537
   -13.0177 -11.4577 -11.4577 -11.3268 -11.3268 -11.1613   0.6566   0.6566
     0.7808   0.9081   0.9081   1.0601   1.0601   1.2695   1.2866   2.7832
     2.7832   2.9389   2.9389   3.2248   3.2552   4.1340   4.5189   4.5725
     4.5725   4.6789   4.7335   4.7335   5.6245   5.6245   5.6826   5.6826
     5.8626   7.7447   7.7447   7.8502   7.8502   8.5009   8.5009  12.6090
    14.9199  17.2577  18.3469  18.3568  18.3759  18.3759  18.9831  18.9831

     occupation numbers 
     1.0000   1.0000   1.0000   1.0000   1.0000   1.0000   1.0000   1.0000
     1.0000   1.0000   1.0000   1.0000   1.0000   1.0000   1.0000   1.0000
     1.0000   1.0000   1.0000   1.0000   1.0000   1.0000   1.0000   1.0000
     1.0000   1.0000   1.0000   1.0000   1.0000   1.0000   1.0000   1.0000
     1.0000   1.0000   1.0000   1.0000   1.0000   1.0000   1.0000   1.0000
     1.0000   1.0000   1.0000   1.0000   1.0153   1.0153   1.0278   1.0278
     1.0814   0.0000   0.0000   0.0000   0.0000   0.0000   0.0000   0.0000
     0.0000   0.0000   0.0000   0.0000   0.0000   0.0000   0.0000   0.0000

          k = 0.0000 0.1925 0.0000 (  6330 PWs)   bands (ev):

   -89.6679 -89.6646 -89.4262 -52.9159 -52.9105 -52.8957 -52.8937 -52.8711
   -52.8698 -52.7114 -52.7108 -52.6269 -43.7548 -16.0773 -15.7575 -15.7547
   -12.9459 -11.5573 -11.4908 -11.3444 -11.3035 -11.1289   0.3712   0.5940
     0.7181   0.8367   0.9420   0.9849   1.1230   1.5998   1.7957   2.5312
     2.5902   2.7118   2.8034   3.5494   3.6257   3.8982   4.0204   4.6278
     4.6934   4.7901   4.9843   5.1857   5.4006   5.4167   5.7682   5.8232
     5.8439   7.7032   7.7733   7.8133   7.8771   8.2482   8.4240  12.0889
    16.3081  17.0000  17.3967  17.7086  18.0125  19.1158  19.4555  19.5113

     occupation numbers 
     1.0000   1.0000   1.0000   1.0000   1.0000   1.0000   1.0000   1.0000
     1.0000   1.0000   1.0000   1.0000   1.0000   1.0000   1.0000   1.0000
     1.0000   1.0000   1.0000   1.0000   1.0000   1.0000   1.0000   1.0000
     1.0000   1.0000   1.0000   1.0000   1.0000   1.0000   1.0000   1.0000
     1.0000   1.0000   1.0000   1.0000   1.0000   1.0000   1.0000   1.0000
     1.0000   1.0000   1.0000   1.0000   1.0006   1.0008   1.0548   1.0727
     1.0780   0.0000   0.0000   0.0000   0.0000   0.0000   0.0000   0.0000
     0.0000   0.0000   0.0000   0.0000   0.0000   0.0000   0.0000   0.0000

          k = 0.0000 0.1925 0.3032 (  6320 PWs)   bands (ev):

   -89.6679 -89.6646 -89.4262 -52.9158 -52.9106 -52.8956 -52.8938 -52.8711
   -52.8697 -52.7114 -52.7108 -52.6269 -43.7548 -16.0827 -15.7573 -15.7546
   -12.9177 -11.5564 -11.4914 -11.3435 -11.3040 -11.1635   0.3634   0.5849
     0.8097   0.8780   0.9192   0.9793   1.1246   1.6207   1.8136   2.5194
     2.5762   2.7480   2.8255   3.5632   3.6192   3.8959   4.0004   4.3876
     4.6295   4.7804   4.9792   5.1677   5.4023   5.4200   5.7413   5.8104
     5.9220   7.7473   7.8025   7.8544   7.9173   8.2311   8.4313  12.8796
    15.2506  16.8542  17.5312  17.6947  17.8560  19.1794  19.5143  19.5970

     occupation numbers 
     1.0000   1.0000   1.0000   1.0000   1.0000   1.0000   1.0000   1.0000
     1.0000   1.0000   1.0000   1.0000   1.0000   1.0000   1.0000   1.0000
     1.0000   1.0000   1.0000   1.0000   1.0000   1.0000   1.0000   1.0000
     1.0000   1.0000   1.0000   1.0000   1.0000   1.0000   1.0000   1.0000
     1.0000   1.0000   1.0000   1.0000   1.0000   1.0000   1.0000   1.0000
     1.0000   1.0000   1.0000   1.0000   1.0006   1.0008   1.0456   1.0689
     1.0790   0.0000   0.0000   0.0000   0.0000   0.0000   0.0000   0.0000
     0.0000   0.0000   0.0000   0.0000   0.0000   0.0000   0.0000   0.0000

          k = 0.0000 0.3849 0.0000 (  6318 PWs)   bands (ev):

   -89.6673 -89.6652 -89.4262 -52.9149 -52.9114 -52.8979 -52.8907 -52.8733
   -52.8677 -52.7122 -52.7107 -52.6269 -43.7548 -16.0718 -15.7648 -15.7566
   -12.6616 -11.8560 -11.5308 -11.3901 -11.2441 -11.1486  -0.0232   0.7234
     0.8274   0.8996   1.0450   1.2023   1.2834   1.7805   2.0690   2.3599
     2.4565   2.5385   2.8930   2.9415   3.3805   3.7966   4.1758   4.7555
     4.8849   5.0649   5.1391   5.1501   5.1813   5.5812   5.6169   5.8106
     5.9098   7.7292   7.7810   7.8301   7.8484   8.1899   8.2112  12.9685
    15.4453  17.0028  17.2102  17.6875  17.9158  18.9142  19.3018  19.3472

     occupation numbers 
     1.0000   1.0000   1.0000   1.0000   1.0000   1.0000   1.0000   1.0000
     1.0000   1.0000   1.0000   1.0000   1.0000   1.0000   1.0000   1.0000
     1.0000   1.0000   1.0000   1.0000   1.0000   1.0000   1.0000   1.0000
     1.0000   1.0000   1.0000   1.0000   1.0000   1.0000   1.0000   1.0000
     1.0000   1.0000   1.0000   1.0000   1.0000   1.0000   1.0000   1.0000
     1.0000   1.0000   1.0000   1.0000   1.0000   1.0091   1.0140   1.0690
     1.0816   0.0000   0.0000   0.0000   0.0000   0.0000   0.0000   0.0000
     0.0000   0.0000   0.0000   0.0000   0.0000   0.0000   0.0000   0.0000

          k = 0.0000 0.3849 0.3032 (  6304 PWs)   bands (ev):

   -89.6673 -89.6652 -89.4262 -52.9149 -52.9115 -52.8977 -52.8908 -52.8732
   -52.8677 -52.7122 -52.7106 -52.6269 -43.7547 -16.0764 -15.7642 -15.7564
   -12.6400 -11.8503 -11.5320 -11.3879 -11.2493 -11.1743  -0.0319   0.6870
     0.7658   0.8639   1.1600   1.1955   1.2873   1.7907   2.0391   2.4402
     2.4862   2.5529   2.9097   2.9661   3.3766   3.8782   4.1811   4.7044
     4.7583   5.0579   5.1466   5.1532   5.1927   5.5369   5.5942   5.8621
     5.9006   7.6959   7.7685   7.8024   7.8777   8.1972   8.2337  13.5293
    15.4343  16.1443  16.8611  17.3244  18.5339  18.6454  18.9724  19.7276

     occupation numbers 
     1.0000   1.0000   1.0000   1.0000   1.0000   1.0000   1.0000   1.0000
     1.0000   1.0000   1.0000   1.0000   1.0000   1.0000   1.0000   1.0000
     1.0000   1.0000   1.0000   1.0000   1.0000   1.0000   1.0000   1.0000
     1.0000   1.0000   1.0000   1.0000   1.0000   1.0000   1.0000   1.0000
     1.0000   1.0000   1.0000   1.0000   1.0000   1.0000   1.0000   1.0000
     1.0000   1.0000   1.0000   1.0000   1.0000   1.0051   1.0107   1.0814
     1.0827   0.0000   0.0000   0.0000   0.0000   0.0000   0.0000   0.0000
     0.0000   0.0000   0.0000   0.0000   0.0000   0.0000   0.0000   0.0000

          k = 0.0000-0.5774 0.0000 (  6336 PWs)   bands (ev):

   -89.6669 -89.6657 -89.4262 -52.9142 -52.9121 -52.8988 -52.8879 -52.8759
   -52.8670 -52.7125 -52.7107 -52.6269 -43.7548 -16.0691 -15.7686 -15.7577
   -12.2751 -12.2513 -11.5471 -11.4126 -11.1952 -11.1801  -0.1706   0.7661
     0.7970   1.1824   1.1970   1.5141   1.5380   1.5655   1.6901   2.2747
     2.2775   2.4931   2.8291   2.8324   3.2827   3.8794   4.6654   4.7229
     4.7677   5.0180   5.0695   5.1090   5.4667   5.5476   5.6018   5.8077
     5.8523   7.6547   7.7378   7.7975   7.8991   8.0029   8.3868  14.0350
    14.2120  16.7051  17.2920  18.3979  18.4584  18.5497  18.6551  18.8169

     occupation numbers 
     1.0000   1.0000   1.0000   1.0000   1.0000   1.0000   1.0000   1.0000
     1.0000   1.0000   1.0000   1.0000   1.0000   1.0000   1.0000   1.0000
     1.0000   1.0000   1.0000   1.0000   1.0000   1.0000   1.0000   1.0000
     1.0000   1.0000   1.0000   1.0000   1.0000   1.0000   1.0000   1.0000
     1.0000   1.0000   1.0000   1.0000   1.0000   1.0000   1.0000   1.0000
     1.0000   1.0000   1.0000   1.0000   1.0018   1.0059   1.0117   1.0681
     1.0797   0.0000   0.0000   0.0000   0.0000   0.0000   0.0000   0.0000
     0.0000   0.0000   0.0000   0.0000   0.0000   0.0000   0.0000   0.0000

          k = 0.0000-0.5774 0.3032 (  6310 PWs)   bands (ev):

   -89.6669 -89.6656 -89.4262 -52.9141 -52.9122 -52.8987 -52.8878 -52.8760
   -52.8668 -52.7125 -52.7106 -52.6269 -43.7547 -16.0732 -15.7678 -15.7574
   -12.2502 -12.2498 -11.5485 -11.4102 -11.2057 -11.1986  -0.1801   0.6836
     0.7305   1.1841   1.1954   1.4704   1.5431   1.6272   1.6958   2.3648
     2.3868   2.5291   2.8211   2.8302   3.2885   3.9934   4.6368   4.6789
     4.7625   5.0177   5.0714   5.1150   5.4516   5.5923   5.6334   5.7499
     5.8019   7.5543   7.6395   7.8053   7.9489   8.0489   8.3774  14.3032
    14.4598  16.4819  17.0356  17.3060  17.4865  18.6629  19.6287  19.7508

     occupation numbers 
     1.0000   1.0000   1.0000   1.0000   1.0000   1.0000   1.0000   1.0000
     1.0000   1.0000   1.0000   1.0000   1.0000   1.0000   1.0000   1.0000
     1.0000   1.0000   1.0000   1.0000   1.0000   1.0000   1.0000   1.0000
     1.0000   1.0000   1.0000   1.0000   1.0000   1.0000   1.0000   1.0000
     1.0000   1.0000   1.0000   1.0000   1.0000   1.0000   1.0000   1.0000
     1.0000   1.0000   1.0000   1.0000   1.0014   1.0104   1.0168   1.0485
     1.0662   0.0000   0.0000   0.0000   0.0000   0.0000   0.0000   0.0000
     0.0000   0.0000   0.0000   0.0000   0.0000   0.0000   0.0000   0.0000

          k = 0.1667 0.2887 0.0000 (  6317 PWs)   bands (ev):

   -89.6675 -89.6650 -89.4262 -52.9152 -52.9111 -52.8968 -52.8921 -52.8727
   -52.8681 -52.7119 -52.7108 -52.6268 -43.7548 -16.0731 -15.7624 -15.7568
   -12.7525 -11.6621 -11.6615 -11.2994 -11.2988 -11.1419   0.2820   0.3356
     0.8443   0.9503   1.0092   1.0513   1.2489   1.9397   1.9523   2.4755
     2.4905   2.6141   2.6730   3.0722   3.7045   3.8647   3.8858   4.7514
     4.8354   4.9424   5.1793   5.2148   5.2211   5.4153   5.7856   5.7894
     5.8406   7.7078   7.7763   7.8400   7.9607   8.0378   8.3514  12.6924
    16.1336  16.3358  17.0950  17.7424  18.7502  18.7926  19.2535  19.2804

     occupation numbers 
     1.0000   1.0000   1.0000   1.0000   1.0000   1.0000   1.0000   1.0000
     1.0000   1.0000   1.0000   1.0000   1.0000   1.0000   1.0000   1.0000
     1.0000   1.0000   1.0000   1.0000   1.0000   1.0000   1.0000   1.0000
     1.0000   1.0000   1.0000   1.0000   1.0000   1.0000   1.0000   1.0000
     1.0000   1.0000   1.0000   1.0000   1.0000   1.0000   1.0000   1.0000
     1.0000   1.0000   1.0000   1.0000   1.0000   1.0007   1.0608   1.0620
     1.0773   0.0000   0.0000   0.0000   0.0000   0.0000   0.0000   0.0000
     0.0000   0.0000   0.0000   0.0000   0.0000   0.0000   0.0000   0.0000

          k = 0.1667 0.2887 0.3032 (  6308 PWs)   bands (ev):

   -89.6675 -89.6650 -89.4262 -52.9151 -52.9112 -52.8968 -52.8921 -52.8727
   -52.8680 -52.7119 -52.7107 -52.6269 -43.7547 -16.0780 -15.7618 -15.7566
   -12.7287 -11.6602 -11.6561 -11.3056 -11.2988 -11.1705   0.2716   0.3234
     0.7819   0.9707   1.0132   1.1191   1.2494   1.9200   1.9398   2.5201
     2.5438   2.6264   2.6879   3.0918   3.7024   3.9049   3.9359   4.5775
     4.8332   4.9390   5.0924   5.2196   5.2212   5.4170   5.7658   5.7672
     5.9459   7.6935   7.7587   7.7766   7.9881   8.0602   8.3491  13.3895
    15.7467  16.3184  16.3707  18.2450  18.2587  18.4229  19.2421  19.4065

     occupation numbers 
     1.0000   1.0000   1.0000   1.0000   1.0000   1.0000   1.0000   1.0000
     1.0000   1.0000   1.0000   1.0000   1.0000   1.0000   1.0000   1.0000
     1.0000   1.0000   1.0000   1.0000   1.0000   1.0000   1.0000   1.0000
     1.0000   1.0000   1.0000   1.0000   1.0000   1.0000   1.0000   1.0000
     1.0000   1.0000   1.0000   1.0000   1.0000   1.0000   1.0000   1.0000
     1.0000   1.0000   1.0000   1.0000   1.0000   1.0008   1.0539   1.0544
     1.0700   0.0000   0.0000   0.0000   0.0000   0.0000   0.0000   0.0000
     0.0000   0.0000   0.0000   0.0000   0.0000   0.0000   0.0000   0.0000

          k = 0.1667 0.4811 0.0000 (  6294 PWs)   bands (ev):

   -89.6669 -89.6656 -89.4262 -52.9142 -52.9121 -52.8977 -52.8881 -52.8769
   -52.8666 -52.7122 -52.7108 -52.6268 -43.7548 -16.0690 -15.7666 -15.7591
   -12.4118 -12.0103 -11.7310 -11.3094 -11.2276 -11.1724   0.0503   0.5531
     0.7334   1.1321   1.2560   1.3217   1.4387   1.7160   1.7730   2.2265
     2.2648   2.4447   2.8672   3.1161   3.2671   3.9765   4.3569   4.7192
     4.9199   5.1014   5.1251   5.1899   5.3199   5.5536   5.5710   5.7506
     5.7789   7.5564   7.6364   7.7427   8.0977   8.2301   8.3082  13.6650
    14.8686  15.8183  17.9187  18.2922  18.3665  18.6832  18.8129  19.0969

     occupation numbers 
     1.0000   1.0000   1.0000   1.0000   1.0000   1.0000   1.0000   1.0000
     1.0000   1.0000   1.0000   1.0000   1.0000   1.0000   1.0000   1.0000
     1.0000   1.0000   1.0000   1.0000   1.0000   1.0000   1.0000   1.0000
     1.0000   1.0000   1.0000   1.0000   1.0000   1.0000   1.0000   1.0000
     1.0000   1.0000   1.0000   1.0000   1.0000   1.0000   1.0000   1.0000
     1.0000   1.0000   1.0000   1.0000   1.0001   1.0063   1.0080   1.0487
     1.0585   0.0000   0.0000   0.0000   0.0000   0.0000   0.0000   0.0000
     0.0000   0.0000   0.0000   0.0000   0.0000   0.0000   0.0000   0.0000

          k = 0.1667 0.4811 0.3032 (  6307 PWs)   bands (ev):

   -89.6669 -89.6656 -89.4262 -52.9142 -52.9122 -52.8978 -52.8882 -52.8769
   -52.8665 -52.7122 -52.7108 -52.6269 -43.7547 -16.0734 -15.7661 -15.7592
   -12.3947 -12.0009 -11.7254 -11.3142 -11.2367 -11.1921   0.0364   0.5096
     0.6557   1.0975   1.2605   1.3207   1.4617   1.7161   1.7605   2.3297
     2.3363   2.5081   2.8751   3.1229   3.2692   4.0717   4.3899   4.6846
     4.9122   5.0941   5.1251   5.1526   5.3305   5.5446   5.5593   5.7649
     5.8267   7.4275   7.5420   7.6904   8.1108   8.2335   8.3033  14.1471
    15.0909  15.9821  16.7927  17.5876  17.8442  18.8700  19.2191  19.5530

     occupation numbers 
     1.0000   1.0000   1.0000   1.0000   1.0000   1.0000   1.0000   1.0000
     1.0000   1.0000   1.0000   1.0000   1.0000   1.0000   1.0000   1.0000
     1.0000   1.0000   1.0000   1.0000   1.0000   1.0000   1.0000   1.0000
     1.0000   1.0000   1.0000   1.0000   1.0000   1.0000   1.0000   1.0000
     1.0000   1.0000   1.0000   1.0000   1.0000   1.0000   1.0000   1.0000
     1.0000   1.0000   1.0000   1.0000   1.0002   1.0056   1.0069   1.0536
     1.0737   0.0000   0.0000   0.0000   0.0000   0.0000   0.0000   0.0000
     0.0000   0.0000   0.0000   0.0000   0.0000   0.0000   0.0000   0.0000

          k = 0.3333 0.5774 0.0000 (  6294 PWs)   bands (ev):

   -89.6663 -89.6663 -89.4262 -52.9132 -52.9132 -52.8972 -52.8830 -52.8830
   -52.8659 -52.7115 -52.7115 -52.6269 -43.7548 -16.0678 -15.7639 -15.7639
   -12.0828 -12.0622 -12.0622 -11.2294 -11.2294 -11.2132   0.4307   0.4307
     0.4740   1.2923   1.2923   1.3230   1.5802   1.5802   1.6360   2.1477
     2.1594   2.1594   3.1981   3.1981   3.2445   4.3395   4.3395   4.4119
     5.0957   5.0957   5.1617   5.3500   5.3620   5.3620   5.6066   5.6066
     5.6372   7.5387   7.5923   7.5923   8.2809   8.3213   8.3213  14.4811
    14.7154  14.7154  18.3124  18.4069  18.4069  18.7899  18.7900  18.8981

     occupation numbers 
     1.0000   1.0000   1.0000   1.0000   1.0000   1.0000   1.0000   1.0000
     1.0000   1.0000   1.0000   1.0000   1.0000   1.0000   1.0000   1.0000
     1.0000   1.0000   1.0000   1.0000   1.0000   1.0000   1.0000   1.0000
     1.0000   1.0000   1.0000   1.0000   1.0000   1.0000   1.0000   1.0000
     1.0000   1.0000   1.0000   1.0000   1.0000   1.0000   1.0000   1.0000
     1.0000   1.0000   1.0000   1.0002   1.0003   1.0003   1.0124   1.0124
     1.0176   0.0000   0.0000   0.0000   0.0000   0.0000   0.0000   0.0000
     0.0000   0.0000   0.0000   0.0000   0.0000   0.0000   0.0000   0.0000

          k = 0.3333 0.5774 0.3032 (  6312 PWs)   bands (ev):

   -89.6663 -89.6663 -89.4262 -52.9132 -52.9132 -52.8973 -52.8831 -52.8831
   -52.8659 -52.7115 -52.7115 -52.6269 -43.7547 -16.0719 -15.7638 -15.7638
   -12.0582 -12.0582 -12.0576 -11.2364 -11.2348 -11.2348   0.3909   0.3909
     0.4211   1.2565   1.2565   1.2744   1.5793   1.5793   1.6321   2.2615
     2.2615   2.2979   3.2002   3.2002   3.2512   4.3828   4.3828   4.4597
     5.0734   5.0734   5.1398   5.3531   5.3655   5.3655   5.6448   5.6448
     5.6679   7.4071   7.4732   7.4732   8.2699   8.3119   8.3119  14.8110
    15.0468  15.0468  17.4204  17.4204  17.5357  19.2613  19.3432  19.3432

     occupation numbers 
     1.0000   1.0000   1.0000   1.0000   1.0000   1.0000   1.0000   1.0000
     1.0000   1.0000   1.0000   1.0000   1.0000   1.0000   1.0000   1.0000
     1.0000   1.0000   1.0000   1.0000   1.0000   1.0000   1.0000   1.0000
     1.0000   1.0000   1.0000   1.0000   1.0000   1.0000   1.0000   1.0000
     1.0000   1.0000   1.0000   1.0000   1.0000   1.0000   1.0000   1.0000
     1.0000   1.0000   1.0000   1.0002   1.0003   1.0003   1.0191   1.0191
     1.0242   0.0000   0.0000   0.0000   0.0000   0.0000   0.0000   0.0000
     0.0000   0.0000   0.0000   0.0000   0.0000   0.0000   0.0000   0.0000

          k =-0.1667-0.2887 0.3032 (  6308 PWs)   bands (ev):

   -89.6675 -89.6650 -89.4262 -52.9151 -52.9112 -52.8968 -52.8921 -52.8727
   -52.8681 -52.7119 -52.7107 -52.6269 -43.7547 -16.0780 -15.7618 -15.7565
   -12.7292 -11.6621 -11.6592 -11.2999 -11.2994 -11.1701   0.2659   0.3171
     0.8048   0.9778   1.0190   1.0991   1.2510   1.9362   1.9532   2.4948
     2.5097   2.6570   2.7128   3.0870   3.7009   3.8743   3.9033   4.5821
     4.8400   4.9485   5.0912   5.2219   5.2267   5.4137   5.7445   5.7517
     5.9182   7.7551   7.8139   7.8312   7.9804   8.0315   8.3575  13.2670
    15.7447  16.1097  16.1572  18.3294  18.6509  18.6934  19.0604  19.2610

     occupation numbers 
     1.0000   1.0000   1.0000   1.0000   1.0000   1.0000   1.0000   1.0000
     1.0000   1.0000   1.0000   1.0000   1.0000   1.0000   1.0000   1.0000
     1.0000   1.0000   1.0000   1.0000   1.0000   1.0000   1.0000   1.0000
     1.0000   1.0000   1.0000   1.0000   1.0000   1.0000   1.0000   1.0000
     1.0000   1.0000   1.0000   1.0000   1.0000   1.0000   1.0000   1.0000
     1.0000   1.0000   1.0000   1.0000   1.0000   1.0007   1.0466   1.0491
     1.0799   0.0000   0.0000   0.0000   0.0000   0.0000   0.0000   0.0000
     0.0000   0.0000   0.0000   0.0000   0.0000   0.0000   0.0000   0.0000

          k =-0.1667-0.4811 0.3032 (  6307 PWs)   bands (ev):

   -89.6669 -89.6656 -89.4262 -52.9142 -52.9122 -52.8978 -52.8882 -52.8769
   -52.8665 -52.7122 -52.7108 -52.6269 -43.7547 -16.0733 -15.7659 -15.7589
   -12.3961 -12.0031 -11.7295 -11.3100 -11.2346 -11.1909   0.0320   0.5091
     0.6754   1.0995   1.2670   1.3027   1.4546   1.7108   1.7642   2.3531
     2.3684   2.5304   2.8627   3.1193   3.2644   4.0104   4.3419   4.6533
     4.9307   5.1027   5.1267   5.1600   5.3364   5.5254   5.5598   5.7215
     5.7593   7.5439   7.6546   7.7697   8.0966   8.2367   8.3031  13.9235
    14.8321  15.5366  16.9197  17.9438  18.1830  18.8273  19.4121  19.8005

     occupation numbers 
     1.0000   1.0000   1.0000   1.0000   1.0000   1.0000   1.0000   1.0000
     1.0000   1.0000   1.0000   1.0000   1.0000   1.0000   1.0000   1.0000
     1.0000   1.0000   1.0000   1.0000   1.0000   1.0000   1.0000   1.0000
     1.0000   1.0000   1.0000   1.0000   1.0000   1.0000   1.0000   1.0000
     1.0000   1.0000   1.0000   1.0000   1.0000   1.0000   1.0000   1.0000
     1.0000   1.0000   1.0000   1.0000   1.0002   1.0043   1.0069   1.0391
     1.0517   0.0000   0.0000   0.0000   0.0000   0.0000   0.0000   0.0000
     0.0000   0.0000   0.0000   0.0000   0.0000   0.0000   0.0000   0.0000

          k =-0.3333-0.5774 0.3032 (  6312 PWs)   bands (ev):

   -89.6663 -89.6663 -89.4262 -52.9132 -52.9132 -52.8973 -52.8831 -52.8831
   -52.8659 -52.7115 -52.7115 -52.6269 -43.7547 -16.0718 -15.7635 -15.7635
   -12.0622 -12.0622 -12.0586 -11.2355 -11.2309 -11.2309   0.3968   0.3968
     0.4202   1.2448   1.2448   1.2768   1.5817   1.5817   1.6361   2.2909
     2.2909   2.3291   3.1977   3.1977   3.2441   4.3235   4.3235   4.3869
     5.0920   5.0920   5.1515   5.3519   5.3627   5.3627   5.5797   5.5797
     5.6079   7.5552   7.6124   7.6124   8.2768   8.3188   8.3188  14.4512
    14.6463  14.6463  17.7031  17.7146  17.7146  19.7087  19.7089  19.9475

     occupation numbers 
     1.0000   1.0000   1.0000   1.0000   1.0000   1.0000   1.0000   1.0000
     1.0000   1.0000   1.0000   1.0000   1.0000   1.0000   1.0000   1.0000
     1.0000   1.0000   1.0000   1.0000   1.0000   1.0000   1.0000   1.0000
     1.0000   1.0000   1.0000   1.0000   1.0000   1.0000   1.0000   1.0000
     1.0000   1.0000   1.0000   1.0000   1.0000   1.0000   1.0000   1.0000
     1.0000   1.0000   1.0000   1.0002   1.0003   1.0003   1.0089   1.0089
     1.0126   0.0000   0.0000   0.0000   0.0000   0.0000   0.0000   0.0000
     0.0000   0.0000   0.0000   0.0000   0.0000   0.0000   0.0000   0.0000

 ------ SPIN DOWN ----------


          k = 0.0000 0.0000 0.0000 (  6307 PWs)   bands (ev):

   -88.8988 -88.8949 -88.8176 -52.2165 -52.2165 -52.1966 -52.1966 -52.1358
   -52.1358 -52.0254 -52.0182 -51.9899 -43.7527 -16.0706 -15.7493 -15.7493
   -12.9484 -11.3592 -11.3592 -11.2022 -11.2022 -11.0116   0.8205   0.8205
     0.8958   1.0919   1.0919   1.2830   1.2830   1.3171   1.3563   3.0046
     3.0046   3.2138   3.2138   3.3627   3.3789   4.7317   4.8133   4.8133
     5.1799   5.1799   5.5226   5.6132   6.2303   6.2303   6.2873   6.2873
     6.6198   8.0342   8.0342   8.0908   8.0908   8.7988   8.7988  11.7986
    16.0502  17.3398  18.3447  18.3447  18.6026  18.6486  18.9440  18.9440

     occupation numbers 
     1.0000   1.0000   1.0000   1.0000   1.0000   1.0000   1.0000   1.0000
     1.0000   1.0000   1.0000   1.0000   1.0000   1.0000   1.0000   1.0000
     1.0000   1.0000   1.0000   1.0000   1.0000   1.0000   1.0000   1.0000
     1.0000   1.0000   1.0000   1.0000   1.0000   1.0000   1.0000   1.0000
     1.0000   1.0000   1.0000   1.0000   1.0000   1.0000   1.0000   1.0000
     1.0000   1.0000   1.0041   1.0134   0.5114   0.5114   0.3639   0.3639
     0.0103   0.0000   0.0000   0.0000   0.0000   0.0000   0.0000   0.0000
     0.0000   0.0000   0.0000   0.0000   0.0000   0.0000   0.0000   0.0000

          k = 0.0000 0.0000 0.3032 (  6332 PWs)   bands (ev):

   -88.8988 -88.8949 -88.8176 -52.2165 -52.2165 -52.1966 -52.1966 -52.1359
   -52.1359 -52.0253 -52.0184 -51.9900 -43.7527 -16.0764 -15.7493 -15.7493
   -12.9180 -11.3592 -11.3592 -11.2020 -11.2020 -11.0498   0.8060   0.8060
     1.0662   1.0662   1.1009   1.2838   1.2838   1.3622   1.3835   3.0289
     3.0289   3.2312   3.2312   3.3000   3.3352   4.3080   4.8078   4.8078
     5.1800   5.1800   5.5308   5.6180   6.2170   6.2170   6.2742   6.2742
     6.6919   8.0828   8.0828   8.1471   8.1471   8.8046   8.8046  12.6822
    15.0362  17.3516  18.3829  18.3888  18.4061  18.4061  19.0163  19.0164

     occupation numbers 
     1.0000   1.0000   1.0000   1.0000   1.0000   1.0000   1.0000   1.0000
     1.0000   1.0000   1.0000   1.0000   1.0000   1.0000   1.0000   1.0000
     1.0000   1.0000   1.0000   1.0000   1.0000   1.0000   1.0000   1.0000
     1.0000   1.0000   1.0000   1.0000   1.0000   1.0000   1.0000   1.0000
     1.0000   1.0000   1.0000   1.0000   1.0000   1.0000   1.0000   1.0000
     1.0000   1.0000   1.0046   1.0142   0.5477   0.5477   0.3961   0.3961
     0.0033   0.0000   0.0000   0.0000   0.0000   0.0000   0.0000   0.0000
     0.0000   0.0000   0.0000   0.0000   0.0000   0.0000   0.0000   0.0000

          k = 0.0000 0.1925 0.0000 (  6330 PWs)   bands (ev):

   -88.8986 -88.8951 -88.8176 -52.2191 -52.2169 -52.1944 -52.1939 -52.1378
   -52.1361 -52.0249 -52.0187 -51.9901 -43.7528 -16.0683 -15.7530 -15.7503
   -12.8455 -11.4544 -11.3918 -11.2206 -11.1838 -11.0170   0.5159   0.7350
     0.9851   1.0278   1.0964   1.2004   1.3415   1.7137   1.9179   2.7211
     2.7797   2.9877   3.0793   3.7130   3.7946   4.1234   4.3057   4.8870
     5.4774   5.5785   5.6079   5.6977   6.0186   6.0322   6.3295   6.3962
     6.6395   8.0368   8.1108   8.1318   8.1731   8.5544   8.7228  12.1468
    16.4019  17.0460  17.5314  17.7500  18.0524  19.1758  19.5624  19.5840

     occupation numbers 
     1.0000   1.0000   1.0000   1.0000   1.0000   1.0000   1.0000   1.0000
     1.0000   1.0000   1.0000   1.0000   1.0000   1.0000   1.0000   1.0000
     1.0000   1.0000   1.0000   1.0000   1.0000   1.0000   1.0000   1.0000
     1.0000   1.0000   1.0000   1.0000   1.0000   1.0000   1.0000   1.0000
     1.0000   1.0000   1.0000   1.0000   1.0000   1.0000   1.0000   1.0000
     1.0021   1.0088   1.0126   1.0320   1.0042   0.9849   0.2694   0.1535
     0.0076   0.0000   0.0000   0.0000   0.0000   0.0000   0.0000   0.0000
     0.0000   0.0000   0.0000   0.0000   0.0000   0.0000   0.0000   0.0000

          k = 0.0000 0.1925 0.3032 (  6320 PWs)   bands (ev):

   -88.8986 -88.8951 -88.8176 -52.2190 -52.2169 -52.1944 -52.1939 -52.1377
   -52.1360 -52.0247 -52.0187 -51.9901 -43.7527 -16.0734 -15.7527 -15.7501
   -12.8176 -11.4535 -11.3922 -11.2199 -11.1843 -11.0516   0.5091   0.7267
     0.9676   1.0673   1.1499   1.2430   1.3433   1.7332   1.9333   2.7036
     2.7590   3.0276   3.1017   3.7356   3.7919   4.1231   4.2740   4.5720
     5.4774   5.5721   5.5999   5.6992   6.0207   6.0349   6.3054   6.3675
     6.7195   8.0849   8.1414   8.1648   8.2153   8.5335   8.7301  12.9511
    15.3650  16.8897  17.5808  17.7754  17.8957  19.2219  19.6085  19.6708

     occupation numbers 
     1.0000   1.0000   1.0000   1.0000   1.0000   1.0000   1.0000   1.0000
     1.0000   1.0000   1.0000   1.0000   1.0000   1.0000   1.0000   1.0000
     1.0000   1.0000   1.0000   1.0000   1.0000   1.0000   1.0000   1.0000
     1.0000   1.0000   1.0000   1.0000   1.0000   1.0000   1.0000   1.0000
     1.0000   1.0000   1.0000   1.0000   1.0000   1.0000   1.0000   1.0000
     1.0021   1.0081   1.0114   1.0324   1.0015   0.9807   0.3216   0.1981
     0.0020   0.0000   0.0000   0.0000   0.0000   0.0000   0.0000   0.0000
     0.0000   0.0000   0.0000   0.0000   0.0000   0.0000   0.0000   0.0000

          k = 0.0000 0.3849 0.0000 (  6318 PWs)   bands (ev):

   -88.8979 -88.8957 -88.8176 -52.2230 -52.2139 -52.1946 -52.1897 -52.1404
   -52.1365 -52.0236 -52.0196 -51.9903 -43.7527 -16.0630 -15.7599 -15.7521
   -12.5601 -11.7516 -11.4326 -11.2663 -11.1280 -11.0356   0.1256   0.8800
     1.0239   1.0735   1.3253   1.3528   1.4913   1.9306   2.2324   2.6285
     2.7014   2.7457   3.0639   3.1358   3.6298   3.9717   4.3703   5.0720
     5.6325   5.6606   5.8032   5.8149   5.9973   6.0215   6.1843   6.4197
     6.6078   8.0690   8.1229   8.1530   8.1834   8.4713   8.4996  13.0219
    15.4882  17.0459  17.2832  17.7467  18.0565  19.0625  19.3993  19.4977

     occupation numbers 
     1.0000   1.0000   1.0000   1.0000   1.0000   1.0000   1.0000   1.0000
     1.0000   1.0000   1.0000   1.0000   1.0000   1.0000   1.0000   1.0000
     1.0000   1.0000   1.0000   1.0000   1.0000   1.0000   1.0000   1.0000
     1.0000   1.0000   1.0000   1.0000   1.0000   1.0000   1.0000   1.0000
     1.0000   1.0000   1.0000   1.0000   1.0000   1.0000   1.0000   1.0000
     1.0167   1.0225   1.0666   1.0703   1.0300   1.0003   0.6382   0.1227
     0.0123   0.0000   0.0000   0.0000   0.0000   0.0000   0.0000   0.0000
     0.0000   0.0000   0.0000   0.0000   0.0000   0.0000   0.0000   0.0000

          k = 0.0000 0.3849 0.3032 (  6304 PWs)   bands (ev):

   -88.8979 -88.8957 -88.8176 -52.2228 -52.2141 -52.1945 -52.1897 -52.1404
   -52.1364 -52.0235 -52.0197 -51.9904 -43.7526 -16.0675 -15.7594 -15.7518
   -12.5386 -11.7459 -11.4336 -11.2644 -11.1333 -11.0614   0.1180   0.8499
     0.9596   1.0292   1.3026   1.4626   1.5215   1.9409   2.2039   2.6649
     2.7234   2.8149   3.0850   3.1735   3.6244   4.0601   4.3715   4.8808
     5.6321   5.6577   5.8077   5.8195   5.9807   6.0037   6.1683   6.3775
     6.6784   8.0406   8.0763   8.1502   8.2034   8.4803   8.5232  13.5946
    15.4779  16.2516  16.9072  17.3733  18.6495  18.7508  19.0468  19.8390

     occupation numbers 
     1.0000   1.0000   1.0000   1.0000   1.0000   1.0000   1.0000   1.0000
     1.0000   1.0000   1.0000   1.0000   1.0000   1.0000   1.0000   1.0000
     1.0000   1.0000   1.0000   1.0000   1.0000   1.0000   1.0000   1.0000
     1.0000   1.0000   1.0000   1.0000   1.0000   1.0000   1.0000   1.0000
     1.0000   1.0000   1.0000   1.0000   1.0000   1.0000   1.0000   1.0000
     1.0166   1.0218   1.0681   1.0717   1.0463   1.0229   0.6823   0.1818
     0.0041   0.0000   0.0000   0.0000   0.0000   0.0000   0.0000   0.0000
     0.0000   0.0000   0.0000   0.0000   0.0000   0.0000   0.0000   0.0000

          k = 0.0000-0.5774 0.0000 (  6336 PWs)   bands (ev):

   -88.8975 -88.8962 -88.8177 -52.2245 -52.2098 -52.1983 -52.1880 -52.1410
   -52.1368 -52.0226 -52.0205 -51.9905 -43.7527 -16.0605 -15.7635 -15.7531
   -12.1721 -12.1482 -11.4494 -11.2888 -11.0811 -11.0655  -0.0199   0.9632
     0.9833   1.3519   1.3898   1.6328   1.7496   1.7974   1.8973   2.4725
     2.5299   2.8156   3.0411   3.0479   3.3607   4.0416   4.8486   4.9238
     5.5836   5.7044   5.7244   5.7265   6.0845   6.2720   6.3091   6.3447
     6.4489   8.0107   8.0452   8.1774   8.2180   8.2748   8.6653  14.0807
    14.2623  16.7465  17.3282  18.4886  18.5759  18.6824  18.8112  18.9593

     occupation numbers 
     1.0000   1.0000   1.0000   1.0000   1.0000   1.0000   1.0000   1.0000
     1.0000   1.0000   1.0000   1.0000   1.0000   1.0000   1.0000   1.0000
     1.0000   1.0000   1.0000   1.0000   1.0000   1.0000   1.0000   1.0000
     1.0000   1.0000   1.0000   1.0000   1.0000   1.0000   1.0000   1.0000
     1.0000   1.0000   1.0000   1.0000   1.0000   1.0000   1.0000   1.0000
     1.0094   1.0339   1.0400   1.0407   0.8895   0.4015   0.3131   0.2393
     0.0911   0.0000   0.0000   0.0000   0.0000   0.0000   0.0000   0.0000
     0.0000   0.0000   0.0000   0.0000   0.0000   0.0000   0.0000   0.0000

          k = 0.0000-0.5774 0.3032 (  6310 PWs)   bands (ev):

   -88.8974 -88.8962 -88.8177 -52.2244 -52.2097 -52.1984 -52.1879 -52.1411
   -52.1367 -52.0225 -52.0205 -51.9905 -43.7526 -16.0645 -15.7628 -15.7529
   -12.1470 -12.1469 -11.4505 -11.2866 -11.0909 -11.0848  -0.0284   0.8767
     0.9141   1.3503   1.3825   1.5633   1.7707   1.8525   1.9052   2.6133
     2.6520   2.8446   3.0398   3.0401   3.3668   4.1591   4.8100   4.8659
     5.5781   5.7044   5.7247   5.7293   6.0762   6.2238   6.2607   6.3690
     6.4828   7.9006   7.9378   8.1884   8.2721   8.3184   8.6565  14.3563
    14.5159  16.5239  17.0987  17.4243  17.5889  18.7325  19.7498  19.8689

     occupation numbers 
     1.0000   1.0000   1.0000   1.0000   1.0000   1.0000   1.0000   1.0000
     1.0000   1.0000   1.0000   1.0000   1.0000   1.0000   1.0000   1.0000
     1.0000   1.0000   1.0000   1.0000   1.0000   1.0000   1.0000   1.0000
     1.0000   1.0000   1.0000   1.0000   1.0000   1.0000   1.0000   1.0000
     1.0000   1.0000   1.0000   1.0000   1.0000   1.0000   1.0000   1.0000
     1.0087   1.0339   1.0401   1.0416   0.9067   0.5290   0.4303   0.1956
     0.0627   0.0000   0.0000   0.0000   0.0000   0.0000   0.0000   0.0000
     0.0000   0.0000   0.0000   0.0000   0.0000   0.0000   0.0000   0.0000

          k = 0.1667 0.2887 0.0000 (  6317 PWs)   bands (ev):

   -88.8981 -88.8955 -88.8176 -52.2206 -52.2167 -52.1942 -52.1905 -52.1397
   -52.1364 -52.0239 -52.0193 -51.9902 -43.7527 -16.0643 -15.7576 -15.7522
   -12.6514 -11.5583 -11.5574 -11.1815 -11.1812 -11.0292   0.4317   0.4886
     1.0511   1.1542   1.2008   1.2508   1.4609   2.0845   2.1140   2.6769
     2.6789   2.8581   2.9308   3.2781   3.9540   4.0653   4.0710   4.9879
     5.6572   5.7363   5.8184   5.8482   5.8557   5.8756   6.3274   6.3318
     6.6324   8.0700   8.1172   8.1767   8.2714   8.3099   8.6397  12.7468
    16.1745  16.3784  17.1922  17.8822  18.7881  18.8468  19.3904  19.4317

     occupation numbers 
     1.0000   1.0000   1.0000   1.0000   1.0000   1.0000   1.0000   1.0000
     1.0000   1.0000   1.0000   1.0000   1.0000   1.0000   1.0000   1.0000
     1.0000   1.0000   1.0000   1.0000   1.0000   1.0000   1.0000   1.0000
     1.0000   1.0000   1.0000   1.0000   1.0000   1.0000   1.0000   1.0000
     1.0000   1.0000   1.0000   1.0000   1.0000   1.0000   1.0000   1.0000
     1.0217   1.0439   1.0713   1.0789   1.0804   1.0829   0.2738   0.2647
     0.0085   0.0000   0.0000   0.0000   0.0000   0.0000   0.0000   0.0000
     0.0000   0.0000   0.0000   0.0000   0.0000   0.0000   0.0000   0.0000

          k = 0.1667 0.2887 0.3032 (  6308 PWs)   bands (ev):

   -88.8981 -88.8955 -88.8176 -52.2206 -52.2166 -52.1941 -52.1905 -52.1397
   -52.1364 -52.0239 -52.0194 -51.9903 -43.7527 -16.0690 -15.7571 -15.7521
   -12.6277 -11.5560 -11.5525 -11.1875 -11.1813 -11.0579   0.4224   0.4783
     0.9863   1.1221   1.1608   1.4224   1.4612   2.0653   2.1022   2.6971
     2.7018   2.8994   2.9674   3.3092   3.9533   4.1098   4.1270   4.7615
     5.6205   5.7295   5.8130   5.8507   5.8594   5.8755   6.3064   6.3173
     6.7185   8.0540   8.0989   8.1020   8.2970   8.3349   8.6376  13.4590
    15.8431  16.3718  16.4111  18.3289  18.3428  18.4992  19.2857  19.4848

     occupation numbers 
     1.0000   1.0000   1.0000   1.0000   1.0000   1.0000   1.0000   1.0000
     1.0000   1.0000   1.0000   1.0000   1.0000   1.0000   1.0000   1.0000
     1.0000   1.0000   1.0000   1.0000   1.0000   1.0000   1.0000   1.0000
     1.0000   1.0000   1.0000   1.0000   1.0000   1.0000   1.0000   1.0000
     1.0000   1.0000   1.0000   1.0000   1.0000   1.0000   1.0000   1.0000
     1.0146   1.0417   1.0697   1.0794   1.0810   1.0829   0.3192   0.2951
     0.0021   0.0000   0.0000   0.0000   0.0000   0.0000   0.0000   0.0000
     0.0000   0.0000   0.0000   0.0000   0.0000   0.0000   0.0000   0.0000

          k = 0.1667 0.4811 0.0000 (  6294 PWs)   bands (ev):

   -88.8974 -88.8961 -88.8177 -52.2217 -52.2121 -52.1991 -52.1878 -52.1402
   -52.1369 -52.0226 -52.0203 -51.9904 -43.7527 -16.0604 -15.7616 -15.7545
   -12.3093 -11.9063 -11.6268 -11.1927 -11.1125 -11.0585   0.2066   0.7297
     0.9315   1.2833   1.4450   1.4929   1.6538   1.8963   1.9637   2.4586
     2.5416   2.7586   3.0459   3.2386   3.4925   4.1623   4.5536   4.9519
     5.6770   5.7370   5.7535   5.7998   6.0532   6.0902   6.1777   6.3348
     6.5227   7.9157   7.9917   8.1204   8.3842   8.5077   8.5848  13.7140
    14.9128  15.8590  18.0121  18.3886  18.4748  18.7988  18.9514  19.2102

     occupation numbers 
     1.0000   1.0000   1.0000   1.0000   1.0000   1.0000   1.0000   1.0000
     1.0000   1.0000   1.0000   1.0000   1.0000   1.0000   1.0000   1.0000
     1.0000   1.0000   1.0000   1.0000   1.0000   1.0000   1.0000   1.0000
     1.0000   1.0000   1.0000   1.0000   1.0000   1.0000   1.0000   1.0000
     1.0000   1.0000   1.0000   1.0000   1.0000   1.0000   1.0000   1.0000
     1.0264   1.0441   1.0497   1.0655   0.9505   0.8772   0.6565   0.2586
     0.0390   0.0000   0.0000   0.0000   0.0000   0.0000   0.0000   0.0000
     0.0000   0.0000   0.0000   0.0000   0.0000   0.0000   0.0000   0.0000

          k = 0.1667 0.4811 0.3032 (  6307 PWs)   bands (ev):

   -88.8974 -88.8962 -88.8177 -52.2218 -52.2121 -52.1991 -52.1878 -52.1402
   -52.1369 -52.0226 -52.0205 -51.9905 -43.7526 -16.0646 -15.7612 -15.7545
   -12.2923 -11.8969 -11.6213 -11.1974 -11.1214 -11.0784   0.1940   0.6873
     0.8512   1.2453   1.3888   1.5281   1.6852   1.8940   1.9537   2.5703
     2.6512   2.8187   3.0549   3.2461   3.4947   4.2641   4.5838   4.8885
     5.6669   5.7153   5.7479   5.7989   6.0418   6.0744   6.1763   6.3438
     6.5834   7.7768   7.8908   8.0643   8.3997   8.5117   8.5803  14.2089
    15.1410  16.0276  16.8984  17.6633  17.9432  18.9298  19.3313  19.6699

     occupation numbers 
     1.0000   1.0000   1.0000   1.0000   1.0000   1.0000   1.0000   1.0000
     1.0000   1.0000   1.0000   1.0000   1.0000   1.0000   1.0000   1.0000
     1.0000   1.0000   1.0000   1.0000   1.0000   1.0000   1.0000   1.0000
     1.0000   1.0000   1.0000   1.0000   1.0000   1.0000   1.0000   1.0000
     1.0000   1.0000   1.0000   1.0000   1.0000   1.0000   1.0000   1.0000
     1.0239   1.0372   1.0478   1.0652   0.9698   0.9103   0.6603   0.2411
     0.0175   0.0000   0.0000   0.0000   0.0000   0.0000   0.0000   0.0000
     0.0000   0.0000   0.0000   0.0000   0.0000   0.0000   0.0000   0.0000

          k = 0.3333 0.5774 0.0000 (  6294 PWs)   bands (ev):

   -88.8968 -88.8968 -88.8177 -52.2195 -52.2074 -52.2074 -52.1869 -52.1383
   -52.1383 -52.0215 -52.0215 -51.9905 -43.7527 -16.0593 -15.7591 -15.7591
   -11.9789 -11.9584 -11.9584 -11.1146 -11.1146 -11.0981   0.6086   0.6086
     0.6570   1.4345   1.4345   1.4634   1.7679   1.7679   1.8472   2.4001
     2.4888   2.4888   3.3753   3.3753   3.4325   4.5426   4.5426   4.6350
     5.7108   5.7534   5.7534   5.9398   5.9398   5.9496   6.2571   6.3750
     6.3750   7.9281   7.9626   7.9626   8.5788   8.5843   8.5843  14.5212
    14.7615  14.7615  18.4313  18.5233  18.5233  18.9099  18.9099  18.9900

     occupation numbers 
     1.0000   1.0000   1.0000   1.0000   1.0000   1.0000   1.0000   1.0000
     1.0000   1.0000   1.0000   1.0000   1.0000   1.0000   1.0000   1.0000
     1.0000   1.0000   1.0000   1.0000   1.0000   1.0000   1.0000   1.0000
     1.0000   1.0000   1.0000   1.0000   1.0000   1.0000   1.0000   1.0000
     1.0000   1.0000   1.0000   1.0000   1.0000   1.0000   1.0000   1.0000
     1.0358   1.0497   1.0497   1.0728   1.0728   1.0681   0.4398   0.1858
     0.1858   0.0000   0.0000   0.0000   0.0000   0.0000   0.0000   0.0000
     0.0000   0.0000   0.0000   0.0000   0.0000   0.0000   0.0000   0.0000

          k = 0.3333 0.5774 0.3032 (  6312 PWs)   bands (ev):

   -88.8968 -88.8968 -88.8177 -52.2196 -52.2074 -52.2074 -52.1869 -52.1384
   -52.1384 -52.0215 -52.0215 -51.9906 -43.7526 -16.0632 -15.7590 -15.7590
   -11.9542 -11.9542 -11.9540 -11.1211 -11.1201 -11.1201   0.5691   0.5691
     0.6050   1.3941   1.3941   1.4111   1.7666   1.7666   1.8431   2.5586
     2.6074   2.6074   3.3777   3.3777   3.4400   4.5830   4.5830   4.6776
     5.6954   5.7312   5.7312   5.9410   5.9410   5.9518   6.2818   6.4051
     6.4051   7.7906   7.8377   7.8377   8.5680   8.5757   8.5757  14.8609
    15.1023  15.1023  17.5193  17.5193  17.6248  19.3805  19.4522  19.4524

     occupation numbers 
     1.0000   1.0000   1.0000   1.0000   1.0000   1.0000   1.0000   1.0000
     1.0000   1.0000   1.0000   1.0000   1.0000   1.0000   1.0000   1.0000
     1.0000   1.0000   1.0000   1.0000   1.0000   1.0000   1.0000   1.0000
     1.0000   1.0000   1.0000   1.0000   1.0000   1.0000   1.0000   1.0000
     1.0000   1.0000   1.0000   1.0000   1.0000   1.0000   1.0000   1.0000
     1.0313   1.0422   1.0422   1.0723   1.0723   1.0669   0.3772   0.1413
     0.1413   0.0000   0.0000   0.0000   0.0000   0.0000   0.0000   0.0000
     0.0000   0.0000   0.0000   0.0000   0.0000   0.0000   0.0000   0.0000

          k =-0.1667-0.2887 0.3032 (  6308 PWs)   bands (ev):

   -88.8981 -88.8955 -88.8176 -52.2205 -52.2166 -52.1942 -52.1905 -52.1397
   -52.1364 -52.0239 -52.0194 -51.9903 -43.7527 -16.0690 -15.7570 -15.7520
   -12.6282 -11.5581 -11.5550 -11.1824 -11.1816 -11.0575   0.4165   0.4713
     1.0022   1.1281   1.1658   1.4111   1.4630   2.0810   2.1155   2.6697
     2.6773   2.9311   2.9980   3.3006   3.9500   4.0738   4.0878   4.7760
     5.6081   5.7353   5.8170   5.8497   5.8622   5.8803   6.2929   6.2962
     6.6977   8.1171   8.1603   8.1635   8.2847   8.3030   8.6453  13.3320
    15.8205  16.1475  16.2355  18.4310  18.7363  18.7921  19.1392  19.3241

     occupation numbers 
     1.0000   1.0000   1.0000   1.0000   1.0000   1.0000   1.0000   1.0000
     1.0000   1.0000   1.0000   1.0000   1.0000   1.0000   1.0000   1.0000
     1.0000   1.0000   1.0000   1.0000   1.0000   1.0000   1.0000   1.0000
     1.0000   1.0000   1.0000   1.0000   1.0000   1.0000   1.0000   1.0000
     1.0000   1.0000   1.0000   1.0000   1.0000   1.0000   1.0000   1.0000
     1.0126   1.0436   1.0709   1.0792   1.0814   1.0831   0.3506   0.3428
     0.0030   0.0000   0.0000   0.0000   0.0000   0.0000   0.0000   0.0000
     0.0000   0.0000   0.0000   0.0000   0.0000   0.0000   0.0000   0.0000

          k =-0.1667-0.4811 0.3032 (  6307 PWs)   bands (ev):

   -88.8974 -88.8962 -88.8177 -52.2218 -52.2121 -52.1991 -52.1878 -52.1402
   -52.1369 -52.0226 -52.0205 -51.9905 -43.7526 -16.0645 -15.7610 -15.7543
   -12.2936 -11.8990 -11.6253 -11.1933 -11.1194 -11.0771   0.1888   0.6843
     0.8663   1.2487   1.3973   1.5166   1.6763   1.8917   1.9578   2.5925
     2.6854   2.8495   3.0425   3.2427   3.4899   4.1949   4.5286   4.8554
     5.6776   5.7126   5.7542   5.7976   6.0440   6.0789   6.1585   6.3005
     6.5399   7.9000   8.0064   8.1459   8.3844   8.5136   8.5801  13.9784
    14.8764  15.5749  17.0407  18.0637  18.3063  18.8643  19.5187  19.8723

     occupation numbers 
     1.0000   1.0000   1.0000   1.0000   1.0000   1.0000   1.0000   1.0000
     1.0000   1.0000   1.0000   1.0000   1.0000   1.0000   1.0000   1.0000
     1.0000   1.0000   1.0000   1.0000   1.0000   1.0000   1.0000   1.0000
     1.0000   1.0000   1.0000   1.0000   1.0000   1.0000   1.0000   1.0000
     1.0000   1.0000   1.0000   1.0000   1.0000   1.0000   1.0000   1.0000
     1.0266   1.0363   1.0500   1.0648   0.9661   0.9013   0.7086   0.3327
     0.0314   0.0000   0.0000   0.0000   0.0000   0.0000   0.0000   0.0000
     0.0000   0.0000   0.0000   0.0000   0.0000   0.0000   0.0000   0.0000

          k =-0.3333-0.5774 0.3032 (  6312 PWs)   bands (ev):

   -88.8968 -88.8968 -88.8177 -52.2196 -52.2074 -52.2074 -52.1869 -52.1384
   -52.1384 -52.0215 -52.0215 -51.9906 -43.7526 -16.0631 -15.7587 -15.7587
   -11.9581 -11.9581 -11.9551 -11.1202 -11.1163 -11.1163   0.5726   0.5726
     0.5995   1.3865   1.3865   1.4179   1.7693   1.7693   1.8474   2.5955
     2.6399   2.6399   3.3751   3.3751   3.4321   4.5123   4.5123   4.5921
     5.6999   5.7293   5.7293   5.9401   5.9401   5.9512   6.2394   6.3646
     6.3646   7.9397   7.9820   7.9820   8.5749   8.5819   8.5819  14.4929
    14.6916  14.6916  17.8204  17.8473  17.8473  19.7684  19.7685  20.0119

     occupation numbers 
     1.0000   1.0000   1.0000   1.0000   1.0000   1.0000   1.0000   1.0000
     1.0000   1.0000   1.0000   1.0000   1.0000   1.0000   1.0000   1.0000
     1.0000   1.0000   1.0000   1.0000   1.0000   1.0000   1.0000   1.0000
     1.0000   1.0000   1.0000   1.0000   1.0000   1.0000   1.0000   1.0000
     1.0000   1.0000   1.0000   1.0000   1.0000   1.0000   1.0000   1.0000
     1.0326   1.0416   1.0416   1.0727   1.0727   1.0672   0.4867   0.2031
     0.2031   0.0000   0.0000   0.0000   0.0000   0.0000   0.0000   0.0000
     0.0000   0.0000   0.0000   0.0000   0.0000   0.0000   0.0000   0.0000

     the Fermi energy is     6.2724 ev

!    total energy              =   -1489.17707470 Ry
     total all-electron energy =     -9588.411882 Ry
     estimated scf accuracy    <       0.00000006 Ry
     smearing contrib. (-TS)   =       0.01013545 Ry
     internal energy E=F+TS    =   -1489.18721014 Ry

     The total energy is F=E-TS. E is the sum of the following terms:
     one-electron contribution =   -1108.96952151 Ry
     hartree contribution      =     596.25795360 Ry
     xc contribution           =    -150.90671877 Ry
     ewald contribution        =    -490.04437505 Ry
     one-center paw contrib.   =    -335.52454841 Ry
      -> PAW hartree energy AE =     887.85821011 Ry
      -> PAW hartree energy PS =    -885.58403790 Ry
      -> PAW xc energy AE      =    -480.69868152 Ry
      -> PAW xc energy PS      =     142.89996091 Ry
      -> total E_H with PAW    =     598.53212581 Ry
      -> total E_XC with PAW   =    -488.70543938 Ry

     total magnetization       =     2.31 Bohr mag/cell
     absolute magnetization    =     2.35 Bohr mag/cell

     convergence has been achieved in  20 iterations

     Forces acting on atoms (cartesian axes, Ry/au):

     atom    1 type  1   force =     0.00000000    0.00000000    0.21000577
     atom    2 type  1   force =     0.00000000    0.00000000    0.01888416
     atom    3 type  1   force =     0.00000000    0.00000000    0.01888416
     atom    4 type  2   force =    -0.00009127   -0.00015809   -0.03082002
     atom    5 type  2   force =     0.00018254    0.00000000   -0.03082002
     atom    6 type  2   force =    -0.00009127    0.00015809   -0.03082002
     atom    7 type  2   force =     0.05378263   -0.00000000    0.05786916
     atom    8 type  2   force =    -0.02689132   -0.04657713    0.05786916
     atom    9 type  2   force =    -0.02689132    0.04657713    0.05786916
     atom   10 type  3   force =     0.00000000   -0.00000000   -0.32892150
     The non-local contrib.  to forces
     atom    1 type  1   force =     0.00000000    0.00000000   -0.45783594
     atom    2 type  1   force =     0.00000000    0.00000000    0.00587318
     atom    3 type  1   force =     0.00000000    0.00000000    0.00587318
     atom    4 type  2   force =    -0.01309990   -0.02268970   -1.21316017
     atom    5 type  2   force =     0.02619980    0.00000000   -1.21316017
     atom    6 type  2   force =    -0.01309990    0.02268970   -1.21316017
     atom    7 type  2   force =    -0.09199460   -0.00000000    1.12425801
     atom    8 type  2   force =     0.04599730    0.07966966    1.12425801
     atom    9 type  2   force =     0.04599730   -0.07966966    1.12425801
     atom   10 type  3   force =     0.00000000    0.00000000   -0.32010977
     The ionic contribution  to forces
     atom    1 type  1   force =    -0.00000000   -0.00000000   15.62726527
     atom    2 type  1   force =     0.00000002   -0.00000001    3.83472524
     atom    3 type  1   force =    -0.00000002    0.00000001    3.83472524
     atom    4 type  2   force =     0.49923840    0.86470627   26.33352093
     atom    5 type  2   force =    -0.99847679   -0.00000000   26.33352094
     atom    6 type  2   force =     0.49923839   -0.86470627   26.33352094
     atom    7 type  2   force =     4.54491882    0.00000000  -23.05295101
     atom    8 type  2   force =    -2.27245941   -3.93601516  -23.05295101
     atom    9 type  2   force =    -2.27245940    3.93601515  -23.05295101
     atom   10 type  3   force =    -0.00000000    0.00000000  -33.13842552
     The local contribution  to forces
     atom    1 type  1   force =     0.00000000    0.00000000  -14.96095525
     atom    2 type  1   force =     0.00000021   -0.00000012   -3.82163789
     atom    3 type  1   force =    -0.00000021    0.00000012   -3.82163789
     atom    4 type  2   force =    -0.48629676   -0.84229070  -25.16192014
     atom    5 type  2   force =     0.97259352    0.00000000  -25.16192014
     atom    6 type  2   force =    -0.48629676    0.84229070  -25.16192014
     atom    7 type  2   force =    -4.39921805   -0.00000000   21.99696764
     atom    8 type  2   force =     2.19960902    3.80983459   21.99696764
     atom    9 type  2   force =     2.19960902   -3.80983459   21.99696764
     atom   10 type  3   force =     0.00000000    0.00000000   33.12956709
     The core correction contribution to forces
     atom    1 type  1   force =    -0.00000000   -0.00000000    0.00092311
     atom    2 type  1   force =     0.00000000   -0.00000000   -0.00013585
     atom    3 type  1   force =    -0.00000000    0.00000000   -0.00013585
     atom    4 type  2   force =     0.00010983    0.00019023    0.01075875
     atom    5 type  2   force =    -0.00021966    0.00000000    0.01075875
     atom    6 type  2   force =     0.00010983   -0.00019023    0.01075875
     atom    7 type  2   force =     0.00010062   -0.00000000   -0.01032934
     atom    8 type  2   force =    -0.00005031   -0.00008714   -0.01032934
     atom    9 type  2   force =    -0.00005031    0.00008714   -0.01032934
     atom   10 type  3   force =     0.00000000    0.00000000    0.00035946
     The Hubbard contrib.    to forces
     atom    1 type  1   force =     0.00000000    0.00000000    0.00000000
     atom    2 type  1   force =     0.00000000    0.00000000    0.00000000
     atom    3 type  1   force =     0.00000000    0.00000000    0.00000000
     atom    4 type  2   force =     0.00000000    0.00000000    0.00000000
     atom    5 type  2   force =     0.00000000    0.00000000    0.00000000
     atom    6 type  2   force =     0.00000000    0.00000000    0.00000000
     atom    7 type  2   force =     0.00000000    0.00000000    0.00000000
     atom    8 type  2   force =     0.00000000    0.00000000    0.00000000
     atom    9 type  2   force =     0.00000000    0.00000000    0.00000000
     atom   10 type  3   force =     0.00000000    0.00000000    0.00000000
     The SCF correction term to forces
     atom    1 type  1   force =    -0.00000000   -0.00000000    0.00063927
     atom    2 type  1   force =    -0.00000000    0.00000000    0.00009015
     atom    3 type  1   force =     0.00000000   -0.00000000    0.00009015
     atom    4 type  2   force =    -0.00004284   -0.00007419    0.00001128
     atom    5 type  2   force =     0.00008567    0.00000000    0.00001128
     atom    6 type  2   force =    -0.00004284    0.00007419    0.00001128
     atom    7 type  2   force =    -0.00002416   -0.00000000   -0.00004545
     atom    8 type  2   force =     0.00001208    0.00002092   -0.00004545
     atom    9 type  2   force =     0.00001208   -0.00002092   -0.00004545
     atom   10 type  3   force =     0.00000000    0.00000000   -0.00028208

     Total force =     0.417826     Total SCF correction =     0.000731

     Writing all to output data dir ./out/pw.save/ :
     XML data file, charge density, pseudopotentials, collected wavefunctions
 
     init_run     :     21.78s CPU      4.49s WALL (       1 calls)
     electrons    :    259.19s CPU     57.19s WALL (       1 calls)
     forces       :      0.97s CPU      0.87s WALL (       1 calls)

     Called by init_run:
     wfcinit      :      0.43s CPU      0.56s WALL (       1 calls)
     wfcinit:atom :      0.06s CPU      0.06s WALL (      34 calls)
     wfcinit:wfcr :      0.28s CPU      0.31s WALL (      34 calls)
     potinit      :     20.72s CPU      3.27s WALL (       1 calls)
     hinit0       :      0.51s CPU      0.50s WALL (       1 calls)

     Called by electrons:
     c_bands      :     22.68s CPU     22.85s WALL (      20 calls)
     sum_band     :      3.26s CPU      3.29s WALL (      20 calls)
     v_of_rho     :      0.41s CPU      0.28s WALL (      21 calls)
     v_h          :      0.27s CPU      0.06s WALL (      21 calls)
     v_xc         :      0.16s CPU      0.22s WALL (      22 calls)
     newd         :      0.51s CPU      0.40s WALL (      21 calls)
                                        0.40s GPU  (      21 calls)
     PAW_pot      :    241.90s CPU     30.87s WALL (      21 calls)
     mix_rho      :      0.78s CPU      0.78s WALL (      20 calls)

     Called by c_bands:
     init_us_2    :      0.80s CPU      0.79s WALL (    1428 calls)
     cegterg      :     19.25s CPU     19.43s WALL (     680 calls)

     Called by sum_band:
     sum_band:wei :      0.04s CPU      0.04s WALL (      20 calls)
                                        0.04s GPU  (      20 calls)
     sum_band:loo :      2.24s CPU      2.24s WALL (      20 calls)
                                        2.24s GPU  (      20 calls)
     sum_band:buf :      0.54s CPU      0.56s WALL (     680 calls)
                                        0.55s GPU  (     680 calls)
     sum_band:ini :      0.38s CPU      0.38s WALL (     680 calls)
                                        0.37s GPU  (     680 calls)
     sum_band:cal :      0.05s CPU      0.08s WALL (     680 calls)
                                        0.05s GPU  (     680 calls)
     sum_band:bec :      0.31s CPU      0.33s WALL (     680 calls)
                                        0.32s GPU  (     680 calls)
     addusdens    :      0.73s CPU      0.74s WALL (      20 calls)
                                        0.74s GPU  (      20 calls)
     addusd:skk   :      0.01s CPU      0.01s WALL (      60 calls)
                                        0.01s GPU  (      60 calls)

     Called by *egterg:
     cdiaghg      :      8.69s CPU      8.80s WALL (    3784 calls)
                                        8.75s GPU  (    3784 calls)
     cegterg:over :      0.96s CPU      0.99s WALL (    3104 calls)
     cegterg:upda :      1.07s CPU      1.08s WALL (    3104 calls)
     cegterg:last :      0.14s CPU      0.14s WALL (    1313 calls)
     h_psi        :      6.46s CPU      6.62s WALL (    3818 calls)
                                        6.57s GPU  (    3818 calls)
     s_psi        :      1.18s CPU      1.22s WALL (    3818 calls)
     g_psi        :      0.02s CPU      0.10s WALL (    3104 calls)
                                        0.06s GPU  (    3104 calls)

     Called by h_psi:
     h_psi:calbec :      0.15s CPU      0.34s WALL (    3818 calls)
                                        0.29s GPU  (    3818 calls)
     vloc_psi     :      4.64s CPU      4.71s WALL (    3818 calls)
                                        4.67s GPU  (    3818 calls)
     add_vuspsi   :      1.12s CPU      1.29s WALL (    3818 calls)
                                        1.24s GPU  (    3818 calls)

     General routines
     calbec       :      0.17s CPU      0.20s WALL (    4634 calls)
     fft          :      6.96s CPU      1.13s WALL (     538 calls)
                                        0.03s GPU  (     496 calls)
     ffts         :      2.98s CPU      0.66s WALL (     847 calls)
                                        0.02s GPU  (     805 calls)
     fftw         :      0.31s CPU      2.47s WALL (   19708 calls)
                                        2.26s GPU  (   19708 calls)
     interpolate  :     10.14s CPU      1.77s WALL (      42 calls)
 
     Parallel routines

     PAW routines
     PAW_pot      :    241.90s CPU     30.87s WALL (      21 calls)
     PAW_symme    :      0.03s CPU      0.01s WALL (      41 calls)
 
     PWSCF        :   4m42.75s CPU   1m 3.15s WALL

 
   This run was terminated on:   2:45:16  12Jul2026            

=------------------------------------------------------------------------------=
   JOB DONE.
=------------------------------------------------------------------------------=
Warning: ieee_divide_by_zero is signaling
Warning: ieee_inexact is signaling
FORTRAN STOP
