
     Program PWSCF v.7.3.1 starts on 12Jul2026 at  2:17: 2 

     This program is part of the open-source Quantum ESPRESSO suite
     for quantum simulation of materials; please cite
         "P. Giannozzi et al., J. Phys.:Condens. Matter 21 395502 (2009);
         "P. Giannozzi et al., J. Phys.:Condens. Matter 29 465901 (2017);
         "P. Giannozzi et al., J. Chem. Phys. 152 154105 (2020);
          URL http://www.quantum-espresso.org", 
     in publications or presentations arising from this work. More details at
     http://www.quantum-espresso.org/quote

     Parallel version (MPI & OpenMP), running on      14 processor cores
     Number of MPI processes:                 1
     Threads/MPI process:                    14

     MPI processes distributed on     1 nodes
     850910 MiB available memory on the printing compute node when the environment starts
 
     Reading input from pw.in

     Current dimensions of program PWSCF are:
     Max number of different atomic species (ntypx) = 10
     Max number of k-points (npk) =  40000
     Max angular momentum in pseudopotentials (lmaxx) =  4
     file Co.pbe-spn-kjpaw_psl.0.3.1.UPF: wavefunction(s)  3P 3D renormalized
     file O.pbe-n-kjpaw_psl.1.0.0.UPF: wavefunction(s)  2S 2P renormalized
     file Na.pbe-spn-kjpaw_psl.1.0.0.UPF: wavefunction(s)  2P renormalized
 
     Subspace diagonalization in iterative solution of the eigenvalue problem:
     a serial algorithm will be used

 
     G-vector sticks info
     --------------------
     sticks:   dense  smooth     PW     G-vecs:    dense   smooth      PW
     Sum         979     499    151                85601    30351    5001
 
     Using Slab Decomposition
 


     bravais-lattice index     =            4
     lattice parameter (alat)  =       5.4575  a.u.
     unit-cell volume          =     482.5661 (a.u.)^3
     number of atoms/cell      =            4
     number of atomic types    =            3
     number of electrons       =        38.00
     number of Kohn-Sham states=           27
     kinetic-energy cutoff     =      60.0000  Ry
     charge density cutoff     =     480.0000  Ry
     scf convergence threshold =      1.0E-08
     mixing beta               =       0.3000
     number of iterations used =            8  plain     mixing
     Exchange-correlation= SLA  PW   PBX  PBC
                           (   1   4   3   4   0   0   0)

     GPU acceleration is ACTIVE.  1 visible GPUs per MPI rank
     GPU-aware MPI enabled


     GPU used by master process:

        Device Number: 0
        Device name: NVIDIA A100-SXM4-80GB
        Compute capability : 80
        Ratio of single to double precision performance  : 2
        Memory Clock Rate (KHz): 1593000
        Memory Bus Width (bits): 5120
        Peak Memory Bandwidth (GB/s): ******

     celldm(1)=   5.457529  celldm(2)=   0.000000  celldm(3)=   3.427978
     celldm(4)=   0.000000  celldm(5)=   0.000000  celldm(6)=   0.000000

     crystal axes: (cart. coord. in units of alat)
               a(1) = (   1.000000   0.000000   0.000000 )  
               a(2) = (  -0.500000   0.866025   0.000000 )  
               a(3) = (   0.000000   0.000000   3.427978 )  

     reciprocal axes: (cart. coord. in units 2 pi/alat)
               b(1) = (  1.000000  0.577350 -0.000000 )  
               b(2) = (  0.000000  1.154701  0.000000 )  
               b(3) = (  0.000000 -0.000000  0.291717 )  


     PseudoPot. # 1 for Co read from file:
     ../../pseudo/Co.pbe-spn-kjpaw_psl.0.3.1.UPF
     MD5 check sum: 3c0a43779828c046024e4f3be63f8e67
     Pseudo is Projector augmented-wave + core cor, Zval = 17.0
     Generated using &quot;atomic&quot; code by A. Dal Corso  v.6.2.2
     Shape of augmentation charge: PSQ
     Using radial grid of 1193 points,  6 beta functions with: 
                l(1) =   0
                l(2) =   0
                l(3) =   1
                l(4) =   1
                l(5) =   2
                l(6) =   2
     Q(r) pseudized with 0 coefficients 


     PseudoPot. # 2 for O  read from file:
     ../../pseudo/O.pbe-n-kjpaw_psl.1.0.0.UPF
     MD5 check sum: e99d9cef9b487d1ca56f5b95ecd0fd7a
     Pseudo is Projector augmented-wave + core cor, Zval =  6.0
     Generated using &quot;atomic&quot; code by A. Dal Corso  v.6.3
     Shape of augmentation charge: PSQ
     Using radial grid of 1095 points,  4 beta functions with: 
                l(1) =   0
                l(2) =   0
                l(3) =   1
                l(4) =   1
     Q(r) pseudized with 0 coefficients 


     PseudoPot. # 3 for Na read from file:
     ../../pseudo/Na.pbe-spn-kjpaw_psl.1.0.0.UPF
     MD5 check sum: 05b4deb74e3932c23ab016979dc8b5d4
     Pseudo is Projector augmented-wave + core cor, Zval =  9.0
     Generated using &quot;atomic&quot; code by A. Dal Corso  v.6.3
     Shape of augmentation charge: PSQ
     Using radial grid of 1121 points,  4 beta functions with: 
                l(1) =   0
                l(2) =   0
                l(3) =   1
                l(4) =   1
     Q(r) pseudized with 0 coefficients 


     atomic species   valence    mass     pseudopotential
     Co               17.00    58.93300     Co( 1.00)
     O                 6.00    15.99900     O ( 1.00)
     Na                9.00    22.98977     Na( 1.00)

     Starting magnetic structure 
     atomic species   magnetization
     Co              0.300
     O               0.000
     Na              0.000

      6 Sym. Ops. (no inversion) found


                                    s                        frac. trans.

      isym =  1     identity                                     

 cryst.   s( 1) = (     1          0          0      )
                  (     0          1          0      )
                  (     0          0          1      )

 cart.    s( 1) = (  1.0000000  0.0000000  0.0000000 )
                  (  0.0000000  1.0000000  0.0000000 )
                  (  0.0000000  0.0000000  1.0000000 )


      isym =  2     120 deg rotation - cryst. axis [0,0,1]       

 cryst.   s( 2) = (     0          1          0      )
                  (    -1         -1          0      )
                  (     0          0          1      )

 cart.    s( 2) = ( -0.5000000 -0.8660254  0.0000000 )
                  (  0.8660254 -0.5000000  0.0000000 )
                  (  0.0000000  0.0000000  1.0000000 )


      isym =  3     120 deg rotation - cryst. axis [0,0,-1]      

 cryst.   s( 3) = (    -1         -1          0      )
                  (     1          0          0      )
                  (     0          0          1      )

 cart.    s( 3) = ( -0.5000000  0.8660254  0.0000000 )
                  ( -0.8660254 -0.5000000  0.0000000 )
                  (  0.0000000  0.0000000  1.0000000 )


      isym =  4     inv. 180 deg rotation - cart. axis [1,0,0]   

 cryst.   s( 4) = (    -1          0          0      )
                  (     1          1          0      )
                  (     0          0          1      )

 cart.    s( 4) = ( -1.0000000  0.0000000  0.0000000 )
                  (  0.0000000  1.0000000  0.0000000 )
                  (  0.0000000  0.0000000  1.0000000 )


      isym =  5     inv. 180 deg rotation - cryst. axis [0,1,0]  

 cryst.   s( 5) = (     1          1          0      )
                  (     0         -1          0      )
                  (     0          0          1      )

 cart.    s( 5) = (  0.5000000  0.8660254  0.0000000 )
                  (  0.8660254 -0.5000000  0.0000000 )
                  (  0.0000000  0.0000000  1.0000000 )


      isym =  6     inv. 180 deg rotation - cryst. axis [1,1,0]  

 cryst.   s( 6) = (     0         -1          0      )
                  (    -1          0          0      )
                  (     0          0          1      )

 cart.    s( 6) = (  0.5000000 -0.8660254  0.0000000 )
                  ( -0.8660254 -0.5000000  0.0000000 )
                  (  0.0000000  0.0000000  1.0000000 )


     point group C_3v (3m)  
     there are  3 classes
     the character table:

       E     2C3   3s_v 
A_1    1.00  1.00  1.00
A_2    1.00  1.00 -1.00
E      2.00 -1.00  0.00

     the symmetry operations in each class and the name of the first element:

     E        1
          identity                                               
     2C3      2    3
          120 deg rotation - cryst. axis [0,0,1]                 
     3s_v     4    5    6
          inv. 180 deg rotation - cart. axis [1,0,0]             

   Cartesian axes

     site n.     atom                  positions (alat units)
         1        Co     tau(   1) = (   0.0000000   0.0000000   0.0000000  )
         2        O      tau(   2) = (  -0.0000000   0.5773503   0.3324100  )
         3        O      tau(   3) = (   0.5000000   0.2886751   3.0955679  )
         4        Na     tau(   4) = (  -0.0000000   0.5773503   1.9736842  )

   Crystallographic axes

     site n.     atom                  positions (cryst. coord.)
         1        Co     tau(   1) = (  0.0000000  0.0000000  0.0000000  )
         2        O      tau(   2) = (  0.3333333  0.6666667  0.0969697  )
         3        O      tau(   3) = (  0.6666667  0.3333333  0.9030303  )
         4        Na     tau(   4) = (  0.3333333  0.6666667  0.5757576  )

     number of k points=    25  Marzari-Vanderbilt smearing, width (Ry)=  0.0200
                       cart. coord. in units 2pi/alat
        k(    1) = (   0.0000000   0.0000000   0.0000000), wk =   0.0052083
        k(    2) = (   0.0000000   0.0000000   0.0972391), wk =   0.0104167
        k(    3) = (   0.0000000   0.1443376   0.0000000), wk =   0.0312500
        k(    4) = (   0.0000000   0.1443376   0.0972391), wk =   0.0312500
        k(    5) = (   0.0000000   0.2886751   0.0000000), wk =   0.0312500
        k(    6) = (   0.0000000   0.2886751   0.0972391), wk =   0.0312500
        k(    7) = (   0.0000000   0.4330127   0.0000000), wk =   0.0312500
        k(    8) = (   0.0000000   0.4330127   0.0972391), wk =   0.0312500
        k(    9) = (   0.0000000  -0.5773503   0.0000000), wk =   0.0156250
        k(   10) = (   0.0000000  -0.5773503   0.0972391), wk =   0.0312500
        k(   11) = (   0.1250000   0.2165064   0.0000000), wk =   0.0312500
        k(   12) = (   0.1250000   0.2165064   0.0972391), wk =   0.0625000
        k(   13) = (   0.1250000   0.3608439   0.0000000), wk =   0.0625000
        k(   14) = (   0.1250000   0.3608439   0.0972391), wk =   0.0625000
        k(   15) = (   0.1250000   0.5051815   0.0000000), wk =   0.0625000
        k(   16) = (   0.1250000   0.5051815   0.0972391), wk =   0.0625000
        k(   17) = (   0.2500000   0.4330127   0.0000000), wk =   0.0312500
        k(   18) = (   0.2500000   0.4330127   0.0972391), wk =   0.0625000
        k(   19) = (   0.2500000   0.5773503   0.0000000), wk =   0.0312500
        k(   20) = (   0.2500000   0.5773503   0.0972391), wk =   0.0625000
        k(   21) = (   0.0000000  -0.1443376   0.0972391), wk =   0.0312500
        k(   22) = (   0.0000000  -0.2886751   0.0972391), wk =   0.0312500
        k(   23) = (   0.0000000  -0.4330127   0.0972391), wk =   0.0312500
        k(   24) = (  -0.1250000  -0.3608439   0.0972391), wk =   0.0625000
        k(   25) = (  -0.1250000  -0.5051815   0.0972391), wk =   0.0625000

                       cryst. coord.
        k(    1) = (   0.0000000   0.0000000   0.0000000), wk =   0.0052083
        k(    2) = (   0.0000000   0.0000000   0.3333333), wk =   0.0104167
        k(    3) = (   0.0000000   0.1250000   0.0000000), wk =   0.0312500
        k(    4) = (   0.0000000   0.1250000   0.3333333), wk =   0.0312500
        k(    5) = (   0.0000000   0.2500000   0.0000000), wk =   0.0312500
        k(    6) = (   0.0000000   0.2500000   0.3333333), wk =   0.0312500
        k(    7) = (   0.0000000   0.3750000   0.0000000), wk =   0.0312500
        k(    8) = (   0.0000000   0.3750000   0.3333333), wk =   0.0312500
        k(    9) = (   0.0000000  -0.5000000   0.0000000), wk =   0.0156250
        k(   10) = (   0.0000000  -0.5000000   0.3333333), wk =   0.0312500
        k(   11) = (   0.1250000   0.1250000   0.0000000), wk =   0.0312500
        k(   12) = (   0.1250000   0.1250000   0.3333333), wk =   0.0625000
        k(   13) = (   0.1250000   0.2500000   0.0000000), wk =   0.0625000
        k(   14) = (   0.1250000   0.2500000   0.3333333), wk =   0.0625000
        k(   15) = (   0.1250000   0.3750000   0.0000000), wk =   0.0625000
        k(   16) = (   0.1250000   0.3750000   0.3333333), wk =   0.0625000
        k(   17) = (   0.2500000   0.2500000   0.0000000), wk =   0.0312500
        k(   18) = (   0.2500000   0.2500000   0.3333333), wk =   0.0625000
        k(   19) = (   0.2500000   0.3750000   0.0000000), wk =   0.0312500
        k(   20) = (   0.2500000   0.3750000   0.3333333), wk =   0.0625000
        k(   21) = (   0.0000000  -0.1250000   0.3333333), wk =   0.0312500
        k(   22) = (   0.0000000  -0.2500000   0.3333333), wk =   0.0312500
        k(   23) = (   0.0000000  -0.3750000   0.3333333), wk =   0.0312500
        k(   24) = (  -0.1250000  -0.2500000   0.3333333), wk =   0.0625000
        k(   25) = (  -0.1250000  -0.3750000   0.3333333), wk =   0.0625000

     Dense  grid:    85601 G-vectors     FFT dimensions: (  40,  40, 135)

     Smooth grid:    30351 G-vectors     FFT dimensions: (  27,  27,  96)

     Dynamical RAM for                 wfc:       1.56 MB

     Dynamical RAM for     wfc (w. buffer):      79.57 MB

     Dynamical RAM for           str. fact:       3.92 MB

     Dynamical RAM for           local pot:       0.00 MB

     Dynamical RAM for          nlocal pot:       2.43 MB

     Dynamical RAM for                qrad:       5.27 MB

     Dynamical RAM for          rho,v,vnew:      17.72 MB

     Dynamical RAM for               rhoin:       5.91 MB

     Dynamical RAM for            rho*nmix:      41.80 MB

     Dynamical RAM for           G-vectors:       5.13 MB

     Dynamical RAM for          h,s,v(r/c):       0.13 MB

     Dynamical RAM for          <psi|beta>:       0.02 MB

     Dynamical RAM for                 psi:       3.12 MB

     Dynamical RAM for                hpsi:       3.12 MB

     Dynamical RAM for                spsi:       3.12 MB

     Dynamical RAM for      wfcinit/wfcrot:       3.14 MB

     Dynamical RAM for           addusdens:     246.87 MB

     Dynamical RAM for          addusforce:     249.49 MB

     Estimated static dynamical RAM per process >     135.06 MB

     Estimated max dynamical RAM per process >     426.35 MB

     Check: negative core charge=   -0.000006
     Generating pointlists ...
     new r_m :   0.2748 (alat units)  1.4998 (a.u.) for type    1
     new r_m :   0.2748 (alat units)  1.4998 (a.u.) for type    2
     new r_m :   0.4125 (alat units)  2.2512 (a.u.) for type    3

     Initial potential from superposition of free atoms

     starting charge      37.9934, renormalised to      38.0000
     Starting wfcs are   23 randomized atomic wfcs +    4 random wfcs
     Checking if some PAW data can be deallocated... 

     total cpu time spent up to now is        3.4 secs

     Self-consistent Calculation
[tb_dev] Currently allocated     6.54E-01 Mbytes, locked:    0 /   6
[tb_pin] Currently allocated     0.00E+00 Mbytes, locked:    0 /   0

     iteration #  1     ecut=    60.00 Ry     beta= 0.30
     Davidson diagonalization with overlap

---- Real-time Memory Report at c_bands before calling an iterative solver
           712 MiB given to the printing process from OS
             0 MiB allocation reported by mallinfo(arena+hblkhd)
        850541 MiB available memory on the node where the printing process lives
     GPU memory used/free/total (MiB): 1108 / 80042 / 81151
------------------
     ethr =  1.00E-02,  avg # of iterations =  9.3

     total cpu time spent up to now is        5.5 secs

     total energy              =    -568.41900628 Ry
     estimated scf accuracy    <       1.98149007 Ry

     total magnetization       =     4.24 Bohr mag/cell
     absolute magnetization    =     4.24 Bohr mag/cell
[tb_dev] Currently allocated     3.05E-05 Mbytes, locked:    0 /   2
[tb_pin] Currently allocated     0.00E+00 Mbytes, locked:    0 /   0

     iteration #  2     ecut=    60.00 Ry     beta= 0.30
     Davidson diagonalization with overlap

---- Real-time Memory Report at c_bands before calling an iterative solver
           756 MiB given to the printing process from OS
             0 MiB allocation reported by mallinfo(arena+hblkhd)
        850485 MiB available memory on the node where the printing process lives
     GPU memory used/free/total (MiB): 1128 / 80022 / 81151
------------------
     ethr =  5.21E-03,  avg # of iterations =  2.2

     total cpu time spent up to now is        6.7 secs

     total energy              =    -568.61842897 Ry
     estimated scf accuracy    <       3.51738733 Ry

     total magnetization       =     1.19 Bohr mag/cell
     absolute magnetization    =     1.28 Bohr mag/cell
[tb_dev] Currently allocated     3.05E-05 Mbytes, locked:    0 /   2
[tb_pin] Currently allocated     0.00E+00 Mbytes, locked:    0 /   0

     iteration #  3     ecut=    60.00 Ry     beta= 0.30
     Davidson diagonalization with overlap

---- Real-time Memory Report at c_bands before calling an iterative solver
           760 MiB given to the printing process from OS
             0 MiB allocation reported by mallinfo(arena+hblkhd)
        850464 MiB available memory on the node where the printing process lives
     GPU memory used/free/total (MiB): 1128 / 80022 / 81151
------------------
     ethr =  5.21E-03,  avg # of iterations =  1.1

     total cpu time spent up to now is        7.7 secs

     total energy              =    -568.96493282 Ry
     estimated scf accuracy    <       0.75438363 Ry

     total magnetization       =     3.47 Bohr mag/cell
     absolute magnetization    =     3.50 Bohr mag/cell
[tb_dev] Currently allocated     3.05E-05 Mbytes, locked:    0 /   2
[tb_pin] Currently allocated     0.00E+00 Mbytes, locked:    0 /   0

     iteration #  4     ecut=    60.00 Ry     beta= 0.30
     Davidson diagonalization with overlap

---- Real-time Memory Report at c_bands before calling an iterative solver
           763 MiB given to the printing process from OS
             0 MiB allocation reported by mallinfo(arena+hblkhd)
        850457 MiB available memory on the node where the printing process lives
     GPU memory used/free/total (MiB): 1128 / 80022 / 81151
------------------
     ethr =  1.99E-03,  avg # of iterations =  1.6

     total cpu time spent up to now is        8.8 secs

     total energy              =    -569.04982410 Ry
     estimated scf accuracy    <       0.54288203 Ry

     total magnetization       =     2.02 Bohr mag/cell
     absolute magnetization    =     2.11 Bohr mag/cell
[tb_dev] Currently allocated     3.05E-05 Mbytes, locked:    0 /   2
[tb_pin] Currently allocated     0.00E+00 Mbytes, locked:    0 /   0

     iteration #  5     ecut=    60.00 Ry     beta= 0.30
     Davidson diagonalization with overlap

---- Real-time Memory Report at c_bands before calling an iterative solver
           765 MiB given to the printing process from OS
             0 MiB allocation reported by mallinfo(arena+hblkhd)
        850463 MiB available memory on the node where the printing process lives
     GPU memory used/free/total (MiB): 1128 / 80022 / 81151
------------------
     ethr =  1.43E-03,  avg # of iterations =  1.3

     total cpu time spent up to now is        9.9 secs

     total energy              =    -569.09547196 Ry
     estimated scf accuracy    <       0.17811698 Ry

     total magnetization       =     2.11 Bohr mag/cell
     absolute magnetization    =     2.19 Bohr mag/cell
[tb_dev] Currently allocated     3.05E-05 Mbytes, locked:    0 /   2
[tb_pin] Currently allocated     0.00E+00 Mbytes, locked:    0 /   0

     iteration #  6     ecut=    60.00 Ry     beta= 0.30
     Davidson diagonalization with overlap

---- Real-time Memory Report at c_bands before calling an iterative solver
           766 MiB given to the printing process from OS
             0 MiB allocation reported by mallinfo(arena+hblkhd)
        850435 MiB available memory on the node where the printing process lives
     GPU memory used/free/total (MiB): 1128 / 80022 / 81151
------------------
     ethr =  4.69E-04,  avg # of iterations =  3.8

     total cpu time spent up to now is       11.3 secs

     total energy              =    -569.12957676 Ry
     estimated scf accuracy    <       0.29637331 Ry

     total magnetization       =     1.32 Bohr mag/cell
     absolute magnetization    =     1.64 Bohr mag/cell
[tb_dev] Currently allocated     3.05E-05 Mbytes, locked:    0 /   2
[tb_pin] Currently allocated     0.00E+00 Mbytes, locked:    0 /   0

     iteration #  7     ecut=    60.00 Ry     beta= 0.30
     Davidson diagonalization with overlap

---- Real-time Memory Report at c_bands before calling an iterative solver
           768 MiB given to the printing process from OS
             0 MiB allocation reported by mallinfo(arena+hblkhd)
        850432 MiB available memory on the node where the printing process lives
     GPU memory used/free/total (MiB): 1128 / 80022 / 81151
------------------
     ethr =  4.69E-04,  avg # of iterations =  1.9

     total cpu time spent up to now is       12.4 secs

     total energy              =    -569.17282070 Ry
     estimated scf accuracy    <       0.04456301 Ry

     total magnetization       =     0.75 Bohr mag/cell
     absolute magnetization    =     1.15 Bohr mag/cell
[tb_dev] Currently allocated     3.05E-05 Mbytes, locked:    0 /   2
[tb_pin] Currently allocated     0.00E+00 Mbytes, locked:    0 /   0

     iteration #  8     ecut=    60.00 Ry     beta= 0.30
     Davidson diagonalization with overlap

---- Real-time Memory Report at c_bands before calling an iterative solver
           770 MiB given to the printing process from OS
             0 MiB allocation reported by mallinfo(arena+hblkhd)
        850960 MiB available memory on the node where the printing process lives
     GPU memory used/free/total (MiB): 1128 / 80022 / 81151
------------------
     ethr =  1.17E-04,  avg # of iterations =  6.2

     total cpu time spent up to now is       14.1 secs

     total energy              =    -569.17503887 Ry
     estimated scf accuracy    <       0.03216143 Ry

     total magnetization       =     0.73 Bohr mag/cell
     absolute magnetization    =     0.81 Bohr mag/cell
[tb_dev] Currently allocated     3.05E-05 Mbytes, locked:    0 /   2
[tb_pin] Currently allocated     0.00E+00 Mbytes, locked:    0 /   0

     iteration #  9     ecut=    60.00 Ry     beta= 0.30
     Davidson diagonalization with overlap

---- Real-time Memory Report at c_bands before calling an iterative solver
           775 MiB given to the printing process from OS
             0 MiB allocation reported by mallinfo(arena+hblkhd)
        850767 MiB available memory on the node where the printing process lives
     GPU memory used/free/total (MiB): 1128 / 80022 / 81151
------------------
     ethr =  8.46E-05,  avg # of iterations =  1.7

     total cpu time spent up to now is       15.2 secs

     total energy              =    -569.18056498 Ry
     estimated scf accuracy    <       0.02236867 Ry

     total magnetization       =     0.84 Bohr mag/cell
     absolute magnetization    =     0.99 Bohr mag/cell
[tb_dev] Currently allocated     3.05E-05 Mbytes, locked:    0 /   2
[tb_pin] Currently allocated     0.00E+00 Mbytes, locked:    0 /   0

     iteration # 10     ecut=    60.00 Ry     beta= 0.30
     Davidson diagonalization with overlap

---- Real-time Memory Report at c_bands before calling an iterative solver
           777 MiB given to the printing process from OS
             0 MiB allocation reported by mallinfo(arena+hblkhd)
        851128 MiB available memory on the node where the printing process lives
     GPU memory used/free/total (MiB): 1128 / 80022 / 81151
------------------
     ethr =  5.89E-05,  avg # of iterations =  1.5

     total cpu time spent up to now is       16.4 secs

     total energy              =    -569.18180214 Ry
     estimated scf accuracy    <       0.01482844 Ry

     total magnetization       =     0.70 Bohr mag/cell
     absolute magnetization    =     0.78 Bohr mag/cell
[tb_dev] Currently allocated     3.05E-05 Mbytes, locked:    0 /   2
[tb_pin] Currently allocated     0.00E+00 Mbytes, locked:    0 /   0

     iteration # 11     ecut=    60.00 Ry     beta= 0.30
     Davidson diagonalization with overlap

---- Real-time Memory Report at c_bands before calling an iterative solver
           777 MiB given to the printing process from OS
             0 MiB allocation reported by mallinfo(arena+hblkhd)
        850974 MiB available memory on the node where the printing process lives
     GPU memory used/free/total (MiB): 1128 / 80022 / 81151
------------------
     ethr =  3.90E-05,  avg # of iterations =  1.9

     total cpu time spent up to now is       17.7 secs

     total energy              =    -569.18369021 Ry
     estimated scf accuracy    <       0.00946024 Ry

     total magnetization       =     0.83 Bohr mag/cell
     absolute magnetization    =     0.86 Bohr mag/cell
[tb_dev] Currently allocated     3.05E-05 Mbytes, locked:    0 /   2
[tb_pin] Currently allocated     0.00E+00 Mbytes, locked:    0 /   0

     iteration # 12     ecut=    60.00 Ry     beta= 0.30
     Davidson diagonalization with overlap

---- Real-time Memory Report at c_bands before calling an iterative solver
           777 MiB given to the printing process from OS
             0 MiB allocation reported by mallinfo(arena+hblkhd)
        850686 MiB available memory on the node where the printing process lives
     GPU memory used/free/total (MiB): 1128 / 80022 / 81151
------------------
     ethr =  2.49E-05,  avg # of iterations =  1.6

     total cpu time spent up to now is       18.8 secs

     total energy              =    -569.18454360 Ry
     estimated scf accuracy    <       0.00154617 Ry

     total magnetization       =     0.82 Bohr mag/cell
     absolute magnetization    =     0.86 Bohr mag/cell
[tb_dev] Currently allocated     3.05E-05 Mbytes, locked:    0 /   2
[tb_pin] Currently allocated     0.00E+00 Mbytes, locked:    0 /   0

     iteration # 13     ecut=    60.00 Ry     beta= 0.30
     Davidson diagonalization with overlap

---- Real-time Memory Report at c_bands before calling an iterative solver
           778 MiB given to the printing process from OS
             0 MiB allocation reported by mallinfo(arena+hblkhd)
        850485 MiB available memory on the node where the printing process lives
     GPU memory used/free/total (MiB): 1128 / 80022 / 81151
------------------
     c_bands:  1 eigenvalues not converged
     ethr =  4.07E-06,  avg # of iterations =  8.0

     total cpu time spent up to now is       20.7 secs

     total energy              =    -569.18483568 Ry
     estimated scf accuracy    <       0.00161916 Ry

     total magnetization       =     0.82 Bohr mag/cell
     absolute magnetization    =     0.88 Bohr mag/cell
[tb_dev] Currently allocated     3.05E-05 Mbytes, locked:    0 /   2
[tb_pin] Currently allocated     0.00E+00 Mbytes, locked:    0 /   0

     iteration # 14     ecut=    60.00 Ry     beta= 0.30
     Davidson diagonalization with overlap

---- Real-time Memory Report at c_bands before calling an iterative solver
           778 MiB given to the printing process from OS
             0 MiB allocation reported by mallinfo(arena+hblkhd)
        850473 MiB available memory on the node where the printing process lives
     GPU memory used/free/total (MiB): 1128 / 80022 / 81151
------------------
     ethr =  4.07E-06,  avg # of iterations =  1.4

     total cpu time spent up to now is       21.8 secs

     total energy              =    -569.18488467 Ry
     estimated scf accuracy    <       0.00042967 Ry

     total magnetization       =     0.80 Bohr mag/cell
     absolute magnetization    =     0.86 Bohr mag/cell
[tb_dev] Currently allocated     3.05E-05 Mbytes, locked:    0 /   2
[tb_pin] Currently allocated     0.00E+00 Mbytes, locked:    0 /   0

     iteration # 15     ecut=    60.00 Ry     beta= 0.30
     Davidson diagonalization with overlap

---- Real-time Memory Report at c_bands before calling an iterative solver
           778 MiB given to the printing process from OS
             0 MiB allocation reported by mallinfo(arena+hblkhd)
        850478 MiB available memory on the node where the printing process lives
     GPU memory used/free/total (MiB): 1128 / 80022 / 81151
------------------
     ethr =  1.13E-06,  avg # of iterations =  2.9

     total cpu time spent up to now is       23.1 secs

     total energy              =    -569.18494734 Ry
     estimated scf accuracy    <       0.00010765 Ry

     total magnetization       =     0.79 Bohr mag/cell
     absolute magnetization    =     0.86 Bohr mag/cell
[tb_dev] Currently allocated     3.05E-05 Mbytes, locked:    0 /   2
[tb_pin] Currently allocated     0.00E+00 Mbytes, locked:    0 /   0

     iteration # 16     ecut=    60.00 Ry     beta= 0.30
     Davidson diagonalization with overlap

---- Real-time Memory Report at c_bands before calling an iterative solver
           778 MiB given to the printing process from OS
             0 MiB allocation reported by mallinfo(arena+hblkhd)
        850958 MiB available memory on the node where the printing process lives
     GPU memory used/free/total (MiB): 1128 / 80022 / 81151
------------------
     ethr =  2.83E-07,  avg # of iterations =  3.6

     total cpu time spent up to now is       24.5 secs

     total energy              =    -569.18497181 Ry
     estimated scf accuracy    <       0.00002141 Ry

     total magnetization       =     0.77 Bohr mag/cell
     absolute magnetization    =     0.86 Bohr mag/cell
[tb_dev] Currently allocated     3.05E-05 Mbytes, locked:    0 /   2
[tb_pin] Currently allocated     0.00E+00 Mbytes, locked:    0 /   0

     iteration # 17     ecut=    60.00 Ry     beta= 0.30
     Davidson diagonalization with overlap

---- Real-time Memory Report at c_bands before calling an iterative solver
           778 MiB given to the printing process from OS
             0 MiB allocation reported by mallinfo(arena+hblkhd)
        850767 MiB available memory on the node where the printing process lives
     GPU memory used/free/total (MiB): 1128 / 80022 / 81151
------------------
     ethr =  5.63E-08,  avg # of iterations =  5.2

     total cpu time spent up to now is       26.1 secs

     total energy              =    -569.18497939 Ry
     estimated scf accuracy    <       0.00000230 Ry

     total magnetization       =     0.77 Bohr mag/cell
     absolute magnetization    =     0.86 Bohr mag/cell
[tb_dev] Currently allocated     3.05E-05 Mbytes, locked:    0 /   2
[tb_pin] Currently allocated     0.00E+00 Mbytes, locked:    0 /   0

     iteration # 18     ecut=    60.00 Ry     beta= 0.30
     Davidson diagonalization with overlap

---- Real-time Memory Report at c_bands before calling an iterative solver
           778 MiB given to the printing process from OS
             0 MiB allocation reported by mallinfo(arena+hblkhd)
        850698 MiB available memory on the node where the printing process lives
     GPU memory used/free/total (MiB): 1128 / 80022 / 81151
------------------
     ethr =  6.06E-09,  avg # of iterations =  6.4

     total cpu time spent up to now is       27.8 secs

     total energy              =    -569.18498275 Ry
     estimated scf accuracy    <       0.00000088 Ry

     total magnetization       =     0.77 Bohr mag/cell
     absolute magnetization    =     0.86 Bohr mag/cell
[tb_dev] Currently allocated     3.05E-05 Mbytes, locked:    0 /   2
[tb_pin] Currently allocated     0.00E+00 Mbytes, locked:    0 /   0

     iteration # 19     ecut=    60.00 Ry     beta= 0.30
     Davidson diagonalization with overlap

---- Real-time Memory Report at c_bands before calling an iterative solver
           778 MiB given to the printing process from OS
             0 MiB allocation reported by mallinfo(arena+hblkhd)
        850515 MiB available memory on the node where the printing process lives
     GPU memory used/free/total (MiB): 1128 / 80022 / 81151
------------------
     ethr =  2.31E-09,  avg # of iterations =  4.1

     total cpu time spent up to now is       29.3 secs

     total energy              =    -569.18498427 Ry
     estimated scf accuracy    <       0.00000052 Ry

     total magnetization       =     0.77 Bohr mag/cell
     absolute magnetization    =     0.86 Bohr mag/cell
[tb_dev] Currently allocated     3.05E-05 Mbytes, locked:    0 /   2
[tb_pin] Currently allocated     0.00E+00 Mbytes, locked:    0 /   0

     iteration # 20     ecut=    60.00 Ry     beta= 0.30
     Davidson diagonalization with overlap

---- Real-time Memory Report at c_bands before calling an iterative solver
           778 MiB given to the printing process from OS
             0 MiB allocation reported by mallinfo(arena+hblkhd)
        850504 MiB available memory on the node where the printing process lives
     GPU memory used/free/total (MiB): 1128 / 80022 / 81151
------------------
     ethr =  1.38E-09,  avg # of iterations =  3.9

     total cpu time spent up to now is       30.7 secs

     total energy              =    -569.18498519 Ry
     estimated scf accuracy    <       0.00000022 Ry

     total magnetization       =     0.77 Bohr mag/cell
     absolute magnetization    =     0.87 Bohr mag/cell
[tb_dev] Currently allocated     3.05E-05 Mbytes, locked:    0 /   2
[tb_pin] Currently allocated     0.00E+00 Mbytes, locked:    0 /   0

     iteration # 21     ecut=    60.00 Ry     beta= 0.30
     Davidson diagonalization with overlap

---- Real-time Memory Report at c_bands before calling an iterative solver
           778 MiB given to the printing process from OS
             0 MiB allocation reported by mallinfo(arena+hblkhd)
        850505 MiB available memory on the node where the printing process lives
     GPU memory used/free/total (MiB): 1128 / 80022 / 81151
------------------
     ethr =  5.73E-10,  avg # of iterations =  2.2

     total cpu time spent up to now is       31.9 secs

     total energy              =    -569.18498567 Ry
     estimated scf accuracy    <       0.00000007 Ry

     total magnetization       =     0.77 Bohr mag/cell
     absolute magnetization    =     0.87 Bohr mag/cell
[tb_dev] Currently allocated     3.05E-05 Mbytes, locked:    0 /   2
[tb_pin] Currently allocated     0.00E+00 Mbytes, locked:    0 /   0

     iteration # 22     ecut=    60.00 Ry     beta= 0.30
     Davidson diagonalization with overlap

---- Real-time Memory Report at c_bands before calling an iterative solver
           778 MiB given to the printing process from OS
             0 MiB allocation reported by mallinfo(arena+hblkhd)
        850498 MiB available memory on the node where the printing process lives
     GPU memory used/free/total (MiB): 1128 / 80022 / 81151
------------------
     ethr =  1.74E-10,  avg # of iterations =  6.2

     total cpu time spent up to now is       33.7 secs

     total energy              =    -569.18498625 Ry
     estimated scf accuracy    <       0.00000011 Ry

     total magnetization       =     0.76 Bohr mag/cell
     absolute magnetization    =     0.87 Bohr mag/cell
[tb_dev] Currently allocated     3.05E-05 Mbytes, locked:    0 /   2
[tb_pin] Currently allocated     0.00E+00 Mbytes, locked:    0 /   0

     iteration # 23     ecut=    60.00 Ry     beta= 0.30
     Davidson diagonalization with overlap

---- Real-time Memory Report at c_bands before calling an iterative solver
           778 MiB given to the printing process from OS
             0 MiB allocation reported by mallinfo(arena+hblkhd)
        850495 MiB available memory on the node where the printing process lives
     GPU memory used/free/total (MiB): 1128 / 80022 / 81151
------------------
     ethr =  1.74E-10,  avg # of iterations =  4.0

     total cpu time spent up to now is       35.1 secs

     total energy              =    -569.18498645 Ry
     estimated scf accuracy    <       0.00000003 Ry

     total magnetization       =     0.76 Bohr mag/cell
     absolute magnetization    =     0.87 Bohr mag/cell
[tb_dev] Currently allocated     3.05E-05 Mbytes, locked:    0 /   2
[tb_pin] Currently allocated     0.00E+00 Mbytes, locked:    0 /   0

     iteration # 24     ecut=    60.00 Ry     beta= 0.30
     Davidson diagonalization with overlap

---- Real-time Memory Report at c_bands before calling an iterative solver
           778 MiB given to the printing process from OS
             0 MiB allocation reported by mallinfo(arena+hblkhd)
        850501 MiB available memory on the node where the printing process lives
     GPU memory used/free/total (MiB): 1128 / 80022 / 81151
------------------
     ethr =  6.75E-11,  avg # of iterations =  4.0

     total cpu time spent up to now is       36.6 secs

     total energy              =    -569.18498670 Ry
     estimated scf accuracy    <       0.00000001 Ry

     total magnetization       =     0.76 Bohr mag/cell
     absolute magnetization    =     0.87 Bohr mag/cell
[tb_dev] Currently allocated     3.05E-05 Mbytes, locked:    0 /   2
[tb_pin] Currently allocated     0.00E+00 Mbytes, locked:    0 /   0

     iteration # 25     ecut=    60.00 Ry     beta= 0.30
     Davidson diagonalization with overlap

---- Real-time Memory Report at c_bands before calling an iterative solver
           778 MiB given to the printing process from OS
             0 MiB allocation reported by mallinfo(arena+hblkhd)
        850501 MiB available memory on the node where the printing process lives
     GPU memory used/free/total (MiB): 1128 / 80022 / 81151
------------------
     ethr =  3.20E-11,  avg # of iterations =  4.3
 
     Magnetic moment per site  (integrated on atomic sphere of radius R)
     atom   1 (R=0.275)  charge= 14.0915  magn=  0.6211
     atom   2 (R=0.275)  charge=  5.2055  magn=  0.0726
     atom   3 (R=0.275)  charge=  5.2239  magn=  0.0586
     atom   4 (R=0.413)  charge=  8.2479  magn= -0.0195

     total cpu time spent up to now is       38.0 secs

     End of self-consistent calculation

 ------ SPIN UP ------------


          k = 0.0000 0.0000 0.0000 (  3803 PWs)   bands (ev):

   -92.0525 -55.2738 -55.2540 -55.2540 -49.8126 -21.6878 -21.6136 -21.6136
   -15.4643 -13.5466  -1.7358  -1.2968  -1.2968   1.1476   1.8978   2.1721
     2.1721   2.4283   2.4283   3.4761   5.8535   6.1116   6.1116   9.2604
    12.6966  13.0514  15.5545

     occupation numbers 
     1.0000   1.0000   1.0000   1.0000   1.0000   1.0000   1.0000   1.0000
     1.0000   1.0000   1.0000   1.0000   1.0000   1.0000   1.0000   1.0000
     1.0000   1.0000   1.0000   1.0831   0.0000   0.0000   0.0000   0.0000
     0.0000   0.0000   0.0000

          k = 0.0000 0.0000 0.0972 (  3796 PWs)   bands (ev):

   -92.0525 -55.2737 -55.2540 -55.2540 -49.8126 -21.6877 -21.6136 -21.6136
   -15.4643 -13.5467  -1.7307  -1.2968  -1.2968   1.0405   2.0657   2.1721
     2.1721   2.4282   2.4282   3.4402   5.7281   6.1116   6.1116   9.7134
    11.5625  13.8917  15.5813

     occupation numbers 
     1.0000   1.0000   1.0000   1.0000   1.0000   1.0000   1.0000   1.0000
     1.0000   1.0000   1.0000   1.0000   1.0000   1.0000   1.0000   1.0000
     1.0000   1.0000   1.0000   1.0781   0.0000   0.0000   0.0000   0.0000
     0.0000   0.0000   0.0000

          k = 0.0000 0.1443 0.0000 (  3787 PWs)   bands (ev):

   -92.0518 -55.2725 -55.2621 -55.2560 -49.8073 -21.6805 -21.6579 -21.6232
   -15.2930 -13.5529  -1.5628  -1.4324  -1.1819   1.1856   1.5631   1.5733
     2.2066   2.6507   2.9188   3.5458   5.5875   6.0139   6.2466   9.7388
    13.1288  13.5533  16.0911

     occupation numbers 
     1.0000   1.0000   1.0000   1.0000   1.0000   1.0000   1.0000   1.0000
     1.0000   1.0000   1.0000   1.0000   1.0000   1.0000   1.0000   1.0000
     1.0000   1.0000   1.0001   1.0679   0.0000   0.0000   0.0000   0.0000
     0.0000   0.0000   0.0000

          k = 0.0000 0.1443 0.0972 (  3806 PWs)   bands (ev):

   -92.0518 -55.2726 -55.2622 -55.2560 -49.8074 -21.6808 -21.6581 -21.6232
   -15.2930 -13.5530  -1.5603  -1.4317  -1.1819   1.1888   1.4666   1.5733
     2.3349   2.6705   2.9188   3.5047   5.6440   6.0139   6.0926  10.1184
    12.0911  14.4776  15.9159

     occupation numbers 
     1.0000   1.0000   1.0000   1.0000   1.0000   1.0000   1.0000   1.0000
     1.0000   1.0000   1.0000   1.0000   1.0000   1.0000   1.0000   1.0000
     1.0000   1.0000   1.0001   1.0817   0.0000   0.0000   0.0000   0.0000
     0.0000   0.0000   0.0000

          k = 0.0000 0.2887 0.0000 (  3786 PWs)   bands (ev):

   -92.0500 -55.2817 -55.2697 -55.2607 -49.7947 -21.7638 -21.6634 -21.6461
   -14.8433 -13.5819  -1.7032  -1.0714  -0.9082  -0.0991   1.0287   2.2489
     2.6873   2.9300   3.1059   3.4457   5.0174   5.8975   7.1349  10.9024
    13.4946  14.1618  14.7847

     occupation numbers 
     1.0000   1.0000   1.0000   1.0000   1.0000   1.0000   1.0000   1.0000
     1.0000   1.0000   1.0000   1.0000   1.0000   1.0000   1.0000   1.0000
     1.0000   1.0002   1.0034   1.0793   0.0000   0.0000   0.0000   0.0000
     0.0000   0.0000   0.0000

          k = 0.0000 0.2887 0.0972 (  3778 PWs)   bands (ev):

   -92.0500 -55.2816 -55.2697 -55.2606 -49.7947 -21.7638 -21.6634 -21.6460
   -14.8433 -13.5819  -1.7040  -1.0698  -0.9082  -0.0975   1.0287   2.2261
     2.6529   3.0229   3.1059   3.3952   5.0726   5.8976   7.0434  11.1287
    13.2660  13.6916  15.5973

     occupation numbers 
     1.0000   1.0000   1.0000   1.0000   1.0000   1.0000   1.0000   1.0000
     1.0000   1.0000   1.0000   1.0000   1.0000   1.0000   1.0000   1.0000
     1.0000   1.0009   1.0034   1.0654   0.0000   0.0000   0.0000   0.0000
     0.0000   0.0000   0.0000

          k = 0.0000 0.4330 0.0000 (  3780 PWs)   bands (ev):

   -92.0483 -55.3012 -55.2668 -55.2654 -49.7821 -21.8677 -21.6689 -21.6462
   -14.3018 -13.6625  -2.1456  -1.0637  -0.6937  -0.0479   0.8739   1.7994
     2.6213   2.8298   3.1145   4.6181   5.2460   5.9372   8.6540  10.1635
    12.6227  13.9819  15.0901

     occupation numbers 
     1.0000   1.0000   1.0000   1.0000   1.0000   1.0000   1.0000   1.0000
     1.0000   1.0000   1.0000   1.0000   1.0000   1.0000   1.0000   1.0000
     1.0000   1.0000   1.0039   0.0000   0.0000   0.0000   0.0000   0.0000
     0.0000   0.0000   0.0000

          k = 0.0000 0.4330 0.0972 (  3794 PWs)   bands (ev):

   -92.0483 -55.3012 -55.2669 -55.2654 -49.7821 -21.8678 -21.6690 -21.6463
   -14.3018 -13.6625  -2.1457  -1.0639  -0.6937  -0.0471   0.8739   1.8002
     2.6210   2.8297   3.1155   4.5771   5.2982   5.9372   8.6219  10.1603
    12.7343  14.0281  14.6971

     occupation numbers 
     1.0000   1.0000   1.0000   1.0000   1.0000   1.0000   1.0000   1.0000
     1.0000   1.0000   1.0000   1.0000   1.0000   1.0000   1.0000   1.0000
     1.0000   1.0000   1.0040   0.0000   0.0000   0.0000   0.0000   0.0000
     0.0000   0.0000   0.0000

          k = 0.0000-0.5774 0.0000 (  3798 PWs)   bands (ev):

   -92.0476 -55.3093 -55.2674 -55.2656 -49.7769 -21.9104 -21.6785 -21.6391
   -13.9506 -13.8077  -2.5252  -0.8606  -0.6502   0.1036   0.9581   1.5656
     2.3482   2.5859   3.0394   5.3667   5.9860   6.5519   7.8126  10.5068
    11.4125  14.4627  14.8027

     occupation numbers 
     1.0000   1.0000   1.0000   1.0000   1.0000   1.0000   1.0000   1.0000
     1.0000   1.0000   1.0000   1.0000   1.0000   1.0000   1.0000   1.0000
     1.0000   1.0000   1.0012   0.0000   0.0000   0.0000   0.0000   0.0000
     0.0000   0.0000   0.0000

          k = 0.0000-0.5774 0.0972 (  3790 PWs)   bands (ev):

   -92.0476 -55.3093 -55.2673 -55.2657 -49.7768 -21.9103 -21.6783 -21.6391
   -13.9506 -13.8077  -2.5252  -0.8606  -0.6502   0.1036   0.9583   1.5664
     2.3481   2.5859   3.0392   5.3671   5.9860   6.5466   7.8112  10.5372
    11.4269  14.3105  14.6595

     occupation numbers 
     1.0000   1.0000   1.0000   1.0000   1.0000   1.0000   1.0000   1.0000
     1.0000   1.0000   1.0000   1.0000   1.0000   1.0000   1.0000   1.0000
     1.0000   1.0000   1.0012   0.0000   0.0000   0.0000   0.0000   0.0000
     0.0000   0.0000   0.0000

          k = 0.1250 0.2165 0.0000 (  3789 PWs)   bands (ev):

   -92.0505 -55.2751 -55.2705 -55.2602 -49.7984 -21.7282 -21.6684 -21.6444
   -14.9823 -13.5697  -1.6176  -1.1859  -1.0214   0.3641   0.8832   2.2156
     2.6129   2.6681   3.2323   3.4778   5.2155   5.7581   6.8444  10.5573
    13.7606  14.4263  14.8847

     occupation numbers 
     1.0000   1.0000   1.0000   1.0000   1.0000   1.0000   1.0000   1.0000
     1.0000   1.0000   1.0000   1.0000   1.0000   1.0000   1.0000   1.0000
     1.0000   1.0000   1.0174   1.0832   0.0000   0.0000   0.0000   0.0000
     0.0000   0.0000   0.0000

          k = 0.1250 0.2165 0.0972 (  3785 PWs)   bands (ev):

   -92.0505 -55.2750 -55.2706 -55.2602 -49.7984 -21.7280 -21.6685 -21.6443
   -14.9823 -13.5698  -1.6184  -1.1837  -1.0213   0.3659   0.8832   2.1369
     2.6629   2.7117   3.2547   3.4433   5.2550   5.7364   6.7769  10.7768
    13.0334  14.8562  15.3414

     occupation numbers 
     1.0000   1.0000   1.0000   1.0000   1.0000   1.0000   1.0000   1.0000
     1.0000   1.0000   1.0000   1.0000   1.0000   1.0000   1.0000   1.0000
     1.0000   1.0000   1.0221   1.0788   0.0000   0.0000   0.0000   0.0000
     0.0000   0.0000   0.0000

          k = 0.1250 0.3608 0.0000 (  3780 PWs)   bands (ev):

   -92.0488 -55.2925 -55.2680 -55.2666 -49.7858 -21.8216 -21.6783 -21.6513
   -14.4876 -13.6168  -1.7374  -1.2307  -0.6617  -0.1460   0.4787   2.0951
     2.7017   2.9853   3.3497   3.9756   5.1691   5.6506   8.0488  11.6404
    12.1172  14.5879  15.6326

     occupation numbers 
     1.0000   1.0000   1.0000   1.0000   1.0000   1.0000   1.0000   1.0000
     1.0000   1.0000   1.0000   1.0000   1.0000   1.0000   1.0000   1.0000
     1.0000   1.0005   1.0498   0.1781   0.0000   0.0000   0.0000   0.0000
     0.0000   0.0000   0.0000

          k = 0.1250 0.3608 0.0972 (  3782 PWs)   bands (ev):

   -92.0488 -55.2926 -55.2679 -55.2666 -49.7858 -21.8216 -21.6782 -21.6513
   -14.4876 -13.6168  -1.7378  -1.2308  -0.6615  -0.1448   0.4788   2.0941
     2.7015   2.9894   3.3414   3.9625   5.2137   5.6367   8.0185  11.6539
    12.1960  14.3092  15.8039

     occupation numbers 
     1.0000   1.0000   1.0000   1.0000   1.0000   1.0000   1.0000   1.0000
     1.0000   1.0000   1.0000   1.0000   1.0000   1.0000   1.0000   1.0000
     1.0000   1.0005   1.0470   0.1995   0.0000   0.0000   0.0000   0.0000
     0.0000   0.0000   0.0000

          k = 0.1250 0.5052 0.0000 (  3784 PWs)   bands (ev):

   -92.0476 -55.3049 -55.2717 -55.2657 -49.7768 -21.8863 -21.7028 -21.6391
   -14.0350 -13.7236  -2.2374  -1.2199  -0.3871   0.1176   0.4592   1.5163
     2.4414   2.7399   3.2528   5.3128   5.7124   6.0425   8.9047   9.9179
    12.6766  13.5959  14.9642

     occupation numbers 
     1.0000   1.0000   1.0000   1.0000   1.0000   1.0000   1.0000   1.0000
     1.0000   1.0000   1.0000   1.0000   1.0000   1.0000   1.0000   1.0000
     1.0000   1.0000   1.0216   0.0000   0.0000   0.0000   0.0000   0.0000
     0.0000   0.0000   0.0000

          k = 0.1250 0.5052 0.0972 (  3793 PWs)   bands (ev):

   -92.0476 -55.3049 -55.2717 -55.2657 -49.7769 -21.8863 -21.7028 -21.6392
   -14.0350 -13.7236  -2.2374  -1.2200  -0.3872   0.1177   0.4592   1.5167
     2.4413   2.7401   3.2523   5.3041   5.7209   6.0436   8.8989   9.9197
    12.7213  13.5937  14.9041

     occupation numbers 
     1.0000   1.0000   1.0000   1.0000   1.0000   1.0000   1.0000   1.0000
     1.0000   1.0000   1.0000   1.0000   1.0000   1.0000   1.0000   1.0000
     1.0000   1.0000   1.0215   0.0000   0.0000   0.0000   0.0000   0.0000
     0.0000   0.0000   0.0000

          k = 0.2500 0.4330 0.0000 (  3781 PWs)   bands (ev):

   -92.0476 -55.2987 -55.2777 -55.2657 -49.7768 -21.8529 -21.7364 -21.6392
   -14.0877 -13.6713  -1.6853  -1.5393  -0.5977   0.0900   0.2295   1.5239
     2.4962   2.8571   3.4480   5.2871   5.3878   5.7782   9.6186  10.1358
    12.5686  14.3101  14.8250

     occupation numbers 
     1.0000   1.0000   1.0000   1.0000   1.0000   1.0000   1.0000   1.0000
     1.0000   1.0000   1.0000   1.0000   1.0000   1.0000   1.0000   1.0000
     1.0000   1.0000   1.0797   0.0000   0.0000   0.0000   0.0000   0.0000
     0.0000   0.0000   0.0000

          k = 0.2500 0.4330 0.0972 (  3790 PWs)   bands (ev):

   -92.0476 -55.2988 -55.2778 -55.2657 -49.7769 -21.8529 -21.7366 -21.6392
   -14.0877 -13.6713  -1.6853  -1.5394  -0.5978   0.0901   0.2299   1.5239
     2.4963   2.8574   3.4465   5.2988   5.3825   5.7696   9.6361  10.1346
    12.5386  14.2778  14.8763

     occupation numbers 
     1.0000   1.0000   1.0000   1.0000   1.0000   1.0000   1.0000   1.0000
     1.0000   1.0000   1.0000   1.0000   1.0000   1.0000   1.0000   1.0000
     1.0000   1.0000   1.0794   0.0000   0.0000   0.0000   0.0000   0.0000
     0.0000   0.0000   0.0000

          k = 0.2500 0.5774 0.0000 (  3794 PWs)   bands (ev):

   -92.0471 -55.2993 -55.2844 -55.2648 -49.7732 -21.8543 -21.7724 -21.6341
   -13.8753 -13.7319  -1.8341  -1.4554  -0.7496   0.2372   0.4553   1.0841
     2.2126   3.0626   3.3366   5.3754   5.4105   7.4183   8.4325  11.6025
    11.9832  12.3882  14.7382

     occupation numbers 
     1.0000   1.0000   1.0000   1.0000   1.0000   1.0000   1.0000   1.0000
     1.0000   1.0000   1.0000   1.0000   1.0000   1.0000   1.0000   1.0000
     1.0000   1.0018   1.0454   0.0000   0.0000   0.0000   0.0000   0.0000
     0.0000   0.0000   0.0000

          k = 0.2500 0.5774 0.0972 (  3783 PWs)   bands (ev):

   -92.0470 -55.2992 -55.2844 -55.2649 -49.7731 -21.8542 -21.7722 -21.6341
   -13.8753 -13.7319  -1.8341  -1.4553  -0.7496   0.2372   0.4553   1.0842
     2.2126   3.0627   3.3364   5.3759   5.4119   7.4154   8.4293  11.6194
    11.9719  12.4104  14.7386

     occupation numbers 
     1.0000   1.0000   1.0000   1.0000   1.0000   1.0000   1.0000   1.0000
     1.0000   1.0000   1.0000   1.0000   1.0000   1.0000   1.0000   1.0000
     1.0000   1.0018   1.0453   0.0000   0.0000   0.0000   0.0000   0.0000
     0.0000   0.0000   0.0000

          k = 0.0000-0.1443 0.0972 (  3806 PWs)   bands (ev):

   -92.0518 -55.2726 -55.2622 -55.2560 -49.8074 -21.6808 -21.6581 -21.6232
   -15.2930 -13.5530  -1.5598  -1.4322  -1.1819   1.1809   1.4782   1.5733
     2.3306   2.6699   2.9187   3.5096   5.5930   6.0139   6.1494  10.0858
    12.1267  14.4668  15.9215

     occupation numbers 
     1.0000   1.0000   1.0000   1.0000   1.0000   1.0000   1.0000   1.0000
     1.0000   1.0000   1.0000   1.0000   1.0000   1.0000   1.0000   1.0000
     1.0000   1.0000   1.0001   1.0809   0.0000   0.0000   0.0000   0.0000
     0.0000   0.0000   0.0000

          k = 0.0000-0.2887 0.0972 (  3778 PWs)   bands (ev):

   -92.0500 -55.2816 -55.2697 -55.2606 -49.7947 -21.7638 -21.6634 -21.6460
   -14.8433 -13.5819  -1.7037  -1.0703  -0.9082  -0.0971   1.0287   2.2179
     2.6668   2.9955   3.1059   3.4398   5.0147   5.8976   7.1095  11.0089
    13.3511  13.7528  15.6657

     occupation numbers 
     1.0000   1.0000   1.0000   1.0000   1.0000   1.0000   1.0000   1.0000
     1.0000   1.0000   1.0000   1.0000   1.0000   1.0000   1.0000   1.0000
     1.0000   1.0006   1.0034   1.0780   0.0000   0.0000   0.0000   0.0000
     0.0000   0.0000   0.0000

          k = 0.0000-0.4330 0.0972 (  3794 PWs)   bands (ev):

   -92.0483 -55.3012 -55.2669 -55.2654 -49.7821 -21.8678 -21.6690 -21.6463
   -14.3018 -13.6625  -2.1457  -1.0639  -0.6937  -0.0468   0.8739   1.7989
     2.6219   2.8297   3.1118   4.6261   5.2333   5.9372   8.6838  10.1630
    12.5095  13.9786  15.0991

     occupation numbers 
     1.0000   1.0000   1.0000   1.0000   1.0000   1.0000   1.0000   1.0000
     1.0000   1.0000   1.0000   1.0000   1.0000   1.0000   1.0000   1.0000
     1.0000   1.0000   1.0037   0.0000   0.0000   0.0000   0.0000   0.0000
     0.0000   0.0000   0.0000

          k =-0.1250-0.3608 0.0972 (  3782 PWs)   bands (ev):

   -92.0488 -55.2926 -55.2680 -55.2666 -49.7858 -21.8216 -21.6782 -21.6513
   -14.4876 -13.6168  -1.7377  -1.2308  -0.6616  -0.1444   0.4787   2.0925
     2.7024   2.9904   3.3309   3.9921   5.1703   5.6480   8.0517  11.6382
    12.1148  14.4266  15.8703

     occupation numbers 
     1.0000   1.0000   1.0000   1.0000   1.0000   1.0000   1.0000   1.0000
     1.0000   1.0000   1.0000   1.0000   1.0000   1.0000   1.0000   1.0000
     1.0000   1.0005   1.0435   0.1534   0.0000   0.0000   0.0000   0.0000
     0.0000   0.0000   0.0000

          k =-0.1250-0.5052 0.0972 (  3793 PWs)   bands (ev):

   -92.0476 -55.3049 -55.2717 -55.2657 -49.7769 -21.8863 -21.7028 -21.6392
   -14.0350 -13.7236  -2.2374  -1.2200  -0.3872   0.1178   0.4593   1.5164
     2.4414   2.7401   3.2520   5.3203   5.7124   6.0285   8.9033   9.9565
    12.6758  13.4799  14.8765

     occupation numbers 
     1.0000   1.0000   1.0000   1.0000   1.0000   1.0000   1.0000   1.0000
     1.0000   1.0000   1.0000   1.0000   1.0000   1.0000   1.0000   1.0000
     1.0000   1.0000   1.0215   0.0000   0.0000   0.0000   0.0000   0.0000
     0.0000   0.0000   0.0000

 ------ SPIN DOWN ----------


          k = 0.0000 0.0000 0.0000 (  3803 PWs)   bands (ev):

   -91.2911 -54.5696 -54.5696 -54.4156 -49.8210 -21.6944 -21.6233 -21.6233
   -15.3581 -13.4298  -1.4107  -1.0555  -1.0555   1.1032   2.0273   2.5065
     2.5065   2.8083   2.8083   4.3488   5.8021   6.4386   6.4386   9.2756
    12.7649  13.1406  15.6049

     occupation numbers 
     1.0000   1.0000   1.0000   1.0000   1.0000   1.0000   1.0000   1.0000
     1.0000   1.0000   1.0000   1.0000   1.0000   1.0000   1.0000   1.0000
     1.0000   1.0000   1.0000   0.0011   0.0000   0.0000   0.0000   0.0000
     0.0000   0.0000   0.0000

          k = 0.0000 0.0000 0.0972 (  3796 PWs)   bands (ev):

   -91.2911 -54.5697 -54.5697 -54.4156 -49.8210 -21.6942 -21.6233 -21.6233
   -15.3581 -13.4298  -1.4033  -1.0555  -1.0555   1.0020   2.1873   2.5064
     2.5064   2.8083   2.8083   4.3020   5.6872   6.4386   6.4386   9.7240
    11.6350  13.9763  15.6510

     occupation numbers 
     1.0000   1.0000   1.0000   1.0000   1.0000   1.0000   1.0000   1.0000
     1.0000   1.0000   1.0000   1.0000   1.0000   1.0000   1.0000   1.0000
     1.0000   1.0000   1.0000   0.0026   0.0000   0.0000   0.0000   0.0000
     0.0000   0.0000   0.0000

          k = 0.0000 0.1443 0.0000 (  3787 PWs)   bands (ev):

   -91.2903 -54.5780 -54.5717 -54.4143 -49.8157 -21.6870 -21.6679 -21.6329
   -15.1862 -13.4353  -1.2871  -1.1548  -0.9478   1.3734   1.5674   1.8753
     2.3443   3.1752   3.3522   4.3717   5.8218   6.2946   6.3322   9.7479
    13.1890  13.6467  16.1510

     occupation numbers 
     1.0000   1.0000   1.0000   1.0000   1.0000   1.0000   1.0000   1.0000
     1.0000   1.0000   1.0000   1.0000   1.0000   1.0000   1.0000   1.0000
     1.0000   1.0089   1.0507   0.0007   0.0000   0.0000   0.0000   0.0000
     0.0000   0.0000   0.0000

          k = 0.0000 0.1443 0.0972 (  3806 PWs)   bands (ev):

   -91.2904 -54.5781 -54.5717 -54.4144 -49.8158 -21.6872 -21.6681 -21.6330
   -15.1862 -13.4354  -1.2861  -1.1512  -0.9478   1.3648   1.4873   1.8753
     2.4751   3.1823   3.3522   4.3272   5.9108   6.1134   6.3321  10.1265
    12.1597  14.5638  15.9901

     occupation numbers 
     1.0000   1.0000   1.0000   1.0000   1.0000   1.0000   1.0000   1.0000
     1.0000   1.0000   1.0000   1.0000   1.0000   1.0000   1.0000   1.0000
     1.0000   1.0097   1.0507   0.0016   0.0000   0.0000   0.0000   0.0000
     0.0000   0.0000   0.0000

          k = 0.0000 0.2887 0.0000 (  3786 PWs)   bands (ev):

   -91.2885 -54.5983 -54.5765 -54.4113 -49.8031 -21.7745 -21.6698 -21.6559
   -14.7348 -13.4624  -1.4948  -0.8006  -0.6915   0.1323   1.2791   2.4268
     2.8033   3.3631   3.6402   4.2163   5.3701   6.1967   7.0960  10.9008
    13.4085  14.1770  14.8846

     occupation numbers 
     1.0000   1.0000   1.0000   1.0000   1.0000   1.0000   1.0000   1.0000
     1.0000   1.0000   1.0000   1.0000   1.0000   1.0000   1.0000   1.0000
     1.0000   1.0544   0.9655   0.0102   0.0000   0.0000   0.0000   0.0000
     0.0000   0.0000   0.0000

          k = 0.0000 0.2887 0.0972 (  3778 PWs)   bands (ev):

   -91.2885 -54.5983 -54.5765 -54.4113 -49.8030 -21.7745 -21.6697 -21.6559
   -14.7348 -13.4624  -1.4957  -0.7988  -0.6915   0.1353   1.2791   2.3706
     2.8460   3.3872   3.6402   4.1904   5.4389   6.1967   6.9869  11.1288
    13.2834  13.6162  15.6889

     occupation numbers 
     1.0000   1.0000   1.0000   1.0000   1.0000   1.0000   1.0000   1.0000
     1.0000   1.0000   1.0000   1.0000   1.0000   1.0000   1.0000   1.0000
     1.0000   1.0627   0.9655   0.0149   0.0000   0.0000   0.0000   0.0000
     0.0000   0.0000   0.0000

          k = 0.0000 0.4330 0.0000 (  3780 PWs)   bands (ev):

   -91.2867 -54.6185 -54.5814 -54.4083 -49.7904 -21.8790 -21.6788 -21.6524
   -14.1913 -13.5412  -1.9688  -0.9312  -0.4822   0.2889   1.0319   2.0042
     3.3363   3.4793   3.8440   4.5476   5.6125   6.2322   8.5901  10.0581
    12.6128  13.9307  15.1185

     occupation numbers 
     1.0000   1.0000   1.0000   1.0000   1.0000   1.0000   1.0000   1.0000
     1.0000   1.0000   1.0000   1.0000   1.0000   1.0000   1.0000   1.0000
     1.0453   1.0833   0.4631   0.0000   0.0000   0.0000   0.0000   0.0000
     0.0000   0.0000   0.0000

          k = 0.0000 0.4330 0.0972 (  3794 PWs)   bands (ev):

   -91.2867 -54.6186 -54.5814 -54.4083 -49.7904 -21.8792 -21.6789 -21.6525
   -14.1913 -13.5412  -1.9690  -0.9315  -0.4822   0.2900   1.0319   2.0052
     3.3346   3.4793   3.8472   4.5187   5.6555   6.2321   8.5528  10.0553
    12.7237  13.9712  14.7425

     occupation numbers 
     1.0000   1.0000   1.0000   1.0000   1.0000   1.0000   1.0000   1.0000
     1.0000   1.0000   1.0000   1.0000   1.0000   1.0000   1.0000   1.0000
     1.0447   1.0833   0.4549   0.0000   0.0000   0.0000   0.0000   0.0000
     0.0000   0.0000   0.0000

          k = 0.0000-0.5774 0.0000 (  3798 PWs)   bands (ev):

   -91.2860 -54.6270 -54.5834 -54.4070 -49.7851 -21.9220 -21.6885 -21.6452
   -13.8452 -13.6795  -2.3653  -0.7643  -0.4329   0.4458   1.0353   1.7376
     3.2177   3.3130   3.7045   5.7570   6.2840   6.4434   7.7230  10.4169
    11.3717  14.4574  14.7948

     occupation numbers 
     1.0000   1.0000   1.0000   1.0000   1.0000   1.0000   1.0000   1.0000
     1.0000   1.0000   1.0000   1.0000   1.0000   1.0000   1.0000   1.0000
     1.0148   1.0378   0.8352   0.0000   0.0000   0.0000   0.0000   0.0000
     0.0000   0.0000   0.0000

          k = 0.0000-0.5774 0.0972 (  3790 PWs)   bands (ev):

   -91.2860 -54.6270 -54.5834 -54.4071 -49.7851 -21.9219 -21.6883 -21.6453
   -13.8452 -13.6795  -2.3654  -0.7643  -0.4329   0.4458   1.0355   1.7385
     3.2175   3.3130   3.7043   5.7582   6.2840   6.4365   7.7226  10.4471
    11.3851  14.3124  14.6562

     occupation numbers 
     1.0000   1.0000   1.0000   1.0000   1.0000   1.0000   1.0000   1.0000
     1.0000   1.0000   1.0000   1.0000   1.0000   1.0000   1.0000   1.0000
     1.0148   1.0378   0.8356   0.0000   0.0000   0.0000   0.0000   0.0000
     0.0000   0.0000   0.0000

          k = 0.1250 0.2165 0.0000 (  3789 PWs)   bands (ev):

   -91.2891 -54.5915 -54.5760 -54.4122 -49.8068 -21.7386 -21.6748 -21.6543
   -14.8744 -13.4508  -1.4063  -0.8870  -0.7892   0.5667   1.1424   2.2471
     2.6924   3.3004   3.6981   4.2849   5.5248   6.0698   6.8188  10.5592
    13.8047  14.5265  14.7592

     occupation numbers 
     1.0000   1.0000   1.0000   1.0000   1.0000   1.0000   1.0000   1.0000
     1.0000   1.0000   1.0000   1.0000   1.0000   1.0000   1.0000   1.0000
     1.0000   1.0340   0.8501   0.0034   0.0000   0.0000   0.0000   0.0000
     0.0000   0.0000   0.0000

          k = 0.1250 0.2165 0.0972 (  3785 PWs)   bands (ev):

   -91.2891 -54.5914 -54.5760 -54.4122 -49.8068 -21.7385 -21.6749 -21.6542
   -14.8744 -13.4508  -1.4073  -0.8847  -0.7883   0.5699   1.1424   2.1590
     2.7918   3.3005   3.7131   4.2586   5.5793   6.0353   6.7475  10.7794
    13.0953  14.7351  15.4176

     occupation numbers 
     1.0000   1.0000   1.0000   1.0000   1.0000   1.0000   1.0000   1.0000
     1.0000   1.0000   1.0000   1.0000   1.0000   1.0000   1.0000   1.0000
     1.0000   1.0340   0.8147   0.0053   0.0000   0.0000   0.0000   0.0000
     0.0000   0.0000   0.0000

          k = 0.1250 0.3608 0.0000 (  3780 PWs)   bands (ev):

   -91.2872 -54.6096 -54.5829 -54.4092 -49.7941 -21.8326 -21.6883 -21.6575
   -14.3777 -13.4960  -1.5428  -1.0662  -0.4501   0.1577   0.6829   2.2925
     3.3688   3.7053   3.8525   4.0466   5.5193   5.9555   7.9928  11.5612
    12.0699  14.6033  15.7216

     occupation numbers 
     1.0000   1.0000   1.0000   1.0000   1.0000   1.0000   1.0000   1.0000
     1.0000   1.0000   1.0000   1.0000   1.0000   1.0000   1.0000   1.0000
     1.0564   0.8334   0.4408   0.0893   0.0000   0.0000   0.0000   0.0000
     0.0000   0.0000   0.0000

          k = 0.1250 0.3608 0.0972 (  3782 PWs)   bands (ev):

   -91.2872 -54.6096 -54.5829 -54.4092 -49.7941 -21.8327 -21.6883 -21.6575
   -14.3777 -13.4961  -1.5432  -1.0663  -0.4499   0.1597   0.6830   2.2904
     3.3674   3.6842   3.8766   4.0325   5.5656   5.9399   7.9564  11.5690
    12.1541  14.3454  15.8078

     occupation numbers 
     1.0000   1.0000   1.0000   1.0000   1.0000   1.0000   1.0000   1.0000
     1.0000   1.0000   1.0000   1.0000   1.0000   1.0000   1.0000   1.0000
     1.0559   0.8811   0.3798   0.1034   0.0000   0.0000   0.0000   0.0000
     0.0000   0.0000   0.0000

          k = 0.1250 0.5052 0.0000 (  3784 PWs)   bands (ev):

   -91.2860 -54.6224 -54.5879 -54.4070 -49.7851 -21.8977 -21.7129 -21.6453
   -13.9250 -13.6001  -2.0764  -1.0737  -0.2036   0.3815   0.6472   1.7123
     3.3631   3.4268   3.8436   5.6290   5.9371   6.0786   8.7992   9.8450
    12.6175  13.5708  14.9479

     occupation numbers 
     1.0000   1.0000   1.0000   1.0000   1.0000   1.0000   1.0000   1.0000
     1.0000   1.0000   1.0000   1.0000   1.0000   1.0000   1.0000   1.0000
     1.0545   1.0749   0.4644   0.0000   0.0000   0.0000   0.0000   0.0000
     0.0000   0.0000   0.0000

          k = 0.1250 0.5052 0.0972 (  3793 PWs)   bands (ev):

   -91.2860 -54.6224 -54.5879 -54.4071 -49.7851 -21.8978 -21.7130 -21.6454
   -13.9250 -13.6001  -2.0764  -1.0738  -0.2036   0.3817   0.6473   1.7129
     3.3629   3.4270   3.8430   5.6084   5.9738   6.0640   8.7936   9.8463
    12.6605  13.5669  14.8892

     occupation numbers 
     1.0000   1.0000   1.0000   1.0000   1.0000   1.0000   1.0000   1.0000
     1.0000   1.0000   1.0000   1.0000   1.0000   1.0000   1.0000   1.0000
     1.0544   1.0749   0.4658   0.0000   0.0000   0.0000   0.0000   0.0000
     0.0000   0.0000   0.0000

          k = 0.2500 0.4330 0.0000 (  3781 PWs)   bands (ev):

   -91.2859 -54.6160 -54.5942 -54.4071 -49.7851 -21.8641 -21.7468 -21.6454
   -13.9769 -13.5485  -1.5372  -1.3569  -0.4667   0.2995   0.5327   1.7203
     3.4414   3.5317   4.0102   5.4373   5.7338   5.8460   9.5472  10.0095
    12.5340  14.3064  14.7482

     occupation numbers 
     1.0000   1.0000   1.0000   1.0000   1.0000   1.0000   1.0000   1.0000
     1.0000   1.0000   1.0000   1.0000   1.0000   1.0000   1.0000   1.0000
     1.0784   1.0744   0.1292   0.0000   0.0000   0.0000   0.0000   0.0000
     0.0000   0.0000   0.0000

          k = 0.2500 0.4330 0.0972 (  3790 PWs)   bands (ev):

   -91.2860 -54.6160 -54.5942 -54.4071 -49.7851 -21.8642 -21.7470 -21.6454
   -13.9769 -13.5485  -1.5372  -1.3570  -0.4668   0.2994   0.5334   1.7202
     3.4414   3.5321   4.0077   5.4494   5.7219   5.8447   9.5642  10.0081
    12.5039  14.2687  14.8008

     occupation numbers 
     1.0000   1.0000   1.0000   1.0000   1.0000   1.0000   1.0000   1.0000
     1.0000   1.0000   1.0000   1.0000   1.0000   1.0000   1.0000   1.0000
     1.0784   1.0742   0.1323   0.0000   0.0000   0.0000   0.0000   0.0000
     0.0000   0.0000   0.0000

          k = 0.2500 0.5774 0.0000 (  3794 PWs)   bands (ev):

   -91.2854 -54.6166 -54.6011 -54.4062 -49.7814 -21.8655 -21.7830 -21.6402
   -13.7686 -13.6037  -1.6802  -1.2992  -0.6288   0.4441   0.7464   1.2515
     3.2350   3.7051   3.9376   5.7235   5.7355   7.2951   8.3195  11.5118
    11.9343  12.3444  14.6896

     occupation numbers 
     1.0000   1.0000   1.0000   1.0000   1.0000   1.0000   1.0000   1.0000
     1.0000   1.0000   1.0000   1.0000   1.0000   1.0000   1.0000   1.0000
     1.0179   0.8337   0.2450   0.0000   0.0000   0.0000   0.0000   0.0000
     0.0000   0.0000   0.0000

          k = 0.2500 0.5774 0.0972 (  3783 PWs)   bands (ev):

   -91.2854 -54.6165 -54.6011 -54.4062 -49.7814 -21.8654 -21.7829 -21.6403
   -13.7686 -13.6037  -1.6801  -1.2992  -0.6287   0.4441   0.7464   1.2516
     3.2350   3.7052   3.9373   5.7248   5.7369   7.2915   8.3160  11.5293
    11.9229  12.3664  14.6920

     occupation numbers 
     1.0000   1.0000   1.0000   1.0000   1.0000   1.0000   1.0000   1.0000
     1.0000   1.0000   1.0000   1.0000   1.0000   1.0000   1.0000   1.0000
     1.0179   0.8336   0.2455   0.0000   0.0000   0.0000   0.0000   0.0000
     0.0000   0.0000   0.0000

          k = 0.0000-0.1443 0.0972 (  3806 PWs)   bands (ev):

   -91.2904 -54.5781 -54.5717 -54.4144 -49.8158 -21.6872 -21.6681 -21.6330
   -15.1862 -13.4353  -1.2855  -1.1517  -0.9479   1.3402   1.5178   1.8753
     2.4659   3.1866   3.3522   4.3312   5.8169   6.2126   6.3322  10.0929
    12.1968  14.5498  15.9989

     occupation numbers 
     1.0000   1.0000   1.0000   1.0000   1.0000   1.0000   1.0000   1.0000
     1.0000   1.0000   1.0000   1.0000   1.0000   1.0000   1.0000   1.0000
     1.0000   1.0102   1.0507   0.0015   0.0000   0.0000   0.0000   0.0000
     0.0000   0.0000   0.0000

          k = 0.0000-0.2887 0.0972 (  3778 PWs)   bands (ev):

   -91.2885 -54.5983 -54.5765 -54.4113 -49.8030 -21.7745 -21.6697 -21.6559
   -14.7348 -13.4624  -1.4954  -0.7993  -0.6915   0.1357   1.2791   2.3610
     2.8568   3.3906   3.6402   4.2094   5.3669   6.1967   7.0674  11.0075
    13.3327  13.7234  15.7317

     occupation numbers 
     1.0000   1.0000   1.0000   1.0000   1.0000   1.0000   1.0000   1.0000
     1.0000   1.0000   1.0000   1.0000   1.0000   1.0000   1.0000   1.0000
     1.0000   1.0639   0.9655   0.0113   0.0000   0.0000   0.0000   0.0000
     0.0000   0.0000   0.0000

          k = 0.0000-0.4330 0.0972 (  3794 PWs)   bands (ev):

   -91.2867 -54.6186 -54.5814 -54.4083 -49.7904 -21.8792 -21.6789 -21.6525
   -14.1913 -13.5412  -1.9690  -0.9315  -0.4823   0.2905   1.0319   2.0032
     3.3351   3.4793   3.8398   4.5552   5.6040   6.2321   8.6186  10.0578
    12.5007  13.9281  15.1556

     occupation numbers 
     1.0000   1.0000   1.0000   1.0000   1.0000   1.0000   1.0000   1.0000
     1.0000   1.0000   1.0000   1.0000   1.0000   1.0000   1.0000   1.0000
     1.0449   1.0833   0.4744   0.0000   0.0000   0.0000   0.0000   0.0000
     0.0000   0.0000   0.0000

          k =-0.1250-0.3608 0.0972 (  3782 PWs)   bands (ev):

   -91.2872 -54.6096 -54.5829 -54.4092 -49.7941 -21.8327 -21.6883 -21.6575
   -14.3777 -13.4960  -1.5432  -1.0664  -0.4500   0.1602   0.6829   2.2880
     3.3693   3.6916   3.8380   4.0798   5.5215   5.9526   7.9930  11.5596
    12.0671  14.4658  15.8616

     occupation numbers 
     1.0000   1.0000   1.0000   1.0000   1.0000   1.0000   1.0000   1.0000
     1.0000   1.0000   1.0000   1.0000   1.0000   1.0000   1.0000   1.0000
     1.0566   0.8648   0.4792   0.0619   0.0000   0.0000   0.0000   0.0000
     0.0000   0.0000   0.0000

          k =-0.1250-0.5052 0.0972 (  3793 PWs)   bands (ev):

   -91.2860 -54.6224 -54.5879 -54.4071 -49.7851 -21.8978 -21.7130 -21.6454
   -13.9250 -13.6001  -2.0765  -1.0737  -0.2036   0.3817   0.6474   1.7124
     3.3631   3.4269   3.8425   5.6479   5.9176   6.0729   8.7978   9.8830
    12.6173  13.4589  14.8555

     occupation numbers 
     1.0000   1.0000   1.0000   1.0000   1.0000   1.0000   1.0000   1.0000
     1.0000   1.0000   1.0000   1.0000   1.0000   1.0000   1.0000   1.0000
     1.0544   1.0749   0.4673   0.0000   0.0000   0.0000   0.0000   0.0000
     0.0000   0.0000   0.0000

     the Fermi energy is     3.8682 ev

!    total energy              =    -569.18498681 Ry
     total all-electron energy =     -3412.675542 Ry
     estimated scf accuracy    <          8.1E-09 Ry
     smearing contrib. (-TS)   =       0.00264871 Ry
     internal energy E=F+TS    =    -569.18763552 Ry

     The total energy is F=E-TS. E is the sum of the following terms:
     one-electron contribution =    -703.50059914 Ry
     hartree contribution      =     364.17951716 Ry
     xc contribution           =     -59.97394987 Ry
     ewald contribution        =     -47.93579563 Ry
     one-center paw contrib.   =    -121.95680804 Ry
      -> PAW hartree energy AE =     342.31348727 Ry
      -> PAW hartree energy PS =    -342.31797047 Ry
      -> PAW xc energy AE      =    -178.89094177 Ry
      -> PAW xc energy PS      =      56.93861693 Ry
      -> total E_H with PAW    =     364.17503396 Ry
      -> total E_XC with PAW   =    -181.92627471 Ry

     total magnetization       =     0.76 Bohr mag/cell
     absolute magnetization    =     0.87 Bohr mag/cell

     convergence has been achieved in  25 iterations

     Forces acting on atoms (cartesian axes, Ry/au):

     atom    1 type  1   force =     0.00000000    0.00000000    0.01515364
     atom    2 type  2   force =     0.00000000    0.00000000   -0.03173531
     atom    3 type  2   force =    -0.00000000   -0.00000000    0.00423881
     atom    4 type  3   force =     0.00000000    0.00000000    0.01234286
     The non-local contrib.  to forces
     atom    1 type  1   force =     0.00000000    0.00000000    0.00917546
     atom    2 type  2   force =     0.00000000    0.00000000   -1.23315579
     atom    3 type  2   force =     0.00000000    0.00000000    1.02087289
     atom    4 type  3   force =     0.00000000    0.00000000    0.04492371
     The ionic contribution  to forces
     atom    1 type  1   force =    -0.00000000    0.00000000   11.28794739
     atom    2 type  2   force =     0.00000000   -0.00000000   39.00184131
     atom    3 type  2   force =    -0.00000000    0.00000000  -31.05345327
     atom    4 type  3   force =     0.00000000   -0.00000000  -19.23633543
     The local contribution  to forces
     atom    1 type  1   force =     0.00000000   -0.00000000  -11.28201531
     atom    2 type  2   force =     0.00000001   -0.00000001  -37.81133632
     atom    3 type  2   force =    -0.00000001    0.00000001   30.04561342
     atom    4 type  3   force =     0.00000006   -0.00000004   19.20381206
     The core correction contribution to forces
     atom    1 type  1   force =    -0.00000000    0.00000000   -0.00003842
     atom    2 type  2   force =    -0.00000000    0.00000000    0.01092919
     atom    3 type  2   force =     0.00000000   -0.00000000   -0.00882531
     atom    4 type  3   force =     0.00000000   -0.00000000   -0.00004457
     The Hubbard contrib.    to forces
     atom    1 type  1   force =     0.00000000    0.00000000    0.00000000
     atom    2 type  2   force =     0.00000000    0.00000000    0.00000000
     atom    3 type  2   force =     0.00000000    0.00000000    0.00000000
     atom    4 type  3   force =     0.00000000    0.00000000    0.00000000
     The SCF correction term to forces
     atom    1 type  1   force =     0.00000000    0.00000000    0.00010519
     atom    2 type  2   force =     0.00000000   -0.00000000    0.00000697
     atom    3 type  2   force =    -0.00000000    0.00000000    0.00005176
     atom    4 type  3   force =     0.00000000   -0.00000000    0.00000777

     Total force =     0.037511     Total SCF correction =     0.000118

     Writing all to output data dir ./out/pw.save/ :
     XML data file, charge density, pseudopotentials, collected wavefunctions
 
     init_run     :     12.44s CPU      2.96s WALL (       1 calls)
     electrons    :    129.57s CPU     34.62s WALL (       1 calls)
     forces       :      0.59s CPU      0.54s WALL (       1 calls)

     Called by init_run:
     wfcinit      :      0.28s CPU      0.34s WALL (       1 calls)
     wfcinit:atom :      0.04s CPU      0.04s WALL (      50 calls)
     wfcinit:wfcr :      0.17s CPU      0.20s WALL (      50 calls)
     potinit      :     11.62s CPU      2.04s WALL (       1 calls)
     hinit0       :      0.45s CPU      0.44s WALL (       1 calls)

     Called by electrons:
     c_bands      :     16.90s CPU     17.03s WALL (      25 calls)
     sum_band     :      2.84s CPU      2.83s WALL (      25 calls)
     v_of_rho     :      0.46s CPU      0.24s WALL (      26 calls)
     v_h          :      0.32s CPU      0.05s WALL (      26 calls)
     v_xc         :      0.14s CPU      0.20s WALL (      27 calls)
     newd         :      0.60s CPU      0.45s WALL (      26 calls)
                                        0.45s GPU  (      26 calls)
     PAW_pot      :    111.58s CPU     14.05s WALL (      26 calls)
     mix_rho      :      0.46s CPU      0.46s WALL (      25 calls)

     Called by c_bands:
     init_us_2    :      1.04s CPU      1.01s WALL (    2600 calls)
     cegterg      :     14.66s CPU     14.83s WALL (    1250 calls)

     Called by sum_band:
     sum_band:wei :      0.03s CPU      0.03s WALL (      25 calls)
                                        0.03s GPU  (      25 calls)
     sum_band:loo :      1.78s CPU      1.76s WALL (      25 calls)
                                        1.76s GPU  (      25 calls)
     sum_band:buf :      0.26s CPU      0.28s WALL (    1250 calls)
                                        0.27s GPU  (    1250 calls)
     sum_band:ini :      0.49s CPU      0.49s WALL (    1250 calls)
                                        0.48s GPU  (    1250 calls)
     sum_band:cal :      0.05s CPU      0.08s WALL (    1250 calls)
                                        0.06s GPU  (    1250 calls)
     sum_band:bec :      0.26s CPU      0.28s WALL (    1250 calls)
                                        0.27s GPU  (    1250 calls)
     addusdens    :      0.82s CPU      0.84s WALL (      25 calls)
                                        0.84s GPU  (      25 calls)
     addusd:skk   :      0.00s CPU      0.00s WALL (      75 calls)
                                        0.00s GPU  (      75 calls)

     Called by *egterg:
     cdiaghg      :      5.04s CPU      5.22s WALL (    5767 calls)
                                        5.15s GPU  (    5767 calls)
     cegterg:over :      1.31s CPU      1.36s WALL (    4517 calls)
     cegterg:upda :      0.87s CPU      0.88s WALL (    4517 calls)
     cegterg:last :      0.17s CPU      0.17s WALL (    2467 calls)
     h_psi        :      5.26s CPU      5.36s WALL (    5817 calls)
                                        5.29s GPU  (    5817 calls)
     s_psi        :      0.86s CPU      0.91s WALL (    5817 calls)
     g_psi        :      0.02s CPU      0.11s WALL (    4517 calls)
                                        0.06s GPU  (    4517 calls)

     Called by h_psi:
     h_psi:calbec :      0.18s CPU      0.33s WALL (    5817 calls)
                                        0.26s GPU  (    5817 calls)
     vloc_psi     :      3.67s CPU      3.68s WALL (    5817 calls)
                                        3.61s GPU  (    5817 calls)
     add_vuspsi   :      0.79s CPU      0.94s WALL (    5817 calls)
                                        0.87s GPU  (    5817 calls)

     General routines
     calbec       :      0.19s CPU      0.22s WALL (    7267 calls)
     fft          :      3.66s CPU      0.65s WALL (     663 calls)
                                        0.02s GPU  (     611 calls)
     ffts         :      4.31s CPU      0.81s WALL (     102 calls)
                                        0.00s GPU  (      50 calls)
     fftw         :      0.32s CPU      1.34s WALL (   19336 calls)
                                        1.12s GPU  (   19336 calls)
     interpolate  :      8.19s CPU      1.48s WALL (      52 calls)
 
     Parallel routines

     PAW routines
     PAW_pot      :    111.58s CPU     14.05s WALL (      26 calls)
     PAW_symme    :      0.03s CPU      0.00s WALL (      51 calls)
 
     PWSCF        :   2m23.48s CPU     38.64s WALL

 
   This run was terminated on:   2:17:41  12Jul2026            

=------------------------------------------------------------------------------=
   JOB DONE.
=------------------------------------------------------------------------------=
Warning: ieee_divide_by_zero is signaling
Warning: ieee_inexact is signaling
FORTRAN STOP
