
     Program PWSCF v.7.3.1 starts on 12Jul2026 at  2:20: 9 

     This program is part of the open-source Quantum ESPRESSO suite
     for quantum simulation of materials; please cite
         "P. Giannozzi et al., J. Phys.:Condens. Matter 21 395502 (2009);
         "P. Giannozzi et al., J. Phys.:Condens. Matter 29 465901 (2017);
         "P. Giannozzi et al., J. Chem. Phys. 152 154105 (2020);
          URL http://www.quantum-espresso.org", 
     in publications or presentations arising from this work. More details at
     http://www.quantum-espresso.org/quote

     Parallel version (MPI & OpenMP), running on      14 processor cores
     Number of MPI processes:                 1
     Threads/MPI process:                    14

     MPI processes distributed on     1 nodes
     849623 MiB available memory on the printing compute node when the environment starts
 
     Reading input from pw.in

     Current dimensions of program PWSCF are:
     Max number of different atomic species (ntypx) = 10
     Max number of k-points (npk) =  40000
     Max angular momentum in pseudopotentials (lmaxx) =  4
     file Co.pbe-spn-kjpaw_psl.0.3.1.UPF: wavefunction(s)  3P 3D renormalized
     file O.pbe-n-kjpaw_psl.1.0.0.UPF: wavefunction(s)  2S 2P renormalized
 
     Subspace diagonalization in iterative solution of the eigenvalue problem:
     a serial algorithm will be used

 
     G-vector sticks info
     --------------------
     sticks:   dense  smooth     PW     G-vecs:    dense   smooth      PW
     Sum         931     475    139                69237    24541    3997
 
     Using Slab Decomposition
 


     bravais-lattice index     =            4
     lattice parameter (alat)  =       5.3290  a.u.
     unit-cell volume          =     390.3954 (a.u.)^3
     number of atoms/cell      =            4
     number of atomic types    =            3
     number of electrons       =        32.00
     number of Kohn-Sham states=           24
     kinetic-energy cutoff     =      60.0000  Ry
     charge density cutoff     =     480.0000  Ry
     scf convergence threshold =      1.0E-08
     mixing beta               =       0.3000
     number of iterations used =            8  plain     mixing
     Exchange-correlation= SLA  PW   PBX  PBC
                           (   1   4   3   4   0   0   0)

     GPU acceleration is ACTIVE.  1 visible GPUs per MPI rank
     GPU-aware MPI enabled


     GPU used by master process:

        Device Number: 0
        Device name: NVIDIA A100-SXM4-80GB
        Compute capability : 80
        Ratio of single to double precision performance  : 2
        Memory Clock Rate (KHz): 1593000
        Memory Bus Width (bits): 5120
        Peak Memory Bandwidth (GB/s): ******

     celldm(1)=   5.329028  celldm(2)=   0.000000  celldm(3)=   2.978723
     celldm(4)=   0.000000  celldm(5)=   0.000000  celldm(6)=   0.000000

     crystal axes: (cart. coord. in units of alat)
               a(1) = (   1.000000   0.000000   0.000000 )  
               a(2) = (  -0.500000   0.866025   0.000000 )  
               a(3) = (   0.000000   0.000000   2.978723 )  

     reciprocal axes: (cart. coord. in units 2 pi/alat)
               b(1) = (  1.000000  0.577350 -0.000000 )  
               b(2) = (  0.000000  1.154701  0.000000 )  
               b(3) = (  0.000000 -0.000000  0.335714 )  


     PseudoPot. # 1 for Co read from file:
     ../../pseudo/Co.pbe-spn-kjpaw_psl.0.3.1.UPF
     MD5 check sum: 3c0a43779828c046024e4f3be63f8e67
     Pseudo is Projector augmented-wave + core cor, Zval = 17.0
     Generated using &quot;atomic&quot; code by A. Dal Corso  v.6.2.2
     Shape of augmentation charge: PSQ
     Using radial grid of 1193 points,  6 beta functions with: 
                l(1) =   0
                l(2) =   0
                l(3) =   1
                l(4) =   1
                l(5) =   2
                l(6) =   2
     Q(r) pseudized with 0 coefficients 


     PseudoPot. # 2 for O  read from file:
     ../../pseudo/O.pbe-n-kjpaw_psl.1.0.0.UPF
     MD5 check sum: e99d9cef9b487d1ca56f5b95ecd0fd7a
     Pseudo is Projector augmented-wave + core cor, Zval =  6.0
     Generated using &quot;atomic&quot; code by A. Dal Corso  v.6.3
     Shape of augmentation charge: PSQ
     Using radial grid of 1095 points,  4 beta functions with: 
                l(1) =   0
                l(2) =   0
                l(3) =   1
                l(4) =   1
     Q(r) pseudized with 0 coefficients 


     PseudoPot. # 3 for Li read from file:
     ../../pseudo/Li.pbe-s-kjpaw_psl.1.0.0.UPF
     MD5 check sum: 3974953fb0fea6c4f83fb01d64ffc134
     Pseudo is Projector augmented-wave, Zval =  3.0
     Generated using &quot;atomic&quot; code by A. Dal Corso  v.6.3
     Shape of augmentation charge: PSQ
     Using radial grid of 1017 points,  4 beta functions with: 
                l(1) =   0
                l(2) =   0
                l(3) =   1
                l(4) =   1
     Q(r) pseudized with 0 coefficients 


     atomic species   valence    mass     pseudopotential
     Co               17.00    58.93300     Co( 1.00)
     O                 6.00    15.99900     O ( 1.00)
     Li                3.00     6.94100     Li( 1.00)

     Starting magnetic structure 
     atomic species   magnetization
     Co              0.300
     O               0.000
     Li              0.000

      6 Sym. Ops. (no inversion) found


                                    s                        frac. trans.

      isym =  1     identity                                     

 cryst.   s( 1) = (     1          0          0      )
                  (     0          1          0      )
                  (     0          0          1      )

 cart.    s( 1) = (  1.0000000  0.0000000  0.0000000 )
                  (  0.0000000  1.0000000  0.0000000 )
                  (  0.0000000  0.0000000  1.0000000 )


      isym =  2     120 deg rotation - cryst. axis [0,0,1]       

 cryst.   s( 2) = (     0          1          0      )
                  (    -1         -1          0      )
                  (     0          0          1      )

 cart.    s( 2) = ( -0.5000000 -0.8660254  0.0000000 )
                  (  0.8660254 -0.5000000  0.0000000 )
                  (  0.0000000  0.0000000  1.0000000 )


      isym =  3     120 deg rotation - cryst. axis [0,0,-1]      

 cryst.   s( 3) = (    -1         -1          0      )
                  (     1          0          0      )
                  (     0          0          1      )

 cart.    s( 3) = ( -0.5000000  0.8660254  0.0000000 )
                  ( -0.8660254 -0.5000000  0.0000000 )
                  (  0.0000000  0.0000000  1.0000000 )


      isym =  4     inv. 180 deg rotation - cart. axis [1,0,0]   

 cryst.   s( 4) = (    -1          0          0      )
                  (     1          1          0      )
                  (     0          0          1      )

 cart.    s( 4) = ( -1.0000000  0.0000000  0.0000000 )
                  (  0.0000000  1.0000000  0.0000000 )
                  (  0.0000000  0.0000000  1.0000000 )


      isym =  5     inv. 180 deg rotation - cryst. axis [0,1,0]  

 cryst.   s( 5) = (     1          1          0      )
                  (     0         -1          0      )
                  (     0          0          1      )

 cart.    s( 5) = (  0.5000000  0.8660254  0.0000000 )
                  (  0.8660254 -0.5000000  0.0000000 )
                  (  0.0000000  0.0000000  1.0000000 )


      isym =  6     inv. 180 deg rotation - cryst. axis [1,1,0]  

 cryst.   s( 6) = (     0         -1          0      )
                  (    -1          0          0      )
                  (     0          0          1      )

 cart.    s( 6) = (  0.5000000 -0.8660254  0.0000000 )
                  ( -0.8660254 -0.5000000  0.0000000 )
                  (  0.0000000  0.0000000  1.0000000 )


     point group C_3v (3m)  
     there are  3 classes
     the character table:

       E     2C3   3s_v 
A_1    1.00  1.00  1.00
A_2    1.00  1.00 -1.00
E      2.00 -1.00  0.00

     the symmetry operations in each class and the name of the first element:

     E        1
          identity                                               
     2C3      2    3
          120 deg rotation - cryst. axis [0,0,1]                 
     3s_v     4    5    6
          inv. 180 deg rotation - cart. axis [1,0,0]             

   Cartesian axes

     site n.     atom                  positions (alat units)
         1        Co     tau(   1) = (   0.0000000   0.0000000   0.0000000  )
         2        O      tau(   2) = (  -0.0000000   0.5773503   0.3404255  )
         3        O      tau(   3) = (   0.5000000   0.2886751   2.6382979  )
         4        Li     tau(   4) = (  -0.0000000   0.5773503   1.8439716  )

   Crystallographic axes

     site n.     atom                  positions (cryst. coord.)
         1        Co     tau(   1) = (  0.0000000  0.0000000  0.0000000  )
         2        O      tau(   2) = (  0.3333333  0.6666667  0.1142857  )
         3        O      tau(   3) = (  0.6666667  0.3333333  0.8857143  )
         4        Li     tau(   4) = (  0.3333333  0.6666667  0.6190476  )

     number of k points=    25  Marzari-Vanderbilt smearing, width (Ry)=  0.0200
                       cart. coord. in units 2pi/alat
        k(    1) = (   0.0000000   0.0000000   0.0000000), wk =   0.0052083
        k(    2) = (   0.0000000   0.0000000   0.1119048), wk =   0.0104167
        k(    3) = (   0.0000000   0.1443376   0.0000000), wk =   0.0312500
        k(    4) = (   0.0000000   0.1443376   0.1119048), wk =   0.0312500
        k(    5) = (   0.0000000   0.2886751   0.0000000), wk =   0.0312500
        k(    6) = (   0.0000000   0.2886751   0.1119048), wk =   0.0312500
        k(    7) = (   0.0000000   0.4330127   0.0000000), wk =   0.0312500
        k(    8) = (   0.0000000   0.4330127   0.1119048), wk =   0.0312500
        k(    9) = (   0.0000000  -0.5773503   0.0000000), wk =   0.0156250
        k(   10) = (   0.0000000  -0.5773503   0.1119048), wk =   0.0312500
        k(   11) = (   0.1250000   0.2165064   0.0000000), wk =   0.0312500
        k(   12) = (   0.1250000   0.2165064   0.1119048), wk =   0.0625000
        k(   13) = (   0.1250000   0.3608439   0.0000000), wk =   0.0625000
        k(   14) = (   0.1250000   0.3608439   0.1119048), wk =   0.0625000
        k(   15) = (   0.1250000   0.5051815   0.0000000), wk =   0.0625000
        k(   16) = (   0.1250000   0.5051815   0.1119048), wk =   0.0625000
        k(   17) = (   0.2500000   0.4330127   0.0000000), wk =   0.0312500
        k(   18) = (   0.2500000   0.4330127   0.1119048), wk =   0.0625000
        k(   19) = (   0.2500000   0.5773503   0.0000000), wk =   0.0312500
        k(   20) = (   0.2500000   0.5773503   0.1119048), wk =   0.0625000
        k(   21) = (   0.0000000  -0.1443376   0.1119048), wk =   0.0312500
        k(   22) = (   0.0000000  -0.2886751   0.1119048), wk =   0.0312500
        k(   23) = (   0.0000000  -0.4330127   0.1119048), wk =   0.0312500
        k(   24) = (  -0.1250000  -0.3608439   0.1119048), wk =   0.0625000
        k(   25) = (  -0.1250000  -0.5051815   0.1119048), wk =   0.0625000

                       cryst. coord.
        k(    1) = (   0.0000000   0.0000000   0.0000000), wk =   0.0052083
        k(    2) = (   0.0000000   0.0000000   0.3333333), wk =   0.0104167
        k(    3) = (   0.0000000   0.1250000   0.0000000), wk =   0.0312500
        k(    4) = (   0.0000000   0.1250000   0.3333333), wk =   0.0312500
        k(    5) = (   0.0000000   0.2500000   0.0000000), wk =   0.0312500
        k(    6) = (   0.0000000   0.2500000   0.3333333), wk =   0.0312500
        k(    7) = (   0.0000000   0.3750000   0.0000000), wk =   0.0312500
        k(    8) = (   0.0000000   0.3750000   0.3333333), wk =   0.0312500
        k(    9) = (   0.0000000  -0.5000000   0.0000000), wk =   0.0156250
        k(   10) = (   0.0000000  -0.5000000   0.3333333), wk =   0.0312500
        k(   11) = (   0.1250000   0.1250000   0.0000000), wk =   0.0312500
        k(   12) = (   0.1250000   0.1250000   0.3333333), wk =   0.0625000
        k(   13) = (   0.1250000   0.2500000   0.0000000), wk =   0.0625000
        k(   14) = (   0.1250000   0.2500000   0.3333333), wk =   0.0625000
        k(   15) = (   0.1250000   0.3750000   0.0000000), wk =   0.0625000
        k(   16) = (   0.1250000   0.3750000   0.3333333), wk =   0.0625000
        k(   17) = (   0.2500000   0.2500000   0.0000000), wk =   0.0312500
        k(   18) = (   0.2500000   0.2500000   0.3333333), wk =   0.0625000
        k(   19) = (   0.2500000   0.3750000   0.0000000), wk =   0.0312500
        k(   20) = (   0.2500000   0.3750000   0.3333333), wk =   0.0625000
        k(   21) = (   0.0000000  -0.1250000   0.3333333), wk =   0.0312500
        k(   22) = (   0.0000000  -0.2500000   0.3333333), wk =   0.0312500
        k(   23) = (   0.0000000  -0.3750000   0.3333333), wk =   0.0312500
        k(   24) = (  -0.1250000  -0.2500000   0.3333333), wk =   0.0625000
        k(   25) = (  -0.1250000  -0.3750000   0.3333333), wk =   0.0625000

     Dense  grid:    69237 G-vectors     FFT dimensions: (  40,  40, 120)

     Smooth grid:    24541 G-vectors     FFT dimensions: (  27,  27,  80)

     Dynamical RAM for                 wfc:       1.12 MB

     Dynamical RAM for     wfc (w. buffer):      57.23 MB

     Dynamical RAM for           str. fact:       3.17 MB

     Dynamical RAM for           local pot:       0.00 MB

     Dynamical RAM for          nlocal pot:       1.96 MB

     Dynamical RAM for                qrad:       5.27 MB

     Dynamical RAM for          rho,v,vnew:      15.13 MB

     Dynamical RAM for               rhoin:       5.04 MB

     Dynamical RAM for            rho*nmix:      33.81 MB

     Dynamical RAM for           G-vectors:       4.15 MB

     Dynamical RAM for          h,s,v(r/c):       0.11 MB

     Dynamical RAM for          <psi|beta>:       0.02 MB

     Dynamical RAM for                 psi:       2.24 MB

     Dynamical RAM for                hpsi:       2.24 MB

     Dynamical RAM for                spsi:       2.24 MB

     Dynamical RAM for      wfcinit/wfcrot:       2.26 MB

     Dynamical RAM for           addusdens:     199.67 MB

     Dynamical RAM for          addusforce:     201.80 MB

     Estimated static dynamical RAM per process >     104.97 MB

     Estimated max dynamical RAM per process >     340.57 MB

     Check: negative core charge=   -0.000007
     Generating pointlists ...
     new r_m :   0.2765 (alat units)  1.4733 (a.u.) for type    1
     new r_m :   0.2765 (alat units)  1.4733 (a.u.) for type    2
     new r_m :   0.4051 (alat units)  2.1586 (a.u.) for type    3

     Initial potential from superposition of free atoms

     starting charge      31.9951, renormalised to      32.0000
     Starting wfcs are   23 randomized atomic wfcs +    1 random wfcs
     Checking if some PAW data can be deallocated... 

     total cpu time spent up to now is        3.6 secs

     Self-consistent Calculation
[tb_dev] Currently allocated     6.36E-01 Mbytes, locked:    0 /   6
[tb_pin] Currently allocated     0.00E+00 Mbytes, locked:    0 /   0

     iteration #  1     ecut=    60.00 Ry     beta= 0.30
     Davidson diagonalization with overlap

---- Real-time Memory Report at c_bands before calling an iterative solver
           680 MiB given to the printing process from OS
             0 MiB allocation reported by mallinfo(arena+hblkhd)
        849290 MiB available memory on the node where the printing process lives
     GPU memory used/free/total (MiB): 1046 / 80104 / 81151
------------------
     ethr =  1.00E-02,  avg # of iterations =  7.9

     total cpu time spent up to now is        5.5 secs

     total energy              =    -474.33815234 Ry
     estimated scf accuracy    <       1.67581357 Ry

     total magnetization       =     4.22 Bohr mag/cell
     absolute magnetization    =     4.23 Bohr mag/cell
[tb_dev] Currently allocated     3.05E-05 Mbytes, locked:    0 /   2
[tb_pin] Currently allocated     0.00E+00 Mbytes, locked:    0 /   0

     iteration #  2     ecut=    60.00 Ry     beta= 0.30
     Davidson diagonalization with overlap

---- Real-time Memory Report at c_bands before calling an iterative solver
           723 MiB given to the printing process from OS
             0 MiB allocation reported by mallinfo(arena+hblkhd)
        849269 MiB available memory on the node where the printing process lives
     GPU memory used/free/total (MiB): 1066 / 80084 / 81151
------------------
     ethr =  5.24E-03,  avg # of iterations =  2.0

     total cpu time spent up to now is        6.6 secs

     total energy              =    -474.47404834 Ry
     estimated scf accuracy    <       3.28539398 Ry

     total magnetization       =     0.85 Bohr mag/cell
     absolute magnetization    =     1.25 Bohr mag/cell
[tb_dev] Currently allocated     3.05E-05 Mbytes, locked:    0 /   2
[tb_pin] Currently allocated     0.00E+00 Mbytes, locked:    0 /   0

     iteration #  3     ecut=    60.00 Ry     beta= 0.30
     Davidson diagonalization with overlap

---- Real-time Memory Report at c_bands before calling an iterative solver
           727 MiB given to the printing process from OS
             0 MiB allocation reported by mallinfo(arena+hblkhd)
        849241 MiB available memory on the node where the printing process lives
     GPU memory used/free/total (MiB): 1066 / 80084 / 81151
------------------
     ethr =  5.24E-03,  avg # of iterations =  1.1

     total cpu time spent up to now is        7.6 secs

     total energy              =    -474.76369133 Ry
     estimated scf accuracy    <       1.04918209 Ry

     total magnetization       =     3.09 Bohr mag/cell
     absolute magnetization    =     3.15 Bohr mag/cell
[tb_dev] Currently allocated     3.05E-05 Mbytes, locked:    0 /   2
[tb_pin] Currently allocated     0.00E+00 Mbytes, locked:    0 /   0

     iteration #  4     ecut=    60.00 Ry     beta= 0.30
     Davidson diagonalization with overlap

---- Real-time Memory Report at c_bands before calling an iterative solver
           730 MiB given to the printing process from OS
             0 MiB allocation reported by mallinfo(arena+hblkhd)
        849228 MiB available memory on the node where the printing process lives
     GPU memory used/free/total (MiB): 1066 / 80084 / 81151
------------------
     ethr =  3.28E-03,  avg # of iterations =  1.2

     total cpu time spent up to now is        8.6 secs

     total energy              =    -474.87575234 Ry
     estimated scf accuracy    <       0.71383414 Ry

     total magnetization       =     1.94 Bohr mag/cell
     absolute magnetization    =     2.02 Bohr mag/cell
[tb_dev] Currently allocated     3.05E-05 Mbytes, locked:    0 /   2
[tb_pin] Currently allocated     0.00E+00 Mbytes, locked:    0 /   0

     iteration #  5     ecut=    60.00 Ry     beta= 0.30
     Davidson diagonalization with overlap

---- Real-time Memory Report at c_bands before calling an iterative solver
           731 MiB given to the printing process from OS
             0 MiB allocation reported by mallinfo(arena+hblkhd)
        849723 MiB available memory on the node where the printing process lives
     GPU memory used/free/total (MiB): 1066 / 80084 / 81151
------------------
     ethr =  2.23E-03,  avg # of iterations =  1.0

     total cpu time spent up to now is        9.6 secs

     total energy              =    -474.92731293 Ry
     estimated scf accuracy    <       0.20524467 Ry

     total magnetization       =     1.98 Bohr mag/cell
     absolute magnetization    =     2.06 Bohr mag/cell
[tb_dev] Currently allocated     3.05E-05 Mbytes, locked:    0 /   2
[tb_pin] Currently allocated     0.00E+00 Mbytes, locked:    0 /   0

     iteration #  6     ecut=    60.00 Ry     beta= 0.30
     Davidson diagonalization with overlap

---- Real-time Memory Report at c_bands before calling an iterative solver
           734 MiB given to the printing process from OS
             0 MiB allocation reported by mallinfo(arena+hblkhd)
        849508 MiB available memory on the node where the printing process lives
     GPU memory used/free/total (MiB): 1066 / 80084 / 81151
------------------
     ethr =  6.41E-04,  avg # of iterations =  1.5

     total cpu time spent up to now is       10.7 secs

     total energy              =    -474.96934337 Ry
     estimated scf accuracy    <       0.22179897 Ry

     total magnetization       =     1.29 Bohr mag/cell
     absolute magnetization    =     1.57 Bohr mag/cell
[tb_dev] Currently allocated     3.05E-05 Mbytes, locked:    0 /   2
[tb_pin] Currently allocated     0.00E+00 Mbytes, locked:    0 /   0

     iteration #  7     ecut=    60.00 Ry     beta= 0.30
     Davidson diagonalization with overlap

---- Real-time Memory Report at c_bands before calling an iterative solver
           735 MiB given to the printing process from OS
             0 MiB allocation reported by mallinfo(arena+hblkhd)
        849363 MiB available memory on the node where the printing process lives
     GPU memory used/free/total (MiB): 1066 / 80084 / 81151
------------------
     ethr =  6.41E-04,  avg # of iterations =  1.2

     total cpu time spent up to now is       11.7 secs

     total energy              =    -475.01125527 Ry
     estimated scf accuracy    <       0.04391533 Ry

     total magnetization       =     0.59 Bohr mag/cell
     absolute magnetization    =     0.90 Bohr mag/cell
[tb_dev] Currently allocated     3.05E-05 Mbytes, locked:    0 /   2
[tb_pin] Currently allocated     0.00E+00 Mbytes, locked:    0 /   0

     iteration #  8     ecut=    60.00 Ry     beta= 0.30
     Davidson diagonalization with overlap

---- Real-time Memory Report at c_bands before calling an iterative solver
           739 MiB given to the printing process from OS
             0 MiB allocation reported by mallinfo(arena+hblkhd)
        849360 MiB available memory on the node where the printing process lives
     GPU memory used/free/total (MiB): 1066 / 80084 / 81151
------------------
     ethr =  1.37E-04,  avg # of iterations =  5.1

     total cpu time spent up to now is       13.2 secs

     total energy              =    -475.01757058 Ry
     estimated scf accuracy    <       0.02323538 Ry

     total magnetization       =     0.42 Bohr mag/cell
     absolute magnetization    =     0.58 Bohr mag/cell
[tb_dev] Currently allocated     3.05E-05 Mbytes, locked:    0 /   2
[tb_pin] Currently allocated     0.00E+00 Mbytes, locked:    0 /   0

     iteration #  9     ecut=    60.00 Ry     beta= 0.30
     Davidson diagonalization with overlap

---- Real-time Memory Report at c_bands before calling an iterative solver
           739 MiB given to the printing process from OS
             0 MiB allocation reported by mallinfo(arena+hblkhd)
        849153 MiB available memory on the node where the printing process lives
     GPU memory used/free/total (MiB): 1066 / 80084 / 81151
------------------
     ethr =  7.26E-05,  avg # of iterations =  2.6

     total cpu time spent up to now is       14.4 secs

     total energy              =    -475.02299353 Ry
     estimated scf accuracy    <       0.00945010 Ry

     total magnetization       =     0.60 Bohr mag/cell
     absolute magnetization    =     0.74 Bohr mag/cell
[tb_dev] Currently allocated     3.05E-05 Mbytes, locked:    0 /   2
[tb_pin] Currently allocated     0.00E+00 Mbytes, locked:    0 /   0

     iteration # 10     ecut=    60.00 Ry     beta= 0.30
     Davidson diagonalization with overlap

---- Real-time Memory Report at c_bands before calling an iterative solver
           741 MiB given to the printing process from OS
             0 MiB allocation reported by mallinfo(arena+hblkhd)
        849148 MiB available memory on the node where the printing process lives
     GPU memory used/free/total (MiB): 1066 / 80084 / 81151
------------------
     c_bands:  1 eigenvalues not converged
     ethr =  2.95E-05,  avg # of iterations =  4.2

     total cpu time spent up to now is       15.8 secs

     total energy              =    -475.02434989 Ry
     estimated scf accuracy    <       0.00128234 Ry

     total magnetization       =     0.52 Bohr mag/cell
     absolute magnetization    =     0.64 Bohr mag/cell
[tb_dev] Currently allocated     3.05E-05 Mbytes, locked:    0 /   2
[tb_pin] Currently allocated     0.00E+00 Mbytes, locked:    0 /   0

     iteration # 11     ecut=    60.00 Ry     beta= 0.30
     Davidson diagonalization with overlap

---- Real-time Memory Report at c_bands before calling an iterative solver
           742 MiB given to the printing process from OS
             0 MiB allocation reported by mallinfo(arena+hblkhd)
        849131 MiB available memory on the node where the printing process lives
     GPU memory used/free/total (MiB): 1066 / 80084 / 81151
------------------
     c_bands:  2 eigenvalues not converged
     c_bands:  2 eigenvalues not converged
     c_bands:  1 eigenvalues not converged
     ethr =  4.01E-06,  avg # of iterations =  8.9

     total cpu time spent up to now is       17.8 secs

     total energy              =    -475.02517309 Ry
     estimated scf accuracy    <       0.00089882 Ry

     total magnetization       =     0.45 Bohr mag/cell
     absolute magnetization    =     0.56 Bohr mag/cell
[tb_dev] Currently allocated     3.05E-05 Mbytes, locked:    0 /   2
[tb_pin] Currently allocated     0.00E+00 Mbytes, locked:    0 /   0

     iteration # 12     ecut=    60.00 Ry     beta= 0.30
     Davidson diagonalization with overlap

---- Real-time Memory Report at c_bands before calling an iterative solver
           742 MiB given to the printing process from OS
             0 MiB allocation reported by mallinfo(arena+hblkhd)
        849117 MiB available memory on the node where the printing process lives
     GPU memory used/free/total (MiB): 1066 / 80084 / 81151
------------------
     ethr =  2.81E-06,  avg # of iterations =  2.4

     total cpu time spent up to now is       18.9 secs

     total energy              =    -475.02549729 Ry
     estimated scf accuracy    <       0.00077877 Ry

     total magnetization       =     0.41 Bohr mag/cell
     absolute magnetization    =     0.52 Bohr mag/cell
[tb_dev] Currently allocated     3.05E-05 Mbytes, locked:    0 /   2
[tb_pin] Currently allocated     0.00E+00 Mbytes, locked:    0 /   0

     iteration # 13     ecut=    60.00 Ry     beta= 0.30
     Davidson diagonalization with overlap

---- Real-time Memory Report at c_bands before calling an iterative solver
           742 MiB given to the printing process from OS
             0 MiB allocation reported by mallinfo(arena+hblkhd)
        849589 MiB available memory on the node where the printing process lives
     GPU memory used/free/total (MiB): 1066 / 80084 / 81151
------------------
     ethr =  2.43E-06,  avg # of iterations =  1.2

     total cpu time spent up to now is       20.0 secs

     total energy              =    -475.02563145 Ry
     estimated scf accuracy    <       0.00028075 Ry

     total magnetization       =     0.44 Bohr mag/cell
     absolute magnetization    =     0.56 Bohr mag/cell
[tb_dev] Currently allocated     3.05E-05 Mbytes, locked:    0 /   2
[tb_pin] Currently allocated     0.00E+00 Mbytes, locked:    0 /   0

     iteration # 14     ecut=    60.00 Ry     beta= 0.30
     Davidson diagonalization with overlap

---- Real-time Memory Report at c_bands before calling an iterative solver
           742 MiB given to the printing process from OS
             0 MiB allocation reported by mallinfo(arena+hblkhd)
        849911 MiB available memory on the node where the printing process lives
     GPU memory used/free/total (MiB): 1066 / 80084 / 81151
------------------
     ethr =  8.77E-07,  avg # of iterations =  1.7

     total cpu time spent up to now is       21.1 secs

     total energy              =    -475.02561619 Ry
     estimated scf accuracy    <       0.00019700 Ry

     total magnetization       =     0.45 Bohr mag/cell
     absolute magnetization    =     0.57 Bohr mag/cell
[tb_dev] Currently allocated     3.05E-05 Mbytes, locked:    0 /   2
[tb_pin] Currently allocated     0.00E+00 Mbytes, locked:    0 /   0

     iteration # 15     ecut=    60.00 Ry     beta= 0.30
     Davidson diagonalization with overlap

---- Real-time Memory Report at c_bands before calling an iterative solver
           742 MiB given to the printing process from OS
             0 MiB allocation reported by mallinfo(arena+hblkhd)
        849594 MiB available memory on the node where the printing process lives
     GPU memory used/free/total (MiB): 1066 / 80084 / 81151
------------------
     ethr =  6.16E-07,  avg # of iterations =  2.0

     total cpu time spent up to now is       22.2 secs

     total energy              =    -475.02568241 Ry
     estimated scf accuracy    <       0.00003187 Ry

     total magnetization       =     0.47 Bohr mag/cell
     absolute magnetization    =     0.60 Bohr mag/cell
[tb_dev] Currently allocated     3.05E-05 Mbytes, locked:    0 /   2
[tb_pin] Currently allocated     0.00E+00 Mbytes, locked:    0 /   0

     iteration # 16     ecut=    60.00 Ry     beta= 0.30
     Davidson diagonalization with overlap

---- Real-time Memory Report at c_bands before calling an iterative solver
           742 MiB given to the printing process from OS
             0 MiB allocation reported by mallinfo(arena+hblkhd)
        849457 MiB available memory on the node where the printing process lives
     GPU memory used/free/total (MiB): 1066 / 80084 / 81151
------------------
     ethr =  9.96E-08,  avg # of iterations =  5.2

     total cpu time spent up to now is       23.7 secs

     total energy              =    -475.02571135 Ry
     estimated scf accuracy    <       0.00000147 Ry

     total magnetization       =     0.46 Bohr mag/cell
     absolute magnetization    =     0.59 Bohr mag/cell
[tb_dev] Currently allocated     3.05E-05 Mbytes, locked:    0 /   2
[tb_pin] Currently allocated     0.00E+00 Mbytes, locked:    0 /   0

     iteration # 17     ecut=    60.00 Ry     beta= 0.30
     Davidson diagonalization with overlap

---- Real-time Memory Report at c_bands before calling an iterative solver
           742 MiB given to the printing process from OS
             0 MiB allocation reported by mallinfo(arena+hblkhd)
        849263 MiB available memory on the node where the printing process lives
     GPU memory used/free/total (MiB): 1066 / 80084 / 81151
------------------
     ethr =  4.59E-09,  avg # of iterations =  8.7

     total cpu time spent up to now is       25.7 secs

     total energy              =    -475.02571504 Ry
     estimated scf accuracy    <       0.00000085 Ry

     total magnetization       =     0.45 Bohr mag/cell
     absolute magnetization    =     0.59 Bohr mag/cell
[tb_dev] Currently allocated     3.05E-05 Mbytes, locked:    0 /   2
[tb_pin] Currently allocated     0.00E+00 Mbytes, locked:    0 /   0

     iteration # 18     ecut=    60.00 Ry     beta= 0.30
     Davidson diagonalization with overlap

---- Real-time Memory Report at c_bands before calling an iterative solver
           742 MiB given to the printing process from OS
             0 MiB allocation reported by mallinfo(arena+hblkhd)
        848999 MiB available memory on the node where the printing process lives
     GPU memory used/free/total (MiB): 1066 / 80084 / 81151
------------------
     ethr =  2.65E-09,  avg # of iterations =  2.2

     total cpu time spent up to now is       26.8 secs

     total energy              =    -475.02571607 Ry
     estimated scf accuracy    <       0.00000040 Ry

     total magnetization       =     0.45 Bohr mag/cell
     absolute magnetization    =     0.59 Bohr mag/cell
[tb_dev] Currently allocated     3.05E-05 Mbytes, locked:    0 /   2
[tb_pin] Currently allocated     0.00E+00 Mbytes, locked:    0 /   0

     iteration # 19     ecut=    60.00 Ry     beta= 0.30
     Davidson diagonalization with overlap

---- Real-time Memory Report at c_bands before calling an iterative solver
           742 MiB given to the printing process from OS
             0 MiB allocation reported by mallinfo(arena+hblkhd)
        848960 MiB available memory on the node where the printing process lives
     GPU memory used/free/total (MiB): 1066 / 80084 / 81151
------------------
     ethr =  1.25E-09,  avg # of iterations =  4.1

     total cpu time spent up to now is       28.2 secs

     total energy              =    -475.02571661 Ry
     estimated scf accuracy    <       0.00000017 Ry

     total magnetization       =     0.45 Bohr mag/cell
     absolute magnetization    =     0.59 Bohr mag/cell
[tb_dev] Currently allocated     3.05E-05 Mbytes, locked:    0 /   2
[tb_pin] Currently allocated     0.00E+00 Mbytes, locked:    0 /   0

     iteration # 20     ecut=    60.00 Ry     beta= 0.30
     Davidson diagonalization with overlap

---- Real-time Memory Report at c_bands before calling an iterative solver
           742 MiB given to the printing process from OS
             0 MiB allocation reported by mallinfo(arena+hblkhd)
        848935 MiB available memory on the node where the printing process lives
     GPU memory used/free/total (MiB): 1066 / 80084 / 81151
------------------
     ethr =  5.24E-10,  avg # of iterations =  3.8

     total cpu time spent up to now is       29.5 secs

     total energy              =    -475.02571684 Ry
     estimated scf accuracy    <       0.00000014 Ry

     total magnetization       =     0.45 Bohr mag/cell
     absolute magnetization    =     0.59 Bohr mag/cell
[tb_dev] Currently allocated     3.05E-05 Mbytes, locked:    0 /   2
[tb_pin] Currently allocated     0.00E+00 Mbytes, locked:    0 /   0

     iteration # 21     ecut=    60.00 Ry     beta= 0.30
     Davidson diagonalization with overlap

---- Real-time Memory Report at c_bands before calling an iterative solver
           742 MiB given to the printing process from OS
             0 MiB allocation reported by mallinfo(arena+hblkhd)
        848907 MiB available memory on the node where the printing process lives
     GPU memory used/free/total (MiB): 1066 / 80084 / 81151
------------------
     ethr =  4.50E-10,  avg # of iterations =  1.8

     total cpu time spent up to now is       30.6 secs

     total energy              =    -475.02571697 Ry
     estimated scf accuracy    <       0.00000004 Ry

     total magnetization       =     0.45 Bohr mag/cell
     absolute magnetization    =     0.59 Bohr mag/cell
[tb_dev] Currently allocated     3.05E-05 Mbytes, locked:    0 /   2
[tb_pin] Currently allocated     0.00E+00 Mbytes, locked:    0 /   0

     iteration # 22     ecut=    60.00 Ry     beta= 0.30
     Davidson diagonalization with overlap

---- Real-time Memory Report at c_bands before calling an iterative solver
           742 MiB given to the printing process from OS
             0 MiB allocation reported by mallinfo(arena+hblkhd)
        848898 MiB available memory on the node where the printing process lives
     GPU memory used/free/total (MiB): 1066 / 80084 / 81151
------------------
     ethr =  1.23E-10,  avg # of iterations =  4.7
 
     Magnetic moment per site  (integrated on atomic sphere of radius R)
     atom   1 (R=0.276)  charge= 14.0342  magn=  0.3937
     atom   2 (R=0.276)  charge=  5.1514  magn=  0.0518
     atom   3 (R=0.276)  charge=  5.1925  magn=  0.0320
     atom   4 (R=0.405)  charge=  2.2934  magn= -0.0292

     total cpu time spent up to now is       32.0 secs

     End of self-consistent calculation

 ------ SPIN UP ------------


          k = 0.0000 0.0000 0.0000 (  3123 PWs)   bands (ev):

   -91.3319 -54.6020 -54.5296 -54.5296 -43.0313 -15.5145 -13.4481  -1.8521
    -1.0412  -1.0412   1.6541   2.7290   2.7290   2.8063   2.8063   3.1780
     4.2486   6.8497   6.8497   7.8396  11.1630  14.4571  15.4399  19.9076

     occupation numbers 
     1.0000   1.0000   1.0000   1.0000   1.0000   1.0000   1.0000   1.0000
     1.0000   1.0000   1.0000   1.0000   1.0000   1.0000   1.0000   1.0000
     0.8094   0.0000   0.0000   0.0000   0.0000   0.0000   0.0000   0.0000

          k = 0.0000 0.0000 0.1119 (  3075 PWs)   bands (ev):

   -91.3318 -54.6018 -54.5295 -54.5295 -43.0311 -15.5145 -13.4481  -1.8433
    -1.0412  -1.0412   1.5330   2.7291   2.7291   2.8064   2.8064   3.4614
     4.1504   6.8499   6.8499   7.5627  11.8331  13.7760  15.5111  19.9065

     occupation numbers 
     1.0000   1.0000   1.0000   1.0000   1.0000   1.0000   1.0000   1.0000
     1.0000   1.0000   1.0000   1.0000   1.0000   1.0000   1.0000   1.0002
     1.0006   0.0000   0.0000   0.0000   0.0000   0.0000   0.0000   0.0000

          k = 0.0000 0.1443 0.0000 (  3099 PWs)   bands (ev):

   -91.3308 -54.6004 -54.5405 -54.5321 -43.0270 -15.3261 -13.4437  -1.6868
    -1.2207  -0.9261   1.5050   1.9700   2.0610   3.1824   3.4346   3.4686
     4.3439   6.3142   6.7424   8.2070  11.6830  15.0815  15.8060  18.0717

     occupation numbers 
     1.0000   1.0000   1.0000   1.0000   1.0000   1.0000   1.0000   1.0000
     1.0000   1.0000   1.0000   1.0000   1.0000   1.0000   1.0001   1.0002
     0.5540   0.0000   0.0000   0.0000   0.0000   0.0000   0.0000   0.0000

          k = 0.0000 0.1443 0.1119 (  3086 PWs)   bands (ev):

   -91.3308 -54.6003 -54.5404 -54.5322 -43.0270 -15.3261 -13.4437  -1.6808
    -1.2201  -0.9261   1.5066   1.9509   1.9700   3.1801   3.4685   3.6989
     4.2215   6.3649   6.7424   7.9472  12.2699  14.2787  16.1559  17.9962

     occupation numbers 
     1.0000   1.0000   1.0000   1.0000   1.0000   1.0000   1.0000   1.0000
     1.0000   1.0000   1.0000   1.0000   1.0000   1.0000   1.0002   1.0079
     0.8724   0.0000   0.0000   0.0000   0.0000   0.0000   0.0000   0.0000

          k = 0.0000 0.2887 0.0000 (  3067 PWs)   bands (ev):

   -91.3283 -54.5963 -54.5669 -54.5383 -43.0170 -14.8342 -13.4428  -1.7014
    -1.0193  -0.6624   0.0513   1.3676   2.4397   3.2933   3.7482   3.8323
     4.4710   5.7494   6.6093   8.9880  12.8419  14.5192  16.4932  16.8172

     occupation numbers 
     1.0000   1.0000   1.0000   1.0000   1.0000   1.0000   1.0000   1.0000
     1.0000   1.0000   1.0000   1.0000   1.0000   1.0000   1.0143   1.0335
     0.2446   0.0000   0.0000   0.0000   0.0000   0.0000   0.0000   0.0000

          k = 0.0000 0.2887 0.1119 (  3070 PWs)   bands (ev):

   -91.3283 -54.5963 -54.5669 -54.5383 -43.0170 -14.8342 -13.4429  -1.7035
    -1.0137  -0.6624   0.0540   1.3675   2.4054   3.2685   3.7482   3.9546
     4.3455   5.8812   6.6093   8.8128  13.1505  14.5798  15.6515  17.3716

     occupation numbers 
     1.0000   1.0000   1.0000   1.0000   1.0000   1.0000   1.0000   1.0000
     1.0000   1.0000   1.0000   1.0000   1.0000   1.0000   1.0144   1.0734
     0.5494   0.0000   0.0000   0.0000   0.0000   0.0000   0.0000   0.0000

          k = 0.0000 0.4330 0.0000 (  3054 PWs)   bands (ev):

   -91.3257 -54.5944 -54.5913 -54.5445 -43.0069 -14.2634 -13.4704  -2.1469
    -1.0758  -0.4801   0.0610   1.1875   1.9395   3.2171   3.5432   3.7929
     5.1338   6.1352   6.6470  10.0527  11.6855  14.4916  15.7131  16.3486

     occupation numbers 
     1.0000   1.0000   1.0000   1.0000   1.0000   1.0000   1.0000   1.0000
     1.0000   1.0000   1.0000   1.0000   1.0000   1.0000   1.0007   1.0232
     0.0000   0.0000   0.0000   0.0000   0.0000   0.0000   0.0000   0.0000

          k = 0.0000 0.4330 0.1119 (  3062 PWs)   bands (ev):

   -91.3257 -54.5944 -54.5913 -54.5446 -43.0069 -14.2634 -13.4705  -2.1472
    -1.0771  -0.4801   0.0653   1.1874   1.9397   3.2148   3.5431   3.7965
     5.0626   6.2323   6.6468   9.9827  11.6913  14.5831  16.0341  16.3508

     occupation numbers 
     1.0000   1.0000   1.0000   1.0000   1.0000   1.0000   1.0000   1.0000
     1.0000   1.0000   1.0000   1.0000   1.0000   1.0000   1.0007   1.0240
     0.0000   0.0000   0.0000   0.0000   0.0000   0.0000   0.0000   0.0000

          k = 0.0000-0.5774 0.0000 (  3050 PWs)   bands (ev):

   -91.3246 -54.6046 -54.5904 -54.5471 -43.0027 -13.9758 -13.5133  -2.5582
    -0.9166  -0.4546   0.2637   1.2498   1.6300   3.0091   3.3414   3.7401
     5.6936   6.5105   6.6989   9.8337  12.0662  13.2784  15.9815  15.9970

     occupation numbers 
     1.0000   1.0000   1.0000   1.0000   1.0000   1.0000   1.0000   1.0000
     1.0000   1.0000   1.0000   1.0000   1.0000   1.0000   1.0000   1.0131
     0.0000   0.0000   0.0000   0.0000   0.0000   0.0000   0.0000   0.0000

          k = 0.0000-0.5774 0.1119 (  3058 PWs)   bands (ev):

   -91.3246 -54.6047 -54.5904 -54.5472 -43.0028 -13.9758 -13.5133  -2.5581
    -0.9179  -0.4546   0.2653   1.2497   1.6321   3.0086   3.3414   3.7394
     5.7008   6.4909   6.6988   9.8243  12.0877  13.4417  15.8376  15.9996

     occupation numbers 
     1.0000   1.0000   1.0000   1.0000   1.0000   1.0000   1.0000   1.0000
     1.0000   1.0000   1.0000   1.0000   1.0000   1.0000   1.0000   1.0130
     0.0000   0.0000   0.0000   0.0000   0.0000   0.0000   0.0000   0.0000

          k = 0.1250 0.2165 0.0000 (  3085 PWs)   bands (ev):

   -91.3290 -54.5975 -54.5579 -54.5378 -43.0200 -14.9855 -13.4405  -1.6277
    -1.1187  -0.7812   0.5776   1.2086   2.4551   3.3170   3.6434   3.8849
     4.4111   5.9175   6.4639   8.7613  12.5521  15.5718  16.0115  16.4226

     occupation numbers 
     1.0000   1.0000   1.0000   1.0000   1.0000   1.0000   1.0000   1.0000
     1.0000   1.0000   1.0000   1.0000   1.0000   1.0000   1.0037   1.0505
     0.3768   0.0000   0.0000   0.0000   0.0000   0.0000   0.0000   0.0000

          k = 0.1250 0.2165 0.1119 (  3077 PWs)   bands (ev):

   -91.3290 -54.5975 -54.5579 -54.5378 -43.0199 -14.9855 -13.4405  -1.6288
    -1.1132  -0.7810   0.5804   1.2086   2.3898   3.3151   3.6702   3.9992
     4.3283   5.9962   6.4401   8.6157  12.9067  15.0474  15.8318  16.9481

     occupation numbers 
     1.0000   1.0000   1.0000   1.0000   1.0000   1.0000   1.0000   1.0000
     1.0000   1.0000   1.0000   1.0000   1.0000   1.0000   1.0054   1.0824
     0.5972   0.0000   0.0000   0.0000   0.0000   0.0000   0.0000   0.0000

          k = 0.1250 0.3608 0.0000 (  3058 PWs)   bands (ev):

   -91.3264 -54.5935 -54.5817 -54.5467 -43.0099 -14.4521 -13.4480  -1.7464
    -1.1429  -0.4787  -0.0541   0.7661   2.2708   3.3485   3.6687   3.9580
     4.8805   5.9773   6.3555   9.7365  12.6102  13.9394  15.5322  16.8960

     occupation numbers 
     1.0000   1.0000   1.0000   1.0000   1.0000   1.0000   1.0000   1.0000
     1.0000   1.0000   1.0000   1.0000   1.0000   1.0000   1.0052   1.0743
     0.0011   0.0000   0.0000   0.0000   0.0000   0.0000   0.0000   0.0000

          k = 0.1250 0.3608 0.1119 (  3067 PWs)   bands (ev):

   -91.3264 -54.5935 -54.5817 -54.5467 -43.0099 -14.4521 -13.4480  -1.7477
    -1.1430  -0.4772  -0.0501   0.7661   2.2652   3.3482   3.6740   3.9493
     4.8276   6.0916   6.3310   9.6749  12.6009  14.0712  15.4717  16.7866

     occupation numbers 
     1.0000   1.0000   1.0000   1.0000   1.0000   1.0000   1.0000   1.0000
     1.0000   1.0000   1.0000   1.0000   1.0000   1.0000   1.0056   1.0719
     0.0029   0.0000   0.0000   0.0000   0.0000   0.0000   0.0000   0.0000

          k = 0.1250 0.5052 0.0000 (  3055 PWs)   bands (ev):

   -91.3246 -54.5986 -54.5904 -54.5532 -43.0027 -14.0156 -13.4754  -2.2564
    -1.1730  -0.3318   0.3242   0.6970   1.6642   3.1291   3.4598   3.9052
     5.7085   6.3407   6.5531  10.0282  11.6131  14.2997  14.6409  16.2701

     occupation numbers 
     1.0000   1.0000   1.0000   1.0000   1.0000   1.0000   1.0000   1.0000
     1.0000   1.0000   1.0000   1.0000   1.0000   1.0000   1.0002   1.0575
     0.0000   0.0000   0.0000   0.0000   0.0000   0.0000   0.0000   0.0000

          k = 0.1250 0.5052 0.1119 (  3051 PWs)   bands (ev):

   -91.3246 -54.5986 -54.5904 -54.5532 -43.0027 -14.0156 -13.4754  -2.2563
    -1.1738  -0.3321   0.3260   0.6970   1.6658   3.1287   3.4601   3.9032
     5.6885   6.3569   6.5581  10.0119  11.6276  14.3851  14.6440  16.4939

     occupation numbers 
     1.0000   1.0000   1.0000   1.0000   1.0000   1.0000   1.0000   1.0000
     1.0000   1.0000   1.0000   1.0000   1.0000   1.0000   1.0002   1.0568
     0.0000   0.0000   0.0000   0.0000   0.0000   0.0000   0.0000   0.0000

          k = 0.2500 0.4330 0.0000 (  3067 PWs)   bands (ev):

   -91.3246 -54.5907 -54.5902 -54.5616 -43.0028 -14.0504 -13.4426  -1.7470
    -1.4188  -0.4669   0.1222   0.5188   1.7132   3.2145   3.5435   4.0766
     5.7141   6.0877   6.4835  10.3866  11.1546  13.8873  15.4525  16.7948

     occupation numbers 
     1.0000   1.0000   1.0000   1.0000   1.0000   1.0000   1.0000   1.0000
     1.0000   1.0000   1.0000   1.0000   1.0000   1.0000   1.0007   1.0692
     0.0000   0.0000   0.0000   0.0000   0.0000   0.0000   0.0000   0.0000

          k = 0.2500 0.4330 0.1119 (  3068 PWs)   bands (ev):

   -91.3246 -54.5907 -54.5902 -54.5616 -43.0028 -14.0504 -13.4426  -1.7470
    -1.4196  -0.4668   0.1238   0.5194   1.7127   3.2151   3.5442   4.0704
     5.7271   6.0598   6.4982  10.3913  11.1855  13.8497  15.4417  16.7852

     occupation numbers 
     1.0000   1.0000   1.0000   1.0000   1.0000   1.0000   1.0000   1.0000
     1.0000   1.0000   1.0000   1.0000   1.0000   1.0000   1.0007   1.0722
     0.0000   0.0000   0.0000   0.0000   0.0000   0.0000   0.0000   0.0000

          k = 0.2500 0.5774 0.0000 (  3044 PWs)   bands (ev):

   -91.3239 -54.5909 -54.5891 -54.5706 -42.9998 -13.8872 -13.4262  -1.8673
    -1.3603  -0.6750   0.2928   0.7282   1.2619   2.9385   3.7422   4.0091
     6.0598   6.0821   7.1959   8.9214  12.3989  13.8008  14.4241  16.6440

     occupation numbers 
     1.0000   1.0000   1.0000   1.0000   1.0000   1.0000   1.0000   1.0000
     1.0000   1.0000   1.0000   1.0000   1.0000   1.0000   1.0134   1.0831
     0.0000   0.0000   0.0000   0.0000   0.0000   0.0000   0.0000   0.0000

          k = 0.2500 0.5774 0.1119 (  3050 PWs)   bands (ev):

   -91.3239 -54.5909 -54.5891 -54.5706 -42.9998 -13.8872 -13.4262  -1.8673
    -1.3606  -0.6748   0.2931   0.7279   1.2618   2.9385   3.7420   4.0084
     6.0718   6.0819   7.1805   8.9149  12.4204  13.7839  14.5111  16.6513

     occupation numbers 
     1.0000   1.0000   1.0000   1.0000   1.0000   1.0000   1.0000   1.0000
     1.0000   1.0000   1.0000   1.0000   1.0000   1.0000   1.0134   1.0831
     0.0000   0.0000   0.0000   0.0000   0.0000   0.0000   0.0000   0.0000

          k = 0.0000-0.1443 0.1119 (  3086 PWs)   bands (ev):

   -91.3308 -54.6003 -54.5404 -54.5322 -43.0270 -15.3261 -13.4437  -1.6805
    -1.2206  -0.9261   1.5013   1.9592   1.9700   3.1803   3.4686   3.6858
     4.2405   6.3272   6.7424   7.9918  12.2287  14.2995  16.1450  18.0562

     occupation numbers 
     1.0000   1.0000   1.0000   1.0000   1.0000   1.0000   1.0000   1.0000
     1.0000   1.0000   1.0000   1.0000   1.0000   1.0000   1.0002   1.0066
     0.8289   0.0000   0.0000   0.0000   0.0000   0.0000   0.0000   0.0000

          k = 0.0000-0.2887 0.1119 (  3070 PWs)   bands (ev):

   -91.3283 -54.5963 -54.5669 -54.5383 -43.0170 -14.8342 -13.4428  -1.7028
    -1.0157  -0.6624   0.0554   1.3676   2.4002   3.2796   3.7483   3.8902
     4.4721   5.7574   6.6093   8.9304  13.0286  14.4293  15.8565  17.3712

     occupation numbers 
     1.0000   1.0000   1.0000   1.0000   1.0000   1.0000   1.0000   1.0000
     1.0000   1.0000   1.0000   1.0000   1.0000   1.0000   1.0144   1.0523
     0.2425   0.0000   0.0000   0.0000   0.0000   0.0000   0.0000   0.0000

          k = 0.0000-0.4330 0.1119 (  3062 PWs)   bands (ev):

   -91.3257 -54.5945 -54.5913 -54.5446 -43.0069 -14.2634 -13.4705  -2.1473
    -1.0770  -0.4801   0.0663   1.1874   1.9357   3.2183   3.5431   3.7845
     5.1510   6.1106   6.6469  10.1039  11.7080  14.3970  15.5950  16.3504

     occupation numbers 
     1.0000   1.0000   1.0000   1.0000   1.0000   1.0000   1.0000   1.0000
     1.0000   1.0000   1.0000   1.0000   1.0000   1.0000   1.0007   1.0213
     0.0000   0.0000   0.0000   0.0000   0.0000   0.0000   0.0000   0.0000

          k =-0.1250-0.3608 0.1119 (  3067 PWs)   bands (ev):

   -91.3264 -54.5935 -54.5817 -54.5467 -43.0099 -14.4521 -13.4480  -1.7476
    -1.1433  -0.4781  -0.0482   0.7656   2.2622   3.3521   3.6768   3.9290
     4.8966   5.9779   6.3656   9.7460  12.6087  13.9128  15.5487  16.7649

     occupation numbers 
     1.0000   1.0000   1.0000   1.0000   1.0000   1.0000   1.0000   1.0000
     1.0000   1.0000   1.0000   1.0000   1.0000   1.0000   1.0059   1.0655
     0.0009   0.0000   0.0000   0.0000   0.0000   0.0000   0.0000   0.0000

          k =-0.1250-0.5052 0.1119 (  3051 PWs)   bands (ev):

   -91.3246 -54.5986 -54.5904 -54.5532 -43.0027 -14.0156 -13.4754  -2.2564
    -1.1736  -0.3319   0.3262   0.6972   1.6641   3.1294   3.4599   3.9017
     5.7355   6.3103   6.5425  10.0306  11.6905  14.3546  14.6175  15.9683

     occupation numbers 
     1.0000   1.0000   1.0000   1.0000   1.0000   1.0000   1.0000   1.0000
     1.0000   1.0000   1.0000   1.0000   1.0000   1.0000   1.0002   1.0563
     0.0000   0.0000   0.0000   0.0000   0.0000   0.0000   0.0000   0.0000

 ------ SPIN DOWN ----------


          k = 0.0000 0.0000 0.0000 (  3123 PWs)   bands (ev):

   -90.8487 -54.0977 -54.0977 -54.0533 -43.0527 -15.4495 -13.3696  -1.6805
    -0.8959  -0.8959   1.7574   2.7952   2.7952   3.0619   3.2164   3.2164
     4.7517   7.0536   7.0536   7.7804  11.1824  14.5067  15.4980  19.8561

     occupation numbers 
     1.0000   1.0000   1.0000   1.0000   1.0000   1.0000   1.0000   1.0000
     1.0000   1.0000   1.0000   1.0000   1.0000   1.0000   1.0000   1.0000
     0.0099   0.0000   0.0000   0.0000   0.0000   0.0000   0.0000   0.0000

          k = 0.0000 0.0000 0.1119 (  3075 PWs)   bands (ev):

   -90.8486 -54.0975 -54.0975 -54.0531 -43.0526 -15.4494 -13.3696  -1.6697
    -0.8958  -0.8958   1.6029   2.7952   2.7952   3.2164   3.2164   3.3546
     4.6730   7.0538   7.0538   7.5068  11.8580  13.8166  15.5586  19.8549

     occupation numbers 
     1.0000   1.0000   1.0000   1.0000   1.0000   1.0000   1.0000   1.0000
     1.0000   1.0000   1.0000   1.0000   1.0000   1.0000   1.0000   1.0000
     0.0298   0.0000   0.0000   0.0000   0.0000   0.0000   0.0000   0.0000

          k = 0.0000 0.1443 0.0000 (  3099 PWs)   bands (ev):

   -90.8476 -54.1088 -54.1002 -54.0516 -43.0485 -15.2609 -13.3645  -1.5323
    -1.0652  -0.7853   1.6417   2.1483   2.1632   3.2994   3.5916   3.7793
     4.7993   6.5064   6.9419   8.1618  11.7010  15.1269  15.8684  17.9831

     occupation numbers 
     1.0000   1.0000   1.0000   1.0000   1.0000   1.0000   1.0000   1.0000
     1.0000   1.0000   1.0000   1.0000   1.0000   1.0000   1.0017   1.0202
     0.0047   0.0000   0.0000   0.0000   0.0000   0.0000   0.0000   0.0000

          k = 0.0000 0.1443 0.1119 (  3086 PWs)   bands (ev):

   -90.8476 -54.1087 -54.1002 -54.0515 -43.0484 -15.2609 -13.3645  -1.5256
    -1.0637  -0.7853   1.6450   2.0198   2.1483   3.4579   3.6940   3.7793
     4.7066   6.5652   6.9419   7.8948  12.2934  14.3180  16.2094  17.9125

     occupation numbers 
     1.0000   1.0000   1.0000   1.0000   1.0000   1.0000   1.0000   1.0000
     1.0000   1.0000   1.0000   1.0000   1.0000   1.0001   1.0074   1.0202
     0.0190   0.0000   0.0000   0.0000   0.0000   0.0000   0.0000   0.0000

          k = 0.0000 0.2887 0.0000 (  3067 PWs)   bands (ev):

   -90.8449 -54.1358 -54.1065 -54.0473 -43.0383 -14.7688 -13.3613  -1.5848
    -0.8597  -0.5316   0.1844   1.5221   2.5632   3.6432   3.9670   4.1107
     4.7241   5.9580   6.8002   8.9324  12.8463  14.4108  16.5560  16.8371

     occupation numbers 
     1.0000   1.0000   1.0000   1.0000   1.0000   1.0000   1.0000   1.0000
     1.0000   1.0000   1.0000   1.0000   1.0000   1.0036   1.0766   1.0455
     0.0148   0.0000   0.0000   0.0000   0.0000   0.0000   0.0000   0.0000

          k = 0.0000 0.2887 0.1119 (  3070 PWs)   bands (ev):

   -90.8449 -54.1359 -54.1065 -54.0473 -43.0383 -14.7688 -13.3613  -1.5872
    -0.8533  -0.5316   0.1887   1.5221   2.5138   3.6077   4.1022   4.1107
     4.6206   6.0877   6.8002   8.7467  13.1512  14.4882  15.6659  17.2662

     occupation numbers 
     1.0000   1.0000   1.0000   1.0000   1.0000   1.0000   1.0000   1.0000
     1.0000   1.0000   1.0000   1.0000   1.0000   1.0021   1.0527   1.0455
     0.0568   0.0000   0.0000   0.0000   0.0000   0.0000   0.0000   0.0000

          k = 0.0000 0.4330 0.0000 (  3054 PWs)   bands (ev):

   -90.8423 -54.1630 -54.1128 -54.0432 -43.0281 -14.1996 -13.3847  -2.0389
    -0.9962  -0.3498   0.2429   1.2864   2.0751   3.6719   3.9700   4.2560
     5.0225   6.3212   6.8396   9.9573  11.5723  14.4844  15.6984  16.2347

     occupation numbers 
     1.0000   1.0000   1.0000   1.0000   1.0000   1.0000   1.0000   1.0000
     1.0000   1.0000   1.0000   1.0000   1.0000   1.0055   1.0773   0.7910
     0.0001   0.0000   0.0000   0.0000   0.0000   0.0000   0.0000   0.0000

          k = 0.0000 0.4330 0.1119 (  3062 PWs)   bands (ev):

   -90.8423 -54.1630 -54.1129 -54.0432 -43.0281 -14.1996 -13.3848  -2.0392
    -0.9976  -0.3498   0.2484   1.2863   2.0749   3.6668   3.9700   4.2628
     4.9631   6.4097   6.8395   9.8838  11.5778  14.5698  16.0430  16.6892

     occupation numbers 
     1.0000   1.0000   1.0000   1.0000   1.0000   1.0000   1.0000   1.0000
     1.0000   1.0000   1.0000   1.0000   1.0000   1.0051   1.0773   0.7738
     0.0002   0.0000   0.0000   0.0000   0.0000   0.0000   0.0000   0.0000

          k = 0.0000-0.5774 0.0000 (  3050 PWs)   bands (ev):

   -90.8412 -54.1742 -54.1156 -54.0414 -43.0239 -13.9163 -13.4221  -2.4580
    -0.8547  -0.3197   0.4441   1.3038   1.7584   3.5331   3.8090   4.1933
     5.6186   6.6423   6.8952   9.6701  12.0360  13.1922  15.8808  15.9936

     occupation numbers 
     1.0000   1.0000   1.0000   1.0000   1.0000   1.0000   1.0000   1.0000
     1.0000   1.0000   1.0000   1.0000   1.0000   1.0006   1.0271   0.9302
     0.0000   0.0000   0.0000   0.0000   0.0000   0.0000   0.0000   0.0000

          k = 0.0000-0.5774 0.1119 (  3058 PWs)   bands (ev):

   -90.8412 -54.1743 -54.1156 -54.0414 -43.0239 -13.9163 -13.4221  -2.4580
    -0.8562  -0.3197   0.4460   1.3037   1.7606   3.5324   3.8090   4.1926
     5.6211   6.6264   6.8951   9.6623  12.0588  13.3471  15.8571  15.8833

     occupation numbers 
     1.0000   1.0000   1.0000   1.0000   1.0000   1.0000   1.0000   1.0000
     1.0000   1.0000   1.0000   1.0000   1.0000   1.0006   1.0271   0.9316
     0.0000   0.0000   0.0000   0.0000   0.0000   0.0000   0.0000   0.0000

          k = 0.1250 0.2165 0.0000 (  3085 PWs)   bands (ev):

   -90.8457 -54.1266 -54.1060 -54.0486 -43.0413 -14.9201 -13.3597  -1.5092
    -0.9430  -0.6479   0.6995   1.3717   2.5647   3.7073   3.7373   4.1505
     4.7576   6.1124   6.6602   8.7114  12.5670  15.4979  15.9368  16.4946

     occupation numbers 
     1.0000   1.0000   1.0000   1.0000   1.0000   1.0000   1.0000   1.0000
     1.0000   1.0000   1.0000   1.0000   1.0000   1.0087   1.0126   1.0005
     0.0090   0.0000   0.0000   0.0000   0.0000   0.0000   0.0000   0.0000

          k = 0.1250 0.2165 0.1119 (  3077 PWs)   bands (ev):

   -90.8457 -54.1266 -54.1060 -54.0486 -43.0413 -14.9201 -13.3597  -1.5106
    -0.9363  -0.6476   0.7037   1.3717   2.4770   3.7254   3.8038   4.2276
     4.6756   6.1938   6.6344   8.5602  12.9238  15.0738  15.6826  16.9427

     occupation numbers 
     1.0000   1.0000   1.0000   1.0000   1.0000   1.0000   1.0000   1.0000
     1.0000   1.0000   1.0000   1.0000   1.0000   1.0110   1.0258   0.8588
     0.0288   0.0000   0.0000   0.0000   0.0000   0.0000   0.0000   0.0000

          k = 0.1250 0.3608 0.0000 (  3058 PWs)   bands (ev):

   -90.8431 -54.1510 -54.1151 -54.0443 -43.0311 -14.3873 -13.3640  -1.6338
    -1.0423  -0.3466   0.1088   0.8973   2.3991   3.7905   4.1188   4.3318
     4.7948   6.1756   6.5459   9.6689  12.4591  13.9287  15.4744  16.9466

     occupation numbers 
     1.0000   1.0000   1.0000   1.0000   1.0000   1.0000   1.0000   1.0000
     1.0000   1.0000   1.0000   1.0000   1.0000   1.0226   1.0379   0.5873
     0.0051   0.0000   0.0000   0.0000   0.0000   0.0000   0.0000   0.0000

          k = 0.1250 0.3608 0.1119 (  3067 PWs)   bands (ev):

   -90.8431 -54.1510 -54.1152 -54.0444 -43.0311 -14.3873 -13.3640  -1.6353
    -1.0425  -0.3452   0.1145   0.8975   2.3911   3.7875   4.1054   4.3440
     4.7560   6.2807   6.5222   9.6018  12.4513  14.0550  15.4261  16.8333

     occupation numbers 
     1.0000   1.0000   1.0000   1.0000   1.0000   1.0000   1.0000   1.0000
     1.0000   1.0000   1.0000   1.0000   1.0000   1.0220   1.0501   0.5537
     0.0093   0.0000   0.0000   0.0000   0.0000   0.0000   0.0000   0.0000

          k = 0.1250 0.5052 0.0000 (  3055 PWs)   bands (ev):

   -90.8412 -54.1681 -54.1217 -54.0414 -43.0239 -13.9545 -13.3858  -2.1557
    -1.0856  -0.2188   0.4904   0.7904   1.7967   3.6879   3.9132   4.3063
     5.6480   6.5192   6.6856   9.8588  11.5509  14.2428  14.5573  16.2818

     occupation numbers 
     1.0000   1.0000   1.0000   1.0000   1.0000   1.0000   1.0000   1.0000
     1.0000   1.0000   1.0000   1.0000   1.0000   1.0068   1.0602   0.6579
     0.0000   0.0000   0.0000   0.0000   0.0000   0.0000   0.0000   0.0000

          k = 0.1250 0.5052 0.1119 (  3051 PWs)   bands (ev):

   -90.8412 -54.1681 -54.1217 -54.0414 -43.0239 -13.9545 -13.3858  -2.1557
    -1.0865  -0.2191   0.4926   0.7905   1.7984   3.6870   3.9137   4.3034
     5.6311   6.5365   6.6877   9.8436  11.5648  14.3261  14.5585  16.5042

     occupation numbers 
     1.0000   1.0000   1.0000   1.0000   1.0000   1.0000   1.0000   1.0000
     1.0000   1.0000   1.0000   1.0000   1.0000   1.0067   1.0604   0.6658
     0.0000   0.0000   0.0000   0.0000   0.0000   0.0000   0.0000   0.0000

          k = 0.2500 0.4330 0.0000 (  3067 PWs)   bands (ev):

   -90.8412 -54.1596 -54.1304 -54.0415 -43.0239 -13.9882 -13.3540  -1.6484
    -1.3142  -0.3844   0.2561   0.6782   1.8436   3.8046   3.9812   4.4487
     5.6698   6.3059   6.5570  10.2004  11.0759  13.8459  15.4166  16.7943

     occupation numbers 
     1.0000   1.0000   1.0000   1.0000   1.0000   1.0000   1.0000   1.0000
     1.0000   1.0000   1.0000   1.0000   1.0000   1.0260   1.0797   0.2904
     0.0000   0.0000   0.0000   0.0000   0.0000   0.0000   0.0000   0.0000

          k = 0.2500 0.4330 0.1119 (  3068 PWs)   bands (ev):

   -90.8412 -54.1596 -54.1304 -54.0415 -43.0239 -13.9882 -13.3540  -1.6484
    -1.3151  -0.3843   0.2576   0.6795   1.8429   3.8052   3.9821   4.4387
     5.6792   6.2760   6.5811  10.2040  11.1062  13.8123  15.3998  16.7677

     occupation numbers 
     1.0000   1.0000   1.0000   1.0000   1.0000   1.0000   1.0000   1.0000
     1.0000   1.0000   1.0000   1.0000   1.0000   1.0262   1.0799   0.3121
     0.0000   0.0000   0.0000   0.0000   0.0000   0.0000   0.0000   0.0000

          k = 0.2500 0.5774 0.0000 (  3044 PWs)   bands (ev):

   -90.8404 -54.1601 -54.1395 -54.0402 -43.0209 -13.8273 -13.3343  -1.7697
    -1.2619  -0.5948   0.4051   0.8791   1.3922   3.5675   4.1599   4.4112
     6.2256   6.3109   7.0418   8.7331  12.3217  13.7835  14.3261  16.5733

     occupation numbers 
     1.0000   1.0000   1.0000   1.0000   1.0000   1.0000   1.0000   1.0000
     1.0000   1.0000   1.0000   1.0000   1.0000   1.0011   0.9870   0.3765
     0.0000   0.0000   0.0000   0.0000   0.0000   0.0000   0.0000   0.0000

          k = 0.2500 0.5774 0.1119 (  3050 PWs)   bands (ev):

   -90.8405 -54.1602 -54.1395 -54.0402 -43.0209 -13.8273 -13.3343  -1.7696
    -1.2622  -0.5946   0.4054   0.8788   1.3921   3.5676   4.1596   4.4104
     6.2442   6.3093   7.0214   8.7261  12.3414  13.7686  14.4118  16.5832

     occupation numbers 
     1.0000   1.0000   1.0000   1.0000   1.0000   1.0000   1.0000   1.0000
     1.0000   1.0000   1.0000   1.0000   1.0000   1.0011   0.9874   0.3786
     0.0000   0.0000   0.0000   0.0000   0.0000   0.0000   0.0000   0.0000

          k = 0.0000-0.1443 0.1119 (  3086 PWs)   bands (ev):

   -90.8476 -54.1087 -54.1002 -54.0515 -43.0484 -15.2609 -13.3645  -1.5252
    -1.0642  -0.7853   1.6356   2.0345   2.1483   3.4431   3.7027   3.7793
     4.7166   6.5211   6.9419   7.9462  12.2507  14.3406  16.1966  17.9738

     occupation numbers 
     1.0000   1.0000   1.0000   1.0000   1.0000   1.0000   1.0000   1.0000
     1.0000   1.0000   1.0000   1.0000   1.0000   1.0001   1.0083   1.0202
     0.0165   0.0000   0.0000   0.0000   0.0000   0.0000   0.0000   0.0000

          k = 0.0000-0.2887 0.1119 (  3070 PWs)   bands (ev):

   -90.8449 -54.1359 -54.1065 -54.0473 -43.0383 -14.7688 -13.3613  -1.5864
    -0.8554  -0.5316   0.1903   1.5221   2.5084   3.6170   4.0767   4.1107
     4.7025   5.9651   6.8002   8.8712  13.0316  14.3362  15.8829  17.2658

     occupation numbers 
     1.0000   1.0000   1.0000   1.0000   1.0000   1.0000   1.0000   1.0000
     1.0000   1.0000   1.0000   1.0000   1.0000   1.0025   1.0691   1.0455
     0.0201   0.0000   0.0000   0.0000   0.0000   0.0000   0.0000   0.0000

          k = 0.0000-0.4330 0.1119 (  3062 PWs)   bands (ev):

   -90.8423 -54.1630 -54.1129 -54.0432 -43.0281 -14.1996 -13.3848  -2.0394
    -0.9976  -0.3498   0.2497   1.2862   2.0700   3.6706   3.9700   4.2422
     5.0436   6.3015   6.8395  10.0045  11.5983  14.3877  15.5781  16.2365

     occupation numbers 
     1.0000   1.0000   1.0000   1.0000   1.0000   1.0000   1.0000   1.0000
     1.0000   1.0000   1.0000   1.0000   1.0000   1.0054   1.0773   0.8248
     0.0000   0.0000   0.0000   0.0000   0.0000   0.0000   0.0000   0.0000

          k =-0.1250-0.3608 0.1119 (  3067 PWs)   bands (ev):

   -90.8431 -54.1510 -54.1152 -54.0444 -43.0311 -14.3873 -13.3640  -1.6352
    -1.0427  -0.3460   0.1166   0.8969   2.3874   3.7940   4.1125   4.2989
     4.8333   6.1762   6.5556   9.6747  12.4580  13.9000  15.4998  16.7986

     occupation numbers 
     1.0000   1.0000   1.0000   1.0000   1.0000   1.0000   1.0000   1.0000
     1.0000   1.0000   1.0000   1.0000   1.0000   1.0234   1.0439   0.6782
     0.0027   0.0000   0.0000   0.0000   0.0000   0.0000   0.0000   0.0000

          k =-0.1250-0.5052 0.1119 (  3051 PWs)   bands (ev):

   -90.8412 -54.1681 -54.1218 -54.0414 -43.0239 -13.9545 -13.3858  -2.1558
    -1.0863  -0.2189   0.4928   0.7908   1.7965   3.6881   3.9132   4.3012
     5.6683   6.4855   6.6861   9.8613  11.6285  14.3000  14.5286  15.9751

     occupation numbers 
     1.0000   1.0000   1.0000   1.0000   1.0000   1.0000   1.0000   1.0000
     1.0000   1.0000   1.0000   1.0000   1.0000   1.0068   1.0602   0.6718
     0.0000   0.0000   0.0000   0.0000   0.0000   0.0000   0.0000   0.0000

     the Fermi energy is     4.4015 ev

!    total energy              =    -475.02571707 Ry
     total all-electron energy =     -3102.897854 Ry
     estimated scf accuracy    <          8.7E-09 Ry
     smearing contrib. (-TS)   =       0.00300715 Ry
     internal energy E=F+TS    =    -475.02872422 Ry

     The total energy is F=E-TS. E is the sum of the following terms:
     one-electron contribution =    -659.22491733 Ry
     hartree contribution      =     338.95366185 Ry
     xc contribution           =     -48.97969144 Ry
     ewald contribution        =       0.92395869 Ry
     one-center paw contrib.   =    -106.70173598 Ry
      -> PAW hartree energy AE =     279.09483980 Ry
      -> PAW hartree energy PS =    -277.74160479 Ry
      -> PAW xc energy AE      =    -154.20121718 Ry
      -> PAW xc energy PS      =      46.14624620 Ry
      -> total E_H with PAW    =     340.30689685 Ry
      -> total E_XC with PAW   =    -157.03466243 Ry

     total magnetization       =     0.45 Bohr mag/cell
     absolute magnetization    =     0.59 Bohr mag/cell

     convergence has been achieved in  22 iterations

     Forces acting on atoms (cartesian axes, Ry/au):

     atom    1 type  1   force =     0.00000000    0.00000000    0.03765528
     atom    2 type  2   force =    -0.00000000   -0.00000000   -0.01961189
     atom    3 type  2   force =     0.00000000    0.00000000   -0.05128139
     atom    4 type  3   force =     0.00000000    0.00000000    0.03323799
     The non-local contrib.  to forces
     atom    1 type  1   force =     0.00000000    0.00000000    0.07356163
     atom    2 type  2   force =     0.00000000    0.00000000   -1.32114034
     atom    3 type  2   force =     0.00000000    0.00000000    0.72075485
     atom    4 type  3   force =     0.00000000    0.00000000    0.00775606
     The ionic contribution  to forces
     atom    1 type  1   force =    -0.00000000    0.00000000    6.18390073
     atom    2 type  2   force =     0.00000000   -0.00000000   39.63853694
     atom    3 type  2   force =    -0.00000000    0.00000000  -35.34309849
     atom    4 type  3   force =     0.00000000   -0.00000000  -10.47933917
     The local contribution  to forces
     atom    1 type  1   force =    -0.00000000   -0.00000000   -6.21889062
     atom    2 type  2   force =     0.00000001   -0.00000001  -38.34854621
     atom    3 type  2   force =    -0.00000001    0.00000001   34.57671920
     atom    4 type  3   force =     0.00000002   -0.00000001   10.50482607
     The core correction contribution to forces
     atom    1 type  1   force =    -0.00000000    0.00000000   -0.00067912
     atom    2 type  2   force =    -0.00000000    0.00000000    0.01154753
     atom    3 type  2   force =     0.00000000   -0.00000000   -0.00557460
     atom    4 type  3   force =     0.00000000    0.00000000    0.00000000
     The Hubbard contrib.    to forces
     atom    1 type  1   force =     0.00000000    0.00000000    0.00000000
     atom    2 type  2   force =     0.00000000    0.00000000    0.00000000
     atom    3 type  2   force =     0.00000000    0.00000000    0.00000000
     atom    4 type  3   force =     0.00000000    0.00000000    0.00000000
     The SCF correction term to forces
     atom    1 type  1   force =     0.00000000   -0.00000000   -0.00024931
     atom    2 type  2   force =    -0.00000000    0.00000000   -0.00002180
     atom    3 type  2   force =     0.00000000   -0.00000000   -0.00009433
     atom    4 type  3   force =    -0.00000000    0.00000000   -0.00001694

     Total force =     0.074412     Total SCF correction =     0.000268

     Writing all to output data dir ./out/pw.save/ :
     XML data file, charge density, pseudopotentials, collected wavefunctions
 
     init_run     :     12.29s CPU      3.17s WALL (       1 calls)
     electrons    :    103.89s CPU     28.42s WALL (       1 calls)
     forces       :      0.55s CPU      0.52s WALL (       1 calls)

     Called by init_run:
     wfcinit      :      0.27s CPU      0.33s WALL (       1 calls)
     wfcinit:atom :      0.04s CPU      0.04s WALL (      50 calls)
     wfcinit:wfcr :      0.17s CPU      0.20s WALL (      50 calls)
     potinit      :     11.51s CPU      2.31s WALL (       1 calls)
     hinit0       :      0.42s CPU      0.41s WALL (       1 calls)

     Called by electrons:
     c_bands      :     13.42s CPU     13.64s WALL (      22 calls)
     sum_band     :      2.41s CPU      2.43s WALL (      22 calls)
     v_of_rho     :      0.38s CPU      0.19s WALL (      23 calls)
     v_h          :      0.26s CPU      0.04s WALL (      23 calls)
     v_xc         :      0.12s CPU      0.16s WALL (      24 calls)
     newd         :      0.53s CPU      0.41s WALL (      23 calls)
                                        0.41s GPU  (      23 calls)
     PAW_pot      :     90.20s CPU     11.86s WALL (      23 calls)
     mix_rho      :      0.35s CPU      0.37s WALL (      22 calls)

     Called by c_bands:
     init_us_2    :      0.92s CPU      0.92s WALL (    2300 calls)
     cegterg      :     11.70s CPU     11.92s WALL (    1100 calls)

     Called by sum_band:
     sum_band:wei :      0.03s CPU      0.03s WALL (      22 calls)
                                        0.03s GPU  (      22 calls)
     sum_band:loo :      1.49s CPU      1.50s WALL (      22 calls)
                                        1.50s GPU  (      22 calls)
     sum_band:buf :      0.18s CPU      0.20s WALL (    1100 calls)
                                        0.19s GPU  (    1100 calls)
     sum_band:ini :      0.43s CPU      0.45s WALL (    1100 calls)
                                        0.44s GPU  (    1100 calls)
     sum_band:cal :      0.04s CPU      0.07s WALL (    1100 calls)
                                        0.05s GPU  (    1100 calls)
     sum_band:bec :      0.24s CPU      0.26s WALL (    1100 calls)
                                        0.24s GPU  (    1100 calls)
     addusdens    :      0.74s CPU      0.75s WALL (      22 calls)
                                        0.75s GPU  (      22 calls)
     addusd:skk   :      0.00s CPU      0.00s WALL (      66 calls)
                                        0.00s GPU  (      66 calls)

     Called by *egterg:
     cdiaghg      :      3.74s CPU      3.88s WALL (    4821 calls)
                                        3.82s GPU  (    4821 calls)
     cegterg:over :      0.92s CPU      0.96s WALL (    3721 calls)
     cegterg:upda :      0.68s CPU      0.69s WALL (    3721 calls)
     cegterg:last :      0.13s CPU      0.13s WALL (    2099 calls)
     h_psi        :      4.27s CPU      4.45s WALL (    4871 calls)
                                        4.39s GPU  (    4871 calls)
     s_psi        :      0.75s CPU      0.79s WALL (    4871 calls)
     g_psi        :      0.02s CPU      0.09s WALL (    3721 calls)
                                        0.04s GPU  (    3721 calls)

     Called by h_psi:
     h_psi:calbec :      0.15s CPU      0.28s WALL (    4871 calls)
                                        0.22s GPU  (    4871 calls)
     vloc_psi     :      2.93s CPU      3.02s WALL (    4871 calls)
                                        2.96s GPU  (    4871 calls)
     add_vuspsi   :      0.68s CPU      0.81s WALL (    4871 calls)
                                        0.74s GPU  (    4871 calls)

     General routines
     calbec       :      0.17s CPU      0.20s WALL (    6171 calls)
     fft          :      3.56s CPU      0.96s WALL (     588 calls)
                                        0.02s GPU  (     542 calls)
     ffts         :      4.23s CPU      0.78s WALL (      90 calls)
                                        0.00s GPU  (      44 calls)
     fftw         :      0.29s CPU      1.00s WALL (   16442 calls)
                                        0.81s GPU  (   16442 calls)
     interpolate  :      7.96s CPU      1.74s WALL (      46 calls)
 
     Parallel routines

     PAW routines
     PAW_pot      :     90.20s CPU     11.86s WALL (      23 calls)
     PAW_symme    :      0.02s CPU      0.00s WALL (      45 calls)
 
     PWSCF        :   1m57.60s CPU     32.60s WALL

 
   This run was terminated on:   2:20:42  12Jul2026            

=------------------------------------------------------------------------------=
   JOB DONE.
=------------------------------------------------------------------------------=
Warning: ieee_divide_by_zero is signaling
Warning: ieee_inexact is signaling
FORTRAN STOP
