
     Program PWSCF v.7.3.1 starts on 12Jul2026 at  3:57: 3 

     This program is part of the open-source Quantum ESPRESSO suite
     for quantum simulation of materials; please cite
         "P. Giannozzi et al., J. Phys.:Condens. Matter 21 395502 (2009);
         "P. Giannozzi et al., J. Phys.:Condens. Matter 29 465901 (2017);
         "P. Giannozzi et al., J. Chem. Phys. 152 154105 (2020);
          URL http://www.quantum-espresso.org", 
     in publications or presentations arising from this work. More details at
     http://www.quantum-espresso.org/quote

     Parallel version (MPI & OpenMP), running on      14 processor cores
     Number of MPI processes:                 1
     Threads/MPI process:                    14

     MPI processes distributed on     1 nodes
     834865 MiB available memory on the printing compute node when the environment starts
 
     Reading input from pw.in

     Current dimensions of program PWSCF are:
     Max number of different atomic species (ntypx) = 10
     Max number of k-points (npk) =  40000
     Max angular momentum in pseudopotentials (lmaxx) =  4
     file Co.pbe-spn-kjpaw_psl.0.3.1.UPF: wavefunction(s)  3P 3D renormalized
     file O.pbe-n-kjpaw_psl.1.0.0.UPF: wavefunction(s)  2S 2P renormalized
     file Na.pbe-spn-kjpaw_psl.1.0.0.UPF: wavefunction(s)  2P renormalized
 
     Subspace diagonalization in iterative solution of the eigenvalue problem:
     a serial algorithm will be used

 
     G-vector sticks info
     --------------------
     sticks:   dense  smooth     PW     G-vecs:    dense   smooth      PW
     Sum        2941    1483    421               178951    63407    9467
 
     Using Slab Decomposition
 


     bravais-lattice index     =            4
     lattice parameter (alat)  =       9.4527  a.u.
     unit-cell volume          =    1009.0018 (a.u.)^3
     number of atoms/cell      =           10
     number of atomic types    =            3
     number of electrons       =        96.00
     number of Kohn-Sham states=           64
     kinetic-energy cutoff     =      60.0000  Ry
     charge density cutoff     =     480.0000  Ry
     scf convergence threshold =      1.0E-07
     mixing beta               =       0.3000
     number of iterations used =            8  local-TF  mixing
     Exchange-correlation= SLA  PW   PBX  PBC
                           (   1   4   3   4   0   0   0)

     GPU acceleration is ACTIVE.  1 visible GPUs per MPI rank
     GPU-aware MPI enabled


     GPU used by master process:

        Device Number: 0
        Device name: NVIDIA A100-SXM4-80GB
        Compute capability : 80
        Ratio of single to double precision performance  : 2
        Memory Clock Rate (KHz): 1593000
        Memory Bus Width (bits): 5120
        Peak Memory Bandwidth (GB/s): ******

     celldm(1)=   9.452718  celldm(2)=   0.000000  celldm(3)=   1.379403
     celldm(4)=   0.000000  celldm(5)=   0.000000  celldm(6)=   0.000000

     crystal axes: (cart. coord. in units of alat)
               a(1) = (   1.000000   0.000000   0.000000 )  
               a(2) = (  -0.500000   0.866025   0.000000 )  
               a(3) = (   0.000000   0.000000   1.379403 )  

     reciprocal axes: (cart. coord. in units 2 pi/alat)
               b(1) = (  1.000000  0.577350 -0.000000 )  
               b(2) = (  0.000000  1.154701  0.000000 )  
               b(3) = (  0.000000 -0.000000  0.724951 )  


     PseudoPot. # 1 for Co read from file:
     ../../pseudo/Co.pbe-spn-kjpaw_psl.0.3.1.UPF
     MD5 check sum: 3c0a43779828c046024e4f3be63f8e67
     Pseudo is Projector augmented-wave + core cor, Zval = 17.0
     Generated using &quot;atomic&quot; code by A. Dal Corso  v.6.2.2
     Shape of augmentation charge: PSQ
     Using radial grid of 1193 points,  6 beta functions with: 
                l(1) =   0
                l(2) =   0
                l(3) =   1
                l(4) =   1
                l(5) =   2
                l(6) =   2
     Q(r) pseudized with 0 coefficients 


     PseudoPot. # 2 for O  read from file:
     ../../pseudo/O.pbe-n-kjpaw_psl.1.0.0.UPF
     MD5 check sum: e99d9cef9b487d1ca56f5b95ecd0fd7a
     Pseudo is Projector augmented-wave + core cor, Zval =  6.0
     Generated using &quot;atomic&quot; code by A. Dal Corso  v.6.3
     Shape of augmentation charge: PSQ
     Using radial grid of 1095 points,  4 beta functions with: 
                l(1) =   0
                l(2) =   0
                l(3) =   1
                l(4) =   1
     Q(r) pseudized with 0 coefficients 


     PseudoPot. # 3 for Na read from file:
     ../../pseudo/Na.pbe-spn-kjpaw_psl.1.0.0.UPF
     MD5 check sum: 05b4deb74e3932c23ab016979dc8b5d4
     Pseudo is Projector augmented-wave + core cor, Zval =  9.0
     Generated using &quot;atomic&quot; code by A. Dal Corso  v.6.3
     Shape of augmentation charge: PSQ
     Using radial grid of 1121 points,  4 beta functions with: 
                l(1) =   0
                l(2) =   0
                l(3) =   1
                l(4) =   1
     Q(r) pseudized with 0 coefficients 


     atomic species   valence    mass     pseudopotential
     Co               17.00    58.93300     Co( 1.00)
     O                 6.00    15.99900     O ( 1.00)
     Na                9.00    22.98977     Na( 1.00)

     Starting magnetic structure 
     atomic species   magnetization
     Co              0.300
     O               0.000
     Na              0.000

      6 Sym. Ops. (no inversion) found


                                    s                        frac. trans.

      isym =  1     identity                                     

 cryst.   s( 1) = (     1          0          0      )
                  (     0          1          0      )
                  (     0          0          1      )

 cart.    s( 1) = (  1.0000000  0.0000000  0.0000000 )
                  (  0.0000000  1.0000000  0.0000000 )
                  (  0.0000000  0.0000000  1.0000000 )


      isym =  2     120 deg rotation - cryst. axis [0,0,1]       

 cryst.   s( 2) = (     0          1          0      )
                  (    -1         -1          0      )
                  (     0          0          1      )

 cart.    s( 2) = ( -0.5000000 -0.8660254  0.0000000 )
                  (  0.8660254 -0.5000000  0.0000000 )
                  (  0.0000000  0.0000000  1.0000000 )


      isym =  3     120 deg rotation - cryst. axis [0,0,-1]      

 cryst.   s( 3) = (    -1         -1          0      )
                  (     1          0          0      )
                  (     0          0          1      )

 cart.    s( 3) = ( -0.5000000  0.8660254  0.0000000 )
                  ( -0.8660254 -0.5000000  0.0000000 )
                  (  0.0000000  0.0000000  1.0000000 )


      isym =  4     inv. 180 deg rotation - cart. axis [0,1,0]   

 cryst.   s( 4) = (     1          0          0      )
                  (    -1         -1          0      )
                  (     0          0          1      )

 cart.    s( 4) = (  1.0000000  0.0000000  0.0000000 )
                  (  0.0000000 -1.0000000  0.0000000 )
                  (  0.0000000  0.0000000  1.0000000 )


      isym =  5     inv. 180 deg rotation - cryst. axis [1,-1,0] 

 cryst.   s( 5) = (     0          1          0      )
                  (     1          0          0      )
                  (     0          0          1      )

 cart.    s( 5) = ( -0.5000000  0.8660254  0.0000000 )
                  (  0.8660254  0.5000000  0.0000000 )
                  (  0.0000000  0.0000000  1.0000000 )


      isym =  6     inv. 180 deg rotation - cryst. axis [2,1,0]  

 cryst.   s( 6) = (    -1         -1          0      )
                  (     0          1          0      )
                  (     0          0          1      )

 cart.    s( 6) = ( -0.5000000 -0.8660254  0.0000000 )
                  ( -0.8660254  0.5000000  0.0000000 )
                  (  0.0000000  0.0000000  1.0000000 )


     point group C_3v (3m)  
     there are  3 classes
     the character table:

       E     2C3   3s_v 
A_1    1.00  1.00  1.00
A_2    1.00  1.00 -1.00
E      2.00 -1.00  0.00

     the symmetry operations in each class and the name of the first element:

     E        1
          identity                                               
     2C3      2    3
          120 deg rotation - cryst. axis [0,0,1]                 
     3s_v     4    6    5
          inv. 180 deg rotation - cart. axis [0,1,0]             

   Cartesian axes

     site n.     atom                  positions (alat units)
         1        Co     tau(   1) = (   0.0000000   0.0000000   0.0000000  )
         2        Co     tau(   2) = (  -0.0000000   0.5773503   0.0000000  )
         3        Co     tau(   3) = (   0.5000000   0.2886751   0.0000000  )
         4        O      tau(   4) = (   0.1666667   0.2886751   0.1919170  )
         5        O      tau(   5) = (   0.6666667   0.0000000   0.1919170  )
         6        O      tau(   6) = (  -0.3333333   0.5773503   0.1919170  )
         7        O      tau(   7) = (   0.3333333   0.0000000   1.1874864  )
         8        O      tau(   8) = (   0.3333333   0.5773503   1.1874864  )
         9        O      tau(   9) = (  -0.1666667   0.2886751   1.1874864  )
        10        Na     tau(  10) = (   0.0000000   0.0000000   0.7896584  )

   Crystallographic axes

     site n.     atom                  positions (cryst. coord.)
         1        Co     tau(   1) = (  0.0000000  0.0000000  0.0000000  )
         2        Co     tau(   2) = (  0.3333333  0.6666667  0.0000000  )
         3        Co     tau(   3) = (  0.6666667  0.3333333  0.0000000  )
         4        O      tau(   4) = (  0.3333333  0.3333333  0.1391304  )
         5        O      tau(   5) = (  0.6666667  0.0000000  0.1391304  )
         6        O      tau(   6) = (  0.0000000  0.6666667  0.1391304  )
         7        O      tau(   7) = (  0.3333333  0.0000000  0.8608696  )
         8        O      tau(   8) = (  0.6666667  0.6666667  0.8608696  )
         9        O      tau(   9) = ( -0.0000000  0.3333333  0.8608696  )
        10        Na     tau(  10) = (  0.0000000  0.0000000  0.5724638  )

     number of k points=    17  Marzari-Vanderbilt smearing, width (Ry)=  0.0200
                       cart. coord. in units 2pi/alat
        k(    1) = (   0.0000000   0.0000000   0.0000000), wk =   0.0092593
        k(    2) = (   0.0000000   0.0000000   0.2416504), wk =   0.0185185
        k(    3) = (   0.0000000   0.1924501   0.0000000), wk =   0.0555556
        k(    4) = (   0.0000000   0.1924501   0.2416504), wk =   0.1111111
        k(    5) = (   0.0000000   0.3849002   0.0000000), wk =   0.0555556
        k(    6) = (   0.0000000   0.3849002   0.2416504), wk =   0.1111111
        k(    7) = (   0.0000000  -0.5773503   0.0000000), wk =   0.0277778
        k(    8) = (   0.0000000  -0.5773503   0.2416504), wk =   0.0555556
        k(    9) = (   0.1666667   0.2886751   0.0000000), wk =   0.0555556
        k(   10) = (   0.1666667   0.2886751   0.2416504), wk =   0.0555556
        k(   11) = (   0.1666667   0.4811252   0.0000000), wk =   0.1111111
        k(   12) = (   0.1666667   0.4811252   0.2416504), wk =   0.1111111
        k(   13) = (   0.3333333   0.5773503   0.0000000), wk =   0.0185185
        k(   14) = (   0.3333333   0.5773503   0.2416504), wk =   0.0185185
        k(   15) = (  -0.1666667  -0.2886751   0.2416504), wk =   0.0555556
        k(   16) = (  -0.1666667  -0.4811252   0.2416504), wk =   0.1111111
        k(   17) = (  -0.3333333  -0.5773503   0.2416504), wk =   0.0185185

                       cryst. coord.
        k(    1) = (   0.0000000   0.0000000   0.0000000), wk =   0.0092593
        k(    2) = (   0.0000000   0.0000000   0.3333333), wk =   0.0185185
        k(    3) = (   0.0000000   0.1666667   0.0000000), wk =   0.0555556
        k(    4) = (   0.0000000   0.1666667   0.3333333), wk =   0.1111111
        k(    5) = (   0.0000000   0.3333333   0.0000000), wk =   0.0555556
        k(    6) = (   0.0000000   0.3333333   0.3333333), wk =   0.1111111
        k(    7) = (   0.0000000  -0.5000000   0.0000000), wk =   0.0277778
        k(    8) = (   0.0000000  -0.5000000   0.3333333), wk =   0.0555556
        k(    9) = (   0.1666667   0.1666667   0.0000000), wk =   0.0555556
        k(   10) = (   0.1666667   0.1666667   0.3333333), wk =   0.0555556
        k(   11) = (   0.1666667   0.3333333   0.0000000), wk =   0.1111111
        k(   12) = (   0.1666667   0.3333333   0.3333333), wk =   0.1111111
        k(   13) = (   0.3333333   0.3333333   0.0000000), wk =   0.0185185
        k(   14) = (   0.3333333   0.3333333   0.3333333), wk =   0.0185185
        k(   15) = (  -0.1666667  -0.1666667   0.3333333), wk =   0.0555556
        k(   16) = (  -0.1666667  -0.3333333   0.3333333), wk =   0.1111111
        k(   17) = (  -0.3333333  -0.3333333   0.3333333), wk =   0.0185185

     Dense  grid:   178951 G-vectors     FFT dimensions: (  72,  72,  96)

     Smooth grid:    63407 G-vectors     FFT dimensions: (  48,  48,  72)

     Dynamical RAM for                 wfc:       7.73 MB

     Dynamical RAM for     wfc (w. buffer):     270.67 MB

     Dynamical RAM for           str. fact:       8.19 MB

     Dynamical RAM for           local pot:       0.00 MB

     Dynamical RAM for          nlocal pot:      13.29 MB

     Dynamical RAM for                qrad:       5.27 MB

     Dynamical RAM for          rho,v,vnew:      39.16 MB

     Dynamical RAM for               rhoin:      13.05 MB

     Dynamical RAM for            rho*nmix:      87.38 MB

     Dynamical RAM for           G-vectors:      10.72 MB

     Dynamical RAM for          h,s,v(r/c):       0.75 MB

     Dynamical RAM for          <psi|beta>:       0.11 MB

     Dynamical RAM for                 psi:      15.47 MB

     Dynamical RAM for                hpsi:      15.47 MB

     Dynamical RAM for                spsi:      15.47 MB

     Dynamical RAM for      wfcinit/wfcrot:      15.56 MB

     Dynamical RAM for           addusdens:     527.00 MB

     Dynamical RAM for          addusforce:     554.35 MB

     Estimated static dynamical RAM per process >     394.07 MB

     Estimated max dynamical RAM per process >       1.01 GB

     Check: negative core charge=   -0.000008
     Generating pointlists ...
     new r_m :   0.1587 (alat units)  1.4998 (a.u.) for type    1
     new r_m :   0.1587 (alat units)  1.4998 (a.u.) for type    2
     new r_m :   0.2141 (alat units)  2.0238 (a.u.) for type    3

     Initial potential from superposition of free atoms

     starting charge      95.9928, renormalised to      96.0000
     Starting wfcs are   59 randomized atomic wfcs +    5 random wfcs
     Checking if some PAW data can be deallocated... 

     total cpu time spent up to now is        5.8 secs

     Self-consistent Calculation
[tb_dev] Currently allocated     9.94E-01 Mbytes, locked:    0 /   6
[tb_pin] Currently allocated     0.00E+00 Mbytes, locked:    0 /   0

     iteration #  1     ecut=    60.00 Ry     beta= 0.30
     Davidson diagonalization with overlap

---- Real-time Memory Report at c_bands before calling an iterative solver
           968 MiB given to the printing process from OS
             0 MiB allocation reported by mallinfo(arena+hblkhd)
        833477 MiB available memory on the node where the printing process lives
     GPU memory used/free/total (MiB): 1616 / 79534 / 81151
------------------
     ethr =  1.00E-02,  avg # of iterations =  9.8

     total cpu time spent up to now is        9.5 secs

     total energy              =   -1488.30908179 Ry
     estimated scf accuracy    <       6.14742804 Ry

     total magnetization       =    14.00 Bohr mag/cell
     absolute magnetization    =    14.00 Bohr mag/cell
[tb_dev] Currently allocated     7.63E-05 Mbytes, locked:    0 /   2
[tb_pin] Currently allocated     0.00E+00 Mbytes, locked:    0 /   0

     iteration #  2     ecut=    60.00 Ry     beta= 0.30
     Davidson diagonalization with overlap

---- Real-time Memory Report at c_bands before calling an iterative solver
          1030 MiB given to the printing process from OS
             0 MiB allocation reported by mallinfo(arena+hblkhd)
        832753 MiB available memory on the node where the printing process lives
     GPU memory used/free/total (MiB): 1666 / 79484 / 81151
------------------
     ethr =  6.40E-03,  avg # of iterations =  2.0

     total cpu time spent up to now is       12.0 secs

     total energy              =   -1488.65890974 Ry
     estimated scf accuracy    <       0.97092566 Ry

     total magnetization       =    10.90 Bohr mag/cell
     absolute magnetization    =    10.90 Bohr mag/cell
[tb_dev] Currently allocated     7.63E-05 Mbytes, locked:    0 /   2
[tb_pin] Currently allocated     0.00E+00 Mbytes, locked:    0 /   0

     iteration #  3     ecut=    60.00 Ry     beta= 0.30
     Davidson diagonalization with overlap

---- Real-time Memory Report at c_bands before calling an iterative solver
          1035 MiB given to the printing process from OS
             0 MiB allocation reported by mallinfo(arena+hblkhd)
        832640 MiB available memory on the node where the printing process lives
     GPU memory used/free/total (MiB): 1666 / 79484 / 81151
------------------
     ethr =  1.01E-03,  avg # of iterations =  3.9

     total cpu time spent up to now is       14.8 secs

     total energy              =   -1488.96450887 Ry
     estimated scf accuracy    <       2.24772506 Ry

     total magnetization       =     4.55 Bohr mag/cell
     absolute magnetization    =     5.15 Bohr mag/cell
[tb_dev] Currently allocated     7.63E-05 Mbytes, locked:    0 /   2
[tb_pin] Currently allocated     0.00E+00 Mbytes, locked:    0 /   0

     iteration #  4     ecut=    60.00 Ry     beta= 0.30
     Davidson diagonalization with overlap

---- Real-time Memory Report at c_bands before calling an iterative solver
          1040 MiB given to the printing process from OS
             0 MiB allocation reported by mallinfo(arena+hblkhd)
        832457 MiB available memory on the node where the printing process lives
     GPU memory used/free/total (MiB): 1666 / 79484 / 81151
------------------
     ethr =  1.01E-03,  avg # of iterations =  1.6

     total cpu time spent up to now is       17.3 secs

     total energy              =   -1488.96813146 Ry
     estimated scf accuracy    <       1.19116865 Ry

     total magnetization       =     5.25 Bohr mag/cell
     absolute magnetization    =     5.66 Bohr mag/cell
[tb_dev] Currently allocated     7.63E-05 Mbytes, locked:    0 /   2
[tb_pin] Currently allocated     0.00E+00 Mbytes, locked:    0 /   0

     iteration #  5     ecut=    60.00 Ry     beta= 0.30
     Davidson diagonalization with overlap

---- Real-time Memory Report at c_bands before calling an iterative solver
          1045 MiB given to the printing process from OS
             0 MiB allocation reported by mallinfo(arena+hblkhd)
        832374 MiB available memory on the node where the printing process lives
     GPU memory used/free/total (MiB): 1666 / 79484 / 81151
------------------
     ethr =  1.01E-03,  avg # of iterations =  1.2

     total cpu time spent up to now is       19.7 secs

     total energy              =   -1489.05199596 Ry
     estimated scf accuracy    <       0.56421598 Ry

     total magnetization       =     7.22 Bohr mag/cell
     absolute magnetization    =     7.34 Bohr mag/cell
[tb_dev] Currently allocated     7.63E-05 Mbytes, locked:    0 /   2
[tb_pin] Currently allocated     0.00E+00 Mbytes, locked:    0 /   0

     iteration #  6     ecut=    60.00 Ry     beta= 0.30
     Davidson diagonalization with overlap

---- Real-time Memory Report at c_bands before calling an iterative solver
          1054 MiB given to the printing process from OS
             0 MiB allocation reported by mallinfo(arena+hblkhd)
        832277 MiB available memory on the node where the printing process lives
     GPU memory used/free/total (MiB): 1666 / 79484 / 81151
------------------
     ethr =  5.88E-04,  avg # of iterations =  1.6

     total cpu time spent up to now is       22.2 secs

     total energy              =   -1489.32512151 Ry
     estimated scf accuracy    <       0.59478231 Ry

     total magnetization       =     2.13 Bohr mag/cell
     absolute magnetization    =     3.64 Bohr mag/cell
[tb_dev] Currently allocated     7.63E-05 Mbytes, locked:    0 /   2
[tb_pin] Currently allocated     0.00E+00 Mbytes, locked:    0 /   0

     iteration #  7     ecut=    60.00 Ry     beta= 0.30
     Davidson diagonalization with overlap

---- Real-time Memory Report at c_bands before calling an iterative solver
          1058 MiB given to the printing process from OS
             0 MiB allocation reported by mallinfo(arena+hblkhd)
        832158 MiB available memory on the node where the printing process lives
     GPU memory used/free/total (MiB): 1666 / 79484 / 81151
------------------
     ethr =  5.88E-04,  avg # of iterations =  1.4

     total cpu time spent up to now is       24.7 secs

     total energy              =   -1489.29058674 Ry
     estimated scf accuracy    <       0.60274341 Ry

     total magnetization       =     2.25 Bohr mag/cell
     absolute magnetization    =     2.48 Bohr mag/cell
[tb_dev] Currently allocated     7.63E-05 Mbytes, locked:    0 /   2
[tb_pin] Currently allocated     0.00E+00 Mbytes, locked:    0 /   0

     iteration #  8     ecut=    60.00 Ry     beta= 0.30
     Davidson diagonalization with overlap

---- Real-time Memory Report at c_bands before calling an iterative solver
          1071 MiB given to the printing process from OS
             0 MiB allocation reported by mallinfo(arena+hblkhd)
        832035 MiB available memory on the node where the printing process lives
     GPU memory used/free/total (MiB): 1666 / 79484 / 81151
------------------
     ethr =  5.88E-04,  avg # of iterations =  2.1

     total cpu time spent up to now is       27.2 secs

     total energy              =   -1489.29541803 Ry
     estimated scf accuracy    <       0.19217851 Ry

     total magnetization       =     2.02 Bohr mag/cell
     absolute magnetization    =     2.67 Bohr mag/cell
[tb_dev] Currently allocated     7.63E-05 Mbytes, locked:    0 /   2
[tb_pin] Currently allocated     0.00E+00 Mbytes, locked:    0 /   0

     iteration #  9     ecut=    60.00 Ry     beta= 0.30
     Davidson diagonalization with overlap

---- Real-time Memory Report at c_bands before calling an iterative solver
          1074 MiB given to the printing process from OS
             0 MiB allocation reported by mallinfo(arena+hblkhd)
        831930 MiB available memory on the node where the printing process lives
     GPU memory used/free/total (MiB): 1666 / 79484 / 81151
------------------
     c_bands:  2 eigenvalues not converged
     c_bands:  1 eigenvalues not converged
     ethr =  2.00E-04,  avg # of iterations =  8.7

     total cpu time spent up to now is       30.7 secs

     total energy              =   -1489.30862558 Ry
     estimated scf accuracy    <       0.01292067 Ry

     total magnetization       =     2.39 Bohr mag/cell
     absolute magnetization    =     2.46 Bohr mag/cell
[tb_dev] Currently allocated     7.63E-05 Mbytes, locked:    0 /   2
[tb_pin] Currently allocated     0.00E+00 Mbytes, locked:    0 /   0

     iteration # 10     ecut=    60.00 Ry     beta= 0.30
     Davidson diagonalization with overlap

---- Real-time Memory Report at c_bands before calling an iterative solver
          1079 MiB given to the printing process from OS
             0 MiB allocation reported by mallinfo(arena+hblkhd)
        831794 MiB available memory on the node where the printing process lives
     GPU memory used/free/total (MiB): 1666 / 79484 / 81151
------------------
     c_bands:  2 eigenvalues not converged
     c_bands:  1 eigenvalues not converged
     c_bands:  2 eigenvalues not converged
     c_bands:  3 eigenvalues not converged
     c_bands:  3 eigenvalues not converged
     c_bands:  1 eigenvalues not converged
     c_bands:  2 eigenvalues not converged
     c_bands:  1 eigenvalues not converged
     c_bands:  1 eigenvalues not converged
     c_bands:  1 eigenvalues not converged
     c_bands:  2 eigenvalues not converged
     c_bands:  2 eigenvalues not converged
     c_bands:  1 eigenvalues not converged
     ethr =  1.35E-05,  avg # of iterations = 15.1

     total cpu time spent up to now is       35.4 secs

     total energy              =   -1489.32094031 Ry
     estimated scf accuracy    <       0.02081062 Ry

     total magnetization       =     2.41 Bohr mag/cell
     absolute magnetization    =     2.43 Bohr mag/cell
[tb_dev] Currently allocated     7.63E-05 Mbytes, locked:    0 /   2
[tb_pin] Currently allocated     0.00E+00 Mbytes, locked:    0 /   0

     iteration # 11     ecut=    60.00 Ry     beta= 0.30
     Davidson diagonalization with overlap

---- Real-time Memory Report at c_bands before calling an iterative solver
          1079 MiB given to the printing process from OS
             0 MiB allocation reported by mallinfo(arena+hblkhd)
        831597 MiB available memory on the node where the printing process lives
     GPU memory used/free/total (MiB): 1666 / 79484 / 81151
------------------
     ethr =  1.35E-05,  avg # of iterations =  2.0

     total cpu time spent up to now is       38.0 secs

     total energy              =   -1489.32010062 Ry
     estimated scf accuracy    <       0.01588322 Ry

     total magnetization       =     2.43 Bohr mag/cell
     absolute magnetization    =     2.44 Bohr mag/cell
[tb_dev] Currently allocated     7.63E-05 Mbytes, locked:    0 /   2
[tb_pin] Currently allocated     0.00E+00 Mbytes, locked:    0 /   0

     iteration # 12     ecut=    60.00 Ry     beta= 0.30
     Davidson diagonalization with overlap

---- Real-time Memory Report at c_bands before calling an iterative solver
          1079 MiB given to the printing process from OS
             0 MiB allocation reported by mallinfo(arena+hblkhd)
        831475 MiB available memory on the node where the printing process lives
     GPU memory used/free/total (MiB): 1666 / 79484 / 81151
------------------
     ethr =  1.35E-05,  avg # of iterations =  1.7

     total cpu time spent up to now is       40.5 secs

     total energy              =   -1489.32125822 Ry
     estimated scf accuracy    <       0.00115044 Ry

     total magnetization       =     2.35 Bohr mag/cell
     absolute magnetization    =     2.37 Bohr mag/cell
[tb_dev] Currently allocated     7.63E-05 Mbytes, locked:    0 /   2
[tb_pin] Currently allocated     0.00E+00 Mbytes, locked:    0 /   0

     iteration # 13     ecut=    60.00 Ry     beta= 0.30
     Davidson diagonalization with overlap

---- Real-time Memory Report at c_bands before calling an iterative solver
          1079 MiB given to the printing process from OS
             0 MiB allocation reported by mallinfo(arena+hblkhd)
        831361 MiB available memory on the node where the printing process lives
     GPU memory used/free/total (MiB): 1666 / 79484 / 81151
------------------
     c_bands:  1 eigenvalues not converged
     c_bands:  1 eigenvalues not converged
     ethr =  1.20E-06,  avg # of iterations =  9.5

     total cpu time spent up to now is       44.3 secs

     total energy              =   -1489.32153729 Ry
     estimated scf accuracy    <       0.00045764 Ry

     total magnetization       =     2.32 Bohr mag/cell
     absolute magnetization    =     2.35 Bohr mag/cell
[tb_dev] Currently allocated     7.63E-05 Mbytes, locked:    0 /   2
[tb_pin] Currently allocated     0.00E+00 Mbytes, locked:    0 /   0

     iteration # 14     ecut=    60.00 Ry     beta= 0.30
     Davidson diagonalization with overlap

---- Real-time Memory Report at c_bands before calling an iterative solver
          1079 MiB given to the printing process from OS
             0 MiB allocation reported by mallinfo(arena+hblkhd)
        831240 MiB available memory on the node where the printing process lives
     GPU memory used/free/total (MiB): 1666 / 79484 / 81151
------------------
     ethr =  4.77E-07,  avg # of iterations =  3.7

     total cpu time spent up to now is       47.2 secs

     total energy              =   -1489.32167021 Ry
     estimated scf accuracy    <       0.00025289 Ry

     total magnetization       =     2.26 Bohr mag/cell
     absolute magnetization    =     2.30 Bohr mag/cell
[tb_dev] Currently allocated     7.63E-05 Mbytes, locked:    0 /   2
[tb_pin] Currently allocated     0.00E+00 Mbytes, locked:    0 /   0

     iteration # 15     ecut=    60.00 Ry     beta= 0.30
     Davidson diagonalization with overlap

---- Real-time Memory Report at c_bands before calling an iterative solver
          1079 MiB given to the printing process from OS
             0 MiB allocation reported by mallinfo(arena+hblkhd)
        831134 MiB available memory on the node where the printing process lives
     GPU memory used/free/total (MiB): 1666 / 79484 / 81151
------------------
     ethr =  2.63E-07,  avg # of iterations =  2.5

     total cpu time spent up to now is       49.8 secs

     total energy              =   -1489.32168790 Ry
     estimated scf accuracy    <       0.00003232 Ry

     total magnetization       =     2.29 Bohr mag/cell
     absolute magnetization    =     2.33 Bohr mag/cell
[tb_dev] Currently allocated     7.63E-05 Mbytes, locked:    0 /   2
[tb_pin] Currently allocated     0.00E+00 Mbytes, locked:    0 /   0

     iteration # 16     ecut=    60.00 Ry     beta= 0.30
     Davidson diagonalization with overlap

---- Real-time Memory Report at c_bands before calling an iterative solver
          1079 MiB given to the printing process from OS
             0 MiB allocation reported by mallinfo(arena+hblkhd)
        830989 MiB available memory on the node where the printing process lives
     GPU memory used/free/total (MiB): 1666 / 79484 / 81151
------------------
     ethr =  3.37E-08,  avg # of iterations =  7.9

     total cpu time spent up to now is       53.4 secs

     total energy              =   -1489.32170995 Ry
     estimated scf accuracy    <       0.00002449 Ry

     total magnetization       =     2.30 Bohr mag/cell
     absolute magnetization    =     2.34 Bohr mag/cell
[tb_dev] Currently allocated     7.63E-05 Mbytes, locked:    0 /   2
[tb_pin] Currently allocated     0.00E+00 Mbytes, locked:    0 /   0

     iteration # 17     ecut=    60.00 Ry     beta= 0.30
     Davidson diagonalization with overlap

---- Real-time Memory Report at c_bands before calling an iterative solver
          1079 MiB given to the printing process from OS
             0 MiB allocation reported by mallinfo(arena+hblkhd)
        830749 MiB available memory on the node where the printing process lives
     GPU memory used/free/total (MiB): 1666 / 79484 / 81151
------------------
     ethr =  2.55E-08,  avg # of iterations =  1.6

     total cpu time spent up to now is       55.9 secs

     total energy              =   -1489.32171234 Ry
     estimated scf accuracy    <       0.00000826 Ry

     total magnetization       =     2.29 Bohr mag/cell
     absolute magnetization    =     2.34 Bohr mag/cell
[tb_dev] Currently allocated     7.63E-05 Mbytes, locked:    0 /   2
[tb_pin] Currently allocated     0.00E+00 Mbytes, locked:    0 /   0

     iteration # 18     ecut=    60.00 Ry     beta= 0.30
     Davidson diagonalization with overlap

---- Real-time Memory Report at c_bands before calling an iterative solver
          1079 MiB given to the printing process from OS
             0 MiB allocation reported by mallinfo(arena+hblkhd)
        830607 MiB available memory on the node where the printing process lives
     GPU memory used/free/total (MiB): 1666 / 79484 / 81151
------------------
     ethr =  8.61E-09,  avg # of iterations =  2.8

     total cpu time spent up to now is       58.6 secs

     total energy              =   -1489.32171441 Ry
     estimated scf accuracy    <       0.00000079 Ry

     total magnetization       =     2.30 Bohr mag/cell
     absolute magnetization    =     2.34 Bohr mag/cell
[tb_dev] Currently allocated     7.63E-05 Mbytes, locked:    0 /   2
[tb_pin] Currently allocated     0.00E+00 Mbytes, locked:    0 /   0

     iteration # 19     ecut=    60.00 Ry     beta= 0.30
     Davidson diagonalization with overlap

---- Real-time Memory Report at c_bands before calling an iterative solver
          1079 MiB given to the printing process from OS
             0 MiB allocation reported by mallinfo(arena+hblkhd)
        831608 MiB available memory on the node where the printing process lives
     GPU memory used/free/total (MiB): 1666 / 79484 / 81151
------------------
     ethr =  8.27E-10,  avg # of iterations = 10.0

     total cpu time spent up to now is       62.7 secs

     total energy              =   -1489.32171545 Ry
     estimated scf accuracy    <       0.00000040 Ry

     total magnetization       =     2.30 Bohr mag/cell
     absolute magnetization    =     2.34 Bohr mag/cell
[tb_dev] Currently allocated     7.63E-05 Mbytes, locked:    0 /   2
[tb_pin] Currently allocated     0.00E+00 Mbytes, locked:    0 /   0

     iteration # 20     ecut=    60.00 Ry     beta= 0.30
     Davidson diagonalization with overlap

---- Real-time Memory Report at c_bands before calling an iterative solver
          1079 MiB given to the printing process from OS
             0 MiB allocation reported by mallinfo(arena+hblkhd)
        830667 MiB available memory on the node where the printing process lives
     GPU memory used/free/total (MiB): 1666 / 79484 / 81151
------------------
     ethr =  4.15E-10,  avg # of iterations =  1.9

     total cpu time spent up to now is       65.3 secs

     total energy              =   -1489.32171551 Ry
     estimated scf accuracy    <       0.00000019 Ry

     total magnetization       =     2.30 Bohr mag/cell
     absolute magnetization    =     2.34 Bohr mag/cell
[tb_dev] Currently allocated     7.63E-05 Mbytes, locked:    0 /   2
[tb_pin] Currently allocated     0.00E+00 Mbytes, locked:    0 /   0

     iteration # 21     ecut=    60.00 Ry     beta= 0.30
     Davidson diagonalization with overlap

---- Real-time Memory Report at c_bands before calling an iterative solver
          1079 MiB given to the printing process from OS
             0 MiB allocation reported by mallinfo(arena+hblkhd)
        829595 MiB available memory on the node where the printing process lives
     GPU memory used/free/total (MiB): 1666 / 79484 / 81151
------------------
     ethr =  1.93E-10,  avg # of iterations =  4.4
 
     Magnetic moment per site  (integrated on atomic sphere of radius R)
     atom   1 (R=0.159)  charge= 14.1065  magn=  0.5805
     atom   2 (R=0.159)  charge= 14.0951  magn=  0.5964
     atom   3 (R=0.159)  charge= 14.0951  magn=  0.5964
     atom   4 (R=0.159)  charge=  5.2162  magn=  0.0617
     atom   5 (R=0.159)  charge=  5.2162  magn=  0.0617
     atom   6 (R=0.159)  charge=  5.2162  magn=  0.0617
     atom   7 (R=0.159)  charge=  5.2385  magn=  0.0540
     atom   8 (R=0.159)  charge=  5.2385  magn=  0.0540
     atom   9 (R=0.159)  charge=  5.2385  magn=  0.0540
     atom  10 (R=0.214)  charge=  7.9821  magn=  0.0011

     total cpu time spent up to now is       68.3 secs

     End of self-consistent calculation

 ------ SPIN UP ------------


          k = 0.0000 0.0000 0.0000 (  7923 PWs)   bands (ev):

   -91.3831 -91.3792 -91.3382 -54.6215 -54.6215 -54.6144 -54.6081 -54.6078
   -54.6078 -54.5681 -54.5681 -54.5524 -47.3476 -19.2635 -19.2635 -19.2341
   -14.8666 -13.2475 -13.2475 -13.1306 -13.1306 -12.9624  -1.1792  -1.0020
    -1.0020  -0.8835  -0.8835  -0.6697  -0.6697  -0.5867  -0.4982   0.9931
     0.9931   1.1264   1.1264   1.3876   1.4826   2.4423   2.8046   2.8187
     2.8419   2.8419   3.0171   3.0171   3.8799   3.8799   3.9126   3.9126
     4.0282   5.9649   5.9649   6.0189   6.0189   6.7415   6.7415   7.6702
    12.5591  13.1963  14.3830  14.3830  15.0788  15.1610  15.1610  15.5404

     occupation numbers 
     1.0000   1.0000   1.0000   1.0000   1.0000   1.0000   1.0000   1.0000
     1.0000   1.0000   1.0000   1.0000   1.0000   1.0000   1.0000   1.0000
     1.0000   1.0000   1.0000   1.0000   1.0000   1.0000   1.0000   1.0000
     1.0000   1.0000   1.0000   1.0000   1.0000   1.0000   1.0000   1.0000
     1.0000   1.0000   1.0000   1.0000   1.0000   1.0000   1.0000   1.0000
     1.0000   1.0000   1.0000   1.0000   1.0182   1.0182   1.0254   1.0254
     1.0618   0.0000   0.0000   0.0000   0.0000   0.0000   0.0000   0.0000
     0.0000   0.0000   0.0000   0.0000   0.0000   0.0000   0.0000   0.0000

          k = 0.0000 0.0000 0.2417 (  7928 PWs)   bands (ev):

   -91.3831 -91.3792 -91.3382 -54.6213 -54.6213 -54.6145 -54.6082 -54.6077
   -54.6077 -54.5683 -54.5683 -54.5525 -47.3476 -19.2634 -19.2634 -19.2344
   -14.8649 -13.2474 -13.2474 -13.1306 -13.1306 -12.9651  -1.1402  -1.0032
    -1.0032  -0.8852  -0.8852  -0.6698  -0.6698  -0.5821  -0.4962   0.9949
     0.9949   1.1285   1.1285   1.3767   1.4789   2.2988   2.8049   2.8195
     2.8418   2.8418   3.0168   3.0168   3.8782   3.8782   3.9108   3.9108
     4.0753   5.9733   5.9733   6.0280   6.0280   6.7415   6.7415   8.0417
    11.3127  14.1626  14.3144  14.3144  14.9659  15.1102  15.1102  15.4390

     occupation numbers 
     1.0000   1.0000   1.0000   1.0000   1.0000   1.0000   1.0000   1.0000
     1.0000   1.0000   1.0000   1.0000   1.0000   1.0000   1.0000   1.0000
     1.0000   1.0000   1.0000   1.0000   1.0000   1.0000   1.0000   1.0000
     1.0000   1.0000   1.0000   1.0000   1.0000   1.0000   1.0000   1.0000
     1.0000   1.0000   1.0000   1.0000   1.0000   1.0000   1.0000   1.0000
     1.0000   1.0000   1.0000   1.0000   1.0178   1.0178   1.0250   1.0250
     1.0761   0.0000   0.0000   0.0000   0.0000   0.0000   0.0000   0.0000
     0.0000   0.0000   0.0000   0.0000   0.0000   0.0000   0.0000   0.0000

          k = 0.0000 0.1925 0.0000 (  7914 PWs)   bands (ev):

   -91.3828 -91.3794 -91.3383 -54.6252 -54.6230 -54.6140 -54.6085 -54.6032
   -54.6027 -54.5717 -54.5689 -54.5525 -47.3475 -19.2637 -19.2635 -19.2340
   -14.7637 -13.3541 -13.2847 -13.1465 -13.1041 -12.9649  -1.3839  -1.1401
    -1.0397  -0.9481  -0.8214  -0.7746  -0.6029  -0.1684   0.0233   0.7294
     0.7855   0.9327   1.0229   1.7390   1.8157   2.1698   2.2741   2.6858
     2.8913   2.9599   3.2394   3.4432   3.6400   3.6536   3.9886   4.0569
     4.0783   5.9658   6.0240   6.0382   6.0959   6.4665   6.6649   7.9416
    12.6937  12.9670  13.5442  13.7839  14.2592  15.7190  16.1339  16.5482

     occupation numbers 
     1.0000   1.0000   1.0000   1.0000   1.0000   1.0000   1.0000   1.0000
     1.0000   1.0000   1.0000   1.0000   1.0000   1.0000   1.0000   1.0000
     1.0000   1.0000   1.0000   1.0000   1.0000   1.0000   1.0000   1.0000
     1.0000   1.0000   1.0000   1.0000   1.0000   1.0000   1.0000   1.0000
     1.0000   1.0000   1.0000   1.0000   1.0000   1.0000   1.0000   1.0000
     1.0000   1.0000   1.0000   1.0000   1.0006   1.0007   1.0482   1.0710
     1.0768   0.0000   0.0000   0.0000   0.0000   0.0000   0.0000   0.0000
     0.0000   0.0000   0.0000   0.0000   0.0000   0.0000   0.0000   0.0000

          k = 0.0000 0.1925 0.2417 (  7936 PWs)   bands (ev):

   -91.3828 -91.3794 -91.3383 -54.6252 -54.6230 -54.6141 -54.6086 -54.6032
   -54.6028 -54.5717 -54.5690 -54.5526 -47.3476 -19.2637 -19.2635 -19.2343
   -14.7621 -13.3541 -13.2848 -13.1465 -13.1042 -12.9674  -1.3838  -1.1366
    -1.0085  -0.9512  -0.8235  -0.7786  -0.6028  -0.1663   0.0249   0.7269
     0.7835   0.9377   1.0246   1.7404   1.8144   2.1707   2.2588   2.5779
     2.8913   2.9601   3.2393   3.4400   3.6408   3.6544   3.9846   4.0518
     4.1282   5.9773   6.0294   6.0419   6.1031   6.4455   6.6687   8.2758
    11.6592  12.7669  13.7130  14.1184  14.5583  15.7824  16.0816  16.5889

     occupation numbers 
     1.0000   1.0000   1.0000   1.0000   1.0000   1.0000   1.0000   1.0000
     1.0000   1.0000   1.0000   1.0000   1.0000   1.0000   1.0000   1.0000
     1.0000   1.0000   1.0000   1.0000   1.0000   1.0000   1.0000   1.0000
     1.0000   1.0000   1.0000   1.0000   1.0000   1.0000   1.0000   1.0000
     1.0000   1.0000   1.0000   1.0000   1.0000   1.0000   1.0000   1.0000
     1.0000   1.0000   1.0000   1.0000   1.0006   1.0007   1.0468   1.0695
     1.0833   0.0000   0.0000   0.0000   0.0000   0.0000   0.0000   0.0000
     0.0000   0.0000   0.0000   0.0000   0.0000   0.0000   0.0000   0.0000

          k = 0.0000 0.3849 0.0000 (  7930 PWs)   bands (ev):

   -91.3822 -91.3800 -91.3383 -54.6300 -54.6204 -54.6131 -54.6094 -54.6002
   -54.5967 -54.5768 -54.5707 -54.5527 -47.3476 -19.2640 -19.2637 -19.2340
   -14.4775 -13.6609 -13.3295 -13.1921 -13.0486 -12.9761  -1.7950  -1.0375
    -0.9595  -0.9223  -0.7124  -0.5660  -0.4426   0.0426   0.2840   0.5654
     0.6557   0.7675   1.1629   1.1879   1.6529   2.0187   2.3893   2.9853
     2.9911   3.3112   3.3778   3.3869   3.4209   3.8043   3.8429   4.0656
     4.1115   5.9609   5.9950   6.0077   6.0457   6.4149   6.4342   8.6574
    11.1531  13.1867  13.3165  13.7429  14.4542  15.0675  16.0452  16.4862

     occupation numbers 
     1.0000   1.0000   1.0000   1.0000   1.0000   1.0000   1.0000   1.0000
     1.0000   1.0000   1.0000   1.0000   1.0000   1.0000   1.0000   1.0000
     1.0000   1.0000   1.0000   1.0000   1.0000   1.0000   1.0000   1.0000
     1.0000   1.0000   1.0000   1.0000   1.0000   1.0000   1.0000   1.0000
     1.0000   1.0000   1.0000   1.0000   1.0000   1.0000   1.0000   1.0000
     1.0000   1.0000   1.0000   1.0000   1.0000   1.0074   1.0119   1.0735
     1.0826   0.0000   0.0000   0.0000   0.0000   0.0000   0.0000   0.0000
     0.0000   0.0000   0.0000   0.0000   0.0000   0.0000   0.0000   0.0000

          k = 0.0000 0.3849 0.2417 (  7917 PWs)   bands (ev):

   -91.3822 -91.3800 -91.3383 -54.6301 -54.6205 -54.6130 -54.6094 -54.6001
   -54.5966 -54.5767 -54.5707 -54.5527 -47.3475 -19.2640 -19.2636 -19.2340
   -14.4762 -13.6605 -13.3296 -13.1920 -13.0490 -12.9778  -1.7955  -1.0459
    -0.9677  -0.9243  -0.6852  -0.5694  -0.4424   0.0434   0.2810   0.5817
     0.6591   0.7663   1.1645   1.1931   1.6524   2.0293   2.3885   2.9207
     2.9857   3.3110   3.3801   3.3879   3.4230   3.7921   3.8393   4.0997
     4.1043   5.9208   5.9808   6.0115   6.0566   6.4181   6.4522   8.8764
    11.1191  12.5561  13.1528  13.5045  15.0186  15.4382  16.1427  16.8182

     occupation numbers 
     1.0000   1.0000   1.0000   1.0000   1.0000   1.0000   1.0000   1.0000
     1.0000   1.0000   1.0000   1.0000   1.0000   1.0000   1.0000   1.0000
     1.0000   1.0000   1.0000   1.0000   1.0000   1.0000   1.0000   1.0000
     1.0000   1.0000   1.0000   1.0000   1.0000   1.0000   1.0000   1.0000
     1.0000   1.0000   1.0000   1.0000   1.0000   1.0000   1.0000   1.0000
     1.0000   1.0000   1.0000   1.0000   1.0000   1.0063   1.0114   1.0811
     1.0817   0.0000   0.0000   0.0000   0.0000   0.0000   0.0000   0.0000
     0.0000   0.0000   0.0000   0.0000   0.0000   0.0000   0.0000   0.0000

          k = 0.0000-0.5774 0.0000 (  7928 PWs)   bands (ev):

   -91.3817 -91.3804 -91.3384 -54.6320 -54.6147 -54.6122 -54.6101 -54.6054
   -54.5938 -54.5772 -54.5718 -54.5527 -47.3475 -19.2641 -19.2638 -19.2338
   -14.0810 -14.0686 -13.3479 -13.2149 -13.0043 -13.0018  -1.9458  -1.0781
    -1.0128  -0.5500  -0.5453  -0.2963  -0.2167  -0.1876  -0.0319   0.4473
     0.5538   0.6951   1.0892   1.0968   1.5455   2.1128   2.8821   2.9163
     2.9903   3.2619   3.3335   3.3397   3.6976   3.8267   3.8276   4.0206
     4.0290   5.8150   5.8710   6.0190   6.1610   6.1810   6.6170   9.5113
     9.9764  12.9750  13.3682  14.0092  14.3792  15.5290  15.7408  15.7575

     occupation numbers 
     1.0000   1.0000   1.0000   1.0000   1.0000   1.0000   1.0000   1.0000
     1.0000   1.0000   1.0000   1.0000   1.0000   1.0000   1.0000   1.0000
     1.0000   1.0000   1.0000   1.0000   1.0000   1.0000   1.0000   1.0000
     1.0000   1.0000   1.0000   1.0000   1.0000   1.0000   1.0000   1.0000
     1.0000   1.0000   1.0000   1.0000   1.0000   1.0000   1.0000   1.0000
     1.0000   1.0000   1.0000   1.0000   1.0015   1.0098   1.0099   1.0592
     1.0620   0.0000   0.0000   0.0000   0.0000   0.0000   0.0000   0.0000
     0.0000   0.0000   0.0000   0.0000   0.0000   0.0000   0.0000   0.0000

          k = 0.0000-0.5774 0.2417 (  7914 PWs)   bands (ev):

   -91.3817 -91.3804 -91.3384 -54.6319 -54.6148 -54.6122 -54.6101 -54.6055
   -54.5937 -54.5772 -54.5717 -54.5527 -47.3475 -19.2642 -19.2636 -19.2339
   -14.0795 -14.0685 -13.3479 -13.2148 -13.0060 -13.0020  -1.9464  -1.0927
    -1.0215  -0.5474  -0.5436  -0.3028  -0.2104  -0.1760  -0.0318   0.4671
     0.5668   0.6987   1.0883   1.0966   1.5457   2.1277   2.8692   2.8985
     2.9889   3.2620   3.3343   3.3409   3.6952   3.8394   3.8438   3.9991
     4.0139   5.7635   5.8346   6.0212   6.1836   6.2088   6.6166   9.5974
    10.0567  12.9358  13.1900  13.6772  13.9192  15.7338  16.2817  16.5648

     occupation numbers 
     1.0000   1.0000   1.0000   1.0000   1.0000   1.0000   1.0000   1.0000
     1.0000   1.0000   1.0000   1.0000   1.0000   1.0000   1.0000   1.0000
     1.0000   1.0000   1.0000   1.0000   1.0000   1.0000   1.0000   1.0000
     1.0000   1.0000   1.0000   1.0000   1.0000   1.0000   1.0000   1.0000
     1.0000   1.0000   1.0000   1.0000   1.0000   1.0000   1.0000   1.0000
     1.0000   1.0000   1.0000   1.0000   1.0015   1.0114   1.0121   1.0518
     1.0569   0.0000   0.0000   0.0000   0.0000   0.0000   0.0000   0.0000
     0.0000   0.0000   0.0000   0.0000   0.0000   0.0000   0.0000   0.0000

          k = 0.1667 0.2887 0.0000 (  7899 PWs)   bands (ev):

   -91.3824 -91.3798 -91.3383 -54.6268 -54.6241 -54.6133 -54.6090 -54.6000
   -54.5979 -54.5758 -54.5700 -54.5526 -47.3475 -19.2638 -19.2635 -19.2339
   -14.5692 -13.4652 -13.4605 -13.1009 -13.1004 -12.9721  -1.4589  -1.4576
    -0.9547  -0.8008  -0.7686  -0.7230  -0.4765   0.1538   0.1956   0.6705
     0.7080   0.8583   0.9045   1.3335   1.9808   2.0825   2.0862   2.8614
     3.1090   3.1286   3.3513   3.4597   3.4610   3.6763   4.0027   4.0061
     4.0921   5.9447   5.9878   6.0260   6.2078   6.2270   6.5917   8.4245
    11.9392  12.2691  13.2267  14.1674  15.1594  15.2600  15.9247  16.0794

     occupation numbers 
     1.0000   1.0000   1.0000   1.0000   1.0000   1.0000   1.0000   1.0000
     1.0000   1.0000   1.0000   1.0000   1.0000   1.0000   1.0000   1.0000
     1.0000   1.0000   1.0000   1.0000   1.0000   1.0000   1.0000   1.0000
     1.0000   1.0000   1.0000   1.0000   1.0000   1.0000   1.0000   1.0000
     1.0000   1.0000   1.0000   1.0000   1.0000   1.0000   1.0000   1.0000
     1.0000   1.0000   1.0000   1.0000   1.0000   1.0011   1.0530   1.0542
     1.0798   0.0000   0.0000   0.0000   0.0000   0.0000   0.0000   0.0000
     0.0000   0.0000   0.0000   0.0000   0.0000   0.0000   0.0000   0.0000

          k = 0.1667 0.2887 0.2417 (  7926 PWs)   bands (ev):

   -91.3824 -91.3798 -91.3383 -54.6268 -54.6241 -54.6133 -54.6092 -54.6000
   -54.5980 -54.5758 -54.5700 -54.5527 -47.3476 -19.2639 -19.2637 -19.2341
   -14.5678 -13.4650 -13.4603 -13.1011 -13.1007 -12.9740  -1.4590  -1.4588
    -0.9649  -0.7748  -0.7685  -0.7264  -0.4765   0.1509   0.1940   0.6809
     0.7146   0.8571   0.9051   1.3387   1.9808   2.0876   2.0918   2.7870
     3.1088   3.1284   3.3300   3.4608   3.4621   3.6763   3.9979   4.0020
     4.1401   5.9314   5.9808   5.9827   6.2157   6.2343   6.5917   8.7236
    11.8825  12.2458  12.2919  15.0626  15.1039  15.3479  15.6865  15.8177

     occupation numbers 
     1.0000   1.0000   1.0000   1.0000   1.0000   1.0000   1.0000   1.0000
     1.0000   1.0000   1.0000   1.0000   1.0000   1.0000   1.0000   1.0000
     1.0000   1.0000   1.0000   1.0000   1.0000   1.0000   1.0000   1.0000
     1.0000   1.0000   1.0000   1.0000   1.0000   1.0000   1.0000   1.0000
     1.0000   1.0000   1.0000   1.0000   1.0000   1.0000   1.0000   1.0000
     1.0000   1.0000   1.0000   1.0000   1.0000   1.0011   1.0513   1.0528
     1.0827   0.0000   0.0000   0.0000   0.0000   0.0000   0.0000   0.0000
     0.0000   0.0000   0.0000   0.0000   0.0000   0.0000   0.0000   0.0000

          k = 0.1667 0.4811 0.0000 (  7898 PWs)   bands (ev):

   -91.3817 -91.3804 -91.3384 -54.6285 -54.6190 -54.6122 -54.6101 -54.6057
   -54.5938 -54.5761 -54.5715 -54.5527 -47.3475 -19.2641 -19.2637 -19.2338
   -14.2252 -13.8184 -13.5346 -13.1127 -13.0357 -12.9930  -1.7248  -1.2424
    -1.0860  -0.6451  -0.4979  -0.4786  -0.2908  -0.0254   0.0228   0.4112
     0.5228   0.6590   1.1247   1.3798   1.5356   2.1996   2.5756   2.9160
     3.1548   3.3502   3.3701   3.3982   3.5630   3.7839   3.8085   3.9829
     3.9869   5.6965   5.8049   5.9370   6.3243   6.4604   6.5357   9.2673
    10.5618  11.7197  13.7492  14.6157  14.9579  15.1798  15.4511  16.2489

     occupation numbers 
     1.0000   1.0000   1.0000   1.0000   1.0000   1.0000   1.0000   1.0000
     1.0000   1.0000   1.0000   1.0000   1.0000   1.0000   1.0000   1.0000
     1.0000   1.0000   1.0000   1.0000   1.0000   1.0000   1.0000   1.0000
     1.0000   1.0000   1.0000   1.0000   1.0000   1.0000   1.0000   1.0000
     1.0000   1.0000   1.0000   1.0000   1.0000   1.0000   1.0000   1.0000
     1.0000   1.0000   1.0000   1.0000   1.0001   1.0056   1.0078   1.0463
     1.0476   0.0000   0.0000   0.0000   0.0000   0.0000   0.0000   0.0000
     0.0000   0.0000   0.0000   0.0000   0.0000   0.0000   0.0000   0.0000

          k = 0.1667 0.4811 0.2417 (  7912 PWs)   bands (ev):

   -91.3817 -91.3804 -91.3384 -54.6285 -54.6190 -54.6122 -54.6101 -54.6057
   -54.5939 -54.5761 -54.5716 -54.5527 -47.3475 -19.2641 -19.2637 -19.2339
   -14.2241 -13.8178 -13.5343 -13.1130 -13.0364 -12.9942  -1.7258  -1.2490
    -1.0985  -0.6489  -0.4902  -0.4766  -0.2882  -0.0241   0.0216   0.4304
     0.5336   0.6672   1.1250   1.3800   1.5358   2.2121   2.5776   2.8976
     3.1536   3.3499   3.3701   3.3840   3.5663   3.7830   3.8019   3.9801
     4.0132   5.6305   5.7684   5.9195   6.3339   6.4665   6.5368   9.4636
    10.6352  11.7609  13.1626  14.3085  14.7933  15.1305  16.0449  16.7396

     occupation numbers 
     1.0000   1.0000   1.0000   1.0000   1.0000   1.0000   1.0000   1.0000
     1.0000   1.0000   1.0000   1.0000   1.0000   1.0000   1.0000   1.0000
     1.0000   1.0000   1.0000   1.0000   1.0000   1.0000   1.0000   1.0000
     1.0000   1.0000   1.0000   1.0000   1.0000   1.0000   1.0000   1.0000
     1.0000   1.0000   1.0000   1.0000   1.0000   1.0000   1.0000   1.0000
     1.0000   1.0000   1.0000   1.0000   1.0001   1.0055   1.0071   1.0453
     1.0567   0.0000   0.0000   0.0000   0.0000   0.0000   0.0000   0.0000
     0.0000   0.0000   0.0000   0.0000   0.0000   0.0000   0.0000   0.0000

          k = 0.3333 0.5774 0.0000 (  7920 PWs)   bands (ev):

   -91.3810 -91.3810 -91.3384 -54.6243 -54.6158 -54.6158 -54.6110 -54.6110
   -54.5929 -54.5733 -54.5733 -54.5528 -47.3475 -19.2640 -19.2640 -19.2338
   -13.8883 -13.8730 -13.8730 -13.0359 -13.0338 -13.0338  -1.3663  -1.3416
    -1.3416  -0.5249  -0.4753  -0.4753  -0.1309  -0.1309  -0.1136   0.2872
     0.4129   0.4129   1.4760   1.4760   1.4958   2.5630   2.5630   2.6179
     3.3480   3.3480   3.3547   3.6077   3.6077   3.6102   3.8361   3.8391
     3.8391   5.6809   5.7431   5.7431   6.5409   6.5435   6.5435   9.9202
    10.5286  10.5286  13.9951  14.6390  14.6390  15.8610  15.9952  15.9952

     occupation numbers 
     1.0000   1.0000   1.0000   1.0000   1.0000   1.0000   1.0000   1.0000
     1.0000   1.0000   1.0000   1.0000   1.0000   1.0000   1.0000   1.0000
     1.0000   1.0000   1.0000   1.0000   1.0000   1.0000   1.0000   1.0000
     1.0000   1.0000   1.0000   1.0000   1.0000   1.0000   1.0000   1.0000
     1.0000   1.0000   1.0000   1.0000   1.0000   1.0000   1.0000   1.0000
     1.0000   1.0000   1.0000   1.0003   1.0003   1.0003   1.0110   1.0114
     1.0114   0.0000   0.0000   0.0000   0.0000   0.0000   0.0000   0.0000
     0.0000   0.0000   0.0000   0.0000   0.0000   0.0000   0.0000   0.0000

          k = 0.3333 0.5774 0.2417 (  7899 PWs)   bands (ev):

   -91.3810 -91.3810 -91.3384 -54.6243 -54.6158 -54.6158 -54.6110 -54.6110
   -54.5928 -54.5732 -54.5732 -54.5527 -47.3475 -19.2639 -19.2639 -19.2338
   -13.8867 -13.8728 -13.8728 -13.0376 -13.0341 -13.0341  -1.3747  -1.3466
    -1.3466  -0.5309  -0.4778  -0.4778  -0.1309  -0.1309  -0.1137   0.3151
     0.4283   0.4283   1.4759   1.4759   1.4960   2.5667   2.5667   2.6216
     3.3433   3.3433   3.3482   3.6077   3.6077   3.6104   3.8472   3.8474
     3.8474   5.6172   5.7006   5.7006   6.5405   6.5434   6.5434  10.0601
    10.6511  10.6511  13.6767  14.2133  14.2133  16.3545  16.3545  16.4441

     occupation numbers 
     1.0000   1.0000   1.0000   1.0000   1.0000   1.0000   1.0000   1.0000
     1.0000   1.0000   1.0000   1.0000   1.0000   1.0000   1.0000   1.0000
     1.0000   1.0000   1.0000   1.0000   1.0000   1.0000   1.0000   1.0000
     1.0000   1.0000   1.0000   1.0000   1.0000   1.0000   1.0000   1.0000
     1.0000   1.0000   1.0000   1.0000   1.0000   1.0000   1.0000   1.0000
     1.0000   1.0000   1.0000   1.0003   1.0003   1.0003   1.0125   1.0126
     1.0126   0.0000   0.0000   0.0000   0.0000   0.0000   0.0000   0.0000
     0.0000   0.0000   0.0000   0.0000   0.0000   0.0000   0.0000   0.0000

          k =-0.1667-0.2887 0.2417 (  7926 PWs)   bands (ev):

   -91.3824 -91.3798 -91.3383 -54.6268 -54.6241 -54.6133 -54.6092 -54.6000
   -54.5980 -54.5758 -54.5700 -54.5527 -47.3476 -19.2639 -19.2636 -19.2341
   -14.5678 -13.4650 -13.4605 -13.1009 -13.1006 -12.9740  -1.4609  -1.4593
    -0.9570  -0.7783  -0.7711  -0.7259  -0.4764   0.1536   0.1950   0.6760
     0.7118   0.8615   0.9087   1.3365   1.9807   2.0834   2.0875   2.7877
     3.1098   3.1295   3.3324   3.4612   3.4624   3.6762   3.9949   3.9988
     4.1293   5.9578   5.9971   6.0196   6.2103   6.2265   6.5919   8.6421
    11.7966  12.1672  12.3644  15.0851  15.1565  15.4158  15.9607  16.0830

     occupation numbers 
     1.0000   1.0000   1.0000   1.0000   1.0000   1.0000   1.0000   1.0000
     1.0000   1.0000   1.0000   1.0000   1.0000   1.0000   1.0000   1.0000
     1.0000   1.0000   1.0000   1.0000   1.0000   1.0000   1.0000   1.0000
     1.0000   1.0000   1.0000   1.0000   1.0000   1.0000   1.0000   1.0000
     1.0000   1.0000   1.0000   1.0000   1.0000   1.0000   1.0000   1.0000
     1.0000   1.0000   1.0000   1.0000   1.0000   1.0011   1.0503   1.0517
     1.0833   0.0000   0.0000   0.0000   0.0000   0.0000   0.0000   0.0000
     0.0000   0.0000   0.0000   0.0000   0.0000   0.0000   0.0000   0.0000

          k =-0.1667-0.4811 0.2417 (  7912 PWs)   bands (ev):

   -91.3817 -91.3804 -91.3384 -54.6285 -54.6190 -54.6122 -54.6101 -54.6057
   -54.5939 -54.5761 -54.5716 -54.5527 -47.3475 -19.2641 -19.2637 -19.2339
   -14.2242 -13.8179 -13.5345 -13.1128 -13.0362 -12.9942  -1.7269  -1.2496
    -1.0946  -0.6490  -0.4924  -0.4792  -0.2889  -0.0262   0.0218   0.4365
     0.5370   0.6707   1.1239   1.3798   1.5356   2.2031   2.5699   2.8896
     3.1565   3.3522   3.3703   3.3892   3.5674   3.7779   3.8071   3.9687
     3.9901   5.6937   5.8103   5.9446   6.3252   6.4627   6.5358   9.3398
    10.5211  11.5935  13.3581  14.5707  14.9558  15.5418  15.9271  16.4755

     occupation numbers 
     1.0000   1.0000   1.0000   1.0000   1.0000   1.0000   1.0000   1.0000
     1.0000   1.0000   1.0000   1.0000   1.0000   1.0000   1.0000   1.0000
     1.0000   1.0000   1.0000   1.0000   1.0000   1.0000   1.0000   1.0000
     1.0000   1.0000   1.0000   1.0000   1.0000   1.0000   1.0000   1.0000
     1.0000   1.0000   1.0000   1.0000   1.0000   1.0000   1.0000   1.0000
     1.0000   1.0000   1.0000   1.0000   1.0001   1.0051   1.0076   1.0415
     1.0487   0.0000   0.0000   0.0000   0.0000   0.0000   0.0000   0.0000
     0.0000   0.0000   0.0000   0.0000   0.0000   0.0000   0.0000   0.0000

          k =-0.3333-0.5774 0.2417 (  7899 PWs)   bands (ev):

   -91.3810 -91.3810 -91.3384 -54.6243 -54.6158 -54.6158 -54.6110 -54.6110
   -54.5928 -54.5732 -54.5732 -54.5527 -47.3475 -19.2639 -19.2639 -19.2338
   -13.8868 -13.8729 -13.8729 -13.0374 -13.0339 -13.0339  -1.3762  -1.3457
    -1.3457  -0.5325  -0.4806  -0.4806  -0.1308  -0.1308  -0.1136   0.3220
     0.4328   0.4328   1.4759   1.4759   1.4958   2.5566   2.5566   2.6093
     3.3482   3.3482   3.3544   3.6077   3.6077   3.6103   3.8252   3.8322
     3.8322   5.6896   5.7492   5.7492   6.5408   6.5436   6.5436   9.8577
    10.4895  10.4895  14.1110  14.5446  14.5446  15.9980  16.2778  16.2778

     occupation numbers 
     1.0000   1.0000   1.0000   1.0000   1.0000   1.0000   1.0000   1.0000
     1.0000   1.0000   1.0000   1.0000   1.0000   1.0000   1.0000   1.0000
     1.0000   1.0000   1.0000   1.0000   1.0000   1.0000   1.0000   1.0000
     1.0000   1.0000   1.0000   1.0000   1.0000   1.0000   1.0000   1.0000
     1.0000   1.0000   1.0000   1.0000   1.0000   1.0000   1.0000   1.0000
     1.0000   1.0000   1.0000   1.0003   1.0003   1.0003   1.0096   1.0105
     1.0105   0.0000   0.0000   0.0000   0.0000   0.0000   0.0000   0.0000
     0.0000   0.0000   0.0000   0.0000   0.0000   0.0000   0.0000   0.0000

 ------ SPIN DOWN ----------


          k = 0.0000 0.0000 0.0000 (  7923 PWs)   bands (ev):

   -90.6527 -90.6485 -90.6285 -53.9696 -53.9696 -53.9602 -53.9602 -53.9222
   -53.9222 -53.7847 -53.7776 -53.7597 -47.3467 -19.2622 -19.2622 -19.2334
   -14.7717 -13.1493 -13.1493 -13.0198 -13.0198 -12.8594  -0.8793  -0.8568
    -0.8568  -0.7355  -0.7355  -0.4899  -0.4446  -0.4446  -0.4097   1.2384
     1.2384   1.4081   1.4081   1.4570   1.5535   2.6048   3.0849   3.0849
     3.4323   3.4323   3.8035   3.8405   4.4665   4.4665   4.5017   4.5017
     4.8823   6.2819   6.2819   6.3277   6.3277   7.0509   7.0509   7.6874
    12.6356  13.3083  14.3913  14.3913  15.1005  15.1612  15.1612  15.5315

     occupation numbers 
     1.0000   1.0000   1.0000   1.0000   1.0000   1.0000   1.0000   1.0000
     1.0000   1.0000   1.0000   1.0000   1.0000   1.0000   1.0000   1.0000
     1.0000   1.0000   1.0000   1.0000   1.0000   1.0000   1.0000   1.0000
     1.0000   1.0000   1.0000   1.0000   1.0000   1.0000   1.0000   1.0000
     1.0000   1.0000   1.0000   1.0000   1.0000   1.0000   1.0000   1.0000
     1.0000   1.0000   1.0073   1.0116   0.5205   0.5205   0.4267   0.4267
     0.0073   0.0000   0.0000   0.0000   0.0000   0.0000   0.0000   0.0000
     0.0000   0.0000   0.0000   0.0000   0.0000   0.0000   0.0000   0.0000

          k = 0.0000 0.0000 0.2417 (  7928 PWs)   bands (ev):

   -90.6527 -90.6485 -90.6285 -53.9694 -53.9694 -53.9601 -53.9601 -53.9224
   -53.9224 -53.7849 -53.7776 -53.7597 -47.3467 -19.2622 -19.2622 -19.2337
   -14.7699 -13.1493 -13.1493 -13.0198 -13.0198 -12.8621  -0.8579  -0.8579
    -0.8349  -0.7373  -0.7373  -0.4848  -0.4446  -0.4446  -0.4077   1.2404
     1.2404   1.4102   1.4102   1.4461   1.5498   2.4519   3.0846   3.0846
     3.4323   3.4323   3.8048   3.8411   4.4649   4.4649   4.5000   4.5000
     4.9342   6.2908   6.2908   6.3372   6.3372   7.0509   7.0509   8.0614
    11.3907  14.2539  14.3203  14.3203  14.9815  15.1079  15.1079  15.4240

     occupation numbers 
     1.0000   1.0000   1.0000   1.0000   1.0000   1.0000   1.0000   1.0000
     1.0000   1.0000   1.0000   1.0000   1.0000   1.0000   1.0000   1.0000
     1.0000   1.0000   1.0000   1.0000   1.0000   1.0000   1.0000   1.0000
     1.0000   1.0000   1.0000   1.0000   1.0000   1.0000   1.0000   1.0000
     1.0000   1.0000   1.0000   1.0000   1.0000   1.0000   1.0000   1.0000
     1.0000   1.0000   1.0074   1.0117   0.5250   0.5250   0.4313   0.4313
     0.0031   0.0000   0.0000   0.0000   0.0000   0.0000   0.0000   0.0000
     0.0000   0.0000   0.0000   0.0000   0.0000   0.0000   0.0000   0.0000

          k = 0.0000 0.1925 0.0000 (  7914 PWs)   bands (ev):

   -90.6524 -90.6487 -90.6285 -53.9747 -53.9724 -53.9538 -53.9528 -53.9268
   -53.9233 -53.7843 -53.7779 -53.7598 -47.3467 -19.2624 -19.2622 -19.2333
   -14.6685 -13.2543 -13.1865 -13.0362 -12.9956 -12.8615  -1.2455  -1.0046
    -0.7910  -0.7434  -0.6821  -0.5559  -0.3824  -0.0591   0.1416   0.9050
     0.9730   1.2050   1.2931   1.8991   1.9782   2.3848   2.5389   2.8548
     3.7283   3.8330   3.8704   3.9328   4.2569   4.2695   4.5461   4.6083
     4.9031   6.2806   6.3527   6.3589   6.3967   6.7791   6.9682   7.9589
    12.7323  13.0066  13.6554  13.7912  14.2567  15.7267  16.1666  16.5963

     occupation numbers 
     1.0000   1.0000   1.0000   1.0000   1.0000   1.0000   1.0000   1.0000
     1.0000   1.0000   1.0000   1.0000   1.0000   1.0000   1.0000   1.0000
     1.0000   1.0000   1.0000   1.0000   1.0000   1.0000   1.0000   1.0000
     1.0000   1.0000   1.0000   1.0000   1.0000   1.0000   1.0000   1.0000
     1.0000   1.0000   1.0000   1.0000   1.0000   1.0000   1.0000   1.0000
     1.0025   1.0106   1.0164   1.0307   1.0060   0.9882   0.3190   0.1962
     0.0052   0.0000   0.0000   0.0000   0.0000   0.0000   0.0000   0.0000
     0.0000   0.0000   0.0000   0.0000   0.0000   0.0000   0.0000   0.0000

          k = 0.0000 0.1925 0.2417 (  7936 PWs)   bands (ev):

   -90.6524 -90.6487 -90.6285 -53.9748 -53.9724 -53.9538 -53.9528 -53.9268
   -53.9234 -53.7843 -53.7780 -53.7599 -47.3467 -19.2624 -19.2622 -19.2336
   -14.6668 -13.2542 -13.1866 -13.0361 -12.9956 -12.8639  -1.2454  -1.0036
    -0.7944  -0.7061  -0.6839  -0.5587  -0.3823  -0.0572   0.1430   0.9016
     0.9699   1.2113   1.2950   1.9020   1.9772   2.3869   2.5080   2.7564
     3.7286   3.8282   3.8708   3.9330   4.2577   4.2702   4.5423   4.6031
     4.9556   6.2936   6.3557   6.3645   6.4039   6.7506   6.9733   8.3026
    11.7330  12.7697  13.7183  14.1126  14.6524  15.7925  16.1054  16.6607

     occupation numbers 
     1.0000   1.0000   1.0000   1.0000   1.0000   1.0000   1.0000   1.0000
     1.0000   1.0000   1.0000   1.0000   1.0000   1.0000   1.0000   1.0000
     1.0000   1.0000   1.0000   1.0000   1.0000   1.0000   1.0000   1.0000
     1.0000   1.0000   1.0000   1.0000   1.0000   1.0000   1.0000   1.0000
     1.0000   1.0000   1.0000   1.0000   1.0000   1.0000   1.0000   1.0000
     1.0025   1.0100   1.0164   1.0308   1.0049   0.9873   0.3276   0.2050
     0.0022   0.0000   0.0000   0.0000   0.0000   0.0000   0.0000   0.0000
     0.0000   0.0000   0.0000   0.0000   0.0000   0.0000   0.0000   0.0000

          k = 0.0000 0.3849 0.0000 (  7930 PWs)   bands (ev):

   -90.6516 -90.6493 -90.6287 -53.9804 -53.9698 -53.9475 -53.9453 -53.9346
   -53.9262 -53.7830 -53.7789 -53.7603 -47.3467 -19.2628 -19.2624 -19.2333
   -14.3813 -13.5616 -13.2322 -13.0817 -12.9415 -12.8715  -1.6531  -0.8723
    -0.7798  -0.7567  -0.4413  -0.4157  -0.2352   0.1879   0.4504   0.8418
     0.9024   0.9643   1.3162   1.3743   1.8926   2.1837   2.5707   3.1469
     3.8842   3.9060   4.0445   4.0576   4.2375   4.2653   4.4112   4.6212
     4.8744   6.2864   6.3147   6.3265   6.4010   6.6980   6.7260   8.6729
    11.1574  13.1978  13.3582  13.7564  14.5654  15.1057  16.0956  16.5869

     occupation numbers 
     1.0000   1.0000   1.0000   1.0000   1.0000   1.0000   1.0000   1.0000
     1.0000   1.0000   1.0000   1.0000   1.0000   1.0000   1.0000   1.0000
     1.0000   1.0000   1.0000   1.0000   1.0000   1.0000   1.0000   1.0000
     1.0000   1.0000   1.0000   1.0000   1.0000   1.0000   1.0000   1.0000
     1.0000   1.0000   1.0000   1.0000   1.0000   1.0000   1.0000   1.0000
     1.0190   1.0238   1.0672   1.0712   1.0294   0.9945   0.6732   0.1752
     0.0082   0.0000   0.0000   0.0000   0.0000   0.0000   0.0000   0.0000
     0.0000   0.0000   0.0000   0.0000   0.0000   0.0000   0.0000   0.0000

          k = 0.0000 0.3849 0.2417 (  7917 PWs)   bands (ev):

   -90.6516 -90.6493 -90.6287 -53.9805 -53.9699 -53.9475 -53.9452 -53.9345
   -53.9262 -53.7829 -53.7789 -53.7603 -47.3467 -19.2627 -19.2624 -19.2333
   -14.3800 -13.5612 -13.2322 -13.0816 -12.9419 -12.8733  -1.6535  -0.8791
    -0.7859  -0.7642  -0.4448  -0.3856  -0.2344   0.1887   0.4474   0.8555
     0.9047   0.9691   1.3181   1.3826   1.8919   2.1954   2.5689   3.0734
     3.8838   3.9052   4.0452   4.0587   4.2251   4.2668   4.4085   4.6103
     4.9117   6.2358   6.2974   6.3397   6.4035   6.7013   6.7482   8.9039
    11.1248  12.6208  13.1606  13.5000  15.0681  15.5311  16.1927  16.9072

     occupation numbers 
     1.0000   1.0000   1.0000   1.0000   1.0000   1.0000   1.0000   1.0000
     1.0000   1.0000   1.0000   1.0000   1.0000   1.0000   1.0000   1.0000
     1.0000   1.0000   1.0000   1.0000   1.0000   1.0000   1.0000   1.0000
     1.0000   1.0000   1.0000   1.0000   1.0000   1.0000   1.0000   1.0000
     1.0000   1.0000   1.0000   1.0000   1.0000   1.0000   1.0000   1.0000
     1.0189   1.0236   1.0674   1.0715   1.0419   0.9923   0.6806   0.1928
     0.0045   0.0000   0.0000   0.0000   0.0000   0.0000   0.0000   0.0000
     0.0000   0.0000   0.0000   0.0000   0.0000   0.0000   0.0000   0.0000

          k = 0.0000-0.5774 0.0000 (  7928 PWs)   bands (ev):

   -90.6511 -90.6498 -90.6287 -53.9826 -53.9626 -53.9551 -53.9409 -53.9342
   -53.9286 -53.7819 -53.7798 -53.7604 -47.3467 -19.2629 -19.2626 -19.2332
   -13.9835 -13.9708 -13.2509 -13.1045 -12.8983 -12.8958  -1.8020  -0.8935
    -0.8247  -0.3745  -0.3654  -0.2070   0.0179   0.0555   0.1666   0.6569
     0.7873   1.0147   1.2930   1.3007   1.6134   2.2645   3.0474   3.0872
     3.8226   3.9490   3.9648   3.9713   4.3313   4.4910   4.5033   4.6441
     4.6747   6.1422   6.1925   6.3988   6.4566   6.4758   6.8928   9.5270
     9.9783  12.9819  13.3681  14.0534  14.4334  15.6233  15.8303  15.8588

     occupation numbers 
     1.0000   1.0000   1.0000   1.0000   1.0000   1.0000   1.0000   1.0000
     1.0000   1.0000   1.0000   1.0000   1.0000   1.0000   1.0000   1.0000
     1.0000   1.0000   1.0000   1.0000   1.0000   1.0000   1.0000   1.0000
     1.0000   1.0000   1.0000   1.0000   1.0000   1.0000   1.0000   1.0000
     1.0000   1.0000   1.0000   1.0000   1.0000   1.0000   1.0000   1.0000
     1.0093   1.0354   1.0403   1.0424   0.8739   0.4546   0.4228   0.1420
     0.1051   0.0000   0.0000   0.0000   0.0000   0.0000   0.0000   0.0000
     0.0000   0.0000   0.0000   0.0000   0.0000   0.0000   0.0000   0.0000

          k = 0.0000-0.5774 0.2417 (  7914 PWs)   bands (ev):

   -90.6511 -90.6498 -90.6287 -53.9825 -53.9627 -53.9552 -53.9408 -53.9342
   -53.9285 -53.7818 -53.7798 -53.7604 -47.3467 -19.2630 -19.2624 -19.2332
   -13.9819 -13.9706 -13.2509 -13.1043 -12.9001 -12.8960  -1.8025  -0.9092
    -0.8341  -0.3729  -0.3645  -0.2142   0.0239   0.0665   0.1667   0.6845
     0.8059   1.0182   1.2921   1.3006   1.6137   2.2802   3.0314   3.0650
     3.8207   3.9490   3.9649   3.9717   4.3300   4.4705   4.4889   4.6586
     4.6858   6.0808   6.1490   6.4037   6.4831   6.5047   6.8925   9.6232
    10.0655  12.9437  13.1929  13.7246  13.9801  15.7840  16.3775  16.6702

     occupation numbers 
     1.0000   1.0000   1.0000   1.0000   1.0000   1.0000   1.0000   1.0000
     1.0000   1.0000   1.0000   1.0000   1.0000   1.0000   1.0000   1.0000
     1.0000   1.0000   1.0000   1.0000   1.0000   1.0000   1.0000   1.0000
     1.0000   1.0000   1.0000   1.0000   1.0000   1.0000   1.0000   1.0000
     1.0000   1.0000   1.0000   1.0000   1.0000   1.0000   1.0000   1.0000
     1.0091   1.0354   1.0403   1.0425   0.8766   0.5097   0.4603   0.1235
     0.0937   0.0000   0.0000   0.0000   0.0000   0.0000   0.0000   0.0000
     0.0000   0.0000   0.0000   0.0000   0.0000   0.0000   0.0000   0.0000

          k = 0.1667 0.2887 0.0000 (  7899 PWs)   bands (ev):

   -90.6519 -90.6491 -90.6286 -53.9763 -53.9745 -53.9477 -53.9468 -53.9333
   -53.9251 -53.7833 -53.7785 -53.7601 -47.3467 -19.2626 -19.2623 -19.2332
   -14.4733 -13.3654 -13.3607 -12.9932 -12.9928 -12.8678  -1.3150  -1.3116
    -0.7462  -0.6275  -0.5829  -0.5060  -0.2640   0.3046   0.3487   0.8740
     0.9008   1.0895   1.1509   1.5263   2.2195   2.2647   2.2732   3.0383
     3.8669   4.0210   4.0437   4.0961   4.0964   4.1206   4.5424   4.5472
     4.8977   6.2923   6.3338   6.3520   6.5015   6.5190   6.8857   8.4391
    11.9467  12.2678  13.2940  14.2788  15.1589  15.2783  15.9599  16.1286

     occupation numbers 
     1.0000   1.0000   1.0000   1.0000   1.0000   1.0000   1.0000   1.0000
     1.0000   1.0000   1.0000   1.0000   1.0000   1.0000   1.0000   1.0000
     1.0000   1.0000   1.0000   1.0000   1.0000   1.0000   1.0000   1.0000
     1.0000   1.0000   1.0000   1.0000   1.0000   1.0000   1.0000   1.0000
     1.0000   1.0000   1.0000   1.0000   1.0000   1.0000   1.0000   1.0000
     1.0157   1.0593   1.0669   1.0805   1.0806   1.0832   0.3273   0.3165
     0.0057   0.0000   0.0000   0.0000   0.0000   0.0000   0.0000   0.0000
     0.0000   0.0000   0.0000   0.0000   0.0000   0.0000   0.0000   0.0000

          k = 0.1667 0.2887 0.2417 (  7926 PWs)   bands (ev):

   -90.6519 -90.6491 -90.6286 -53.9764 -53.9745 -53.9477 -53.9469 -53.9332
   -53.9251 -53.7833 -53.7787 -53.7602 -47.3467 -19.2626 -19.2624 -19.2334
   -14.4719 -13.3652 -13.3605 -12.9934 -12.9930 -12.8698  -1.3149  -1.3127
    -0.7584  -0.6319  -0.5866  -0.4706  -0.2640   0.3018   0.3471   0.8799
     0.9045   1.0931   1.1548   1.5345   2.2209   2.2714   2.2776   2.9502
     3.8552   4.0202   4.0428   4.0968   4.0973   4.1208   4.5382   4.5437
     4.9453   6.2684   6.3058   6.3258   6.5097   6.5261   6.8857   8.7551
    11.8940  12.2437  12.3540  15.1060  15.1349  15.3911  15.7258  15.8652

     occupation numbers 
     1.0000   1.0000   1.0000   1.0000   1.0000   1.0000   1.0000   1.0000
     1.0000   1.0000   1.0000   1.0000   1.0000   1.0000   1.0000   1.0000
     1.0000   1.0000   1.0000   1.0000   1.0000   1.0000   1.0000   1.0000
     1.0000   1.0000   1.0000   1.0000   1.0000   1.0000   1.0000   1.0000
     1.0000   1.0000   1.0000   1.0000   1.0000   1.0000   1.0000   1.0000
     1.0138   1.0590   1.0666   1.0806   1.0807   1.0832   0.3371   0.3244
     0.0026   0.0000   0.0000   0.0000   0.0000   0.0000   0.0000   0.0000
     0.0000   0.0000   0.0000   0.0000   0.0000   0.0000   0.0000   0.0000

          k = 0.1667 0.4811 0.0000 (  7898 PWs)   bands (ev):

   -90.6511 -90.6498 -90.6287 -53.9785 -53.9685 -53.9546 -53.9413 -53.9331
   -53.9277 -53.7819 -53.7797 -53.7604 -47.3467 -19.2628 -19.2624 -19.2331
   -14.1281 -13.7197 -13.4350 -13.0055 -12.9291 -12.8876  -1.5750  -1.0711
    -0.8938  -0.5035  -0.3619  -0.2583  -0.0787   0.1594   0.2084   0.6614
     0.7804   0.9694   1.2955   1.4921   1.7536   2.3742   2.7559   3.1083
     3.9219   3.9591   3.9930   4.0440   4.3062   4.3252   4.4127   4.5652
     4.7762   6.0462   6.1588   6.3147   6.6065   6.7418   6.8122   9.2790
    10.5656  11.7202  13.8034  14.6603  14.9676  15.2876  15.5041  16.3677

     occupation numbers 
     1.0000   1.0000   1.0000   1.0000   1.0000   1.0000   1.0000   1.0000
     1.0000   1.0000   1.0000   1.0000   1.0000   1.0000   1.0000   1.0000
     1.0000   1.0000   1.0000   1.0000   1.0000   1.0000   1.0000   1.0000
     1.0000   1.0000   1.0000   1.0000   1.0000   1.0000   1.0000   1.0000
     1.0000   1.0000   1.0000   1.0000   1.0000   1.0000   1.0000   1.0000
     1.0278   1.0385   1.0497   1.0670   0.9256   0.8872   0.6691   0.2776
     0.0327   0.0000   0.0000   0.0000   0.0000   0.0000   0.0000   0.0000
     0.0000   0.0000   0.0000   0.0000   0.0000   0.0000   0.0000   0.0000

          k = 0.1667 0.4811 0.2417 (  7912 PWs)   bands (ev):

   -90.6511 -90.6498 -90.6287 -53.9786 -53.9686 -53.9545 -53.9413 -53.9332
   -53.9277 -53.7819 -53.7797 -53.7605 -47.3467 -19.2628 -19.2625 -19.2332
   -14.1270 -13.7191 -13.4346 -13.0058 -12.9298 -12.8888  -1.5758  -1.0777
    -0.9070  -0.5080  -0.3684  -0.2455  -0.0738   0.1598   0.2073   0.6851
     0.7968   0.9780   1.2959   1.4924   1.7537   2.3878   2.7569   3.0803
     3.9188   3.9516   3.9916   4.0438   4.3001   4.3214   4.4128   4.5679
     4.8022   5.9686   6.1165   6.2945   6.6174   6.7491   6.8135   9.4910
    10.6455  11.7637  13.2193  14.3564  14.8176  15.1615  16.1520  16.8249

     occupation numbers 
     1.0000   1.0000   1.0000   1.0000   1.0000   1.0000   1.0000   1.0000
     1.0000   1.0000   1.0000   1.0000   1.0000   1.0000   1.0000   1.0000
     1.0000   1.0000   1.0000   1.0000   1.0000   1.0000   1.0000   1.0000
     1.0000   1.0000   1.0000   1.0000   1.0000   1.0000   1.0000   1.0000
     1.0000   1.0000   1.0000   1.0000   1.0000   1.0000   1.0000   1.0000
     1.0270   1.0362   1.0492   1.0669   0.9371   0.8951   0.6688   0.2718
     0.0232   0.0000   0.0000   0.0000   0.0000   0.0000   0.0000   0.0000
     0.0000   0.0000   0.0000   0.0000   0.0000   0.0000   0.0000   0.0000

          k = 0.3333 0.5774 0.0000 (  7920 PWs)   bands (ev):

   -90.6504 -90.6504 -90.6288 -53.9725 -53.9662 -53.9662 -53.9399 -53.9296
   -53.9296 -53.7808 -53.7808 -53.7606 -47.3467 -19.2627 -19.2627 -19.2331
   -13.7900 -13.7744 -13.7744 -12.9295 -12.9274 -12.9274  -1.1958  -1.1664
    -1.1664  -0.3919  -0.3389  -0.3389   0.0606   0.0606   0.0818   0.5837
     0.7241   0.7241   1.6480   1.6480   1.6693   2.7503   2.7503   2.8130
     3.9498   3.9768   3.9768   4.1877   4.1877   4.1887   4.5630   4.5947
     4.5947   6.0589   6.1173   6.1173   6.8163   6.8163   6.8171   9.9354
    10.5270  10.5270  14.0402  14.6880  14.6880  15.9783  16.1060  16.1060

     occupation numbers 
     1.0000   1.0000   1.0000   1.0000   1.0000   1.0000   1.0000   1.0000
     1.0000   1.0000   1.0000   1.0000   1.0000   1.0000   1.0000   1.0000
     1.0000   1.0000   1.0000   1.0000   1.0000   1.0000   1.0000   1.0000
     1.0000   1.0000   1.0000   1.0000   1.0000   1.0000   1.0000   1.0000
     1.0000   1.0000   1.0000   1.0000   1.0000   1.0000   1.0000   1.0000
     1.0356   1.0442   1.0442   1.0689   1.0689   1.0683   0.2821   0.2198
     0.2198   0.0000   0.0000   0.0000   0.0000   0.0000   0.0000   0.0000
     0.0000   0.0000   0.0000   0.0000   0.0000   0.0000   0.0000   0.0000

          k = 0.3333 0.5774 0.2417 (  7899 PWs)   bands (ev):

   -90.6504 -90.6504 -90.6288 -53.9725 -53.9662 -53.9662 -53.9398 -53.9295
   -53.9295 -53.7807 -53.7807 -53.7605 -47.3467 -19.2627 -19.2627 -19.2331
   -13.7884 -13.7742 -13.7742 -12.9313 -12.9277 -12.9277  -1.2042  -1.1716
    -1.1716  -0.3989  -0.3421  -0.3421   0.0606   0.0606   0.0817   0.6159
     0.7427   0.7427   1.6480   1.6480   1.6696   2.7526   2.7526   2.8146
     3.9432   3.9712   3.9712   4.1878   4.1878   4.1888   4.5728   4.6026
     4.6026   5.9868   6.0689   6.0689   6.8162   6.8162   6.8167  10.0887
    10.6586  10.6586  13.7224  14.2646  14.2646  16.4084  16.4085  16.5651

     occupation numbers 
     1.0000   1.0000   1.0000   1.0000   1.0000   1.0000   1.0000   1.0000
     1.0000   1.0000   1.0000   1.0000   1.0000   1.0000   1.0000   1.0000
     1.0000   1.0000   1.0000   1.0000   1.0000   1.0000   1.0000   1.0000
     1.0000   1.0000   1.0000   1.0000   1.0000   1.0000   1.0000   1.0000
     1.0000   1.0000   1.0000   1.0000   1.0000   1.0000   1.0000   1.0000
     1.0337   1.0424   1.0424   1.0688   1.0688   1.0683   0.2619   0.2059
     0.2059   0.0000   0.0000   0.0000   0.0000   0.0000   0.0000   0.0000
     0.0000   0.0000   0.0000   0.0000   0.0000   0.0000   0.0000   0.0000

          k =-0.1667-0.2887 0.2417 (  7926 PWs)   bands (ev):

   -90.6518 -90.6491 -90.6286 -53.9764 -53.9745 -53.9477 -53.9469 -53.9332
   -53.9251 -53.7833 -53.7787 -53.7602 -47.3467 -19.2626 -19.2624 -19.2334
   -14.4719 -13.3652 -13.3607 -12.9932 -12.9929 -12.8698  -1.3169  -1.3133
    -0.7532  -0.6308  -0.5861  -0.4749  -0.2639   0.3044   0.3481   0.8742
     0.9013   1.0997   1.1599   1.5309   2.2194   2.2658   2.2737   2.9547
     3.8510   4.0214   4.0437   4.0970   4.0976   4.1209   4.5350   4.5404
     4.9357   6.3056   6.3433   6.3440   6.5034   6.5175   6.8859   8.6654
    11.8043  12.1649  12.4334  15.1551  15.1601  15.4438  16.0227  16.1492

     occupation numbers 
     1.0000   1.0000   1.0000   1.0000   1.0000   1.0000   1.0000   1.0000
     1.0000   1.0000   1.0000   1.0000   1.0000   1.0000   1.0000   1.0000
     1.0000   1.0000   1.0000   1.0000   1.0000   1.0000   1.0000   1.0000
     1.0000   1.0000   1.0000   1.0000   1.0000   1.0000   1.0000   1.0000
     1.0000   1.0000   1.0000   1.0000   1.0000   1.0000   1.0000   1.0000
     1.0131   1.0595   1.0669   1.0807   1.0808   1.0832   0.3446   0.3321
     0.0031   0.0000   0.0000   0.0000   0.0000   0.0000   0.0000   0.0000
     0.0000   0.0000   0.0000   0.0000   0.0000   0.0000   0.0000   0.0000

          k =-0.1667-0.4811 0.2417 (  7912 PWs)   bands (ev):

   -90.6511 -90.6498 -90.6287 -53.9786 -53.9686 -53.9545 -53.9413 -53.9332
   -53.9277 -53.7819 -53.7797 -53.7605 -47.3467 -19.2628 -19.2625 -19.2332
   -14.1271 -13.7192 -13.4348 -13.0056 -12.9296 -12.8887  -1.5771  -1.0787
    -0.9038  -0.5077  -0.3678  -0.2496  -0.0751   0.1584   0.2074   0.6906
     0.8012   0.9832   1.2948   1.4923   1.7536   2.3772   2.7478   3.0730
     3.9206   3.9514   3.9932   4.0436   4.3008   4.3244   4.4085   4.5550
     4.7849   6.0417   6.1637   6.3221   6.6075   6.7447   6.8124   9.3594
    10.5273  11.5941  13.4221  14.6237  14.9627  15.6115  16.0098  16.5437

     occupation numbers 
     1.0000   1.0000   1.0000   1.0000   1.0000   1.0000   1.0000   1.0000
     1.0000   1.0000   1.0000   1.0000   1.0000   1.0000   1.0000   1.0000
     1.0000   1.0000   1.0000   1.0000   1.0000   1.0000   1.0000   1.0000
     1.0000   1.0000   1.0000   1.0000   1.0000   1.0000   1.0000   1.0000
     1.0000   1.0000   1.0000   1.0000   1.0000   1.0000   1.0000   1.0000
     1.0274   1.0361   1.0497   1.0669   0.9359   0.8888   0.6805   0.2992
     0.0292   0.0000   0.0000   0.0000   0.0000   0.0000   0.0000   0.0000
     0.0000   0.0000   0.0000   0.0000   0.0000   0.0000   0.0000   0.0000

          k =-0.3333-0.5774 0.2417 (  7899 PWs)   bands (ev):

   -90.6504 -90.6504 -90.6288 -53.9725 -53.9663 -53.9663 -53.9398 -53.9295
   -53.9295 -53.7807 -53.7807 -53.7605 -47.3467 -19.2627 -19.2627 -19.2331
   -13.7885 -13.7743 -13.7743 -12.9311 -12.9275 -12.9275  -1.2066  -1.1710
    -1.1710  -0.3994  -0.3444  -0.3444   0.0607   0.0607   0.0819   0.6240
     0.7479   0.7479   1.6480   1.6480   1.6693   2.7406   2.7406   2.7997
     3.9438   3.9719   3.9719   4.1878   4.1878   4.1888   4.5564   4.5915
     4.5915   6.0671   6.1235   6.1235   6.8164   6.8164   6.8170   9.8774
    10.4905  10.4905  14.1667  14.6081  14.6081  16.0651  16.3298  16.3298

     occupation numbers 
     1.0000   1.0000   1.0000   1.0000   1.0000   1.0000   1.0000   1.0000
     1.0000   1.0000   1.0000   1.0000   1.0000   1.0000   1.0000   1.0000
     1.0000   1.0000   1.0000   1.0000   1.0000   1.0000   1.0000   1.0000
     1.0000   1.0000   1.0000   1.0000   1.0000   1.0000   1.0000   1.0000
     1.0000   1.0000   1.0000   1.0000   1.0000   1.0000   1.0000   1.0000
     1.0338   1.0426   1.0426   1.0688   1.0688   1.0683   0.2962   0.2258
     0.2258   0.0000   0.0000   0.0000   0.0000   0.0000   0.0000   0.0000
     0.0000   0.0000   0.0000   0.0000   0.0000   0.0000   0.0000   0.0000

     the Fermi energy is     4.5120 ev

!    total energy              =   -1489.32171558 Ry
     total all-electron energy =     -9588.556523 Ry
     estimated scf accuracy    <       0.00000001 Ry
     smearing contrib. (-TS)   =       0.00971566 Ry
     internal energy E=F+TS    =   -1489.33143124 Ry

     The total energy is F=E-TS. E is the sum of the following terms:
     one-electron contribution =   -1486.63485762 Ry
     hartree contribution      =     778.10816649 Ry
     xc contribution           =    -150.59137582 Ry
     ewald contribution        =    -294.70143203 Ry
     one-center paw contrib.   =    -335.51193226 Ry
      -> PAW hartree energy AE =     884.65447158 Ry
      -> PAW hartree energy PS =    -882.37285415 Ry
      -> PAW xc energy AE      =    -480.33941651 Ry
      -> PAW xc energy PS      =     142.54586683 Ry
      -> total E_H with PAW    =     780.38978391 Ry
      -> total E_XC with PAW   =    -488.38492550 Ry

     total magnetization       =     2.30 Bohr mag/cell
     absolute magnetization    =     2.34 Bohr mag/cell

     convergence has been achieved in  21 iterations

     Forces acting on atoms (cartesian axes, Ry/au):

     atom    1 type  1   force =     0.00000000    0.00000000    0.02593391
     atom    2 type  1   force =     0.00000000    0.00000000    0.01060469
     atom    3 type  1   force =     0.00000000    0.00000000    0.01060469
     atom    4 type  2   force =    -0.00044011   -0.00076229   -0.02367539
     atom    5 type  2   force =     0.00088022    0.00000000   -0.02367539
     atom    6 type  2   force =    -0.00044011    0.00076229   -0.02367539
     atom    7 type  2   force =    -0.00579485   -0.00000000    0.00699365
     atom    8 type  2   force =     0.00289742    0.00501849    0.00699365
     atom    9 type  2   force =     0.00289742   -0.00501849    0.00699365
     atom   10 type  3   force =     0.00000000    0.00000000    0.00290194
     The non-local contrib.  to forces
     atom    1 type  1   force =     0.00000000    0.00000000   -0.05289828
     atom    2 type  1   force =     0.00000000    0.00000000    0.00927294
     atom    3 type  1   force =     0.00000000    0.00000000    0.00927294
     atom    4 type  2   force =    -0.00915562   -0.01585799   -1.15836373
     atom    5 type  2   force =     0.01831123    0.00000000   -1.15836373
     atom    6 type  2   force =    -0.00915562    0.01585799   -1.15836373
     atom    7 type  2   force =    -0.08413667    0.00000000    1.01398108
     atom    8 type  2   force =     0.04206834    0.07286449    1.01398108
     atom    9 type  2   force =     0.04206834   -0.07286449    1.01398108
     atom   10 type  3   force =     0.00000000    0.00000000   -0.26335283
     The ionic contribution  to forces
     atom    1 type  1   force =    -0.00000000   -0.00000000    5.29666490
     atom    2 type  1   force =     0.00000002   -0.00000001    2.87788527
     atom    3 type  1   force =    -0.00000002    0.00000001    2.87788527
     atom    4 type  2   force =     0.21489677    0.37221213   31.81464600
     atom    5 type  2   force =    -0.42979354   -0.00000000   31.81464601
     atom    6 type  2   force =     0.21489676   -0.37221212   31.81464601
     atom    7 type  2   force =     1.40330485    0.00000000  -29.42941779
     atom    8 type  2   force =    -0.70165243   -1.21529765  -29.42941779
     atom    9 type  2   force =    -0.70165242    1.21529765  -29.42941779
     atom   10 type  3   force =    -0.00000000    0.00000000  -18.20812010
     The local contribution  to forces
     atom    1 type  1   force =     0.00000000    0.00000000   -5.21790526
     atom    2 type  1   force =     0.00000021   -0.00000012   -2.87639069
     atom    3 type  1   force =    -0.00000021    0.00000012   -2.87639069
     atom    4 type  2   force =    -0.20622945   -0.35719988  -30.69026964
     atom    5 type  2   force =     0.41245889    0.00000000  -30.69026964
     atom    6 type  2   force =    -0.20622945    0.35719988  -30.69026964
     atom    7 type  2   force =    -1.32562036    0.00000000   28.43142952
     atom    8 type  2   force =     0.66281018    1.14802090   28.43142952
     atom    9 type  2   force =     0.66281018   -1.14802090   28.43142952
     atom   10 type  3   force =    -0.00000000    0.00000000   18.47413127
     The core correction contribution to forces
     atom    1 type  1   force =     0.00000000    0.00000000    0.00013565
     atom    2 type  1   force =     0.00000000   -0.00000000   -0.00014651
     atom    3 type  1   force =    -0.00000000    0.00000000   -0.00014651
     atom    4 type  2   force =     0.00007996    0.00013849    0.01022118
     atom    5 type  2   force =    -0.00015992    0.00000000    0.01022118
     atom    6 type  2   force =     0.00007996   -0.00013849    0.01022118
     atom    7 type  2   force =     0.00073402   -0.00000000   -0.00887200
     atom    8 type  2   force =    -0.00036701   -0.00063568   -0.00887200
     atom    9 type  2   force =    -0.00036701    0.00063568   -0.00887200
     atom   10 type  3   force =     0.00000000    0.00000000    0.00013287
     The Hubbard contrib.    to forces
     atom    1 type  1   force =     0.00000000    0.00000000    0.00000000
     atom    2 type  1   force =     0.00000000    0.00000000    0.00000000
     atom    3 type  1   force =     0.00000000    0.00000000    0.00000000
     atom    4 type  2   force =     0.00000000    0.00000000    0.00000000
     atom    5 type  2   force =     0.00000000    0.00000000    0.00000000
     atom    6 type  2   force =     0.00000000    0.00000000    0.00000000
     atom    7 type  2   force =     0.00000000    0.00000000    0.00000000
     atom    8 type  2   force =     0.00000000    0.00000000    0.00000000
     atom    9 type  2   force =     0.00000000    0.00000000    0.00000000
     atom   10 type  3   force =     0.00000000    0.00000000    0.00000000
     The SCF correction term to forces
     atom    1 type  1   force =     0.00000000   -0.00000000   -0.00006292
     atom    2 type  1   force =    -0.00000000    0.00000000   -0.00001614
     atom    3 type  1   force =     0.00000000   -0.00000000   -0.00001614
     atom    4 type  2   force =    -0.00003177   -0.00005503    0.00009097
     atom    5 type  2   force =     0.00006355    0.00000000    0.00009097
     atom    6 type  2   force =    -0.00003177    0.00005503    0.00009097
     atom    7 type  2   force =    -0.00007669   -0.00000000   -0.00012698
     atom    8 type  2   force =     0.00003835    0.00006642   -0.00012698
     atom    9 type  2   force =     0.00003835   -0.00006642   -0.00012698
     atom   10 type  3   force =     0.00000000    0.00000000    0.00011090

     Total force =     0.053266     Total SCF correction =     0.000346

     Writing all to output data dir ./out/pw.save/ :
     XML data file, charge density, pseudopotentials, collected wavefunctions
 
     init_run     :     21.89s CPU      4.98s WALL (       1 calls)
     electrons    :    267.06s CPU     62.59s WALL (       1 calls)
     forces       :      0.96s CPU      0.88s WALL (       1 calls)

     Called by init_run:
     wfcinit      :      0.49s CPU      0.61s WALL (       1 calls)
     wfcinit:atom :      0.06s CPU      0.06s WALL (      34 calls)
     wfcinit:wfcr :      0.30s CPU      0.34s WALL (      34 calls)
     potinit      :     20.74s CPU      3.60s WALL (       1 calls)
     hinit0       :      0.52s CPU      0.52s WALL (       1 calls)

     Called by electrons:
     c_bands      :     25.99s CPU     26.11s WALL (      21 calls)
     sum_band     :      4.11s CPU      4.10s WALL (      21 calls)
     v_of_rho     :      0.47s CPU      0.30s WALL (      22 calls)
     v_h          :      0.29s CPU      0.08s WALL (      22 calls)
     v_xc         :      0.19s CPU      0.23s WALL (      23 calls)
     newd         :      0.55s CPU      0.45s WALL (      22 calls)
                                        0.45s GPU  (      22 calls)
     PAW_pot      :    245.10s CPU     31.77s WALL (      22 calls)
     mix_rho      :      1.06s CPU      1.03s WALL (      21 calls)

     Called by c_bands:
     init_us_2    :      0.90s CPU      0.88s WALL (    1496 calls)
     cegterg      :     21.65s CPU     21.80s WALL (     714 calls)

     Called by sum_band:
     sum_band:wei :      0.04s CPU      0.04s WALL (      21 calls)
                                        0.04s GPU  (      21 calls)
     sum_band:loo :      2.91s CPU      2.89s WALL (      21 calls)
                                        2.89s GPU  (      21 calls)
     sum_band:buf :      0.77s CPU      0.80s WALL (     714 calls)
                                        0.79s GPU  (     714 calls)
     sum_band:ini :      0.43s CPU      0.43s WALL (     714 calls)
                                        0.43s GPU  (     714 calls)
     sum_band:cal :      0.07s CPU      0.10s WALL (     714 calls)
                                        0.07s GPU  (     714 calls)
     sum_band:bec :      0.35s CPU      0.36s WALL (     714 calls)
                                        0.35s GPU  (     714 calls)
     addusdens    :      0.80s CPU      0.81s WALL (      21 calls)
                                        0.81s GPU  (      21 calls)
     addusd:skk   :      0.01s CPU      0.01s WALL (      63 calls)
                                        0.01s GPU  (      63 calls)

     Called by *egterg:
     cdiaghg      :      9.07s CPU      9.19s WALL (    3951 calls)
                                        9.14s GPU  (    3951 calls)
     cegterg:over :      1.11s CPU      1.12s WALL (    3237 calls)
     cegterg:upda :      1.17s CPU      1.18s WALL (    3237 calls)
     cegterg:last :      0.19s CPU      0.19s WALL (    1466 calls)
     h_psi        :      7.98s CPU      8.12s WALL (    3985 calls)
                                        8.07s GPU  (    3985 calls)
     s_psi        :      1.25s CPU      1.29s WALL (    3985 calls)
     g_psi        :      0.02s CPU      0.12s WALL (    3237 calls)
                                        0.08s GPU  (    3237 calls)

     Called by h_psi:
     h_psi:calbec :      0.17s CPU      0.37s WALL (    3985 calls)
                                        0.32s GPU  (    3985 calls)
     vloc_psi     :      6.03s CPU      6.07s WALL (    3985 calls)
                                        6.02s GPU  (    3985 calls)
     add_vuspsi   :      1.19s CPU      1.38s WALL (    3985 calls)
                                        1.33s GPU  (    3985 calls)

     General routines
     calbec       :      0.19s CPU      0.22s WALL (    4835 calls)
     fft          :      7.12s CPU      1.37s WALL (     563 calls)
                                        0.03s GPU  (     519 calls)
     ffts         :      2.84s CPU      0.77s WALL (    1146 calls)
                                        0.03s GPU  (    1102 calls)
     fftw         :      0.36s CPU      3.65s WALL (   20714 calls)
                                        3.42s GPU  (   20714 calls)
     interpolate  :     10.24s CPU      2.16s WALL (      44 calls)
 
     Parallel routines

     PAW routines
     PAW_pot      :    245.10s CPU     31.77s WALL (      22 calls)
     PAW_symme    :      0.04s CPU      0.01s WALL (      43 calls)
 
     PWSCF        :   4m50.73s CPU   1m 9.40s WALL

 
   This run was terminated on:   3:58:13  12Jul2026            

=------------------------------------------------------------------------------=
   JOB DONE.
=------------------------------------------------------------------------------=
Warning: ieee_divide_by_zero is signaling
Warning: ieee_inexact is signaling
FORTRAN STOP
