
     Program PWSCF v.7.3.1 starts on 12Jul2026 at  3:51: 6 

     This program is part of the open-source Quantum ESPRESSO suite
     for quantum simulation of materials; please cite
         "P. Giannozzi et al., J. Phys.:Condens. Matter 21 395502 (2009);
         "P. Giannozzi et al., J. Phys.:Condens. Matter 29 465901 (2017);
         "P. Giannozzi et al., J. Chem. Phys. 152 154105 (2020);
          URL http://www.quantum-espresso.org", 
     in publications or presentations arising from this work. More details at
     http://www.quantum-espresso.org/quote

     Parallel version (MPI & OpenMP), running on      14 processor cores
     Number of MPI processes:                 1
     Threads/MPI process:                    14

     MPI processes distributed on     1 nodes
     842242 MiB available memory on the printing compute node when the environment starts
 
     Reading input from pw.in

     Current dimensions of program PWSCF are:
     Max number of different atomic species (ntypx) = 10
     Max number of k-points (npk) =  40000
     Max angular momentum in pseudopotentials (lmaxx) =  4
     file Co.pbe-spn-kjpaw_psl.0.3.1.UPF: wavefunction(s)  3P 3D renormalized
     file O.pbe-n-kjpaw_psl.1.0.0.UPF: wavefunction(s)  2S 2P renormalized
     file Na.pbe-spn-kjpaw_psl.1.0.0.UPF: wavefunction(s)  2P renormalized
 
     Subspace diagonalization in iterative solution of the eigenvalue problem:
     a serial algorithm will be used

 
     G-vector sticks info
     --------------------
     sticks:   dense  smooth     PW     G-vecs:    dense   smooth      PW
     Sum         979     499    151                72573    25753    4225
 
     Using Slab Decomposition
 


     bravais-lattice index     =            4
     lattice parameter (alat)  =       5.4575  a.u.
     unit-cell volume          =     409.4500 (a.u.)^3
     number of atoms/cell      =            4
     number of atomic types    =            3
     number of electrons       =        38.00
     number of Kohn-Sham states=           27
     kinetic-energy cutoff     =      60.0000  Ry
     charge density cutoff     =     480.0000  Ry
     scf convergence threshold =      1.0E-07
     mixing beta               =       0.3000
     number of iterations used =            8  local-TF  mixing
     Exchange-correlation= SLA  PW   PBX  PBC
                           (   1   4   3   4   0   0   0)

     GPU acceleration is ACTIVE.  1 visible GPUs per MPI rank
     GPU-aware MPI enabled


     GPU used by master process:

        Device Number: 0
        Device name: NVIDIA A100-SXM4-80GB
        Compute capability : 80
        Ratio of single to double precision performance  : 2
        Memory Clock Rate (KHz): 1593000
        Memory Bus Width (bits): 5120
        Peak Memory Bandwidth (GB/s): ******

     celldm(1)=   5.457529  celldm(2)=   0.000000  celldm(3)=   2.908587
     celldm(4)=   0.000000  celldm(5)=   0.000000  celldm(6)=   0.000000

     crystal axes: (cart. coord. in units of alat)
               a(1) = (   1.000000   0.000000   0.000000 )  
               a(2) = (  -0.500000   0.866025   0.000000 )  
               a(3) = (   0.000000   0.000000   2.908587 )  

     reciprocal axes: (cart. coord. in units 2 pi/alat)
               b(1) = (  1.000000  0.577350 -0.000000 )  
               b(2) = (  0.000000  1.154701  0.000000 )  
               b(3) = (  0.000000 -0.000000  0.343810 )  


     PseudoPot. # 1 for Co read from file:
     ../../pseudo/Co.pbe-spn-kjpaw_psl.0.3.1.UPF
     MD5 check sum: 3c0a43779828c046024e4f3be63f8e67
     Pseudo is Projector augmented-wave + core cor, Zval = 17.0
     Generated using &quot;atomic&quot; code by A. Dal Corso  v.6.2.2
     Shape of augmentation charge: PSQ
     Using radial grid of 1193 points,  6 beta functions with: 
                l(1) =   0
                l(2) =   0
                l(3) =   1
                l(4) =   1
                l(5) =   2
                l(6) =   2
     Q(r) pseudized with 0 coefficients 


     PseudoPot. # 2 for O  read from file:
     ../../pseudo/O.pbe-n-kjpaw_psl.1.0.0.UPF
     MD5 check sum: e99d9cef9b487d1ca56f5b95ecd0fd7a
     Pseudo is Projector augmented-wave + core cor, Zval =  6.0
     Generated using &quot;atomic&quot; code by A. Dal Corso  v.6.3
     Shape of augmentation charge: PSQ
     Using radial grid of 1095 points,  4 beta functions with: 
                l(1) =   0
                l(2) =   0
                l(3) =   1
                l(4) =   1
     Q(r) pseudized with 0 coefficients 


     PseudoPot. # 3 for Na read from file:
     ../../pseudo/Na.pbe-spn-kjpaw_psl.1.0.0.UPF
     MD5 check sum: 05b4deb74e3932c23ab016979dc8b5d4
     Pseudo is Projector augmented-wave + core cor, Zval =  9.0
     Generated using &quot;atomic&quot; code by A. Dal Corso  v.6.3
     Shape of augmentation charge: PSQ
     Using radial grid of 1121 points,  4 beta functions with: 
                l(1) =   0
                l(2) =   0
                l(3) =   1
                l(4) =   1
     Q(r) pseudized with 0 coefficients 


     atomic species   valence    mass     pseudopotential
     Co               17.00    58.93300     Co( 1.00)
     O                 6.00    15.99900     O ( 1.00)
     Na                9.00    22.98977     Na( 1.00)

     Starting magnetic structure 
     atomic species   magnetization
     Co              0.300
     O               0.000
     Na              0.000

      6 Sym. Ops. (no inversion) found


                                    s                        frac. trans.

      isym =  1     identity                                     

 cryst.   s( 1) = (     1          0          0      )
                  (     0          1          0      )
                  (     0          0          1      )

 cart.    s( 1) = (  1.0000000  0.0000000  0.0000000 )
                  (  0.0000000  1.0000000  0.0000000 )
                  (  0.0000000  0.0000000  1.0000000 )


      isym =  2     120 deg rotation - cryst. axis [0,0,1]       

 cryst.   s( 2) = (     0          1          0      )
                  (    -1         -1          0      )
                  (     0          0          1      )

 cart.    s( 2) = ( -0.5000000 -0.8660254  0.0000000 )
                  (  0.8660254 -0.5000000  0.0000000 )
                  (  0.0000000  0.0000000  1.0000000 )


      isym =  3     120 deg rotation - cryst. axis [0,0,-1]      

 cryst.   s( 3) = (    -1         -1          0      )
                  (     1          0          0      )
                  (     0          0          1      )

 cart.    s( 3) = ( -0.5000000  0.8660254  0.0000000 )
                  ( -0.8660254 -0.5000000  0.0000000 )
                  (  0.0000000  0.0000000  1.0000000 )


      isym =  4     inv. 180 deg rotation - cart. axis [1,0,0]   

 cryst.   s( 4) = (    -1          0          0      )
                  (     1          1          0      )
                  (     0          0          1      )

 cart.    s( 4) = ( -1.0000000  0.0000000  0.0000000 )
                  (  0.0000000  1.0000000  0.0000000 )
                  (  0.0000000  0.0000000  1.0000000 )


      isym =  5     inv. 180 deg rotation - cryst. axis [0,1,0]  

 cryst.   s( 5) = (     1          1          0      )
                  (     0         -1          0      )
                  (     0          0          1      )

 cart.    s( 5) = (  0.5000000  0.8660254  0.0000000 )
                  (  0.8660254 -0.5000000  0.0000000 )
                  (  0.0000000  0.0000000  1.0000000 )


      isym =  6     inv. 180 deg rotation - cryst. axis [1,1,0]  

 cryst.   s( 6) = (     0         -1          0      )
                  (    -1          0          0      )
                  (     0          0          1      )

 cart.    s( 6) = (  0.5000000 -0.8660254  0.0000000 )
                  ( -0.8660254 -0.5000000  0.0000000 )
                  (  0.0000000  0.0000000  1.0000000 )


     point group C_3v (3m)  
     there are  3 classes
     the character table:

       E     2C3   3s_v 
A_1    1.00  1.00  1.00
A_2    1.00  1.00 -1.00
E      2.00 -1.00  0.00

     the symmetry operations in each class and the name of the first element:

     E        1
          identity                                               
     2C3      2    3
          120 deg rotation - cryst. axis [0,0,1]                 
     3s_v     4    5    6
          inv. 180 deg rotation - cart. axis [1,0,0]             

   Cartesian axes

     site n.     atom                  positions (alat units)
         1        Co     tau(   1) = (   0.0000000   0.0000000   0.0000000  )
         2        O      tau(   2) = (  -0.0000000   0.5773503   0.3324100  )
         3        O      tau(   3) = (   0.5000000   0.2886751   2.5761773  )
         4        Na     tau(   4) = (   0.0000000   0.0000000   1.5581717  )

   Crystallographic axes

     site n.     atom                  positions (cryst. coord.)
         1        Co     tau(   1) = (  0.0000000  0.0000000  0.0000000  )
         2        O      tau(   2) = (  0.3333333  0.6666667  0.1142857  )
         3        O      tau(   3) = (  0.6666667  0.3333333  0.8857143  )
         4        Na     tau(   4) = (  0.0000000  0.0000000  0.5357143  )

     number of k points=    25  Marzari-Vanderbilt smearing, width (Ry)=  0.0200
                       cart. coord. in units 2pi/alat
        k(    1) = (   0.0000000   0.0000000   0.0000000), wk =   0.0052083
        k(    2) = (   0.0000000   0.0000000   0.1146032), wk =   0.0104167
        k(    3) = (   0.0000000   0.1443376   0.0000000), wk =   0.0312500
        k(    4) = (   0.0000000   0.1443376   0.1146032), wk =   0.0312500
        k(    5) = (   0.0000000   0.2886751   0.0000000), wk =   0.0312500
        k(    6) = (   0.0000000   0.2886751   0.1146032), wk =   0.0312500
        k(    7) = (   0.0000000   0.4330127   0.0000000), wk =   0.0312500
        k(    8) = (   0.0000000   0.4330127   0.1146032), wk =   0.0312500
        k(    9) = (   0.0000000  -0.5773503   0.0000000), wk =   0.0156250
        k(   10) = (   0.0000000  -0.5773503   0.1146032), wk =   0.0312500
        k(   11) = (   0.1250000   0.2165064   0.0000000), wk =   0.0312500
        k(   12) = (   0.1250000   0.2165064   0.1146032), wk =   0.0625000
        k(   13) = (   0.1250000   0.3608439   0.0000000), wk =   0.0625000
        k(   14) = (   0.1250000   0.3608439   0.1146032), wk =   0.0625000
        k(   15) = (   0.1250000   0.5051815   0.0000000), wk =   0.0625000
        k(   16) = (   0.1250000   0.5051815   0.1146032), wk =   0.0625000
        k(   17) = (   0.2500000   0.4330127   0.0000000), wk =   0.0312500
        k(   18) = (   0.2500000   0.4330127   0.1146032), wk =   0.0625000
        k(   19) = (   0.2500000   0.5773503   0.0000000), wk =   0.0312500
        k(   20) = (   0.2500000   0.5773503   0.1146032), wk =   0.0625000
        k(   21) = (   0.0000000  -0.1443376   0.1146032), wk =   0.0312500
        k(   22) = (   0.0000000  -0.2886751   0.1146032), wk =   0.0312500
        k(   23) = (   0.0000000  -0.4330127   0.1146032), wk =   0.0312500
        k(   24) = (  -0.1250000  -0.3608439   0.1146032), wk =   0.0625000
        k(   25) = (  -0.1250000  -0.5051815   0.1146032), wk =   0.0625000

                       cryst. coord.
        k(    1) = (   0.0000000   0.0000000   0.0000000), wk =   0.0052083
        k(    2) = (   0.0000000   0.0000000   0.3333333), wk =   0.0104167
        k(    3) = (   0.0000000   0.1250000   0.0000000), wk =   0.0312500
        k(    4) = (   0.0000000   0.1250000   0.3333333), wk =   0.0312500
        k(    5) = (   0.0000000   0.2500000   0.0000000), wk =   0.0312500
        k(    6) = (   0.0000000   0.2500000   0.3333333), wk =   0.0312500
        k(    7) = (   0.0000000   0.3750000   0.0000000), wk =   0.0312500
        k(    8) = (   0.0000000   0.3750000   0.3333333), wk =   0.0312500
        k(    9) = (   0.0000000  -0.5000000   0.0000000), wk =   0.0156250
        k(   10) = (   0.0000000  -0.5000000   0.3333333), wk =   0.0312500
        k(   11) = (   0.1250000   0.1250000   0.0000000), wk =   0.0312500
        k(   12) = (   0.1250000   0.1250000   0.3333333), wk =   0.0625000
        k(   13) = (   0.1250000   0.2500000   0.0000000), wk =   0.0625000
        k(   14) = (   0.1250000   0.2500000   0.3333333), wk =   0.0625000
        k(   15) = (   0.1250000   0.3750000   0.0000000), wk =   0.0625000
        k(   16) = (   0.1250000   0.3750000   0.3333333), wk =   0.0625000
        k(   17) = (   0.2500000   0.2500000   0.0000000), wk =   0.0312500
        k(   18) = (   0.2500000   0.2500000   0.3333333), wk =   0.0625000
        k(   19) = (   0.2500000   0.3750000   0.0000000), wk =   0.0312500
        k(   20) = (   0.2500000   0.3750000   0.3333333), wk =   0.0625000
        k(   21) = (   0.0000000  -0.1250000   0.3333333), wk =   0.0312500
        k(   22) = (   0.0000000  -0.2500000   0.3333333), wk =   0.0312500
        k(   23) = (   0.0000000  -0.3750000   0.3333333), wk =   0.0312500
        k(   24) = (  -0.1250000  -0.2500000   0.3333333), wk =   0.0625000
        k(   25) = (  -0.1250000  -0.3750000   0.3333333), wk =   0.0625000

     Dense  grid:    72573 G-vectors     FFT dimensions: (  40,  40, 120)

     Smooth grid:    25753 G-vectors     FFT dimensions: (  27,  27,  80)

     Dynamical RAM for                 wfc:       1.32 MB

     Dynamical RAM for     wfc (w. buffer):      67.51 MB

     Dynamical RAM for           str. fact:       3.32 MB

     Dynamical RAM for           local pot:       0.00 MB

     Dynamical RAM for          nlocal pot:       2.06 MB

     Dynamical RAM for                qrad:       5.27 MB

     Dynamical RAM for          rho,v,vnew:      15.43 MB

     Dynamical RAM for               rhoin:       5.14 MB

     Dynamical RAM for            rho*nmix:      35.44 MB

     Dynamical RAM for           G-vectors:       4.35 MB

     Dynamical RAM for          h,s,v(r/c):       0.13 MB

     Dynamical RAM for          <psi|beta>:       0.02 MB

     Dynamical RAM for                 psi:       2.65 MB

     Dynamical RAM for                hpsi:       2.65 MB

     Dynamical RAM for                spsi:       2.65 MB

     Dynamical RAM for      wfcinit/wfcrot:       2.66 MB

     Dynamical RAM for           addusdens:     209.29 MB

     Dynamical RAM for          addusforce:     211.52 MB

     Estimated static dynamical RAM per process >     116.31 MB

     Estimated max dynamical RAM per process >     363.27 MB

     Check: negative core charge=   -0.000007
     Generating pointlists ...
     new r_m :   0.2748 (alat units)  1.4998 (a.u.) for type    1
     new r_m :   0.2748 (alat units)  1.4998 (a.u.) for type    2
     new r_m :   0.4125 (alat units)  2.2512 (a.u.) for type    3

     Initial potential from superposition of free atoms

     starting charge      37.9934, renormalised to      38.0000
     Starting wfcs are   23 randomized atomic wfcs +    4 random wfcs
     Checking if some PAW data can be deallocated... 

     total cpu time spent up to now is        3.9 secs

     Self-consistent Calculation
[tb_dev] Currently allocated     6.54E-01 Mbytes, locked:    0 /   6
[tb_pin] Currently allocated     0.00E+00 Mbytes, locked:    0 /   0

     iteration #  1     ecut=    60.00 Ry     beta= 0.30
     Davidson diagonalization with overlap

---- Real-time Memory Report at c_bands before calling an iterative solver
           689 MiB given to the printing process from OS
             0 MiB allocation reported by mallinfo(arena+hblkhd)
        841812 MiB available memory on the node where the printing process lives
     GPU memory used/free/total (MiB): 1056 / 80094 / 81151
------------------
     ethr =  1.00E-02,  avg # of iterations =  9.8

     total cpu time spent up to now is        6.1 secs

     total energy              =    -568.99204676 Ry
     estimated scf accuracy    <       1.78458984 Ry

     total magnetization       =     4.23 Bohr mag/cell
     absolute magnetization    =     4.23 Bohr mag/cell
[tb_dev] Currently allocated     3.05E-05 Mbytes, locked:    0 /   2
[tb_pin] Currently allocated     0.00E+00 Mbytes, locked:    0 /   0

     iteration #  2     ecut=    60.00 Ry     beta= 0.30
     Davidson diagonalization with overlap

---- Real-time Memory Report at c_bands before calling an iterative solver
           733 MiB given to the printing process from OS
             0 MiB allocation reported by mallinfo(arena+hblkhd)
        841556 MiB available memory on the node where the printing process lives
     GPU memory used/free/total (MiB): 1074 / 80076 / 81151
------------------
     ethr =  4.70E-03,  avg # of iterations =  1.9

     total cpu time spent up to now is        7.3 secs

     total energy              =    -569.03921772 Ry
     estimated scf accuracy    <       0.82842076 Ry

     total magnetization       =     3.70 Bohr mag/cell
     absolute magnetization    =     3.70 Bohr mag/cell
[tb_dev] Currently allocated     3.05E-05 Mbytes, locked:    0 /   2
[tb_pin] Currently allocated     0.00E+00 Mbytes, locked:    0 /   0

     iteration #  3     ecut=    60.00 Ry     beta= 0.30
     Davidson diagonalization with overlap

---- Real-time Memory Report at c_bands before calling an iterative solver
           735 MiB given to the printing process from OS
             0 MiB allocation reported by mallinfo(arena+hblkhd)
        841529 MiB available memory on the node where the printing process lives
     GPU memory used/free/total (MiB): 1074 / 80076 / 81151
------------------
     ethr =  2.18E-03,  avg # of iterations =  2.1

     total cpu time spent up to now is        8.5 secs

     total energy              =    -569.09794511 Ry
     estimated scf accuracy    <       0.71409608 Ry

     total magnetization       =     2.17 Bohr mag/cell
     absolute magnetization    =     2.19 Bohr mag/cell
[tb_dev] Currently allocated     3.05E-05 Mbytes, locked:    0 /   2
[tb_pin] Currently allocated     0.00E+00 Mbytes, locked:    0 /   0

     iteration #  4     ecut=    60.00 Ry     beta= 0.30
     Davidson diagonalization with overlap

---- Real-time Memory Report at c_bands before calling an iterative solver
           738 MiB given to the printing process from OS
             0 MiB allocation reported by mallinfo(arena+hblkhd)
        841524 MiB available memory on the node where the printing process lives
     GPU memory used/free/total (MiB): 1074 / 80076 / 81151
------------------
     ethr =  1.88E-03,  avg # of iterations =  1.3

     total cpu time spent up to now is        9.6 secs

     total energy              =    -569.09279479 Ry
     estimated scf accuracy    <       0.54730222 Ry

     total magnetization       =     3.21 Bohr mag/cell
     absolute magnetization    =     3.25 Bohr mag/cell
[tb_dev] Currently allocated     3.05E-05 Mbytes, locked:    0 /   2
[tb_pin] Currently allocated     0.00E+00 Mbytes, locked:    0 /   0

     iteration #  5     ecut=    60.00 Ry     beta= 0.30
     Davidson diagonalization with overlap

---- Real-time Memory Report at c_bands before calling an iterative solver
           739 MiB given to the printing process from OS
             0 MiB allocation reported by mallinfo(arena+hblkhd)
        841497 MiB available memory on the node where the printing process lives
     GPU memory used/free/total (MiB): 1074 / 80076 / 81151
------------------
     ethr =  1.44E-03,  avg # of iterations =  1.8

     total cpu time spent up to now is       10.7 secs

     total energy              =    -569.18150955 Ry
     estimated scf accuracy    <       0.08816801 Ry

     total magnetization       =     0.88 Bohr mag/cell
     absolute magnetization    =     1.26 Bohr mag/cell
[tb_dev] Currently allocated     3.05E-05 Mbytes, locked:    0 /   2
[tb_pin] Currently allocated     0.00E+00 Mbytes, locked:    0 /   0

     iteration #  6     ecut=    60.00 Ry     beta= 0.30
     Davidson diagonalization with overlap

---- Real-time Memory Report at c_bands before calling an iterative solver
           741 MiB given to the printing process from OS
             0 MiB allocation reported by mallinfo(arena+hblkhd)
        841498 MiB available memory on the node where the printing process lives
     GPU memory used/free/total (MiB): 1074 / 80076 / 81151
------------------
     ethr =  2.32E-04,  avg # of iterations =  7.7

     total cpu time spent up to now is       12.6 secs

     total energy              =    -569.18484099 Ry
     estimated scf accuracy    <       0.13288608 Ry

     total magnetization       =     0.59 Bohr mag/cell
     absolute magnetization    =     0.88 Bohr mag/cell
[tb_dev] Currently allocated     3.05E-05 Mbytes, locked:    0 /   2
[tb_pin] Currently allocated     0.00E+00 Mbytes, locked:    0 /   0

     iteration #  7     ecut=    60.00 Ry     beta= 0.30
     Davidson diagonalization with overlap

---- Real-time Memory Report at c_bands before calling an iterative solver
           745 MiB given to the printing process from OS
             0 MiB allocation reported by mallinfo(arena+hblkhd)
        841507 MiB available memory on the node where the printing process lives
     GPU memory used/free/total (MiB): 1074 / 80076 / 81151
------------------
     ethr =  2.32E-04,  avg # of iterations =  1.4

     total cpu time spent up to now is       13.7 secs

     total energy              =    -569.20380374 Ry
     estimated scf accuracy    <       0.03181353 Ry

     total magnetization       =     0.62 Bohr mag/cell
     absolute magnetization    =     0.85 Bohr mag/cell
[tb_dev] Currently allocated     3.05E-05 Mbytes, locked:    0 /   2
[tb_pin] Currently allocated     0.00E+00 Mbytes, locked:    0 /   0

     iteration #  8     ecut=    60.00 Ry     beta= 0.30
     Davidson diagonalization with overlap

---- Real-time Memory Report at c_bands before calling an iterative solver
           746 MiB given to the printing process from OS
             0 MiB allocation reported by mallinfo(arena+hblkhd)
        841477 MiB available memory on the node where the printing process lives
     GPU memory used/free/total (MiB): 1074 / 80076 / 81151
------------------
     ethr =  8.37E-05,  avg # of iterations =  3.8

     total cpu time spent up to now is       15.1 secs

     total energy              =    -569.20802698 Ry
     estimated scf accuracy    <       0.02358904 Ry

     total magnetization       =     0.61 Bohr mag/cell
     absolute magnetization    =     0.67 Bohr mag/cell
[tb_dev] Currently allocated     3.05E-05 Mbytes, locked:    0 /   2
[tb_pin] Currently allocated     0.00E+00 Mbytes, locked:    0 /   0

     iteration #  9     ecut=    60.00 Ry     beta= 0.30
     Davidson diagonalization with overlap

---- Real-time Memory Report at c_bands before calling an iterative solver
           748 MiB given to the printing process from OS
             0 MiB allocation reported by mallinfo(arena+hblkhd)
        841436 MiB available memory on the node where the printing process lives
     GPU memory used/free/total (MiB): 1074 / 80076 / 81151
------------------
     ethr =  6.21E-05,  avg # of iterations =  1.6

     total cpu time spent up to now is       16.3 secs

     total energy              =    -569.20563603 Ry
     estimated scf accuracy    <       0.01453193 Ry

     total magnetization       =     0.63 Bohr mag/cell
     absolute magnetization    =     0.67 Bohr mag/cell
[tb_dev] Currently allocated     3.05E-05 Mbytes, locked:    0 /   2
[tb_pin] Currently allocated     0.00E+00 Mbytes, locked:    0 /   0

     iteration # 10     ecut=    60.00 Ry     beta= 0.30
     Davidson diagonalization with overlap

---- Real-time Memory Report at c_bands before calling an iterative solver
           751 MiB given to the printing process from OS
             0 MiB allocation reported by mallinfo(arena+hblkhd)
        841413 MiB available memory on the node where the printing process lives
     GPU memory used/free/total (MiB): 1074 / 80076 / 81151
------------------
     ethr =  3.82E-05,  avg # of iterations =  2.9

     total cpu time spent up to now is       17.6 secs

     total energy              =    -569.20780192 Ry
     estimated scf accuracy    <       0.00353979 Ry

     total magnetization       =     0.67 Bohr mag/cell
     absolute magnetization    =     0.70 Bohr mag/cell
[tb_dev] Currently allocated     3.05E-05 Mbytes, locked:    0 /   2
[tb_pin] Currently allocated     0.00E+00 Mbytes, locked:    0 /   0

     iteration # 11     ecut=    60.00 Ry     beta= 0.30
     Davidson diagonalization with overlap

---- Real-time Memory Report at c_bands before calling an iterative solver
           751 MiB given to the printing process from OS
             0 MiB allocation reported by mallinfo(arena+hblkhd)
        841396 MiB available memory on the node where the printing process lives
     GPU memory used/free/total (MiB): 1074 / 80076 / 81151
------------------
     ethr =  9.32E-06,  avg # of iterations =  5.9

     total cpu time spent up to now is       19.2 secs

     total energy              =    -569.20808839 Ry
     estimated scf accuracy    <       0.00093177 Ry

     total magnetization       =     0.65 Bohr mag/cell
     absolute magnetization    =     0.67 Bohr mag/cell
[tb_dev] Currently allocated     3.05E-05 Mbytes, locked:    0 /   2
[tb_pin] Currently allocated     0.00E+00 Mbytes, locked:    0 /   0

     iteration # 12     ecut=    60.00 Ry     beta= 0.30
     Davidson diagonalization with overlap

---- Real-time Memory Report at c_bands before calling an iterative solver
           751 MiB given to the printing process from OS
             0 MiB allocation reported by mallinfo(arena+hblkhd)
        841381 MiB available memory on the node where the printing process lives
     GPU memory used/free/total (MiB): 1074 / 80076 / 81151
------------------
     ethr =  2.45E-06,  avg # of iterations =  5.7

     total cpu time spent up to now is       20.9 secs

     total energy              =    -569.20837963 Ry
     estimated scf accuracy    <       0.00171912 Ry

     total magnetization       =     0.65 Bohr mag/cell
     absolute magnetization    =     0.66 Bohr mag/cell
[tb_dev] Currently allocated     3.05E-05 Mbytes, locked:    0 /   2
[tb_pin] Currently allocated     0.00E+00 Mbytes, locked:    0 /   0

     iteration # 13     ecut=    60.00 Ry     beta= 0.30
     Davidson diagonalization with overlap

---- Real-time Memory Report at c_bands before calling an iterative solver
           751 MiB given to the printing process from OS
             0 MiB allocation reported by mallinfo(arena+hblkhd)
        841371 MiB available memory on the node where the printing process lives
     GPU memory used/free/total (MiB): 1074 / 80076 / 81151
------------------
     ethr =  2.45E-06,  avg # of iterations =  1.6

     total cpu time spent up to now is       22.0 secs

     total energy              =    -569.20845042 Ry
     estimated scf accuracy    <       0.00021705 Ry

     total magnetization       =     0.66 Bohr mag/cell
     absolute magnetization    =     0.67 Bohr mag/cell
[tb_dev] Currently allocated     3.05E-05 Mbytes, locked:    0 /   2
[tb_pin] Currently allocated     0.00E+00 Mbytes, locked:    0 /   0

     iteration # 14     ecut=    60.00 Ry     beta= 0.30
     Davidson diagonalization with overlap

---- Real-time Memory Report at c_bands before calling an iterative solver
           751 MiB given to the printing process from OS
             0 MiB allocation reported by mallinfo(arena+hblkhd)
        841369 MiB available memory on the node where the printing process lives
     GPU memory used/free/total (MiB): 1074 / 80076 / 81151
------------------
     ethr =  5.71E-07,  avg # of iterations =  4.0

     total cpu time spent up to now is       23.5 secs

     total energy              =    -569.20853065 Ry
     estimated scf accuracy    <       0.00002519 Ry

     total magnetization       =     0.66 Bohr mag/cell
     absolute magnetization    =     0.68 Bohr mag/cell
[tb_dev] Currently allocated     3.05E-05 Mbytes, locked:    0 /   2
[tb_pin] Currently allocated     0.00E+00 Mbytes, locked:    0 /   0

     iteration # 15     ecut=    60.00 Ry     beta= 0.30
     Davidson diagonalization with overlap

---- Real-time Memory Report at c_bands before calling an iterative solver
           751 MiB given to the printing process from OS
             0 MiB allocation reported by mallinfo(arena+hblkhd)
        841381 MiB available memory on the node where the printing process lives
     GPU memory used/free/total (MiB): 1074 / 80076 / 81151
------------------
     ethr =  6.63E-08,  avg # of iterations =  5.6

     total cpu time spent up to now is       25.1 secs

     total energy              =    -569.20854124 Ry
     estimated scf accuracy    <       0.00000654 Ry

     total magnetization       =     0.66 Bohr mag/cell
     absolute magnetization    =     0.68 Bohr mag/cell
[tb_dev] Currently allocated     3.05E-05 Mbytes, locked:    0 /   2
[tb_pin] Currently allocated     0.00E+00 Mbytes, locked:    0 /   0

     iteration # 16     ecut=    60.00 Ry     beta= 0.30
     Davidson diagonalization with overlap

---- Real-time Memory Report at c_bands before calling an iterative solver
           751 MiB given to the printing process from OS
             0 MiB allocation reported by mallinfo(arena+hblkhd)
        841413 MiB available memory on the node where the printing process lives
     GPU memory used/free/total (MiB): 1074 / 80076 / 81151
------------------
     ethr =  1.72E-08,  avg # of iterations =  2.9

     total cpu time spent up to now is       26.4 secs

     total energy              =    -569.20854209 Ry
     estimated scf accuracy    <       0.00000477 Ry

     total magnetization       =     0.66 Bohr mag/cell
     absolute magnetization    =     0.69 Bohr mag/cell
[tb_dev] Currently allocated     3.05E-05 Mbytes, locked:    0 /   2
[tb_pin] Currently allocated     0.00E+00 Mbytes, locked:    0 /   0

     iteration # 17     ecut=    60.00 Ry     beta= 0.30
     Davidson diagonalization with overlap

---- Real-time Memory Report at c_bands before calling an iterative solver
           751 MiB given to the printing process from OS
             0 MiB allocation reported by mallinfo(arena+hblkhd)
        841851 MiB available memory on the node where the printing process lives
     GPU memory used/free/total (MiB): 1074 / 80076 / 81151
------------------
     ethr =  1.26E-08,  avg # of iterations =  2.6

     total cpu time spent up to now is       27.7 secs

     total energy              =    -569.20854321 Ry
     estimated scf accuracy    <       0.00000038 Ry

     total magnetization       =     0.67 Bohr mag/cell
     absolute magnetization    =     0.69 Bohr mag/cell
[tb_dev] Currently allocated     3.05E-05 Mbytes, locked:    0 /   2
[tb_pin] Currently allocated     0.00E+00 Mbytes, locked:    0 /   0

     iteration # 18     ecut=    60.00 Ry     beta= 0.30
     Davidson diagonalization with overlap

---- Real-time Memory Report at c_bands before calling an iterative solver
           751 MiB given to the printing process from OS
             0 MiB allocation reported by mallinfo(arena+hblkhd)
        841645 MiB available memory on the node where the printing process lives
     GPU memory used/free/total (MiB): 1074 / 80076 / 81151
------------------
     ethr =  9.97E-10,  avg # of iterations =  6.7

     total cpu time spent up to now is       29.5 secs

     total energy              =    -569.20854367 Ry
     estimated scf accuracy    <       0.00000032 Ry

     total magnetization       =     0.67 Bohr mag/cell
     absolute magnetization    =     0.69 Bohr mag/cell
[tb_dev] Currently allocated     3.05E-05 Mbytes, locked:    0 /   2
[tb_pin] Currently allocated     0.00E+00 Mbytes, locked:    0 /   0

     iteration # 19     ecut=    60.00 Ry     beta= 0.30
     Davidson diagonalization with overlap

---- Real-time Memory Report at c_bands before calling an iterative solver
           751 MiB given to the printing process from OS
             0 MiB allocation reported by mallinfo(arena+hblkhd)
        841516 MiB available memory on the node where the printing process lives
     GPU memory used/free/total (MiB): 1074 / 80076 / 81151
------------------
     ethr =  8.52E-10,  avg # of iterations =  1.9
 
     Magnetic moment per site  (integrated on atomic sphere of radius R)
     atom   1 (R=0.275)  charge= 14.1018  magn=  0.5199
     atom   2 (R=0.275)  charge=  5.2166  magn=  0.0544
     atom   3 (R=0.275)  charge=  5.2302  magn=  0.0486
     atom   4 (R=0.413)  charge=  8.2258  magn= -0.0021

     total cpu time spent up to now is       30.6 secs

     End of self-consistent calculation

 ------ SPIN UP ------------


          k = 0.0000 0.0000 0.0000 (  3231 PWs)   bands (ev):

   -90.3568 -53.5853 -53.5633 -53.5633 -48.2517 -20.1046 -20.0607 -20.0607
   -13.9707 -12.0778  -0.3295   0.2677   0.2677   2.9296   3.2800   3.8341
     3.8341   3.9098   3.9098   5.1564   7.6865   7.6865   8.4774  11.8119
    15.1270  16.2625  20.9715

     occupation numbers 
     1.0000   1.0000   1.0000   1.0000   1.0000   1.0000   1.0000   1.0000
     1.0000   1.0000   1.0000   1.0000   1.0000   1.0000   1.0000   1.0000
     1.0000   1.0000   1.0000   1.0234   0.0000   0.0000   0.0000   0.0000
     0.0000   0.0000   0.0000

          k = 0.0000 0.0000 0.1146 (  3237 PWs)   bands (ev):

   -90.3568 -53.5854 -53.5633 -53.5633 -48.2517 -20.1048 -20.0607 -20.0607
   -13.9705 -12.0782  -0.2954   0.2677   0.2677   2.4299   3.8341   3.8341
     3.9096   3.9096   3.9530   5.0585   7.6866   7.6866   8.1166  12.6078
    14.3112  16.4108  21.0343

     occupation numbers 
     1.0000   1.0000   1.0000   1.0000   1.0000   1.0000   1.0000   1.0000
     1.0000   1.0000   1.0000   1.0000   1.0000   1.0000   1.0000   1.0000
     1.0000   1.0000   1.0000   1.0822   0.0000   0.0000   0.0000   0.0000
     0.0000   0.0000   0.0000

          k = 0.0000 0.1443 0.0000 (  3229 PWs)   bands (ev):

   -90.3560 -53.5841 -53.5715 -53.5653 -48.2464 -20.1049 -20.0976 -20.0701
   -13.7994 -12.0813  -0.1295   0.0879   0.3799   2.7101   3.1410   3.3275
     3.6372   4.2465   4.4984   5.2416   7.1793   7.5880   8.8113  12.3912
    15.7420  16.5730  19.1330

     occupation numbers 
     1.0000   1.0000   1.0000   1.0000   1.0000   1.0000   1.0000   1.0000
     1.0000   1.0000   1.0000   1.0000   1.0000   1.0000   1.0000   1.0000
     1.0000   1.0000   1.0002   0.8809   0.0000   0.0000   0.0000   0.0000
     0.0000   0.0000   0.0000

          k = 0.0000 0.1443 0.1146 (  3219 PWs)   bands (ev):

   -90.3560 -53.5841 -53.5714 -53.5653 -48.2464 -20.1048 -20.0975 -20.0701
   -13.7993 -12.0815  -0.1051   0.0855   0.3799   2.7196   2.8935   3.1410
     4.1134   4.3609   4.4984   5.1155   7.2513   7.5879   8.4777  13.0885
    14.8100  16.9813  19.1142

     occupation numbers 
     1.0000   1.0000   1.0000   1.0000   1.0000   1.0000   1.0000   1.0000
     1.0000   1.0000   1.0000   1.0000   1.0000   1.0000   1.0000   1.0000
     1.0000   1.0000   1.0002   1.0604   0.0000   0.0000   0.0000   0.0000
     0.0000   0.0000   0.0000

          k = 0.0000 0.2887 0.0000 (  3212 PWs)   bands (ev):

   -90.3543 -53.5912 -53.5812 -53.5699 -48.2338 -20.2101 -20.0928 -20.0807
   -13.3497 -12.1033  -0.1996   0.3804   0.6468   1.3781   2.5746   3.7254
     4.3399   4.5381   4.7181   5.2290   6.5912   7.4691   9.6036  13.6747
    15.3286  16.9346  17.3853

     occupation numbers 
     1.0000   1.0000   1.0000   1.0000   1.0000   1.0000   1.0000   1.0000
     1.0000   1.0000   1.0000   1.0000   1.0000   1.0000   1.0000   1.0000
     1.0000   1.0004   1.0074   0.9073   0.0000   0.0000   0.0000   0.0000
     0.0000   0.0000   0.0000

          k = 0.0000 0.2887 0.1146 (  3212 PWs)   bands (ev):

   -90.3543 -53.5911 -53.5812 -53.5700 -48.2338 -20.2100 -20.0929 -20.0807
   -13.3496 -12.1034  -0.2069   0.3941   0.6468   1.3886   2.5746   3.6355
     4.2472   4.7181   4.8613   5.0052   6.7626   7.4690   9.3882  14.1005
    15.3417  15.9579  18.3075

     occupation numbers 
     1.0000   1.0000   1.0000   1.0000   1.0000   1.0000   1.0000   1.0000
     1.0000   1.0000   1.0000   1.0000   1.0000   1.0000   1.0000   1.0000
     1.0000   1.0074   1.0350   1.0797   0.0000   0.0000   0.0000   0.0000
     0.0000   0.0000   0.0000

          k = 0.0000 0.4330 0.0000 (  3198 PWs)   bands (ev):

   -90.3525 -53.6108 -53.5783 -53.5746 -48.2212 -20.3134 -20.1155 -20.0635
   -12.8081 -12.1769  -0.6505   0.4039   0.8570   1.4103   2.3874   3.2437
     4.2346   4.4817   4.7326   6.3693   6.9270   7.5075  10.9035  11.9482
    15.3165  15.7295  17.8390

     occupation numbers 
     1.0000   1.0000   1.0000   1.0000   1.0000   1.0000   1.0000   1.0000
     1.0000   1.0000   1.0000   1.0000   1.0000   1.0000   1.0000   1.0000
     1.0000   1.0001   1.0089   0.0000   0.0000   0.0000   0.0000   0.0000
     0.0000   0.0000   0.0000

          k = 0.0000 0.4330 0.1146 (  3216 PWs)   bands (ev):

   -90.3525 -53.6109 -53.5783 -53.5748 -48.2212 -20.3135 -20.1157 -20.0636
   -12.8081 -12.1769  -0.6515   0.4015   0.8570   1.4181   2.3873   3.2494
     4.2313   4.4817   4.7377   6.1918   7.1333   7.5074  10.8381  11.9073
    15.3794  16.0893  17.0119

     occupation numbers 
     1.0000   1.0000   1.0000   1.0000   1.0000   1.0000   1.0000   1.0000
     1.0000   1.0000   1.0000   1.0000   1.0000   1.0000   1.0000   1.0000
     1.0000   1.0001   1.0095   0.0000   0.0000   0.0000   0.0000   0.0000
     0.0000   0.0000   0.0000

          k = 0.0000-0.5774 0.0000 (  3214 PWs)   bands (ev):

   -90.3518 -53.6190 -53.5771 -53.5767 -48.2160 -20.3557 -20.1251 -20.0566
   -12.4553 -12.3207  -1.0327   0.5837   0.9003   1.5968   2.4422   2.9694
     3.9966   4.2681   4.6731   6.9384   7.5563   8.3405   9.6447  12.6696
    13.3055  16.7029  16.9493

     occupation numbers 
     1.0000   1.0000   1.0000   1.0000   1.0000   1.0000   1.0000   1.0000
     1.0000   1.0000   1.0000   1.0000   1.0000   1.0000   1.0000   1.0000
     1.0000   1.0000   1.0040   0.0000   0.0000   0.0000   0.0000   0.0000
     0.0000   0.0000   0.0000

          k = 0.0000-0.5774 0.1146 (  3216 PWs)   bands (ev):

   -90.3518 -53.6191 -53.5771 -53.5767 -48.2160 -20.3559 -20.1251 -20.0565
   -12.4553 -12.3207  -1.0328   0.5816   0.9003   1.5981   2.4422   2.9760
     3.9955   4.2681   4.6712   6.9261   7.5563   8.3572   9.6019  12.6670
    13.4910  16.1512  17.2136

     occupation numbers 
     1.0000   1.0000   1.0000   1.0000   1.0000   1.0000   1.0000   1.0000
     1.0000   1.0000   1.0000   1.0000   1.0000   1.0000   1.0000   1.0000
     1.0000   1.0000   1.0039   0.0000   0.0000   0.0000   0.0000   0.0000
     0.0000   0.0000   0.0000

          k = 0.1250 0.2165 0.0000 (  3225 PWs)   bands (ev):

   -90.3548 -53.5845 -53.5821 -53.5695 -48.2375 -20.1746 -20.0914 -20.0856
   -13.4888 -12.0932  -0.1061   0.2521   0.5313   1.8533   2.4355   3.7700
     4.2240   4.3163   4.8035   5.2246   6.7639   7.3498   9.3536  13.3315
    16.3844  16.8534  17.0983

     occupation numbers 
     1.0000   1.0000   1.0000   1.0000   1.0000   1.0000   1.0000   1.0000
     1.0000   1.0000   1.0000   1.0000   1.0000   1.0000   1.0000   1.0000
     1.0000   1.0000   1.0202   0.9162   0.0000   0.0000   0.0000   0.0000
     0.0000   0.0000   0.0000

          k = 0.1250 0.2165 0.1146 (  3212 PWs)   bands (ev):

   -90.3548 -53.5845 -53.5821 -53.5695 -48.2375 -20.1745 -20.0912 -20.0855
   -13.4887 -12.0933  -0.1133   0.2698   0.5319   1.8633   2.4354   3.5268
     4.3017   4.4922   4.8869   5.1219   6.8623   7.3097   9.1761  13.7631
    15.6907  16.5485  17.9652

     occupation numbers 
     1.0000   1.0000   1.0000   1.0000   1.0000   1.0000   1.0000   1.0000
     1.0000   1.0000   1.0000   1.0000   1.0000   1.0000   1.0000   1.0000
     1.0000   1.0002   1.0431   1.0559   0.0000   0.0000   0.0000   0.0000
     0.0000   0.0000   0.0000

          k = 0.1250 0.3608 0.0000 (  3216 PWs)   bands (ev):

   -90.3530 -53.6022 -53.5793 -53.5761 -48.2249 -20.2677 -20.1250 -20.0687
   -12.9940 -12.1334  -0.2424   0.2678   0.8593   1.3087   2.0050   3.5503
     4.3353   4.6030   4.9426   5.8111   6.7513   7.2548  10.3913  13.4964
    14.7346  17.1250  17.6197

     occupation numbers 
     1.0000   1.0000   1.0000   1.0000   1.0000   1.0000   1.0000   1.0000
     1.0000   1.0000   1.0000   1.0000   1.0000   1.0000   1.0000   1.0000
     1.0000   1.0013   1.0621   0.0057   0.0000   0.0000   0.0000   0.0000
     0.0000   0.0000   0.0000

          k = 0.1250 0.3608 0.1146 (  3205 PWs)   bands (ev):

   -90.3530 -53.6021 -53.5793 -53.5761 -48.2249 -20.2675 -20.1249 -20.0686
   -12.9939 -12.1334  -0.2461   0.2675   0.8619   1.3189   2.0052   3.5438
     4.3346   4.6168   4.9149   5.7327   6.9382   7.1933  10.3229  13.4915
    14.8633  16.7600  17.7821

     occupation numbers 
     1.0000   1.0000   1.0000   1.0000   1.0000   1.0000   1.0000   1.0000
     1.0000   1.0000   1.0000   1.0000   1.0000   1.0000   1.0000   1.0000
     1.0000   1.0017   1.0525   0.0184   0.0000   0.0000   0.0000   0.0000
     0.0000   0.0000   0.0000

          k = 0.1250 0.5052 0.0000 (  3220 PWs)   bands (ev):

   -90.3518 -53.6146 -53.5811 -53.5772 -48.2160 -20.3321 -20.1493 -20.0567
   -12.5409 -12.2356  -0.7443   0.2707   1.1218   1.5905   1.9606   2.9577
     4.0925   4.3972   4.8654   6.8716   7.2580   7.9060  10.6789  12.0827
    14.5779  15.7298  17.2454

     occupation numbers 
     1.0000   1.0000   1.0000   1.0000   1.0000   1.0000   1.0000   1.0000
     1.0000   1.0000   1.0000   1.0000   1.0000   1.0000   1.0000   1.0000
     1.0000   1.0000   1.0363   0.0000   0.0000   0.0000   0.0000   0.0000
     0.0000   0.0000   0.0000

          k = 0.1250 0.5052 0.1146 (  3217 PWs)   bands (ev):

   -90.3518 -53.6146 -53.5811 -53.5771 -48.2160 -20.3320 -20.1494 -20.0567
   -12.5409 -12.2356  -0.7443   0.2696   1.1208   1.5932   1.9604   2.9623
     4.0920   4.3980   4.8621   6.8351   7.2899   7.9103  10.6553  12.0794
    14.7130  15.6599  17.3376

     occupation numbers 
     1.0000   1.0000   1.0000   1.0000   1.0000   1.0000   1.0000   1.0000
     1.0000   1.0000   1.0000   1.0000   1.0000   1.0000   1.0000   1.0000
     1.0000   1.0000   1.0353   0.0000   0.0000   0.0000   0.0000   0.0000
     0.0000   0.0000   0.0000

          k = 0.2500 0.4330 0.0000 (  3215 PWs)   bands (ev):

   -90.3518 -53.6084 -53.5872 -53.5772 -48.2160 -20.2988 -20.1829 -20.0568
   -12.5936 -12.1835  -0.1854  -0.0492   0.9035   1.5903   1.7010   2.9892
     4.1545   4.4967   5.0494   6.7942   6.9598   7.6797  11.6934  11.9784
    14.4806  16.6424  16.8102

     occupation numbers 
     1.0000   1.0000   1.0000   1.0000   1.0000   1.0000   1.0000   1.0000
     1.0000   1.0000   1.0000   1.0000   1.0000   1.0000   1.0000   1.0000
     1.0000   1.0002   1.0831   0.0000   0.0000   0.0000   0.0000   0.0000
     0.0000   0.0000   0.0000

          k = 0.2500 0.4330 0.1146 (  3206 PWs)   bands (ev):

   -90.3518 -53.6084 -53.5872 -53.5771 -48.2160 -20.2987 -20.1828 -20.0566
   -12.5936 -12.1835  -0.1855  -0.0506   0.9037   1.5918   1.7037   2.9889
     4.1552   4.4985   5.0392   6.8474   6.9430   7.6272  11.7526  11.9690
    14.4271  16.6112  16.8969

     occupation numbers 
     1.0000   1.0000   1.0000   1.0000   1.0000   1.0000   1.0000   1.0000
     1.0000   1.0000   1.0000   1.0000   1.0000   1.0000   1.0000   1.0000
     1.0000   1.0002   1.0833   0.0000   0.0000   0.0000   0.0000   0.0000
     0.0000   0.0000   0.0000

          k = 0.2500 0.5774 0.0000 (  3210 PWs)   bands (ev):

   -90.3513 -53.6088 -53.5939 -53.5763 -48.2123 -20.2999 -20.2185 -20.0516
   -12.3793 -12.2440  -0.3385   0.0463   0.7308   1.7238   1.9497   2.5375
     3.8863   4.6966   4.9541   6.9402   6.9587   9.2280  10.2196  13.6907
    13.8130  14.2802  16.5145

     occupation numbers 
     1.0000   1.0000   1.0000   1.0000   1.0000   1.0000   1.0000   1.0000
     1.0000   1.0000   1.0000   1.0000   1.0000   1.0000   1.0000   1.0000
     1.0000   1.0055   1.0659   0.0000   0.0000   0.0000   0.0000   0.0000
     0.0000   0.0000   0.0000

          k = 0.2500 0.5774 0.1146 (  3215 PWs)   bands (ev):

   -90.3513 -53.6089 -53.5939 -53.5763 -48.2123 -20.3000 -20.2185 -20.0517
   -12.3793 -12.2440  -0.3386   0.0460   0.7313   1.7236   1.9499   2.5379
     3.8863   4.6969   4.9519   6.9461   6.9715   9.1919  10.1921  13.7444
    13.8136  14.3615  16.5432

     occupation numbers 
     1.0000   1.0000   1.0000   1.0000   1.0000   1.0000   1.0000   1.0000
     1.0000   1.0000   1.0000   1.0000   1.0000   1.0000   1.0000   1.0000
     1.0000   1.0056   1.0652   0.0000   0.0000   0.0000   0.0000   0.0000
     0.0000   0.0000   0.0000

          k = 0.0000-0.1443 0.1146 (  3219 PWs)   bands (ev):

   -90.3560 -53.5841 -53.5714 -53.5653 -48.2464 -20.1048 -20.0975 -20.0701
   -13.7993 -12.0815  -0.1024   0.0828   0.3799   2.6759   2.9463   3.1410
     4.1021   4.3566   4.4984   5.1355   7.1909   7.5881   8.5411  13.0354
    14.8488  16.9949  19.0970

     occupation numbers 
     1.0000   1.0000   1.0000   1.0000   1.0000   1.0000   1.0000   1.0000
     1.0000   1.0000   1.0000   1.0000   1.0000   1.0000   1.0000   1.0000
     1.0000   1.0000   1.0002   1.0448   0.0000   0.0000   0.0000   0.0000
     0.0000   0.0000   0.0000

          k = 0.0000-0.2887 0.1146 (  3212 PWs)   bands (ev):

   -90.3543 -53.5911 -53.5812 -53.5700 -48.2338 -20.2100 -20.0929 -20.0807
   -13.3496 -12.1034  -0.2042   0.3892   0.6468   1.3913   2.5746   3.6098
     4.2794   4.7181   4.7203   5.2418   6.5806   7.4691   9.5325  13.8573
    15.4060  16.1493  18.3049

     occupation numbers 
     1.0000   1.0000   1.0000   1.0000   1.0000   1.0000   1.0000   1.0000
     1.0000   1.0000   1.0000   1.0000   1.0000   1.0000   1.0000   1.0000
     1.0000   1.0074   1.0076   0.8805   0.0000   0.0000   0.0000   0.0000
     0.0000   0.0000   0.0000

          k = 0.0000-0.4330 0.1146 (  3216 PWs)   bands (ev):

   -90.3525 -53.6109 -53.5783 -53.5748 -48.2212 -20.3135 -20.1157 -20.0636
   -12.8081 -12.1769  -0.6519   0.4011   0.8570   1.4210   2.3873   3.2398
     4.2369   4.4817   4.7194   6.4111   6.8718   7.5074  10.9968  11.9151
    15.1422  15.8497  17.3710

     occupation numbers 
     1.0000   1.0000   1.0000   1.0000   1.0000   1.0000   1.0000   1.0000
     1.0000   1.0000   1.0000   1.0000   1.0000   1.0000   1.0000   1.0000
     1.0000   1.0001   1.0075   0.0000   0.0000   0.0000   0.0000   0.0000
     0.0000   0.0000   0.0000

          k =-0.1250-0.3608 0.1146 (  3205 PWs)   bands (ev):

   -90.3530 -53.6021 -53.5793 -53.5761 -48.2249 -20.2675 -20.1249 -20.0686
   -12.9939 -12.1334  -0.2457   0.2667   0.8603   1.3226   2.0046   3.5348
     4.3406   4.6224   4.8786   5.8676   6.7514   7.2416  10.4069  13.4654
    14.7576  17.0165  17.7318

     occupation numbers 
     1.0000   1.0000   1.0000   1.0000   1.0000   1.0000   1.0000   1.0000
     1.0000   1.0000   1.0000   1.0000   1.0000   1.0000   1.0000   1.0000
     1.0000   1.0018   1.0404   0.0022   0.0000   0.0000   0.0000   0.0000
     0.0000   0.0000   0.0000

          k =-0.1250-0.5052 0.1146 (  3217 PWs)   bands (ev):

   -90.3518 -53.6146 -53.5811 -53.5771 -48.2160 -20.3320 -20.1494 -20.0567
   -12.5409 -12.2356  -0.7446   0.2697   1.1210   1.5937   1.9611   2.9595
     4.0930   4.3980   4.8594   6.8954   7.2663   7.8494  10.6634  12.1872
    14.6494  15.4906  17.4994

     occupation numbers 
     1.0000   1.0000   1.0000   1.0000   1.0000   1.0000   1.0000   1.0000
     1.0000   1.0000   1.0000   1.0000   1.0000   1.0000   1.0000   1.0000
     1.0000   1.0000   1.0344   0.0000   0.0000   0.0000   0.0000   0.0000
     0.0000   0.0000   0.0000

 ------ SPIN DOWN ----------


          k = 0.0000 0.0000 0.0000 (  3231 PWs)   bands (ev):

   -89.7212 -52.9913 -52.9913 -52.8706 -48.2527 -20.1050 -20.0620 -20.0620
   -13.8867 -11.9865  -0.0796   0.4647   0.4647   3.0239   3.3543   3.9698
     3.9698   4.3600   4.3600   5.8740   7.9617   7.9617   8.5046  11.8697
    15.2076  16.3534  20.9994

     occupation numbers 
     1.0000   1.0000   1.0000   1.0000   1.0000   1.0000   1.0000   1.0000
     1.0000   1.0000   1.0000   1.0000   1.0000   1.0000   1.0000   1.0000
     1.0000   1.0000   1.0000   0.0020   0.0000   0.0000   0.0000   0.0000
     0.0000   0.0000   0.0000

          k = 0.0000 0.0000 0.1146 (  3237 PWs)   bands (ev):

   -89.7213 -52.9913 -52.9913 -52.8706 -48.2527 -20.1052 -20.0621 -20.0621
   -13.8865 -11.9869  -0.0378   0.4647   0.4647   2.4866   3.9697   3.9697
     4.0464   4.3600   4.3600   5.7846   7.9618   7.9618   8.1430  12.6689
    14.4000  16.4801  21.0987

     occupation numbers 
     1.0000   1.0000   1.0000   1.0000   1.0000   1.0000   1.0000   1.0000
     1.0000   1.0000   1.0000   1.0000   1.0000   1.0000   1.0000   1.0000
     1.0000   1.0000   1.0000   0.0086   0.0000   0.0000   0.0000   0.0000
     0.0000   0.0000   0.0000

          k = 0.0000 0.1443 0.0000 (  3229 PWs)   bands (ev):

   -89.7205 -52.9997 -52.9933 -52.8693 -48.2474 -20.1063 -20.0980 -20.0715
   -13.7149 -11.9894   0.1131   0.2807   0.5708   2.8706   3.3665   3.4388
     3.7258   4.6961   4.8767   5.9107   7.4428   7.8559   8.8566  12.4437
    15.8209  16.6672  19.1199

     occupation numbers 
     1.0000   1.0000   1.0000   1.0000   1.0000   1.0000   1.0000   1.0000
     1.0000   1.0000   1.0000   1.0000   1.0000   1.0000   1.0000   1.0000
     1.0000   1.0055   1.0398   0.0010   0.0000   0.0000   0.0000   0.0000
     0.0000   0.0000   0.0000

          k = 0.0000 0.1443 0.1146 (  3219 PWs)   bands (ev):

   -89.7205 -52.9997 -52.9933 -52.8693 -48.2474 -20.1062 -20.0979 -20.0715
   -13.7147 -11.9896   0.1381   0.2829   0.5708   2.8807   2.9680   3.3665
     4.2922   4.7274   4.8767   5.8059   7.5320   7.8559   8.5036  13.1452
    14.8973  17.0561  19.1011

     occupation numbers 
     1.0000   1.0000   1.0000   1.0000   1.0000   1.0000   1.0000   1.0000
     1.0000   1.0000   1.0000   1.0000   1.0000   1.0000   1.0000   1.0000
     1.0000   1.0083   1.0398   0.0062   0.0000   0.0000   0.0000   0.0000
     0.0000   0.0000   0.0000

          k = 0.0000 0.2887 0.0000 (  3212 PWs)   bands (ev):

   -89.7186 -53.0200 -52.9981 -52.8663 -48.2348 -20.2116 -20.0942 -20.0811
   -13.2638 -12.0100  -0.0321   0.5969   0.8229   1.5488   2.7664   3.8806
     4.6546   4.8605   5.1722   5.7769   6.8882   7.7205   9.6391  13.7147
    15.3218  16.9995  17.4887

     occupation numbers 
     1.0000   1.0000   1.0000   1.0000   1.0000   1.0000   1.0000   1.0000
     1.0000   1.0000   1.0000   1.0000   1.0000   1.0000   1.0000   1.0000
     1.0030   1.0348   1.0036   0.0097   0.0000   0.0000   0.0000   0.0000
     0.0000   0.0000   0.0000

          k = 0.0000 0.2887 0.1146 (  3212 PWs)   bands (ev):

   -89.7186 -53.0200 -52.9981 -52.8663 -48.2348 -20.2115 -20.0943 -20.0811
   -13.2637 -12.0101  -0.0400   0.6114   0.8229   1.5646   2.7664   3.7531
     4.6335   5.0404   5.1722   5.6654   7.0664   7.7204   9.4038  14.1404
    15.3427  16.0332  18.3891

     occupation numbers 
     1.0000   1.0000   1.0000   1.0000   1.0000   1.0000   1.0000   1.0000
     1.0000   1.0000   1.0000   1.0000   1.0000   1.0000   1.0000   1.0000
     1.0022   1.0833   1.0036   0.0443   0.0000   0.0000   0.0000   0.0000
     0.0000   0.0000   0.0000

          k = 0.0000 0.4330 0.0000 (  3198 PWs)   bands (ev):

   -89.7168 -53.0403 -53.0030 -52.8632 -48.2222 -20.3150 -20.1169 -20.0639
   -12.7202 -12.0825  -0.5103   0.5096   1.0283   1.6724   2.5079   3.3997
     4.8375   5.0281   5.3528   6.4434   7.1807   7.7542  10.9185  11.9386
    15.3516  15.7414  17.9109

     occupation numbers 
     1.0000   1.0000   1.0000   1.0000   1.0000   1.0000   1.0000   1.0000
     1.0000   1.0000   1.0000   1.0000   1.0000   1.0000   1.0000   1.0000
     1.0283   1.0828   0.5958   0.0000   0.0000   0.0000   0.0000   0.0000
     0.0000   0.0000   0.0000

          k = 0.0000 0.4330 0.1146 (  3216 PWs)   bands (ev):

   -89.7168 -53.0403 -53.0031 -52.8632 -48.2222 -20.3151 -20.1172 -20.0640
   -12.7202 -12.0826  -0.5113   0.5069   1.0282   1.6816   2.5078   3.4056
     4.8290   5.0281   5.3631   6.2842   7.3743   7.7541  10.8458  11.8969
    15.4006  16.1172  17.0782

     occupation numbers 
     1.0000   1.0000   1.0000   1.0000   1.0000   1.0000   1.0000   1.0000
     1.0000   1.0000   1.0000   1.0000   1.0000   1.0000   1.0000   1.0000
     1.0261   1.0828   0.5672   0.0000   0.0000   0.0000   0.0000   0.0000
     0.0000   0.0000   0.0000

          k = 0.0000-0.5774 0.0000 (  3214 PWs)   bands (ev):

   -89.7161 -53.0487 -53.0051 -52.8620 -48.2170 -20.3573 -20.1265 -20.0569
   -12.3686 -12.2237  -0.9059   0.6604   1.0762   1.8705   2.5025   3.1015
     4.7179   4.8728   5.2370   7.2746   7.8051   8.3297   9.6398  12.6765
    13.3110  16.7351  16.9884

     occupation numbers 
     1.0000   1.0000   1.0000   1.0000   1.0000   1.0000   1.0000   1.0000
     1.0000   1.0000   1.0000   1.0000   1.0000   1.0000   1.0000   1.0000
     1.0074   1.0385   0.8907   0.0000   0.0000   0.0000   0.0000   0.0000
     0.0000   0.0000   0.0000

          k = 0.0000-0.5774 0.1146 (  3216 PWs)   bands (ev):

   -89.7161 -53.0488 -53.0051 -52.8619 -48.2170 -20.3576 -20.1265 -20.0568
   -12.3686 -12.2237  -0.9060   0.6582   1.0762   1.8718   2.5025   3.1087
     4.7160   4.8728   5.2357   7.2524   7.8051   8.3594   9.5940  12.6713
    13.4993  16.1770  17.2965

     occupation numbers 
     1.0000   1.0000   1.0000   1.0000   1.0000   1.0000   1.0000   1.0000
     1.0000   1.0000   1.0000   1.0000   1.0000   1.0000   1.0000   1.0000
     1.0072   1.0385   0.8935   0.0000   0.0000   0.0000   0.0000   0.0000
     0.0000   0.0000   0.0000

          k = 0.1250 0.2165 0.0000 (  3225 PWs)   bands (ev):

   -89.7192 -53.0131 -52.9977 -52.8672 -48.2385 -20.1761 -20.0928 -20.0860
   -13.4033 -12.0003   0.0643   0.4933   0.7113   2.0039   2.6373   3.9011
     4.3401   4.8354   5.2017   5.8395   7.0322   7.6134   9.3940  13.3766
    16.3978  16.8969  17.1970

     occupation numbers 
     1.0000   1.0000   1.0000   1.0000   1.0000   1.0000   1.0000   1.0000
     1.0000   1.0000   1.0000   1.0000   1.0000   1.0000   1.0000   1.0000
     1.0000   1.0277   0.9585   0.0036   0.0000   0.0000   0.0000   0.0000
     0.0000   0.0000   0.0000

          k = 0.1250 0.2165 0.1146 (  3212 PWs)   bands (ev):

   -89.7192 -53.0131 -52.9976 -52.8671 -48.2385 -20.1760 -20.0926 -20.0859
   -13.4032 -12.0004   0.0562   0.5135   0.7128   2.0185   2.6370   3.6155
     4.6308   4.8358   5.2708   5.7505   7.1411   7.5687   9.2051  13.8093
    15.7790  16.5353  18.0428

     occupation numbers 
     1.0000   1.0000   1.0000   1.0000   1.0000   1.0000   1.0000   1.0000
     1.0000   1.0000   1.0000   1.0000   1.0000   1.0000   1.0000   1.0000
     1.0021   1.0279   0.8138   0.0143   0.0000   0.0000   0.0000   0.0000
     0.0000   0.0000   0.0000

          k = 0.1250 0.3608 0.0000 (  3216 PWs)   bands (ev):

   -89.7174 -53.0314 -53.0046 -52.8641 -48.2259 -20.2692 -20.1264 -20.0690
   -12.9067 -12.0392  -0.0877   0.3989   1.0342   1.5372   2.1650   3.7010
     4.9003   5.2663   5.4091   5.8660   7.0373   7.5073  10.4139  13.4849
    14.7659  17.1648  17.6639

     occupation numbers 
     1.0000   1.0000   1.0000   1.0000   1.0000   1.0000   1.0000   1.0000
     1.0000   1.0000   1.0000   1.0000   1.0000   1.0000   1.0000   1.0000
     1.0476   0.8245   0.4428   0.0023   0.0000   0.0000   0.0000   0.0000
     0.0000   0.0000   0.0000

          k = 0.1250 0.3608 0.1146 (  3205 PWs)   bands (ev):

   -89.7174 -53.0313 -53.0046 -52.8641 -48.2259 -20.2691 -20.1263 -20.0689
   -12.9067 -12.0393  -0.0915   0.3984   1.0360   1.5513   2.1653   3.6909
     4.8955   5.2261   5.4418   5.8027   7.2136   7.4467  10.3367  13.4799
    14.8919  16.8372  17.7940

     occupation numbers 
     1.0000   1.0000   1.0000   1.0000   1.0000   1.0000   1.0000   1.0000
     1.0000   1.0000   1.0000   1.0000   1.0000   1.0000   1.0000   1.0000
     1.0459   0.9132   0.3607   0.0065   0.0000   0.0000   0.0000   0.0000
     0.0000   0.0000   0.0000

          k = 0.1250 0.5052 0.0000 (  3220 PWs)   bands (ev):

   -89.7161 -53.0442 -53.0096 -52.8620 -48.2170 -20.3337 -20.1508 -20.0570
   -12.4524 -12.1405  -0.6167   0.3848   1.2720   1.8050   2.1030   3.1063
     4.8631   4.9752   5.3642   7.1670   7.4957   7.9406  10.6690  12.0905
    14.5832  15.7434  17.2812

     occupation numbers 
     1.0000   1.0000   1.0000   1.0000   1.0000   1.0000   1.0000   1.0000
     1.0000   1.0000   1.0000   1.0000   1.0000   1.0000   1.0000   1.0000
     1.0356   1.0724   0.5641   0.0000   0.0000   0.0000   0.0000   0.0000
     0.0000   0.0000   0.0000

          k = 0.1250 0.5052 0.1146 (  3217 PWs)   bands (ev):

   -89.7161 -53.0442 -53.0096 -52.8620 -48.2170 -20.3336 -20.1508 -20.0570
   -12.4524 -12.1405  -0.6167   0.3835   1.2710   1.8076   2.1031   3.1116
     4.8615   4.9762   5.3609   7.1114   7.5457   7.9477  10.6448  12.0866
    14.7170  15.6705  17.4082

     occupation numbers 
     1.0000   1.0000   1.0000   1.0000   1.0000   1.0000   1.0000   1.0000
     1.0000   1.0000   1.0000   1.0000   1.0000   1.0000   1.0000   1.0000
     1.0351   1.0727   0.5732   0.0000   0.0000   0.0000   0.0000   0.0000
     0.0000   0.0000   0.0000

          k = 0.2500 0.4330 0.0000 (  3215 PWs)   bands (ev):

   -89.7161 -53.0378 -53.0159 -52.8620 -48.2170 -20.3003 -20.1844 -20.0571
   -12.5049 -12.0884  -0.0686   0.0953   1.0085   1.7666   1.9283   3.1420
     4.9590   5.0546   5.5214   7.0024   7.2474   7.7397  11.6899  11.9759
    14.4865  16.6496  16.8188

     occupation numbers 
     1.0000   1.0000   1.0000   1.0000   1.0000   1.0000   1.0000   1.0000
     1.0000   1.0000   1.0000   1.0000   1.0000   1.0000   1.0000   1.0000
     1.0675   1.0826   0.1968   0.0000   0.0000   0.0000   0.0000   0.0000
     0.0000   0.0000   0.0000

          k = 0.2500 0.4330 0.1146 (  3206 PWs)   bands (ev):

   -89.7161 -53.0378 -53.0159 -52.8620 -48.2170 -20.3003 -20.1843 -20.0570
   -12.5049 -12.0885  -0.0686   0.0937   1.0087   1.7662   1.9337   3.1415
     4.9593   5.0569   5.5080   7.0682   7.2236   7.6842  11.7477  11.9685
    14.4303  16.6180  16.9130

     occupation numbers 
     1.0000   1.0000   1.0000   1.0000   1.0000   1.0000   1.0000   1.0000
     1.0000   1.0000   1.0000   1.0000   1.0000   1.0000   1.0000   1.0000
     1.0676   1.0824   0.2204   0.0000   0.0000   0.0000   0.0000   0.0000
     0.0000   0.0000   0.0000

          k = 0.2500 0.5774 0.0000 (  3210 PWs)   bands (ev):

   -89.7155 -53.0383 -53.0228 -52.8611 -48.2133 -20.3015 -20.2200 -20.0520
   -12.2914 -12.1471  -0.2168   0.1698   0.8284   1.8893   2.1804   2.6658
     4.7431   5.2360   5.4561   7.2243   7.2331   9.2212  10.2103  13.6928
    13.8151  14.2850  16.5203

     occupation numbers 
     1.0000   1.0000   1.0000   1.0000   1.0000   1.0000   1.0000   1.0000
     1.0000   1.0000   1.0000   1.0000   1.0000   1.0000   1.0000   1.0000
     1.0101   0.8929   0.3271   0.0000   0.0000   0.0000   0.0000   0.0000
     0.0000   0.0000   0.0000

          k = 0.2500 0.5774 0.1146 (  3215 PWs)   bands (ev):

   -89.7155 -53.0383 -53.0228 -52.8611 -48.2133 -20.3016 -20.2200 -20.0521
   -12.2914 -12.1471  -0.2170   0.1695   0.8289   1.8889   2.1806   2.6666
     4.7432   5.2364   5.4534   7.2362   7.2437   9.1818  10.1807  13.7476
    13.8132  14.3699  16.5541

     occupation numbers 
     1.0000   1.0000   1.0000   1.0000   1.0000   1.0000   1.0000   1.0000
     1.0000   1.0000   1.0000   1.0000   1.0000   1.0000   1.0000   1.0000
     1.0102   0.8921   0.3333   0.0000   0.0000   0.0000   0.0000   0.0000
     0.0000   0.0000   0.0000

          k = 0.0000-0.1443 0.1146 (  3219 PWs)   bands (ev):

   -89.7205 -52.9997 -52.9933 -52.8693 -48.2474 -20.1062 -20.0979 -20.0715
   -13.7147 -11.9896   0.1417   0.2794   0.5707   2.8031   3.0595   3.3665
     4.2619   4.7470   4.8767   5.8169   7.4572   7.8560   8.5810  13.0904
    14.9386  17.0690  19.0840

     occupation numbers 
     1.0000   1.0000   1.0000   1.0000   1.0000   1.0000   1.0000   1.0000
     1.0000   1.0000   1.0000   1.0000   1.0000   1.0000   1.0000   1.0000
     1.0000   1.0106   1.0398   0.0052   0.0000   0.0000   0.0000   0.0000
     0.0000   0.0000   0.0000

          k = 0.0000-0.2887 0.1146 (  3212 PWs)   bands (ev):

   -89.7186 -53.0199 -52.9982 -52.8663 -48.2348 -20.2115 -20.0943 -20.0811
   -13.2637 -12.0101  -0.0377   0.6068   0.8229   1.5675   2.7663   3.7286
     4.6503   5.0552   5.1722   5.7552   6.8780   7.7204   9.5611  13.8937
    15.3994  16.2445  18.3813

     occupation numbers 
     1.0000   1.0000   1.0000   1.0000   1.0000   1.0000   1.0000   1.0000
     1.0000   1.0000   1.0000   1.0000   1.0000   1.0000   1.0000   1.0000
     1.0028   1.0826   1.0036   0.0134   0.0000   0.0000   0.0000   0.0000
     0.0000   0.0000   0.0000

          k = 0.0000-0.4330 0.1146 (  3216 PWs)   bands (ev):

   -89.7168 -53.0403 -53.0031 -52.8632 -48.2222 -20.3151 -20.1172 -20.0640
   -12.7202 -12.0826  -0.5117   0.5066   1.0282   1.6856   2.5078   3.3938
     4.8324   5.0281   5.3399   6.4762   7.1429   7.7541  11.0103  11.9044
    15.1694  15.8624  17.4842

     occupation numbers 
     1.0000   1.0000   1.0000   1.0000   1.0000   1.0000   1.0000   1.0000
     1.0000   1.0000   1.0000   1.0000   1.0000   1.0000   1.0000   1.0000
     1.0270   1.0828   0.6314   0.0000   0.0000   0.0000   0.0000   0.0000
     0.0000   0.0000   0.0000

          k =-0.1250-0.3608 0.1146 (  3205 PWs)   bands (ev):

   -89.7173 -53.0313 -53.0046 -52.8641 -48.2259 -20.2691 -20.1263 -20.0689
   -12.9067 -12.0393  -0.0914   0.3978   1.0346   1.5554   2.1646   3.6800
     4.9027   5.2515   5.3565   5.9501   7.0401   7.4946  10.4251  13.4546
    14.7833  17.1122  17.7472

     occupation numbers 
     1.0000   1.0000   1.0000   1.0000   1.0000   1.0000   1.0000   1.0000
     1.0000   1.0000   1.0000   1.0000   1.0000   1.0000   1.0000   1.0000
     1.0484   0.8590   0.5854   0.0005   0.0000   0.0000   0.0000   0.0000
     0.0000   0.0000   0.0000

          k =-0.1250-0.5052 0.1146 (  3217 PWs)   bands (ev):

   -89.7161 -53.0442 -53.0096 -52.8620 -48.2170 -20.3336 -20.1508 -20.0570
   -12.4524 -12.1405  -0.6170   0.3837   1.2712   1.8079   2.1045   3.1080
     4.8630   4.9758   5.3574   7.2024   7.5016   7.8762  10.6522  12.1951
    14.6570  15.5027  17.5468

     occupation numbers 
     1.0000   1.0000   1.0000   1.0000   1.0000   1.0000   1.0000   1.0000
     1.0000   1.0000   1.0000   1.0000   1.0000   1.0000   1.0000   1.0000
     1.0355   1.0726   0.5829   0.0000   0.0000   0.0000   0.0000   0.0000
     0.0000   0.0000   0.0000

     the Fermi energy is     5.4255 ev

!    total energy              =    -569.20854376 Ry
     total all-electron energy =     -3412.699099 Ry
     estimated scf accuracy    <       0.00000008 Ry
     smearing contrib. (-TS)   =       0.00318187 Ry
     internal energy E=F+TS    =    -569.21172563 Ry

     The total energy is F=E-TS. E is the sum of the following terms:
     one-electron contribution =    -547.50544354 Ry
     hartree contribution      =     288.36382522 Ry
     xc contribution           =     -60.01477738 Ry
     ewald contribution        =    -128.10402405 Ry
     one-center paw contrib.   =    -121.95130587 Ry
      -> PAW hartree energy AE =     342.75065445 Ry
      -> PAW hartree energy PS =    -342.75072924 Ry
      -> PAW xc energy AE      =    -178.93211812 Ry
      -> PAW xc energy PS      =      56.98088703 Ry
      -> total E_H with PAW    =     288.36375044 Ry
      -> total E_XC with PAW   =    -181.96600847 Ry

     total magnetization       =     0.67 Bohr mag/cell
     absolute magnetization    =     0.69 Bohr mag/cell

     convergence has been achieved in  19 iterations

     Forces acting on atoms (cartesian axes, Ry/au):

     atom    1 type  1   force =     0.00000000    0.00000000    0.01133648
     atom    2 type  2   force =     0.00000000    0.00000000   -0.01888266
     atom    3 type  2   force =     0.00000000    0.00000000   -0.00206202
     atom    4 type  3   force =     0.00000000    0.00000000    0.00960819
     The non-local contrib.  to forces
     atom    1 type  1   force =    -0.00000000   -0.00000000    0.00988693
     atom    2 type  2   force =     0.00000000    0.00000000   -1.11826060
     atom    3 type  2   force =    -0.00000000   -0.00000000    0.95122146
     atom    4 type  3   force =     0.00000000    0.00000000    0.00998582
     The ionic contribution  to forces
     atom    1 type  1   force =    -0.00000000    0.00000000    5.34352591
     atom    2 type  2   force =     0.00000000   -0.00000000   33.05926717
     atom    3 type  2   force =    -0.00000000    0.00000000  -29.33906224
     atom    4 type  3   force =     0.00000000   -0.00000000   -9.06373085
     The local contribution  to forces
     atom    1 type  1   force =    -0.00000000   -0.00000000   -5.34217188
     atom    2 type  2   force =     0.00000001   -0.00000001  -31.96937161
     atom    3 type  2   force =    -0.00000001    0.00000001   28.39355769
     atom    4 type  3   force =    -0.00000000   -0.00000000    9.06331834
     The core correction contribution to forces
     atom    1 type  1   force =     0.00000000   -0.00000000   -0.00012931
     atom    2 type  2   force =    -0.00000000    0.00000000    0.00981648
     atom    3 type  2   force =     0.00000000   -0.00000000   -0.00816570
     atom    4 type  3   force =    -0.00000000    0.00000000   -0.00002255
     The Hubbard contrib.    to forces
     atom    1 type  1   force =     0.00000000    0.00000000    0.00000000
     atom    2 type  2   force =     0.00000000    0.00000000    0.00000000
     atom    3 type  2   force =     0.00000000    0.00000000    0.00000000
     atom    4 type  3   force =     0.00000000    0.00000000    0.00000000
     The SCF correction term to forces
     atom    1 type  1   force =    -0.00000000   -0.00000000    0.00023458
     atom    2 type  2   force =    -0.00000000    0.00000000   -0.00032435
     atom    3 type  2   force =     0.00000000   -0.00000000    0.00039652
     atom    4 type  3   force =     0.00000000    0.00000000    0.00006719

     Total force =     0.024117     Total SCF correction =     0.000567

     Writing all to output data dir ./out/pw.save/ :
     XML data file, charge density, pseudopotentials, collected wavefunctions
 
     init_run     :     13.86s CPU      3.41s WALL (       1 calls)
     electrons    :     99.52s CPU     26.68s WALL (       1 calls)
     forces       :      0.71s CPU      0.57s WALL (       1 calls)

     Called by init_run:
     wfcinit      :      0.28s CPU      0.33s WALL (       1 calls)
     wfcinit:atom :      0.04s CPU      0.04s WALL (      50 calls)
     wfcinit:wfcr :      0.17s CPU      0.20s WALL (      50 calls)
     potinit      :     13.05s CPU      2.49s WALL (       1 calls)
     hinit0       :      0.45s CPU      0.46s WALL (       1 calls)

     Called by electrons:
     c_bands      :     12.98s CPU     13.06s WALL (      19 calls)
     sum_band     :      2.12s CPU      2.12s WALL (      19 calls)
     v_of_rho     :      0.34s CPU      0.19s WALL (      20 calls)
     v_h          :      0.24s CPU      0.03s WALL (      20 calls)
     v_xc         :      0.10s CPU      0.16s WALL (      21 calls)
     newd         :      0.47s CPU      0.37s WALL (      20 calls)
                                        0.37s GPU  (      20 calls)
     PAW_pot      :     86.88s CPU     10.91s WALL (      20 calls)
     mix_rho      :      0.57s CPU      0.56s WALL (      19 calls)

     Called by c_bands:
     init_us_2    :      0.82s CPU      0.80s WALL (    2000 calls)
     cegterg      :     11.38s CPU     11.49s WALL (     950 calls)

     Called by sum_band:
     sum_band:wei :      0.02s CPU      0.02s WALL (      19 calls)
                                        0.02s GPU  (      19 calls)
     sum_band:loo :      1.32s CPU      1.32s WALL (      19 calls)
                                        1.32s GPU  (      19 calls)
     sum_band:buf :      0.16s CPU      0.19s WALL (     950 calls)
                                        0.17s GPU  (     950 calls)
     sum_band:ini :      0.37s CPU      0.38s WALL (     950 calls)
                                        0.37s GPU  (     950 calls)
     sum_band:cal :      0.04s CPU      0.06s WALL (     950 calls)
                                        0.05s GPU  (     950 calls)
     sum_band:bec :      0.20s CPU      0.22s WALL (     950 calls)
                                        0.21s GPU  (     950 calls)
     addusdens    :      0.64s CPU      0.65s WALL (      19 calls)
                                        0.65s GPU  (      19 calls)
     addusd:skk   :      0.00s CPU      0.00s WALL (      57 calls)
                                        0.00s GPU  (      57 calls)

     Called by *egterg:
     cdiaghg      :      3.98s CPU      4.12s WALL (    4509 calls)
                                        4.06s GPU  (    4509 calls)
     cegterg:over :      0.95s CPU      0.99s WALL (    3559 calls)
     cegterg:upda :      0.67s CPU      0.67s WALL (    3559 calls)
     cegterg:last :      0.12s CPU      0.12s WALL (    1866 calls)
     h_psi        :      4.07s CPU      4.15s WALL (    4559 calls)
                                        4.10s GPU  (    4559 calls)
     s_psi        :      0.71s CPU      0.74s WALL (    4559 calls)
     g_psi        :      0.02s CPU      0.09s WALL (    3559 calls)
                                        0.04s GPU  (    3559 calls)

     Called by h_psi:
     h_psi:calbec :      0.14s CPU      0.26s WALL (    4559 calls)
                                        0.21s GPU  (    4559 calls)
     vloc_psi     :      2.80s CPU      2.81s WALL (    4559 calls)
                                        2.76s GPU  (    4559 calls)
     add_vuspsi   :      0.64s CPU      0.75s WALL (    4559 calls)
                                        0.70s GPU  (    4559 calls)

     General routines
     calbec       :      0.15s CPU      0.18s WALL (    5709 calls)
     fft          :      3.99s CPU      1.00s WALL (     513 calls)
                                        0.02s GPU  (     473 calls)
     ffts         :      4.96s CPU      0.86s WALL (     728 calls)
                                        0.02s GPU  (     688 calls)
     fftw         :      0.27s CPU      0.94s WALL (   14918 calls)
                                        0.77s GPU  (   14918 calls)
     interpolate  :      9.08s CPU      1.84s WALL (      40 calls)
 
     Parallel routines

     PAW routines
     PAW_pot      :     86.88s CPU     10.91s WALL (      20 calls)
     PAW_symme    :      0.02s CPU      0.00s WALL (      39 calls)
 
     PWSCF        :   1m55.00s CPU     31.28s WALL

 
   This run was terminated on:   3:51:37  12Jul2026            

=------------------------------------------------------------------------------=
   JOB DONE.
=------------------------------------------------------------------------------=
Warning: ieee_divide_by_zero is signaling
Warning: ieee_inexact is signaling
FORTRAN STOP
