
     Program PWSCF v.7.3.1 starts on 12Jul2026 at  3:20:20 

     This program is part of the open-source Quantum ESPRESSO suite
     for quantum simulation of materials; please cite
         "P. Giannozzi et al., J. Phys.:Condens. Matter 21 395502 (2009);
         "P. Giannozzi et al., J. Phys.:Condens. Matter 29 465901 (2017);
         "P. Giannozzi et al., J. Chem. Phys. 152 154105 (2020);
          URL http://www.quantum-espresso.org", 
     in publications or presentations arising from this work. More details at
     http://www.quantum-espresso.org/quote

     Parallel version (MPI & OpenMP), running on      14 processor cores
     Number of MPI processes:                 1
     Threads/MPI process:                    14

     MPI processes distributed on     1 nodes
     847580 MiB available memory on the printing compute node when the environment starts
 
     Reading input from pw.in

     Current dimensions of program PWSCF are:
     Max number of different atomic species (ntypx) = 10
     Max number of k-points (npk) =  40000
     Max angular momentum in pseudopotentials (lmaxx) =  4
     file Co.pbe-spn-kjpaw_psl.0.3.1.UPF: wavefunction(s)  3P 3D renormalized
     file O.pbe-n-kjpaw_psl.1.0.0.UPF: wavefunction(s)  2S 2P renormalized
 
     Subspace diagonalization in iterative solution of the eigenvalue problem:
     a serial algorithm will be used

 
     G-vector sticks info
     --------------------
     sticks:   dense  smooth     PW     G-vecs:    dense   smooth      PW
     Sum         931     475    139                69237    24541    3997
 
     Using Slab Decomposition
 


     bravais-lattice index     =            4
     lattice parameter (alat)  =       5.3290  a.u.
     unit-cell volume          =     390.3954 (a.u.)^3
     number of atoms/cell      =            4
     number of atomic types    =            3
     number of electrons       =        32.00
     number of Kohn-Sham states=           24
     kinetic-energy cutoff     =      60.0000  Ry
     charge density cutoff     =     480.0000  Ry
     scf convergence threshold =      1.0E-07
     mixing beta               =       0.3000
     number of iterations used =            8  local-TF  mixing
     Exchange-correlation= SLA  PW   PBX  PBC
                           (   1   4   3   4   0   0   0)

     GPU acceleration is ACTIVE.  1 visible GPUs per MPI rank
     GPU-aware MPI enabled


     GPU used by master process:

        Device Number: 0
        Device name: NVIDIA A100-SXM4-80GB
        Compute capability : 80
        Ratio of single to double precision performance  : 2
        Memory Clock Rate (KHz): 1593000
        Memory Bus Width (bits): 5120
        Peak Memory Bandwidth (GB/s): ******

     celldm(1)=   5.329028  celldm(2)=   0.000000  celldm(3)=   2.978723
     celldm(4)=   0.000000  celldm(5)=   0.000000  celldm(6)=   0.000000

     crystal axes: (cart. coord. in units of alat)
               a(1) = (   1.000000   0.000000   0.000000 )  
               a(2) = (  -0.500000   0.866025   0.000000 )  
               a(3) = (   0.000000   0.000000   2.978723 )  

     reciprocal axes: (cart. coord. in units 2 pi/alat)
               b(1) = (  1.000000  0.577350 -0.000000 )  
               b(2) = (  0.000000  1.154701  0.000000 )  
               b(3) = (  0.000000 -0.000000  0.335714 )  


     PseudoPot. # 1 for Co read from file:
     ../../pseudo/Co.pbe-spn-kjpaw_psl.0.3.1.UPF
     MD5 check sum: 3c0a43779828c046024e4f3be63f8e67
     Pseudo is Projector augmented-wave + core cor, Zval = 17.0
     Generated using &quot;atomic&quot; code by A. Dal Corso  v.6.2.2
     Shape of augmentation charge: PSQ
     Using radial grid of 1193 points,  6 beta functions with: 
                l(1) =   0
                l(2) =   0
                l(3) =   1
                l(4) =   1
                l(5) =   2
                l(6) =   2
     Q(r) pseudized with 0 coefficients 


     PseudoPot. # 2 for O  read from file:
     ../../pseudo/O.pbe-n-kjpaw_psl.1.0.0.UPF
     MD5 check sum: e99d9cef9b487d1ca56f5b95ecd0fd7a
     Pseudo is Projector augmented-wave + core cor, Zval =  6.0
     Generated using &quot;atomic&quot; code by A. Dal Corso  v.6.3
     Shape of augmentation charge: PSQ
     Using radial grid of 1095 points,  4 beta functions with: 
                l(1) =   0
                l(2) =   0
                l(3) =   1
                l(4) =   1
     Q(r) pseudized with 0 coefficients 


     PseudoPot. # 3 for Li read from file:
     ../../pseudo/Li.pbe-s-kjpaw_psl.1.0.0.UPF
     MD5 check sum: 3974953fb0fea6c4f83fb01d64ffc134
     Pseudo is Projector augmented-wave, Zval =  3.0
     Generated using &quot;atomic&quot; code by A. Dal Corso  v.6.3
     Shape of augmentation charge: PSQ
     Using radial grid of 1017 points,  4 beta functions with: 
                l(1) =   0
                l(2) =   0
                l(3) =   1
                l(4) =   1
     Q(r) pseudized with 0 coefficients 


     atomic species   valence    mass     pseudopotential
     Co               17.00    58.93300     Co( 1.00)
     O                 6.00    15.99900     O ( 1.00)
     Li                3.00     6.94100     Li( 1.00)

     Starting magnetic structure 
     atomic species   magnetization
     Co              0.300
     O               0.000
     Li              0.000

     12 Sym. Ops., with inversion, found


                                    s                        frac. trans.

      isym =  1     identity                                     

 cryst.   s( 1) = (     1          0          0      )
                  (     0          1          0      )
                  (     0          0          1      )

 cart.    s( 1) = (  1.0000000  0.0000000  0.0000000 )
                  (  0.0000000  1.0000000  0.0000000 )
                  (  0.0000000  0.0000000  1.0000000 )


      isym =  2     180 deg rotation - cart. axis [1,0,0]        

 cryst.   s( 2) = (     1          0          0      )
                  (    -1         -1          0      )
                  (     0          0         -1      )

 cart.    s( 2) = (  1.0000000  0.0000000  0.0000000 )
                  (  0.0000000 -1.0000000  0.0000000 )
                  (  0.0000000  0.0000000 -1.0000000 )


      isym =  3     120 deg rotation - cryst. axis [0,0,1]       

 cryst.   s( 3) = (     0          1          0      )
                  (    -1         -1          0      )
                  (     0          0          1      )

 cart.    s( 3) = ( -0.5000000 -0.8660254  0.0000000 )
                  (  0.8660254 -0.5000000  0.0000000 )
                  (  0.0000000  0.0000000  1.0000000 )


      isym =  4     120 deg rotation - cryst. axis [0,0,-1]      

 cryst.   s( 4) = (    -1         -1          0      )
                  (     1          0          0      )
                  (     0          0          1      )

 cart.    s( 4) = ( -0.5000000  0.8660254  0.0000000 )
                  ( -0.8660254 -0.5000000  0.0000000 )
                  (  0.0000000  0.0000000  1.0000000 )


      isym =  5     180 deg rotation - cryst. axis [0,1,0]       

 cryst.   s( 5) = (    -1         -1          0      )
                  (     0          1          0      )
                  (     0          0         -1      )

 cart.    s( 5) = ( -0.5000000 -0.8660254  0.0000000 )
                  ( -0.8660254  0.5000000  0.0000000 )
                  (  0.0000000  0.0000000 -1.0000000 )


      isym =  6     180 deg rotation - cryst. axis [1,1,0]       

 cryst.   s( 6) = (     0          1          0      )
                  (     1          0          0      )
                  (     0          0         -1      )

 cart.    s( 6) = ( -0.5000000  0.8660254  0.0000000 )
                  (  0.8660254  0.5000000  0.0000000 )
                  (  0.0000000  0.0000000 -1.0000000 )


      isym =  7     inversion                                    

 cryst.   s( 7) = (    -1          0          0      )
                  (     0         -1          0      )
                  (     0          0         -1      )

 cart.    s( 7) = ( -1.0000000  0.0000000  0.0000000 )
                  (  0.0000000 -1.0000000  0.0000000 )
                  (  0.0000000  0.0000000 -1.0000000 )


      isym =  8     inv. 180 deg rotation - cart. axis [1,0,0]   

 cryst.   s( 8) = (    -1          0          0      )
                  (     1          1          0      )
                  (     0          0          1      )

 cart.    s( 8) = ( -1.0000000  0.0000000  0.0000000 )
                  (  0.0000000  1.0000000  0.0000000 )
                  (  0.0000000  0.0000000  1.0000000 )


      isym =  9     inv. 120 deg rotation - cryst. axis [0,0,1]  

 cryst.   s( 9) = (     0         -1          0      )
                  (     1          1          0      )
                  (     0          0         -1      )

 cart.    s( 9) = (  0.5000000  0.8660254  0.0000000 )
                  ( -0.8660254  0.5000000  0.0000000 )
                  (  0.0000000  0.0000000 -1.0000000 )


      isym = 10     inv. 120 deg rotation - cryst. axis [0,0,-1] 

 cryst.   s(10) = (     1          1          0      )
                  (    -1          0          0      )
                  (     0          0         -1      )

 cart.    s(10) = (  0.5000000 -0.8660254  0.0000000 )
                  (  0.8660254  0.5000000  0.0000000 )
                  (  0.0000000  0.0000000 -1.0000000 )


      isym = 11     inv. 180 deg rotation - cryst. axis [0,1,0]  

 cryst.   s(11) = (     1          1          0      )
                  (     0         -1          0      )
                  (     0          0          1      )

 cart.    s(11) = (  0.5000000  0.8660254  0.0000000 )
                  (  0.8660254 -0.5000000  0.0000000 )
                  (  0.0000000  0.0000000  1.0000000 )


      isym = 12     inv. 180 deg rotation - cryst. axis [1,1,0]  

 cryst.   s(12) = (     0         -1          0      )
                  (    -1          0          0      )
                  (     0          0          1      )

 cart.    s(12) = (  0.5000000 -0.8660254  0.0000000 )
                  ( -0.8660254 -0.5000000  0.0000000 )
                  (  0.0000000  0.0000000  1.0000000 )


     point group D_3d (-3m) 
     there are  6 classes
     the character table:

       E     2C3   3C2'  i     2S6   3s_d 
A_1g   1.00  1.00  1.00  1.00  1.00  1.00
A_2g   1.00  1.00 -1.00  1.00  1.00 -1.00
E_g    2.00 -1.00  0.00  2.00 -1.00  0.00
A_1u   1.00  1.00  1.00 -1.00 -1.00 -1.00
A_2u   1.00  1.00 -1.00 -1.00 -1.00  1.00
E_u    2.00 -1.00  0.00 -2.00  1.00  0.00

     the symmetry operations in each class and the name of the first element:

     E        1
          identity                                               
     2C3      3    4
          120 deg rotation - cryst. axis [0,0,1]                 
     3C2'     2    5    6
          180 deg rotation - cart. axis [1,0,0]                  
     i        7
          inversion                                              
     2S6      9   10
          inv. 120 deg rotation - cryst. axis [0,0,1]            
     3s_d     8   11   12
          inv. 180 deg rotation - cart. axis [1,0,0]             

   Cartesian axes

     site n.     atom                  positions (alat units)
         1        Co     tau(   1) = (   0.0000000   0.0000000   0.0000000  )
         2        O      tau(   2) = (  -0.0000000   0.5773503   0.3404255  )
         3        O      tau(   3) = (   0.5000000   0.2886751   2.6382979  )
         4        Li     tau(   4) = (   0.0000000   0.0000000   1.4893617  )

   Crystallographic axes

     site n.     atom                  positions (cryst. coord.)
         1        Co     tau(   1) = (  0.0000000  0.0000000  0.0000000  )
         2        O      tau(   2) = (  0.3333333  0.6666667  0.1142857  )
         3        O      tau(   3) = (  0.6666667  0.3333333  0.8857143  )
         4        Li     tau(   4) = (  0.0000000  0.0000000  0.5000000  )

     number of k points=    25  Marzari-Vanderbilt smearing, width (Ry)=  0.0200
                       cart. coord. in units 2pi/alat
        k(    1) = (   0.0000000   0.0000000   0.0000000), wk =   0.0052083
        k(    2) = (   0.0000000   0.0000000   0.1119048), wk =   0.0104167
        k(    3) = (   0.0000000   0.1443376   0.0000000), wk =   0.0312500
        k(    4) = (   0.0000000   0.1443376   0.1119048), wk =   0.0312500
        k(    5) = (   0.0000000   0.2886751   0.0000000), wk =   0.0312500
        k(    6) = (   0.0000000   0.2886751   0.1119048), wk =   0.0312500
        k(    7) = (   0.0000000   0.4330127   0.0000000), wk =   0.0312500
        k(    8) = (   0.0000000   0.4330127   0.1119048), wk =   0.0312500
        k(    9) = (   0.0000000  -0.5773503   0.0000000), wk =   0.0156250
        k(   10) = (   0.0000000  -0.5773503   0.1119048), wk =   0.0312500
        k(   11) = (   0.1250000   0.2165064   0.0000000), wk =   0.0312500
        k(   12) = (   0.1250000   0.2165064   0.1119048), wk =   0.0625000
        k(   13) = (   0.1250000   0.3608439   0.0000000), wk =   0.0625000
        k(   14) = (   0.1250000   0.3608439   0.1119048), wk =   0.0625000
        k(   15) = (   0.1250000   0.5051815   0.0000000), wk =   0.0625000
        k(   16) = (   0.1250000   0.5051815   0.1119048), wk =   0.0625000
        k(   17) = (   0.2500000   0.4330127   0.0000000), wk =   0.0312500
        k(   18) = (   0.2500000   0.4330127   0.1119048), wk =   0.0625000
        k(   19) = (   0.2500000   0.5773503   0.0000000), wk =   0.0312500
        k(   20) = (   0.2500000   0.5773503   0.1119048), wk =   0.0625000
        k(   21) = (   0.0000000   0.1443376  -0.1119048), wk =   0.0312500
        k(   22) = (   0.0000000   0.2886751  -0.1119048), wk =   0.0312500
        k(   23) = (   0.0000000   0.4330127  -0.1119048), wk =   0.0312500
        k(   24) = (  -0.1250000   0.3608439  -0.1119048), wk =   0.0625000
        k(   25) = (  -0.1250000   0.5051815  -0.1119048), wk =   0.0625000

                       cryst. coord.
        k(    1) = (   0.0000000   0.0000000   0.0000000), wk =   0.0052083
        k(    2) = (   0.0000000   0.0000000   0.3333333), wk =   0.0104167
        k(    3) = (   0.0000000   0.1250000   0.0000000), wk =   0.0312500
        k(    4) = (   0.0000000   0.1250000   0.3333333), wk =   0.0312500
        k(    5) = (   0.0000000   0.2500000   0.0000000), wk =   0.0312500
        k(    6) = (   0.0000000   0.2500000   0.3333333), wk =   0.0312500
        k(    7) = (   0.0000000   0.3750000   0.0000000), wk =   0.0312500
        k(    8) = (   0.0000000   0.3750000   0.3333333), wk =   0.0312500
        k(    9) = (   0.0000000  -0.5000000   0.0000000), wk =   0.0156250
        k(   10) = (   0.0000000  -0.5000000   0.3333333), wk =   0.0312500
        k(   11) = (   0.1250000   0.1250000   0.0000000), wk =   0.0312500
        k(   12) = (   0.1250000   0.1250000   0.3333333), wk =   0.0625000
        k(   13) = (   0.1250000   0.2500000   0.0000000), wk =   0.0625000
        k(   14) = (   0.1250000   0.2500000   0.3333333), wk =   0.0625000
        k(   15) = (   0.1250000   0.3750000   0.0000000), wk =   0.0625000
        k(   16) = (   0.1250000   0.3750000   0.3333333), wk =   0.0625000
        k(   17) = (   0.2500000   0.2500000   0.0000000), wk =   0.0312500
        k(   18) = (   0.2500000   0.2500000   0.3333333), wk =   0.0625000
        k(   19) = (   0.2500000   0.3750000   0.0000000), wk =   0.0312500
        k(   20) = (   0.2500000   0.3750000   0.3333333), wk =   0.0625000
        k(   21) = (   0.0000000   0.1250000  -0.3333333), wk =   0.0312500
        k(   22) = (   0.0000000   0.2500000  -0.3333333), wk =   0.0312500
        k(   23) = (   0.0000000   0.3750000  -0.3333333), wk =   0.0312500
        k(   24) = (  -0.1250000   0.3750000  -0.3333333), wk =   0.0625000
        k(   25) = (  -0.1250000   0.5000000  -0.3333333), wk =   0.0625000

     Dense  grid:    69237 G-vectors     FFT dimensions: (  40,  40, 120)

     Smooth grid:    24541 G-vectors     FFT dimensions: (  27,  27,  80)

     Dynamical RAM for                 wfc:       1.12 MB

     Dynamical RAM for     wfc (w. buffer):      57.23 MB

     Dynamical RAM for           str. fact:       3.17 MB

     Dynamical RAM for           local pot:       0.00 MB

     Dynamical RAM for          nlocal pot:       1.96 MB

     Dynamical RAM for                qrad:       5.27 MB

     Dynamical RAM for          rho,v,vnew:      15.13 MB

     Dynamical RAM for               rhoin:       5.04 MB

     Dynamical RAM for            rho*nmix:      33.81 MB

     Dynamical RAM for           G-vectors:       4.15 MB

     Dynamical RAM for          h,s,v(r/c):       0.11 MB

     Dynamical RAM for          <psi|beta>:       0.02 MB

     Dynamical RAM for                 psi:       2.24 MB

     Dynamical RAM for                hpsi:       2.24 MB

     Dynamical RAM for                spsi:       2.24 MB

     Dynamical RAM for      wfcinit/wfcrot:       2.26 MB

     Dynamical RAM for           addusdens:     199.67 MB

     Dynamical RAM for          addusforce:     201.80 MB

     Estimated static dynamical RAM per process >     104.97 MB

     Estimated max dynamical RAM per process >     340.57 MB

     Check: negative core charge=   -0.000007
     Generating pointlists ...
     new r_m :   0.2765 (alat units)  1.4733 (a.u.) for type    1
     new r_m :   0.2765 (alat units)  1.4733 (a.u.) for type    2
     new r_m :   0.4125 (alat units)  2.1982 (a.u.) for type    3

     Initial potential from superposition of free atoms

     starting charge      31.9951, renormalised to      32.0000
     Starting wfcs are   23 randomized atomic wfcs +    1 random wfcs
     Checking if some PAW data can be deallocated... 

     total cpu time spent up to now is        3.7 secs

     Self-consistent Calculation
[tb_dev] Currently allocated     6.36E-01 Mbytes, locked:    0 /   6
[tb_pin] Currently allocated     0.00E+00 Mbytes, locked:    0 /   0

     iteration #  1     ecut=    60.00 Ry     beta= 0.30
     Davidson diagonalization with overlap

---- Real-time Memory Report at c_bands before calling an iterative solver
           677 MiB given to the printing process from OS
             0 MiB allocation reported by mallinfo(arena+hblkhd)
        847249 MiB available memory on the node where the printing process lives
     GPU memory used/free/total (MiB): 1046 / 80104 / 81151
------------------
     ethr =  1.00E-02,  avg # of iterations =  8.2

     total cpu time spent up to now is        5.6 secs

     total energy              =    -474.69180434 Ry
     estimated scf accuracy    <       1.79949936 Ry

     total magnetization       =     4.39 Bohr mag/cell
     absolute magnetization    =     4.42 Bohr mag/cell
[tb_dev] Currently allocated     3.05E-05 Mbytes, locked:    0 /   2
[tb_pin] Currently allocated     0.00E+00 Mbytes, locked:    0 /   0

     iteration #  2     ecut=    60.00 Ry     beta= 0.30
     Davidson diagonalization with overlap

---- Real-time Memory Report at c_bands before calling an iterative solver
           721 MiB given to the printing process from OS
             0 MiB allocation reported by mallinfo(arena+hblkhd)
        847228 MiB available memory on the node where the printing process lives
     GPU memory used/free/total (MiB): 1066 / 80084 / 81151
------------------
     ethr =  5.62E-03,  avg # of iterations =  2.0

     total cpu time spent up to now is        6.8 secs

     total energy              =    -474.79726708 Ry
     estimated scf accuracy    <       0.79698543 Ry

     total magnetization       =     3.37 Bohr mag/cell
     absolute magnetization    =     3.37 Bohr mag/cell
[tb_dev] Currently allocated     3.05E-05 Mbytes, locked:    0 /   2
[tb_pin] Currently allocated     0.00E+00 Mbytes, locked:    0 /   0

     iteration #  3     ecut=    60.00 Ry     beta= 0.30
     Davidson diagonalization with overlap

---- Real-time Memory Report at c_bands before calling an iterative solver
           721 MiB given to the printing process from OS
             0 MiB allocation reported by mallinfo(arena+hblkhd)
        847233 MiB available memory on the node where the printing process lives
     GPU memory used/free/total (MiB): 1066 / 80084 / 81151
------------------
     ethr =  2.49E-03,  avg # of iterations =  1.7

     total cpu time spent up to now is        7.9 secs

     total energy              =    -474.87799677 Ry
     estimated scf accuracy    <       0.46210929 Ry

     total magnetization       =     2.17 Bohr mag/cell
     absolute magnetization    =     2.21 Bohr mag/cell
[tb_dev] Currently allocated     3.05E-05 Mbytes, locked:    0 /   2
[tb_pin] Currently allocated     0.00E+00 Mbytes, locked:    0 /   0

     iteration #  4     ecut=    60.00 Ry     beta= 0.30
     Davidson diagonalization with overlap

---- Real-time Memory Report at c_bands before calling an iterative solver
           721 MiB given to the printing process from OS
             0 MiB allocation reported by mallinfo(arena+hblkhd)
        847231 MiB available memory on the node where the printing process lives
     GPU memory used/free/total (MiB): 1066 / 80084 / 81151
------------------
     ethr =  1.44E-03,  avg # of iterations =  1.4

     total cpu time spent up to now is        9.0 secs

     total energy              =    -474.91846055 Ry
     estimated scf accuracy    <       0.14916670 Ry

     total magnetization       =     1.85 Bohr mag/cell
     absolute magnetization    =     1.99 Bohr mag/cell
[tb_dev] Currently allocated     3.05E-05 Mbytes, locked:    0 /   2
[tb_pin] Currently allocated     0.00E+00 Mbytes, locked:    0 /   0

     iteration #  5     ecut=    60.00 Ry     beta= 0.30
     Davidson diagonalization with overlap

---- Real-time Memory Report at c_bands before calling an iterative solver
           724 MiB given to the printing process from OS
             0 MiB allocation reported by mallinfo(arena+hblkhd)
        847653 MiB available memory on the node where the printing process lives
     GPU memory used/free/total (MiB): 1066 / 80084 / 81151
------------------
     ethr =  4.66E-04,  avg # of iterations =  2.7

     total cpu time spent up to now is       10.3 secs

     total energy              =    -474.97861660 Ry
     estimated scf accuracy    <       0.08406060 Ry

     total magnetization       =     0.66 Bohr mag/cell
     absolute magnetization    =     1.00 Bohr mag/cell
[tb_dev] Currently allocated     3.05E-05 Mbytes, locked:    0 /   2
[tb_pin] Currently allocated     0.00E+00 Mbytes, locked:    0 /   0

     iteration #  6     ecut=    60.00 Ry     beta= 0.30
     Davidson diagonalization with overlap

---- Real-time Memory Report at c_bands before calling an iterative solver
           725 MiB given to the printing process from OS
             0 MiB allocation reported by mallinfo(arena+hblkhd)
        847990 MiB available memory on the node where the printing process lives
     GPU memory used/free/total (MiB): 1066 / 80084 / 81151
------------------
     ethr =  2.63E-04,  avg # of iterations =  3.8

     total cpu time spent up to now is       11.9 secs

     total energy              =    -474.99183420 Ry
     estimated scf accuracy    <       0.00705081 Ry

     total magnetization       =     0.59 Bohr mag/cell
     absolute magnetization    =     0.74 Bohr mag/cell
[tb_dev] Currently allocated     3.05E-05 Mbytes, locked:    0 /   2
[tb_pin] Currently allocated     0.00E+00 Mbytes, locked:    0 /   0

     iteration #  7     ecut=    60.00 Ry     beta= 0.30
     Davidson diagonalization with overlap

---- Real-time Memory Report at c_bands before calling an iterative solver
           728 MiB given to the printing process from OS
             0 MiB allocation reported by mallinfo(arena+hblkhd)
        848054 MiB available memory on the node where the printing process lives
     GPU memory used/free/total (MiB): 1066 / 80084 / 81151
------------------
     c_bands:  1 eigenvalues not converged
     c_bands:  1 eigenvalues not converged
     c_bands:  2 eigenvalues not converged
     c_bands:  1 eigenvalues not converged
     ethr =  2.20E-05,  avg # of iterations = 10.3

     total cpu time spent up to now is       14.1 secs

     total energy              =    -474.99395044 Ry
     estimated scf accuracy    <       0.00838098 Ry

     total magnetization       =     0.66 Bohr mag/cell
     absolute magnetization    =     0.76 Bohr mag/cell
[tb_dev] Currently allocated     3.05E-05 Mbytes, locked:    0 /   2
[tb_pin] Currently allocated     0.00E+00 Mbytes, locked:    0 /   0

     iteration #  8     ecut=    60.00 Ry     beta= 0.30
     Davidson diagonalization with overlap

---- Real-time Memory Report at c_bands before calling an iterative solver
           729 MiB given to the printing process from OS
             0 MiB allocation reported by mallinfo(arena+hblkhd)
        847428 MiB available memory on the node where the printing process lives
     GPU memory used/free/total (MiB): 1066 / 80084 / 81151
------------------
     ethr =  2.20E-05,  avg # of iterations =  1.7

     total cpu time spent up to now is       15.2 secs

     total energy              =    -474.99541271 Ry
     estimated scf accuracy    <       0.00099413 Ry

     total magnetization       =     0.63 Bohr mag/cell
     absolute magnetization    =     0.71 Bohr mag/cell
[tb_dev] Currently allocated     3.05E-05 Mbytes, locked:    0 /   2
[tb_pin] Currently allocated     0.00E+00 Mbytes, locked:    0 /   0

     iteration #  9     ecut=    60.00 Ry     beta= 0.30
     Davidson diagonalization with overlap

---- Real-time Memory Report at c_bands before calling an iterative solver
           731 MiB given to the printing process from OS
             0 MiB allocation reported by mallinfo(arena+hblkhd)
        847330 MiB available memory on the node where the printing process lives
     GPU memory used/free/total (MiB): 1066 / 80084 / 81151
------------------
     c_bands:  1 eigenvalues not converged
     ethr =  3.11E-06,  avg # of iterations =  6.9

     total cpu time spent up to now is       17.0 secs

     total energy              =    -474.99589412 Ry
     estimated scf accuracy    <       0.00036052 Ry

     total magnetization       =     0.68 Bohr mag/cell
     absolute magnetization    =     0.77 Bohr mag/cell
[tb_dev] Currently allocated     3.05E-05 Mbytes, locked:    0 /   2
[tb_pin] Currently allocated     0.00E+00 Mbytes, locked:    0 /   0

     iteration # 10     ecut=    60.00 Ry     beta= 0.30
     Davidson diagonalization with overlap

---- Real-time Memory Report at c_bands before calling an iterative solver
           734 MiB given to the printing process from OS
             0 MiB allocation reported by mallinfo(arena+hblkhd)
        847029 MiB available memory on the node where the printing process lives
     GPU memory used/free/total (MiB): 1066 / 80084 / 81151
------------------
     ethr =  1.13E-06,  avg # of iterations =  2.5

     total cpu time spent up to now is       18.2 secs

     total energy              =    -474.99593414 Ry
     estimated scf accuracy    <       0.00098665 Ry

     total magnetization       =     0.69 Bohr mag/cell
     absolute magnetization    =     0.79 Bohr mag/cell
[tb_dev] Currently allocated     3.05E-05 Mbytes, locked:    0 /   2
[tb_pin] Currently allocated     0.00E+00 Mbytes, locked:    0 /   0

     iteration # 11     ecut=    60.00 Ry     beta= 0.30
     Davidson diagonalization with overlap

---- Real-time Memory Report at c_bands before calling an iterative solver
           734 MiB given to the printing process from OS
             0 MiB allocation reported by mallinfo(arena+hblkhd)
        846946 MiB available memory on the node where the printing process lives
     GPU memory used/free/total (MiB): 1066 / 80084 / 81151
------------------
     ethr =  1.13E-06,  avg # of iterations =  1.9

     total cpu time spent up to now is       19.3 secs

     total energy              =    -474.99608369 Ry
     estimated scf accuracy    <       0.00004968 Ry

     total magnetization       =     0.67 Bohr mag/cell
     absolute magnetization    =     0.78 Bohr mag/cell
[tb_dev] Currently allocated     3.05E-05 Mbytes, locked:    0 /   2
[tb_pin] Currently allocated     0.00E+00 Mbytes, locked:    0 /   0

     iteration # 12     ecut=    60.00 Ry     beta= 0.30
     Davidson diagonalization with overlap

---- Real-time Memory Report at c_bands before calling an iterative solver
           734 MiB given to the printing process from OS
             0 MiB allocation reported by mallinfo(arena+hblkhd)
        846922 MiB available memory on the node where the printing process lives
     GPU memory used/free/total (MiB): 1066 / 80084 / 81151
------------------
     ethr =  1.55E-07,  avg # of iterations =  6.9

     total cpu time spent up to now is       21.1 secs

     total energy              =    -474.99613298 Ry
     estimated scf accuracy    <       0.00005801 Ry

     total magnetization       =     0.66 Bohr mag/cell
     absolute magnetization    =     0.79 Bohr mag/cell
[tb_dev] Currently allocated     3.05E-05 Mbytes, locked:    0 /   2
[tb_pin] Currently allocated     0.00E+00 Mbytes, locked:    0 /   0

     iteration # 13     ecut=    60.00 Ry     beta= 0.30
     Davidson diagonalization with overlap

---- Real-time Memory Report at c_bands before calling an iterative solver
           734 MiB given to the printing process from OS
             0 MiB allocation reported by mallinfo(arena+hblkhd)
        846921 MiB available memory on the node where the printing process lives
     GPU memory used/free/total (MiB): 1066 / 80084 / 81151
------------------
     ethr =  1.55E-07,  avg # of iterations =  1.4

     total cpu time spent up to now is       22.2 secs

     total energy              =    -474.99614122 Ry
     estimated scf accuracy    <       0.00000357 Ry

     total magnetization       =     0.66 Bohr mag/cell
     absolute magnetization    =     0.79 Bohr mag/cell
[tb_dev] Currently allocated     3.05E-05 Mbytes, locked:    0 /   2
[tb_pin] Currently allocated     0.00E+00 Mbytes, locked:    0 /   0

     iteration # 14     ecut=    60.00 Ry     beta= 0.30
     Davidson diagonalization with overlap

---- Real-time Memory Report at c_bands before calling an iterative solver
           735 MiB given to the printing process from OS
             0 MiB allocation reported by mallinfo(arena+hblkhd)
        846909 MiB available memory on the node where the printing process lives
     GPU memory used/free/total (MiB): 1066 / 80084 / 81151
------------------
     ethr =  1.12E-08,  avg # of iterations =  6.5

     total cpu time spent up to now is       23.9 secs

     total energy              =    -474.99614511 Ry
     estimated scf accuracy    <       0.00000360 Ry

     total magnetization       =     0.65 Bohr mag/cell
     absolute magnetization    =     0.79 Bohr mag/cell
[tb_dev] Currently allocated     3.05E-05 Mbytes, locked:    0 /   2
[tb_pin] Currently allocated     0.00E+00 Mbytes, locked:    0 /   0

     iteration # 15     ecut=    60.00 Ry     beta= 0.30
     Davidson diagonalization with overlap

---- Real-time Memory Report at c_bands before calling an iterative solver
           735 MiB given to the printing process from OS
             0 MiB allocation reported by mallinfo(arena+hblkhd)
        846867 MiB available memory on the node where the printing process lives
     GPU memory used/free/total (MiB): 1066 / 80084 / 81151
------------------
     ethr =  1.12E-08,  avg # of iterations =  1.3

     total cpu time spent up to now is       25.0 secs

     total energy              =    -474.99614574 Ry
     estimated scf accuracy    <       0.00000072 Ry

     total magnetization       =     0.65 Bohr mag/cell
     absolute magnetization    =     0.79 Bohr mag/cell
[tb_dev] Currently allocated     3.05E-05 Mbytes, locked:    0 /   2
[tb_pin] Currently allocated     0.00E+00 Mbytes, locked:    0 /   0

     iteration # 16     ecut=    60.00 Ry     beta= 0.30
     Davidson diagonalization with overlap

---- Real-time Memory Report at c_bands before calling an iterative solver
           735 MiB given to the printing process from OS
             0 MiB allocation reported by mallinfo(arena+hblkhd)
        846861 MiB available memory on the node where the printing process lives
     GPU memory used/free/total (MiB): 1066 / 80084 / 81151
------------------
     ethr =  2.24E-09,  avg # of iterations =  3.1
 
     Magnetic moment per site  (integrated on atomic sphere of radius R)
     atom   1 (R=0.276)  charge= 14.0191  magn=  0.5410
     atom   2 (R=0.276)  charge=  5.1639  magn=  0.0609
     atom   3 (R=0.276)  charge=  5.1639  magn=  0.0609
     atom   4 (R=0.413)  charge=  2.3211  magn= -0.0303

     total cpu time spent up to now is       26.3 secs

     End of self-consistent calculation

 ------ SPIN UP ------------


          k = 0.0000 0.0000 0.0000 (  3123 PWs)   bands (ev):

   -91.5282 -54.7698 -54.7261 -54.7261 -42.9334 -15.3463 -13.3025  -1.5982
    -1.0197  -1.0197   1.9905   2.6545   2.6545   2.7819   2.8949   2.8949
     4.1923   6.7691   6.8361   6.8361  11.5754  14.4537  16.0812  19.2971

     occupation numbers 
     1.0000   1.0000   1.0000   1.0000   1.0000   1.0000   1.0000   1.0000
     1.0000   1.0000   1.0000   1.0000   1.0000   1.0000   1.0000   1.0000
     0.9361   0.0000   0.0000   0.0000   0.0000   0.0000   0.0000   0.0000

          k = 0.0000 0.0000 0.1119 (  3075 PWs)   bands (ev):

   -91.5282 -54.7696 -54.7260 -54.7260 -42.9332 -15.3463 -13.3025  -1.5857
    -1.0196  -1.0196   1.7206   2.6545   2.6545   2.8950   2.8950   3.2790
     4.0531   6.5296   6.8363   6.8363  12.2892  13.6959  16.0049  20.0200

     occupation numbers 
     1.0000   1.0000   1.0000   1.0000   1.0000   1.0000   1.0000   1.0000
     1.0000   1.0000   1.0000   1.0000   1.0000   1.0000   1.0000   1.0000
     1.0790   0.0000   0.0000   0.0000   0.0000   0.0000   0.0000   0.0000

          k = 0.0000 0.1443 0.0000 (  3099 PWs)   bands (ev):

   -91.5271 -54.7682 -54.7369 -54.7286 -42.9291 -15.1552 -13.3056  -1.3781
    -1.2210  -0.8982   1.5771   1.9892   2.3872   3.0043   3.1501   3.4548
     4.2840   6.2587   6.7305   7.2057  12.1084  15.1037  16.1878  18.4610

     occupation numbers 
     1.0000   1.0000   1.0000   1.0000   1.0000   1.0000   1.0000   1.0000
     1.0000   1.0000   1.0000   1.0000   1.0000   1.0000   1.0000   1.0001
     0.7239   0.0000   0.0000   0.0000   0.0000   0.0000   0.0000   0.0000

          k = 0.0000 0.1443 0.1119 (  3086 PWs)   bands (ev):

   -91.5271 -54.7681 -54.7368 -54.7286 -42.9291 -15.1552 -13.3056  -1.3676
    -1.2224  -0.8982   1.5801   1.9892   2.1280   3.1132   3.4547   3.5026
     4.1201   6.3794   6.7305   6.9167  12.7691  14.1750  16.4531  18.4441

     occupation numbers 
     1.0000   1.0000   1.0000   1.0000   1.0000   1.0000   1.0000   1.0000
     1.0000   1.0000   1.0000   1.0000   1.0000   1.0000   1.0001   1.0003
     1.0387   0.0000   0.0000   0.0000   0.0000   0.0000   0.0000   0.0000

          k = 0.0000 0.2887 0.0000 (  3067 PWs)   bands (ev):

   -91.5246 -54.7646 -54.7625 -54.7347 -42.9189 -14.6527 -13.3268  -1.5073
    -0.8401  -0.6171   0.1407   1.4115   2.6831   3.2550   3.6005   3.6837
     4.2506   5.6910   6.6036   8.1363  12.9269  14.8831  16.3719  17.3145

     occupation numbers 
     1.0000   1.0000   1.0000   1.0000   1.0000   1.0000   1.0000   1.0000
     1.0000   1.0000   1.0000   1.0000   1.0000   1.0000   1.0018   1.0062
     0.8094   0.0000   0.0000   0.0000   0.0000   0.0000   0.0000   0.0000

          k = 0.0000 0.2887 0.1119 (  3070 PWs)   bands (ev):

   -91.5246 -54.7646 -54.7625 -54.7347 -42.9189 -14.6527 -13.3268  -1.5107
    -0.8328  -0.6171   0.1450   1.4115   2.6320   3.1789   3.6837   3.8984
     4.0101   5.8660   6.6036   7.9453  13.2210  15.0035  15.5172  17.3874

     occupation numbers 
     1.0000   1.0000   1.0000   1.0000   1.0000   1.0000   1.0000   1.0000
     1.0000   1.0000   1.0000   1.0000   1.0000   1.0000   1.0063   1.0544
     1.0831   0.0000   0.0000   0.0000   0.0000   0.0000   0.0000   0.0000

          k = 0.0000 0.4330 0.0000 (  3054 PWs)   bands (ev):

   -91.5221 -54.7891 -54.7602 -54.7408 -42.9088 -14.0481 -13.4001  -1.9778
    -0.8413  -0.4193   0.1727   1.2738   2.1364   3.1293   3.4119   3.6998
     4.9316   5.9540   6.6470   9.6839  11.1177  15.2143  15.5344  16.3463

     occupation numbers 
     1.0000   1.0000   1.0000   1.0000   1.0000   1.0000   1.0000   1.0000
     1.0000   1.0000   1.0000   1.0000   1.0000   1.0000   1.0001   1.0077
     0.0005   0.0000   0.0000   0.0000   0.0000   0.0000   0.0000   0.0000

          k = 0.0000 0.4330 0.1119 (  3062 PWs)   bands (ev):

   -91.5221 -54.7891 -54.7602 -54.7409 -42.9088 -14.0481 -13.4001  -1.9788
    -0.8419  -0.4194   0.1763   1.2738   2.1461   3.1226   3.4119   3.7089
     4.8277   6.0773   6.6468   9.6271  11.1025  15.3881  15.8041  16.3488

     occupation numbers 
     1.0000   1.0000   1.0000   1.0000   1.0000   1.0000   1.0000   1.0000
     1.0000   1.0000   1.0000   1.0000   1.0000   1.0000   1.0001   1.0087
     0.0030   0.0000   0.0000   0.0000   0.0000   0.0000   0.0000   0.0000

          k = 0.0000-0.5774 0.0000 (  3050 PWs)   bands (ev):

   -91.5210 -54.7999 -54.7586 -54.7434 -42.9045 -13.6072 -13.6013  -2.3913
    -0.6426  -0.3907   0.3448   1.3785   1.8636   2.8810   3.1619   3.6233
     5.6923   6.1528   6.7003   9.7778  11.3614  13.1349  15.9895  16.1378

     occupation numbers 
     1.0000   1.0000   1.0000   1.0000   1.0000   1.0000   1.0000   1.0000
     1.0000   1.0000   1.0000   1.0000   1.0000   1.0000   1.0000   1.0026
     0.0000   0.0000   0.0000   0.0000   0.0000   0.0000   0.0000   0.0000

          k = 0.0000-0.5774 0.1119 (  3058 PWs)   bands (ev):

   -91.5210 -54.7999 -54.7585 -54.7434 -42.9046 -13.6072 -13.6013  -2.3919
    -0.6427  -0.3907   0.3432   1.3784   1.8765   2.8783   3.1619   3.6189
     5.6197   6.2239   6.7002   9.7339  11.4556  13.1437  16.0610  16.8260

     occupation numbers 
     1.0000   1.0000   1.0000   1.0000   1.0000   1.0000   1.0000   1.0000
     1.0000   1.0000   1.0000   1.0000   1.0000   1.0000   1.0000   1.0025
     0.0000   0.0000   0.0000   0.0000   0.0000   0.0000   0.0000   0.0000

          k = 0.1250 0.2165 0.0000 (  3085 PWs)   bands (ev):

   -91.5254 -54.7654 -54.7540 -54.7342 -42.9220 -14.8081 -13.3170  -1.4067
    -0.9889  -0.7412   0.6840   1.2387   2.7604   3.1920   3.4272   3.7653
     4.2649   5.8647   6.4724   7.8366  12.8874  15.7171  16.1597  16.2310

     occupation numbers 
     1.0000   1.0000   1.0000   1.0000   1.0000   1.0000   1.0000   1.0000
     1.0000   1.0000   1.0000   1.0000   1.0000   1.0000   1.0001   1.0170
     0.7737   0.0000   0.0000   0.0000   0.0000   0.0000   0.0000   0.0000

          k = 0.1250 0.2165 0.1119 (  3077 PWs)   bands (ev):

   -91.5253 -54.7653 -54.7540 -54.7342 -42.9219 -14.8080 -13.3169  -1.4098
    -0.9800  -0.7410   0.6876   1.2387   2.6053   3.2001   3.5787   3.8727
     4.1500   5.9779   6.4256   7.6957  13.2846  15.0360  15.7808  16.9712

     occupation numbers 
     1.0000   1.0000   1.0000   1.0000   1.0000   1.0000   1.0000   1.0000
     1.0000   1.0000   1.0000   1.0000   1.0000   1.0000   1.0013   1.0456
     1.0040   0.0000   0.0000   0.0000   0.0000   0.0000   0.0000   0.0000

          k = 0.1250 0.3608 0.0000 (  3058 PWs)   bands (ev):

   -91.5228 -54.7775 -54.7613 -54.7429 -42.9117 -14.2544 -13.3563  -1.5514
    -0.9954  -0.3660   0.0776   0.8110   2.4671   3.2310   3.5757   3.9148
     4.5854   5.8768   6.3580   9.0752  12.3244  14.0384  16.1983  17.2614

     occupation numbers 
     1.0000   1.0000   1.0000   1.0000   1.0000   1.0000   1.0000   1.0000
     1.0000   1.0000   1.0000   1.0000   1.0000   1.0000   1.0012   1.0601
     0.0861   0.0000   0.0000   0.0000   0.0000   0.0000   0.0000   0.0000

          k = 0.1250 0.3608 0.1119 (  3067 PWs)   bands (ev):

   -91.5228 -54.7775 -54.7614 -54.7430 -42.9118 -14.2544 -13.3564  -1.5536
    -0.9954  -0.3636   0.0825   0.8112   2.4625   3.2300   3.5893   3.8875
     4.5458   6.0092   6.3143   9.0118  12.3364  14.1083  16.1813  16.8477

     occupation numbers 
     1.0000   1.0000   1.0000   1.0000   1.0000   1.0000   1.0000   1.0000
     1.0000   1.0000   1.0000   1.0000   1.0000   1.0000   1.0015   1.0507
     0.1289   0.0000   0.0000   0.0000   0.0000   0.0000   0.0000   0.0000

          k = 0.1250 0.5052 0.0000 (  3055 PWs)   bands (ev):

   -91.5210 -54.7940 -54.7586 -54.7493 -42.9045 -13.7459 -13.4642  -2.0817
    -1.0204  -0.1024   0.3687   0.8133   1.8343   3.0077   3.3097   3.8258
     5.6552   6.1355   6.4622   9.9759  10.9523  14.2476  14.4211  16.5350

     occupation numbers 
     1.0000   1.0000   1.0000   1.0000   1.0000   1.0000   1.0000   1.0000
     1.0000   1.0000   1.0000   1.0000   1.0000   1.0000   1.0000   1.0311
     0.0000   0.0000   0.0000   0.0000   0.0000   0.0000   0.0000   0.0000

          k = 0.1250 0.5052 0.1119 (  3051 PWs)   bands (ev):

   -91.5210 -54.7940 -54.7585 -54.7494 -42.9045 -13.7459 -13.4642  -2.0823
    -1.0208  -0.1023   0.3686   0.8133   1.8425   3.0063   3.3112   3.8202
     5.6009   6.2212   6.4295   9.9613  10.9567  14.2998  14.4260  16.8278

     occupation numbers 
     1.0000   1.0000   1.0000   1.0000   1.0000   1.0000   1.0000   1.0000
     1.0000   1.0000   1.0000   1.0000   1.0000   1.0000   1.0000   1.0295
     0.0000   0.0000   0.0000   0.0000   0.0000   0.0000   0.0000   0.0000

          k = 0.2500 0.4330 0.0000 (  3067 PWs)   bands (ev):

   -91.5210 -54.7858 -54.7591 -54.7572 -42.9046 -13.8051 -13.4068  -1.4754
    -1.3812  -0.2782   0.4033   0.4518   1.8582   3.0860   3.4185   4.0267
     5.5768   6.1358   6.2270  10.2481  10.7030  13.3651  16.1912  16.8683

     occupation numbers 
     1.0000   1.0000   1.0000   1.0000   1.0000   1.0000   1.0000   1.0000
     1.0000   1.0000   1.0000   1.0000   1.0000   1.0000   1.0001   1.0831
     0.0000   0.0000   0.0000   0.0000   0.0000   0.0000   0.0000   0.0000

          k = 0.2500 0.4330 0.1119 (  3068 PWs)   bands (ev):

   -91.5210 -54.7858 -54.7591 -54.7572 -42.9046 -13.8050 -13.4068  -1.4755
    -1.3824  -0.2782   0.4027   0.4562   1.8575   3.0872   3.4212   4.0115
     5.6448   6.0669   6.2250  10.2465  10.7383  13.3270  16.1623  16.8404

     occupation numbers 
     1.0000   1.0000   1.0000   1.0000   1.0000   1.0000   1.0000   1.0000
     1.0000   1.0000   1.0000   1.0000   1.0000   1.0000   1.0001   1.0831
     0.0000   0.0000   0.0000   0.0000   0.0000   0.0000   0.0000   0.0000

          k = 0.2500 0.5774 0.0000 (  3044 PWs)   bands (ev):

   -91.5203 -54.7863 -54.7665 -54.7574 -42.9016 -13.5423 -13.4933  -1.6552
    -1.2811  -0.4597   0.5391   0.7349   1.3835   2.7829   3.6473   3.9203
     6.0481   6.1067   6.8994   8.6892  12.3597  13.1983  14.2218  16.5605

     occupation numbers 
     1.0000   1.0000   1.0000   1.0000   1.0000   1.0000   1.0000   1.0000
     1.0000   1.0000   1.0000   1.0000   1.0000   1.0000   1.0038   1.0619
     0.0000   0.0000   0.0000   0.0000   0.0000   0.0000   0.0000   0.0000

          k = 0.2500 0.5774 0.1119 (  3050 PWs)   bands (ev):

   -91.5203 -54.7863 -54.7665 -54.7574 -42.9016 -13.5423 -13.4933  -1.6557
    -1.2814  -0.4600   0.5401   0.7347   1.3853   2.7828   3.6483   3.9158
     6.0872   6.1140   6.8495   8.6667  12.3868  13.1849  14.2929  16.5342

     occupation numbers 
     1.0000   1.0000   1.0000   1.0000   1.0000   1.0000   1.0000   1.0000
     1.0000   1.0000   1.0000   1.0000   1.0000   1.0000   1.0038   1.0604
     0.0000   0.0000   0.0000   0.0000   0.0000   0.0000   0.0000   0.0000

          k = 0.0000 0.1443-0.1119 (  3086 PWs)   bands (ev):

   -91.5271 -54.7681 -54.7368 -54.7286 -42.9291 -15.1552 -13.3056  -1.3660
    -1.2239  -0.8982   1.5728   1.9892   2.1376   3.1166   3.4548   3.4852
     4.1464   6.2746   6.7305   7.0185  12.7115  14.2188  16.4842  18.4043

     occupation numbers 
     1.0000   1.0000   1.0000   1.0000   1.0000   1.0000   1.0000   1.0000
     1.0000   1.0000   1.0000   1.0000   1.0000   1.0000   1.0001   1.0002
     1.0088   0.0000   0.0000   0.0000   0.0000   0.0000   0.0000   0.0000

          k = 0.0000 0.2887-0.1119 (  3070 PWs)   bands (ev):

   -91.5246 -54.7646 -54.7625 -54.7347 -42.9189 -14.6527 -13.3268  -1.5093
    -0.8346  -0.6171   0.1459   1.4115   2.6055   3.2077   3.6837   3.7468
     4.2512   5.6837   6.6036   8.0881  13.0263  15.0030  15.7438  17.3872

     occupation numbers 
     1.0000   1.0000   1.0000   1.0000   1.0000   1.0000   1.0000   1.0000
     1.0000   1.0000   1.0000   1.0000   1.0000   1.0000   1.0063   1.0138
     0.8081   0.0000   0.0000   0.0000   0.0000   0.0000   0.0000   0.0000

          k = 0.0000 0.4330-0.1119 (  3062 PWs)   bands (ev):

   -91.5221 -54.7891 -54.7602 -54.7409 -42.9088 -14.0481 -13.4001  -1.9786
    -0.8423  -0.4194   0.1794   1.2737   2.1326   3.1316   3.4119   3.6844
     4.9463   5.9370   6.6469   9.7735  11.0615  15.1040  15.4199  16.3485

     occupation numbers 
     1.0000   1.0000   1.0000   1.0000   1.0000   1.0000   1.0000   1.0000
     1.0000   1.0000   1.0000   1.0000   1.0000   1.0000   1.0001   1.0063
     0.0003   0.0000   0.0000   0.0000   0.0000   0.0000   0.0000   0.0000

          k =-0.1250 0.3608-0.1119 (  3067 PWs)   bands (ev):

   -91.5228 -54.7775 -54.7614 -54.7430 -42.9118 -14.2544 -13.3564  -1.5531
    -0.9958  -0.3646   0.0847   0.8109   2.4519   3.2372   3.5995   3.8413
     4.6489   5.8713   6.3542   9.0887  12.2942  14.0408  16.2532  16.7662

     occupation numbers 
     1.0000   1.0000   1.0000   1.0000   1.0000   1.0000   1.0000   1.0000
     1.0000   1.0000   1.0000   1.0000   1.0000   1.0000   1.0018   1.0356
     0.0415   0.0000   0.0000   0.0000   0.0000   0.0000   0.0000   0.0000

          k =-0.1250 0.5052-0.1119 (  3051 PWs)   bands (ev):

   -91.5210 -54.7940 -54.7585 -54.7494 -42.9045 -13.7459 -13.4642  -2.0823
    -1.0206  -0.1029   0.3709   0.8138   1.8372   3.0088   3.3116   3.8147
     5.6727   6.1220   6.4508   9.9480  11.0512  14.2492  14.2930  16.6221

     occupation numbers 
     1.0000   1.0000   1.0000   1.0000   1.0000   1.0000   1.0000   1.0000
     1.0000   1.0000   1.0000   1.0000   1.0000   1.0000   1.0000   1.0281
     0.0000   0.0000   0.0000   0.0000   0.0000   0.0000   0.0000   0.0000

 ------ SPIN DOWN ----------


          k = 0.0000 0.0000 0.0000 (  3123 PWs)   bands (ev):

   -90.8607 -54.1206 -54.1206 -54.0297 -42.9520 -15.2470 -13.1942  -1.3184
    -0.8035  -0.8035   2.1294   2.7015   2.9747   2.9747   3.2285   3.2285
     4.8840   6.7201   7.1246   7.1246  11.6255  14.5405  16.1424  19.3438

     occupation numbers 
     1.0000   1.0000   1.0000   1.0000   1.0000   1.0000   1.0000   1.0000
     1.0000   1.0000   1.0000   1.0000   1.0000   1.0000   1.0000   1.0000
     0.0011   0.0000   0.0000   0.0000   0.0000   0.0000   0.0000   0.0000

          k = 0.0000 0.0000 0.1119 (  3075 PWs)   bands (ev):

   -90.8607 -54.1204 -54.1204 -54.0295 -42.9519 -15.2470 -13.1942  -1.3013
    -0.8035  -0.8035   1.7719   2.9748   2.9748   3.2285   3.2285   3.2652
     4.7445   6.4970   7.1247   7.1247  12.3449  13.7746  16.0495  19.9634

     occupation numbers 
     1.0000   1.0000   1.0000   1.0000   1.0000   1.0000   1.0000   1.0000
     1.0000   1.0000   1.0000   1.0000   1.0000   1.0000   1.0000   1.0000
     0.0113   0.0000   0.0000   0.0000   0.0000   0.0000   0.0000   0.0000

          k = 0.0000 0.1443 0.0000 (  3099 PWs)   bands (ev):

   -90.8596 -54.1316 -54.1231 -54.0280 -42.9477 -15.0551 -13.1966  -1.0988
    -1.0170  -0.6887   1.7881   2.2703   2.5317   2.9448   3.6244   3.8463
     4.9238   6.4821   7.0118   7.2283  12.1498  15.1890  16.2456  18.3749

     occupation numbers 
     1.0000   1.0000   1.0000   1.0000   1.0000   1.0000   1.0000   1.0000
     1.0000   1.0000   1.0000   1.0000   1.0000   1.0000   1.0027   1.0371
     0.0005   0.0000   0.0000   0.0000   0.0000   0.0000   0.0000   0.0000

          k = 0.0000 0.1443 0.1119 (  3086 PWs)   bands (ev):

   -90.8596 -54.1315 -54.1231 -54.0279 -42.9477 -15.0551 -13.1966  -1.0862
    -1.0170  -0.6887   1.7952   2.1772   2.2702   3.4067   3.6814   3.8463
     4.7789   6.6629   6.8884   7.0118  12.8136  14.2525  16.5034  18.3537

     occupation numbers 
     1.0000   1.0000   1.0000   1.0000   1.0000   1.0000   1.0000   1.0000
     1.0000   1.0000   1.0000   1.0000   1.0000   1.0000   1.0061   1.0371
     0.0067   0.0000   0.0000   0.0000   0.0000   0.0000   0.0000   0.0000

          k = 0.0000 0.2887 0.0000 (  3067 PWs)   bands (ev):

   -90.8570 -54.1585 -54.1294 -54.0238 -42.9375 -14.5506 -13.2163  -1.3187
    -0.5953  -0.4231   0.3350   1.6460   2.8581   3.6299   3.7739   4.1647
     4.7743   5.9873   6.8701   8.1084  12.9106  14.8247  16.4452  17.3707

     occupation numbers 
     1.0000   1.0000   1.0000   1.0000   1.0000   1.0000   1.0000   1.0000
     1.0000   1.0000   1.0000   1.0000   1.0000   1.0029   1.0186   0.9830
     0.0072   0.0000   0.0000   0.0000   0.0000   0.0000   0.0000   0.0000

          k = 0.0000 0.2887 0.1119 (  3070 PWs)   bands (ev):

   -90.8570 -54.1585 -54.1294 -54.0238 -42.9375 -14.5506 -13.2164  -1.3227
    -0.5867  -0.4231   0.3427   1.6459   2.7606   3.5757   3.9766   4.1647
     4.6587   6.1780   6.8701   7.8894  13.1883  15.0064  15.5336  17.2895

     occupation numbers 
     1.0000   1.0000   1.0000   1.0000   1.0000   1.0000   1.0000   1.0000
     1.0000   1.0000   1.0000   1.0000   1.0000   1.0012   1.0783   0.9829
     0.0367   0.0000   0.0000   0.0000   0.0000   0.0000   0.0000   0.0000

          k = 0.0000 0.4330 0.0000 (  3054 PWs)   bands (ev):

   -90.8544 -54.1855 -54.1356 -54.0196 -42.9272 -13.9426 -13.2891  -1.8138
    -0.7208  -0.2285   0.4615   1.4243   2.3096   3.7445   3.9942   4.3317
     4.8121   6.2822   6.9125   9.6326  10.9966  15.2349  15.4845  16.2420

     occupation numbers 
     1.0000   1.0000   1.0000   1.0000   1.0000   1.0000   1.0000   1.0000
     1.0000   1.0000   1.0000   1.0000   1.0000   1.0134   1.0815   0.5935
     0.0039   0.0000   0.0000   0.0000   0.0000   0.0000   0.0000   0.0000

          k = 0.0000 0.4330 0.1119 (  3062 PWs)   bands (ev):

   -90.8544 -54.1855 -54.1357 -54.0196 -42.9272 -13.9426 -13.2891  -1.8149
    -0.7214  -0.2286   0.4663   1.4242   2.3214   3.7266   3.9942   4.3639
     4.7143   6.3920   6.9124   9.5674  10.9816  15.3668  15.7910  16.2445

     occupation numbers 
     1.0000   1.0000   1.0000   1.0000   1.0000   1.0000   1.0000   1.0000
     1.0000   1.0000   1.0000   1.0000   1.0000   1.0108   1.0815   0.5048
     0.0175   0.0000   0.0000   0.0000   0.0000   0.0000   0.0000   0.0000

          k = 0.0000-0.5774 0.0000 (  3050 PWs)   bands (ev):

   -90.8533 -54.1966 -54.1383 -54.0179 -42.9229 -13.5003 -13.4898  -2.2423
    -0.5528  -0.1944   0.6439   1.4560   2.0112   3.6046   3.8134   4.2352
     5.5291   6.5040   6.9698   9.6530  11.3204  13.0543  15.8835  16.1838

     occupation numbers 
     1.0000   1.0000   1.0000   1.0000   1.0000   1.0000   1.0000   1.0000
     1.0000   1.0000   1.0000   1.0000   1.0000   1.0020   1.0277   0.8461
     0.0000   0.0000   0.0000   0.0000   0.0000   0.0000   0.0000   0.0000

          k = 0.0000-0.5774 0.1119 (  3058 PWs)   bands (ev):

   -90.8533 -54.1967 -54.1384 -54.0179 -42.9229 -13.5003 -13.4899  -2.2429
    -0.5529  -0.1944   0.6417   1.4559   2.0265   3.5988   3.8134   4.2305
     5.4859   6.5494   6.9697   9.6080  11.4158  13.0613  15.8865  16.0890

     occupation numbers 
     1.0000   1.0000   1.0000   1.0000   1.0000   1.0000   1.0000   1.0000
     1.0000   1.0000   1.0000   1.0000   1.0000   1.0018   1.0277   0.8569
     0.0000   0.0000   0.0000   0.0000   0.0000   0.0000   0.0000   0.0000

          k = 0.1250 0.2165 0.0000 (  3085 PWs)   bands (ev):

   -90.8578 -54.1493 -54.1288 -54.0251 -42.9405 -14.7066 -13.2069  -1.2163
    -0.7188  -0.5440   0.8651   1.4794   2.9066   3.4060   3.7738   4.1888
     4.8453   6.1289   6.7487   7.8193  12.9108  15.6023  16.2127  16.2658

     occupation numbers 
     1.0000   1.0000   1.0000   1.0000   1.0000   1.0000   1.0000   1.0000
     1.0000   1.0000   1.0000   1.0000   1.0000   1.0000   1.0186   0.9426
     0.0022   0.0000   0.0000   0.0000   0.0000   0.0000   0.0000   0.0000

          k = 0.1250 0.2165 0.1119 (  3077 PWs)   bands (ev):

   -90.8578 -54.1493 -54.1288 -54.0250 -42.9405 -14.7066 -13.2069  -1.2201
    -0.7075  -0.5431   0.8713   1.4792   2.6838   3.6576   3.7734   4.2572
     4.7415   6.2606   6.6896   7.6686  13.3037  15.1170  15.6429  16.9813

     occupation numbers 
     1.0000   1.0000   1.0000   1.0000   1.0000   1.0000   1.0000   1.0000
     1.0000   1.0000   1.0000   1.0000   1.0000   1.0044   1.0185   0.7932
     0.0119   0.0000   0.0000   0.0000   0.0000   0.0000   0.0000   0.0000

          k = 0.1250 0.3608 0.0000 (  3058 PWs)   bands (ev):

   -90.8551 -54.1736 -54.1379 -54.0208 -42.9302 -14.1503 -13.2452  -1.3733
    -0.8456  -0.1676   0.3300   0.9996   2.6364   3.8303   4.1962   4.3431
     4.6070   6.1784   6.6278   9.0304  12.1989  13.9974  16.2007  17.3259

     occupation numbers 
     1.0000   1.0000   1.0000   1.0000   1.0000   1.0000   1.0000   1.0000
     1.0000   1.0000   1.0000   1.0000   1.0000   1.0324   0.9287   0.5618
     0.0679   0.0000   0.0000   0.0000   0.0000   0.0000   0.0000   0.0000

          k = 0.1250 0.3608 0.1119 (  3067 PWs)   bands (ev):

   -90.8552 -54.1736 -54.1379 -54.0209 -42.9302 -14.1503 -13.2452  -1.3758
    -0.8457  -0.1655   0.3381   0.9998   2.6277   3.8220   4.1427   4.4107
     4.5612   6.3081   6.5829   8.9562  12.2097  14.0637  16.2417  16.8373

     occupation numbers 
     1.0000   1.0000   1.0000   1.0000   1.0000   1.0000   1.0000   1.0000
     1.0000   1.0000   1.0000   1.0000   1.0000   1.0300   1.0135   0.3830
     0.1107   0.0000   0.0000   0.0000   0.0000   0.0000   0.0000   0.0000

          k = 0.1250 0.5052 0.0000 (  3055 PWs)   bands (ev):

   -90.8533 -54.1906 -54.1445 -54.0179 -42.9229 -13.6384 -13.3534  -1.9311
    -0.8857   0.0649   0.6203   0.9634   2.0023   3.7768   3.9318   4.3661
     5.5234   6.4521   6.7283   9.8376  10.9015  14.1787  14.3501  16.5682

     occupation numbers 
     1.0000   1.0000   1.0000   1.0000   1.0000   1.0000   1.0000   1.0000
     1.0000   1.0000   1.0000   1.0000   1.0000   1.0192   1.0658   0.4989
     0.0000   0.0000   0.0000   0.0000   0.0000   0.0000   0.0000   0.0000

          k = 0.1250 0.5052 0.1119 (  3051 PWs)   bands (ev):

   -90.8533 -54.1905 -54.1445 -54.0179 -42.9229 -13.6384 -13.3534  -1.9318
    -0.8861   0.0650   0.6201   0.9633   2.0126   3.7726   3.9339   4.3586
     5.4923   6.5084   6.7057   9.8229  10.9055  14.2255  14.3584  16.8846

     occupation numbers 
     1.0000   1.0000   1.0000   1.0000   1.0000   1.0000   1.0000   1.0000
     1.0000   1.0000   1.0000   1.0000   1.0000   1.0184   1.0665   0.5194
     0.0000   0.0000   0.0000   0.0000   0.0000   0.0000   0.0000   0.0000

          k = 0.2500 0.4330 0.0000 (  3067 PWs)   bands (ev):

   -90.8533 -54.1822 -54.1531 -54.0179 -42.9230 -13.6981 -13.2953  -1.3395
    -1.2098  -0.1564   0.5770   0.7278   2.0300   3.8954   4.0160   4.5337
     5.4914   6.4391   6.4504  10.0894  10.6479  13.3121  16.1424  16.8632

     occupation numbers 
     1.0000   1.0000   1.0000   1.0000   1.0000   1.0000   1.0000   1.0000
     1.0000   1.0000   1.0000   1.0000   1.0000   1.0534   1.0833   0.1447
     0.0000   0.0000   0.0000   0.0000   0.0000   0.0000   0.0000   0.0000

          k = 0.2500 0.4330 0.1119 (  3068 PWs)   bands (ev):

   -90.8533 -54.1821 -54.1531 -54.0179 -42.9230 -13.6981 -13.2953  -1.3396
    -1.2112  -0.1565   0.5764   0.7336   2.0286   3.8967   4.0201   4.5064
     5.5442   6.3522   6.4922  10.0868  10.6837  13.2744  16.1227  16.8118

     occupation numbers 
     1.0000   1.0000   1.0000   1.0000   1.0000   1.0000   1.0000   1.0000
     1.0000   1.0000   1.0000   1.0000   1.0000   1.0538   1.0833   0.1855
     0.0000   0.0000   0.0000   0.0000   0.0000   0.0000   0.0000   0.0000

          k = 0.2500 0.5774 0.0000 (  3044 PWs)   bands (ev):

   -90.8525 -54.1826 -54.1622 -54.0166 -42.9199 -13.4333 -13.3824  -1.5094
    -1.1358  -0.3439   0.7205   0.9891   1.5298   3.6481   4.2255   4.4613
     6.2738   6.4126   6.8034   8.5340  12.3263  13.1392  14.1370  16.4956

     occupation numbers 
     1.0000   1.0000   1.0000   1.0000   1.0000   1.0000   1.0000   1.0000
     1.0000   1.0000   1.0000   1.0000   1.0000   1.0038   0.8682   0.2683
     0.0000   0.0000   0.0000   0.0000   0.0000   0.0000   0.0000   0.0000

          k = 0.2500 0.5774 0.1119 (  3050 PWs)   bands (ev):

   -90.8525 -54.1827 -54.1622 -54.0166 -42.9199 -13.4333 -13.3824  -1.5099
    -1.1362  -0.3442   0.7215   0.9887   1.5322   3.6477   4.2270   4.4550
     6.3503   6.4198   6.7195   8.5082  12.3560  13.1241  14.2092  16.4765

     occupation numbers 
     1.0000   1.0000   1.0000   1.0000   1.0000   1.0000   1.0000   1.0000
     1.0000   1.0000   1.0000   1.0000   1.0000   1.0038   0.8649   0.2814
     0.0000   0.0000   0.0000   0.0000   0.0000   0.0000   0.0000   0.0000

          k = 0.0000 0.1443-0.1119 (  3086 PWs)   bands (ev):

   -90.8596 -54.1315 -54.1231 -54.0279 -42.9477 -15.0551 -13.1966  -1.0822
    -1.0209  -0.6887   1.7775   2.2023   2.2702   3.3819   3.7005   3.8464
     4.7929   6.4932   7.0118   7.0546  12.7542  14.2990  16.5359  18.3127

     occupation numbers 
     1.0000   1.0000   1.0000   1.0000   1.0000   1.0000   1.0000   1.0000
     1.0000   1.0000   1.0000   1.0000   1.0000   1.0000   1.0078   1.0371
     0.0054   0.0000   0.0000   0.0000   0.0000   0.0000   0.0000   0.0000

          k = 0.0000 0.2887-0.1119 (  3070 PWs)   bands (ev):

   -90.8570 -54.1585 -54.1294 -54.0238 -42.9375 -14.5506 -13.2164  -1.3213
    -0.5884  -0.4231   0.3437   1.6460   2.7294   3.6097   3.9745   4.1647
     4.7438   5.9800   6.8701   8.0545  13.0015  14.9719  15.7917  17.2892

     occupation numbers 
     1.0000   1.0000   1.0000   1.0000   1.0000   1.0000   1.0000   1.0000
     1.0000   1.0000   1.0000   1.0000   1.0000   1.0021   1.0779   0.9829
     0.0115   0.0000   0.0000   0.0000   0.0000   0.0000   0.0000   0.0000

          k = 0.0000 0.4330-0.1119 (  3062 PWs)   bands (ev):

   -90.8544 -54.1855 -54.1357 -54.0196 -42.9272 -13.9426 -13.2891  -1.8148
    -0.7218  -0.2286   0.4709   1.4242   2.3028   3.7372   3.9942   4.3066
     4.8446   6.2682   6.9124   9.7205  10.9418  15.1087  15.3843  16.2441

     occupation numbers 
     1.0000   1.0000   1.0000   1.0000   1.0000   1.0000   1.0000   1.0000
     1.0000   1.0000   1.0000   1.0000   1.0000   1.0123   1.0815   0.6627
     0.0023   0.0000   0.0000   0.0000   0.0000   0.0000   0.0000   0.0000

          k =-0.1250 0.3608-0.1119 (  3067 PWs)   bands (ev):

   -90.8551 -54.1736 -54.1379 -54.0209 -42.9302 -14.1503 -13.2452  -1.3753
    -0.8461  -0.1666   0.3410   0.9995   2.6131   3.8385   4.1634   4.2957
     4.7053   6.1743   6.6248   9.0386  12.1714  13.9940  16.2998  16.7666

     occupation numbers 
     1.0000   1.0000   1.0000   1.0000   1.0000   1.0000   1.0000   1.0000
     1.0000   1.0000   1.0000   1.0000   1.0000   1.0348   0.9849   0.6926
     0.0199   0.0000   0.0000   0.0000   0.0000   0.0000   0.0000   0.0000

          k =-0.1250 0.5052-0.1119 (  3051 PWs)   bands (ev):

   -90.8533 -54.1905 -54.1445 -54.0179 -42.9229 -13.6384 -13.3534  -1.9318
    -0.8860   0.0644   0.6228   0.9644   2.0055   3.7769   3.9335   4.3494
     5.5371   6.4438   6.7220   9.8088  11.0005  14.1812  14.2292  16.6329

     occupation numbers 
     1.0000   1.0000   1.0000   1.0000   1.0000   1.0000   1.0000   1.0000
     1.0000   1.0000   1.0000   1.0000   1.0000   1.0192   1.0663   0.5445
     0.0000   0.0000   0.0000   0.0000   0.0000   0.0000   0.0000   0.0000

     the Fermi energy is     4.4036 ev

!    total energy              =    -474.99614622 Ry
     total all-electron energy =     -3102.868284 Ry
     estimated scf accuracy    <       0.00000006 Ry
     smearing contrib. (-TS)   =       0.00205028 Ry
     internal energy E=F+TS    =    -474.99819650 Ry

     The total energy is F=E-TS. E is the sum of the following terms:
     one-electron contribution =    -639.46713019 Ry
     hartree contribution      =     329.10748697 Ry
     xc contribution           =     -48.92610581 Ry
     ewald contribution        =      -9.00530423 Ry
     one-center paw contrib.   =    -106.70714324 Ry
      -> PAW hartree energy AE =     278.44992363 Ry
      -> PAW hartree energy PS =    -277.10090417 Ry
      -> PAW xc energy AE      =    -154.14952086 Ry
      -> PAW xc energy PS      =      46.09335815 Ry
      -> total E_H with PAW    =     330.45650643 Ry
      -> total E_XC with PAW   =    -156.98226851 Ry

     total magnetization       =     0.65 Bohr mag/cell
     absolute magnetization    =     0.79 Bohr mag/cell

     convergence has been achieved in  16 iterations

     Forces acting on atoms (cartesian axes, Ry/au):

     atom    1 type  1   force =     0.00000000    0.00000000    0.00000000
     atom    2 type  2   force =     0.00000000    0.00000000    0.00166318
     atom    3 type  2   force =     0.00000000    0.00000000   -0.00166318
     atom    4 type  3   force =     0.00000000    0.00000000    0.00000000
     The non-local contrib.  to forces
     atom    1 type  1   force =    -0.00000000   -0.00000000    0.00000000
     atom    2 type  2   force =     0.00000000    0.00000000   -1.15684909
     atom    3 type  2   force =     0.00000000    0.00000000    1.15684909
     atom    4 type  3   force =     0.00000000    0.00000000    0.00000000
     The ionic contribution  to forces
     atom    1 type  1   force =    -0.00000000   -0.00000000    0.00000000
     atom    2 type  2   force =     0.00000000   -0.00000000   37.45503642
     atom    3 type  2   force =    -0.00000000    0.00000000  -37.45503642
     atom    4 type  3   force =     0.00000000   -0.00000000   -0.00000000
     The local contribution  to forces
     atom    1 type  1   force =     0.00000000   -0.00000000    0.00000000
     atom    2 type  2   force =     0.00000001   -0.00000001  -36.30622804
     atom    3 type  2   force =    -0.00000001    0.00000001   36.30622804
     atom    4 type  3   force =    -0.00000000   -0.00000000    0.00000000
     The core correction contribution to forces
     atom    1 type  1   force =    -0.00000000   -0.00000000    0.00000000
     atom    2 type  2   force =    -0.00000000    0.00000000    0.00987823
     atom    3 type  2   force =     0.00000000   -0.00000000   -0.00987823
     atom    4 type  3   force =     0.00000000    0.00000000    0.00000000
     The Hubbard contrib.    to forces
     atom    1 type  1   force =     0.00000000    0.00000000    0.00000000
     atom    2 type  2   force =     0.00000000    0.00000000    0.00000000
     atom    3 type  2   force =     0.00000000    0.00000000    0.00000000
     atom    4 type  3   force =     0.00000000    0.00000000    0.00000000
     The SCF correction term to forces
     atom    1 type  1   force =     0.00000000    0.00000000    0.00000000
     atom    2 type  2   force =     0.00000000   -0.00000000   -0.00017433
     atom    3 type  2   force =    -0.00000000    0.00000000    0.00017433
     atom    4 type  3   force =     0.00000000    0.00000000    0.00000000

     Total force =     0.002352     Total SCF correction =     0.000247
     SCF correction compared to forces is large: reduce conv_thr to get better values

     Writing all to output data dir ./out/pw.save/ :
     XML data file, charge density, pseudopotentials, collected wavefunctions
 
     init_run     :     13.82s CPU      3.27s WALL (       1 calls)
     electrons    :     82.22s CPU     22.61s WALL (       1 calls)
     forces       :      0.75s CPU      0.52s WALL (       1 calls)

     Called by init_run:
     wfcinit      :      0.27s CPU      0.32s WALL (       1 calls)
     wfcinit:atom :      0.04s CPU      0.04s WALL (      50 calls)
     wfcinit:wfcr :      0.17s CPU      0.20s WALL (      50 calls)
     potinit      :     13.04s CPU      2.43s WALL (       1 calls)
     hinit0       :      0.41s CPU      0.40s WALL (       1 calls)

     Called by electrons:
     c_bands      :     11.16s CPU     11.16s WALL (      16 calls)
     sum_band     :      1.94s CPU      1.94s WALL (      16 calls)
     v_of_rho     :      0.28s CPU      0.15s WALL (      17 calls)
     v_h          :      0.19s CPU      0.03s WALL (      17 calls)
     v_xc         :      0.10s CPU      0.13s WALL (      18 calls)
     newd         :      0.41s CPU      0.32s WALL (      17 calls)
                                        0.32s GPU  (      17 calls)
     PAW_pot      :     71.90s CPU      9.13s WALL (      17 calls)
     mix_rho      :      0.49s CPU      0.46s WALL (      16 calls)

     Called by c_bands:
     init_us_2    :      0.76s CPU      0.73s WALL (    1700 calls)
     cegterg      :      9.80s CPU      9.85s WALL (     800 calls)

     Called by sum_band:
     sum_band:wei :      0.02s CPU      0.02s WALL (      16 calls)
                                        0.02s GPU  (      16 calls)
     sum_band:loo :      1.24s CPU      1.22s WALL (      16 calls)
                                        1.22s GPU  (      16 calls)
     sum_band:buf :      0.14s CPU      0.16s WALL (     800 calls)
                                        0.15s GPU  (     800 calls)
     sum_band:ini :      0.36s CPU      0.36s WALL (     800 calls)
                                        0.35s GPU  (     800 calls)
     sum_band:cal :      0.04s CPU      0.05s WALL (     800 calls)
                                        0.04s GPU  (     800 calls)
     sum_band:bec :      0.20s CPU      0.21s WALL (     800 calls)
                                        0.20s GPU  (     800 calls)
     addusdens    :      0.57s CPU      0.57s WALL (      16 calls)
                                        0.57s GPU  (      16 calls)
     addusd:skk   :      0.00s CPU      0.00s WALL (      48 calls)
                                        0.00s GPU  (      48 calls)

     Called by *egterg:
     cdiaghg      :      3.06s CPU      3.18s WALL (    3911 calls)
                                        3.13s GPU  (    3911 calls)
     cegterg:over :      0.81s CPU      0.84s WALL (    3111 calls)
     cegterg:upda :      0.56s CPU      0.57s WALL (    3111 calls)
     cegterg:last :      0.11s CPU      0.11s WALL (    1623 calls)
     h_psi        :      3.66s CPU      3.68s WALL (    3961 calls)
                                        3.63s GPU  (    3961 calls)
     s_psi        :      0.63s CPU      0.66s WALL (    3961 calls)
     g_psi        :      0.02s CPU      0.08s WALL (    3111 calls)
                                        0.04s GPU  (    3111 calls)

     Called by h_psi:
     h_psi:calbec :      0.13s CPU      0.24s WALL (    3961 calls)
                                        0.18s GPU  (    3961 calls)
     vloc_psi     :      2.53s CPU      2.48s WALL (    3961 calls)
                                        2.43s GPU  (    3961 calls)
     add_vuspsi   :      0.56s CPU      0.67s WALL (    3961 calls)
                                        0.62s GPU  (    3961 calls)

     General routines
     calbec       :      0.14s CPU      0.17s WALL (    4961 calls)
     fft          :      3.88s CPU      0.98s WALL (     438 calls)
                                        0.02s GPU  (     404 calls)
     ffts         :      4.95s CPU      0.85s WALL (     581 calls)
                                        0.01s GPU  (     547 calls)
     fftw         :      0.25s CPU      0.80s WALL (   12834 calls)
                                        0.64s GPU  (   12834 calls)
     interpolate  :      8.96s CPU      1.81s WALL (      34 calls)
 
     Parallel routines

     PAW routines
     PAW_pot      :     71.90s CPU      9.13s WALL (      17 calls)
     PAW_symme    :      0.03s CPU      0.01s WALL (      33 calls)
 
     PWSCF        :   1m37.63s CPU     26.90s WALL

 
   This run was terminated on:   3:20:47  12Jul2026            

=------------------------------------------------------------------------------=
   JOB DONE.
=------------------------------------------------------------------------------=
Warning: ieee_divide_by_zero is signaling
Warning: ieee_inexact is signaling
FORTRAN STOP
