
     Program PWSCF v.7.3.1 starts on 12Jul2026 at  4:19:54 

     This program is part of the open-source Quantum ESPRESSO suite
     for quantum simulation of materials; please cite
         "P. Giannozzi et al., J. Phys.:Condens. Matter 21 395502 (2009);
         "P. Giannozzi et al., J. Phys.:Condens. Matter 29 465901 (2017);
         "P. Giannozzi et al., J. Chem. Phys. 152 154105 (2020);
          URL http://www.quantum-espresso.org", 
     in publications or presentations arising from this work. More details at
     http://www.quantum-espresso.org/quote

     Parallel version (MPI & OpenMP), running on      14 processor cores
     Number of MPI processes:                 1
     Threads/MPI process:                    14

     MPI processes distributed on     1 nodes
     763425 MiB available memory on the printing compute node when the environment starts
 
     Reading input from pw.in

     Current dimensions of program PWSCF are:
     Max number of different atomic species (ntypx) = 10
     Max number of k-points (npk) =  40000
     Max angular momentum in pseudopotentials (lmaxx) =  4
     file Co.pbe-spn-kjpaw_psl.0.3.1.UPF: wavefunction(s)  3P 3D renormalized
     file O.pbe-n-kjpaw_psl.1.0.0.UPF: wavefunction(s)  2S 2P renormalized
     file Na.pbe-spn-kjpaw_psl.1.0.0.UPF: wavefunction(s)  2P renormalized
 
     Subspace diagonalization in iterative solution of the eigenvalue problem:
     a serial algorithm will be used

 
     G-vector sticks info
     --------------------
     sticks:   dense  smooth     PW     G-vecs:    dense   smooth      PW
     Sum        1303     661    199                91827    32499    5183
 
     Using Slab Decomposition
 


     bravais-lattice index     =            4
     lattice parameter (alat)  =       5.4575  a.u.
     unit-cell volume          =     336.3339 (a.u.)^3
     number of atoms/cell      =            4
     number of atomic types    =            3
     number of electrons       =        38.00
     number of Kohn-Sham states=           27
     kinetic-energy cutoff     =      80.0000  Ry
     charge density cutoff     =     640.0000  Ry
     scf convergence threshold =      1.0E-07
     mixing beta               =       0.3000
     number of iterations used =            8  local-TF  mixing
     Exchange-correlation= SLA  PW   PBX  PBC
                           (   1   4   3   4   0   0   0)

     GPU acceleration is ACTIVE.  4 visible GPUs per MPI rank
     GPU-aware MPI enabled


     GPU used by master process:

        Device Number: 0
        Device name: NVIDIA A100-SXM4-80GB
        Compute capability : 80
        Ratio of single to double precision performance  : 2
        Memory Clock Rate (KHz): 1593000
        Memory Bus Width (bits): 5120
        Peak Memory Bandwidth (GB/s): ******

     celldm(1)=   5.457529  celldm(2)=   0.000000  celldm(3)=   2.389197
     celldm(4)=   0.000000  celldm(5)=   0.000000  celldm(6)=   0.000000

     crystal axes: (cart. coord. in units of alat)
               a(1) = (   1.000000   0.000000   0.000000 )  
               a(2) = (  -0.500000   0.866025   0.000000 )  
               a(3) = (   0.000000   0.000000   2.389197 )  

     reciprocal axes: (cart. coord. in units 2 pi/alat)
               b(1) = (  1.000000  0.577350 -0.000000 )  
               b(2) = (  0.000000  1.154701  0.000000 )  
               b(3) = (  0.000000 -0.000000  0.418551 )  


     PseudoPot. # 1 for Co read from file:
     ../../pseudo/Co.pbe-spn-kjpaw_psl.0.3.1.UPF
     MD5 check sum: 3c0a43779828c046024e4f3be63f8e67
     Pseudo is Projector augmented-wave + core cor, Zval = 17.0
     Generated using &quot;atomic&quot; code by A. Dal Corso  v.6.2.2
     Shape of augmentation charge: PSQ
     Using radial grid of 1193 points,  6 beta functions with: 
                l(1) =   0
                l(2) =   0
                l(3) =   1
                l(4) =   1
                l(5) =   2
                l(6) =   2
     Q(r) pseudized with 0 coefficients 


     PseudoPot. # 2 for O  read from file:
     ../../pseudo/O.pbe-n-kjpaw_psl.1.0.0.UPF
     MD5 check sum: e99d9cef9b487d1ca56f5b95ecd0fd7a
     Pseudo is Projector augmented-wave + core cor, Zval =  6.0
     Generated using &quot;atomic&quot; code by A. Dal Corso  v.6.3
     Shape of augmentation charge: PSQ
     Using radial grid of 1095 points,  4 beta functions with: 
                l(1) =   0
                l(2) =   0
                l(3) =   1
                l(4) =   1
     Q(r) pseudized with 0 coefficients 


     PseudoPot. # 3 for Na read from file:
     ../../pseudo/Na.pbe-spn-kjpaw_psl.1.0.0.UPF
     MD5 check sum: 05b4deb74e3932c23ab016979dc8b5d4
     Pseudo is Projector augmented-wave + core cor, Zval =  9.0
     Generated using &quot;atomic&quot; code by A. Dal Corso  v.6.3
     Shape of augmentation charge: PSQ
     Using radial grid of 1121 points,  4 beta functions with: 
                l(1) =   0
                l(2) =   0
                l(3) =   1
                l(4) =   1
     Q(r) pseudized with 0 coefficients 


     atomic species   valence    mass     pseudopotential
     Co               17.00    58.93300     Co( 1.00)
     O                 6.00    15.99900     O ( 1.00)
     Na                9.00    22.98977     Na( 1.00)

     Starting magnetic structure 
     atomic species   magnetization
     Co              0.300
     O               0.000
     Na              0.000

      6 Sym. Ops. (no inversion) found


                                    s                        frac. trans.

      isym =  1     identity                                     

 cryst.   s( 1) = (     1          0          0      )
                  (     0          1          0      )
                  (     0          0          1      )

 cart.    s( 1) = (  1.0000000  0.0000000  0.0000000 )
                  (  0.0000000  1.0000000  0.0000000 )
                  (  0.0000000  0.0000000  1.0000000 )


      isym =  2     120 deg rotation - cryst. axis [0,0,1]       

 cryst.   s( 2) = (     0          1          0      )
                  (    -1         -1          0      )
                  (     0          0          1      )

 cart.    s( 2) = ( -0.5000000 -0.8660254  0.0000000 )
                  (  0.8660254 -0.5000000  0.0000000 )
                  (  0.0000000  0.0000000  1.0000000 )


      isym =  3     120 deg rotation - cryst. axis [0,0,-1]      

 cryst.   s( 3) = (    -1         -1          0      )
                  (     1          0          0      )
                  (     0          0          1      )

 cart.    s( 3) = ( -0.5000000  0.8660254  0.0000000 )
                  ( -0.8660254 -0.5000000  0.0000000 )
                  (  0.0000000  0.0000000  1.0000000 )


      isym =  4     inv. 180 deg rotation - cart. axis [1,0,0]   

 cryst.   s( 4) = (    -1          0          0      )
                  (     1          1          0      )
                  (     0          0          1      )

 cart.    s( 4) = ( -1.0000000  0.0000000  0.0000000 )
                  (  0.0000000  1.0000000  0.0000000 )
                  (  0.0000000  0.0000000  1.0000000 )


      isym =  5     inv. 180 deg rotation - cryst. axis [0,1,0]  

 cryst.   s( 5) = (     1          1          0      )
                  (     0         -1          0      )
                  (     0          0          1      )

 cart.    s( 5) = (  0.5000000  0.8660254  0.0000000 )
                  (  0.8660254 -0.5000000  0.0000000 )
                  (  0.0000000  0.0000000  1.0000000 )


      isym =  6     inv. 180 deg rotation - cryst. axis [1,1,0]  

 cryst.   s( 6) = (     0         -1          0      )
                  (    -1          0          0      )
                  (     0          0          1      )

 cart.    s( 6) = (  0.5000000 -0.8660254  0.0000000 )
                  ( -0.8660254 -0.5000000  0.0000000 )
                  (  0.0000000  0.0000000  1.0000000 )


     point group C_3v (3m)  
     there are  3 classes
     the character table:

       E     2C3   3s_v 
A_1    1.00  1.00  1.00
A_2    1.00  1.00 -1.00
E      2.00 -1.00  0.00

     the symmetry operations in each class and the name of the first element:

     E        1
          identity                                               
     2C3      2    3
          120 deg rotation - cryst. axis [0,0,1]                 
     3s_v     4    5    6
          inv. 180 deg rotation - cart. axis [1,0,0]             

   Cartesian axes

     site n.     atom                  positions (alat units)
         1        Co     tau(   1) = (   0.0000000   0.0000000   0.0000000  )
         2        O      tau(   2) = (  -0.0000000   0.5773503   0.3324100  )
         3        O      tau(   3) = (   0.5000000   0.2886751   2.0567867  )
         4        Na     tau(   4) = (   0.0000000   0.0000000   1.3677285  )

   Crystallographic axes

     site n.     atom                  positions (cryst. coord.)
         1        Co     tau(   1) = (  0.0000000  0.0000000  0.0000000  )
         2        O      tau(   2) = (  0.3333333  0.6666667  0.1391304  )
         3        O      tau(   3) = (  0.6666667  0.3333333  0.8608696  )
         4        Na     tau(   4) = (  0.0000000  0.0000000  0.5724638  )

     number of k points=    25  Marzari-Vanderbilt smearing, width (Ry)=  0.0200
                       cart. coord. in units 2pi/alat
        k(    1) = (   0.0000000   0.0000000   0.0000000), wk =   0.0052083
        k(    2) = (   0.0000000   0.0000000   0.1395169), wk =   0.0104167
        k(    3) = (   0.0000000   0.1443376   0.0000000), wk =   0.0312500
        k(    4) = (   0.0000000   0.1443376   0.1395169), wk =   0.0312500
        k(    5) = (   0.0000000   0.2886751   0.0000000), wk =   0.0312500
        k(    6) = (   0.0000000   0.2886751   0.1395169), wk =   0.0312500
        k(    7) = (   0.0000000   0.4330127   0.0000000), wk =   0.0312500
        k(    8) = (   0.0000000   0.4330127   0.1395169), wk =   0.0312500
        k(    9) = (   0.0000000  -0.5773503   0.0000000), wk =   0.0156250
        k(   10) = (   0.0000000  -0.5773503   0.1395169), wk =   0.0312500
        k(   11) = (   0.1250000   0.2165064   0.0000000), wk =   0.0312500
        k(   12) = (   0.1250000   0.2165064   0.1395169), wk =   0.0625000
        k(   13) = (   0.1250000   0.3608439   0.0000000), wk =   0.0625000
        k(   14) = (   0.1250000   0.3608439   0.1395169), wk =   0.0625000
        k(   15) = (   0.1250000   0.5051815   0.0000000), wk =   0.0625000
        k(   16) = (   0.1250000   0.5051815   0.1395169), wk =   0.0625000
        k(   17) = (   0.2500000   0.4330127   0.0000000), wk =   0.0312500
        k(   18) = (   0.2500000   0.4330127   0.1395169), wk =   0.0625000
        k(   19) = (   0.2500000   0.5773503   0.0000000), wk =   0.0312500
        k(   20) = (   0.2500000   0.5773503   0.1395169), wk =   0.0625000
        k(   21) = (   0.0000000  -0.1443376   0.1395169), wk =   0.0312500
        k(   22) = (   0.0000000  -0.2886751   0.1395169), wk =   0.0312500
        k(   23) = (   0.0000000  -0.4330127   0.1395169), wk =   0.0312500
        k(   24) = (  -0.1250000  -0.3608439   0.1395169), wk =   0.0625000
        k(   25) = (  -0.1250000  -0.5051815   0.1395169), wk =   0.0625000

                       cryst. coord.
        k(    1) = (   0.0000000   0.0000000   0.0000000), wk =   0.0052083
        k(    2) = (   0.0000000   0.0000000   0.3333333), wk =   0.0104167
        k(    3) = (   0.0000000   0.1250000   0.0000000), wk =   0.0312500
        k(    4) = (   0.0000000   0.1250000   0.3333333), wk =   0.0312500
        k(    5) = (   0.0000000   0.2500000   0.0000000), wk =   0.0312500
        k(    6) = (   0.0000000   0.2500000   0.3333333), wk =   0.0312500
        k(    7) = (   0.0000000   0.3750000   0.0000000), wk =   0.0312500
        k(    8) = (   0.0000000   0.3750000   0.3333333), wk =   0.0312500
        k(    9) = (   0.0000000  -0.5000000   0.0000000), wk =   0.0156250
        k(   10) = (   0.0000000  -0.5000000   0.3333333), wk =   0.0312500
        k(   11) = (   0.1250000   0.1250000   0.0000000), wk =   0.0312500
        k(   12) = (   0.1250000   0.1250000   0.3333333), wk =   0.0625000
        k(   13) = (   0.1250000   0.2500000   0.0000000), wk =   0.0625000
        k(   14) = (   0.1250000   0.2500000   0.3333333), wk =   0.0625000
        k(   15) = (   0.1250000   0.3750000   0.0000000), wk =   0.0625000
        k(   16) = (   0.1250000   0.3750000   0.3333333), wk =   0.0625000
        k(   17) = (   0.2500000   0.2500000   0.0000000), wk =   0.0312500
        k(   18) = (   0.2500000   0.2500000   0.3333333), wk =   0.0625000
        k(   19) = (   0.2500000   0.3750000   0.0000000), wk =   0.0312500
        k(   20) = (   0.2500000   0.3750000   0.3333333), wk =   0.0625000
        k(   21) = (   0.0000000  -0.1250000   0.3333333), wk =   0.0312500
        k(   22) = (   0.0000000  -0.2500000   0.3333333), wk =   0.0312500
        k(   23) = (   0.0000000  -0.3750000   0.3333333), wk =   0.0312500
        k(   24) = (  -0.1250000  -0.2500000   0.3333333), wk =   0.0625000
        k(   25) = (  -0.1250000  -0.3750000   0.3333333), wk =   0.0625000

     Dense  grid:    91827 G-vectors     FFT dimensions: (  45,  45, 108)

     Smooth grid:    32499 G-vectors     FFT dimensions: (  32,  32,  75)

     Dynamical RAM for                 wfc:       1.67 MB

     Dynamical RAM for     wfc (w. buffer):      85.39 MB

     Dynamical RAM for           str. fact:       4.20 MB

     Dynamical RAM for           local pot:       0.00 MB

     Dynamical RAM for          nlocal pot:       2.60 MB

     Dynamical RAM for                qrad:       6.09 MB

     Dynamical RAM for          rho,v,vnew:      18.42 MB

     Dynamical RAM for               rhoin:       6.14 MB

     Dynamical RAM for            rho*nmix:      44.84 MB

     Dynamical RAM for           G-vectors:       5.50 MB

     Dynamical RAM for          h,s,v(r/c):       0.13 MB

     Dynamical RAM for          <psi|beta>:       0.02 MB

     Dynamical RAM for                 psi:       3.35 MB

     Dynamical RAM for                hpsi:       3.35 MB

     Dynamical RAM for                spsi:       3.35 MB

     Dynamical RAM for      wfcinit/wfcrot:       3.37 MB

     Dynamical RAM for           addusdens:     264.82 MB

     Dynamical RAM for          addusforce:     267.64 MB

     Estimated static dynamical RAM per process >     143.96 MB

     Estimated max dynamical RAM per process >     456.44 MB

     Check: negative core charge=   -0.000012
     Generating pointlists ...
     new r_m :   0.2748 (alat units)  1.4998 (a.u.) for type    1
     new r_m :   0.2748 (alat units)  1.4998 (a.u.) for type    2
     new r_m :   0.3708 (alat units)  2.0238 (a.u.) for type    3

     Initial potential from superposition of free atoms

     starting charge      37.9934, renormalised to      38.0000
     Starting wfcs are   23 randomized atomic wfcs +    4 random wfcs
     Checking if some PAW data can be deallocated... 

     total cpu time spent up to now is        3.4 secs

     Self-consistent Calculation
[tb_dev] Currently allocated     6.54E-01 Mbytes, locked:    0 /   6
[tb_pin] Currently allocated     0.00E+00 Mbytes, locked:    0 /   0

     iteration #  1     ecut=    80.00 Ry     beta= 0.30
     Davidson diagonalization with overlap

---- Real-time Memory Report at c_bands before calling an iterative solver
           733 MiB given to the printing process from OS
             0 MiB allocation reported by mallinfo(arena+hblkhd)
        763073 MiB available memory on the node where the printing process lives
     GPU memory used/free/total (MiB): 1176 / 79974 / 81151
------------------
     ethr =  1.00E-02,  avg # of iterations = 10.2

     total cpu time spent up to now is        5.7 secs

     total energy              =    -569.13314493 Ry
     estimated scf accuracy    <       1.46599908 Ry

     total magnetization       =     4.00 Bohr mag/cell
     absolute magnetization    =     4.00 Bohr mag/cell
[tb_dev] Currently allocated     3.05E-05 Mbytes, locked:    0 /   2
[tb_pin] Currently allocated     0.00E+00 Mbytes, locked:    0 /   0

     iteration #  2     ecut=    80.00 Ry     beta= 0.30
     Davidson diagonalization with overlap

---- Real-time Memory Report at c_bands before calling an iterative solver
           778 MiB given to the printing process from OS
             0 MiB allocation reported by mallinfo(arena+hblkhd)
        762949 MiB available memory on the node where the printing process lives
     GPU memory used/free/total (MiB): 1274 / 79876 / 81151
------------------
     ethr =  3.86E-03,  avg # of iterations =  1.7

     total cpu time spent up to now is        6.9 secs

     total energy              =    -569.08441274 Ry
     estimated scf accuracy    <       0.53824344 Ry

     total magnetization       =     3.94 Bohr mag/cell
     absolute magnetization    =     3.94 Bohr mag/cell
[tb_dev] Currently allocated     3.05E-05 Mbytes, locked:    0 /   2
[tb_pin] Currently allocated     0.00E+00 Mbytes, locked:    0 /   0

     iteration #  3     ecut=    80.00 Ry     beta= 0.30
     Davidson diagonalization with overlap

---- Real-time Memory Report at c_bands before calling an iterative solver
           779 MiB given to the printing process from OS
             0 MiB allocation reported by mallinfo(arena+hblkhd)
        762955 MiB available memory on the node where the printing process lives
     GPU memory used/free/total (MiB): 1274 / 79876 / 81151
------------------
     ethr =  1.42E-03,  avg # of iterations =  2.9

     total cpu time spent up to now is        8.1 secs

     total energy              =    -569.32259325 Ry
     estimated scf accuracy    <       1.03959237 Ry

     total magnetization       =     1.46 Bohr mag/cell
     absolute magnetization    =     1.61 Bohr mag/cell
[tb_dev] Currently allocated     3.05E-05 Mbytes, locked:    0 /   2
[tb_pin] Currently allocated     0.00E+00 Mbytes, locked:    0 /   0

     iteration #  4     ecut=    80.00 Ry     beta= 0.30
     Davidson diagonalization with overlap

---- Real-time Memory Report at c_bands before calling an iterative solver
           781 MiB given to the printing process from OS
             0 MiB allocation reported by mallinfo(arena+hblkhd)
        762977 MiB available memory on the node where the printing process lives
     GPU memory used/free/total (MiB): 1274 / 79876 / 81151
------------------
     ethr =  1.42E-03,  avg # of iterations =  1.6

     total cpu time spent up to now is        9.3 secs

     total energy              =    -569.35037640 Ry
     estimated scf accuracy    <       2.42366143 Ry

     total magnetization       =     0.81 Bohr mag/cell
     absolute magnetization    =     1.20 Bohr mag/cell
[tb_dev] Currently allocated     3.05E-05 Mbytes, locked:    0 /   2
[tb_pin] Currently allocated     0.00E+00 Mbytes, locked:    0 /   0

     iteration #  5     ecut=    80.00 Ry     beta= 0.30
     Davidson diagonalization with overlap

---- Real-time Memory Report at c_bands before calling an iterative solver
           783 MiB given to the printing process from OS
             0 MiB allocation reported by mallinfo(arena+hblkhd)
        762992 MiB available memory on the node where the printing process lives
     GPU memory used/free/total (MiB): 1274 / 79876 / 81151
------------------
     ethr =  1.42E-03,  avg # of iterations =  1.3

     total cpu time spent up to now is       10.4 secs

     total energy              =    -569.07913628 Ry
     estimated scf accuracy    <       1.93079479 Ry

     total magnetization       =     0.61 Bohr mag/cell
     absolute magnetization    =     1.15 Bohr mag/cell
[tb_dev] Currently allocated     3.05E-05 Mbytes, locked:    0 /   2
[tb_pin] Currently allocated     0.00E+00 Mbytes, locked:    0 /   0

     iteration #  6     ecut=    80.00 Ry     beta= 0.30
     Davidson diagonalization with overlap

---- Real-time Memory Report at c_bands before calling an iterative solver
           785 MiB given to the printing process from OS
             0 MiB allocation reported by mallinfo(arena+hblkhd)
        762998 MiB available memory on the node where the printing process lives
     GPU memory used/free/total (MiB): 1274 / 79876 / 81151
------------------
     ethr =  1.42E-03,  avg # of iterations =  2.0

     total cpu time spent up to now is       11.5 secs

     total energy              =    -569.26911848 Ry
     estimated scf accuracy    <       0.05613476 Ry

     total magnetization       =     0.39 Bohr mag/cell
     absolute magnetization    =     0.69 Bohr mag/cell
[tb_dev] Currently allocated     3.05E-05 Mbytes, locked:    0 /   2
[tb_pin] Currently allocated     0.00E+00 Mbytes, locked:    0 /   0

     iteration #  7     ecut=    80.00 Ry     beta= 0.30
     Davidson diagonalization with overlap

---- Real-time Memory Report at c_bands before calling an iterative solver
           787 MiB given to the printing process from OS
             0 MiB allocation reported by mallinfo(arena+hblkhd)
        763017 MiB available memory on the node where the printing process lives
     GPU memory used/free/total (MiB): 1274 / 79876 / 81151
------------------
     c_bands:  1 eigenvalues not converged
     ethr =  1.48E-04,  avg # of iterations =  7.6

     total cpu time spent up to now is       13.4 secs

     total energy              =    -569.28703289 Ry
     estimated scf accuracy    <       0.04606962 Ry

     total magnetization       =     0.23 Bohr mag/cell
     absolute magnetization    =     0.57 Bohr mag/cell
[tb_dev] Currently allocated     3.05E-05 Mbytes, locked:    0 /   2
[tb_pin] Currently allocated     0.00E+00 Mbytes, locked:    0 /   0

     iteration #  8     ecut=    80.00 Ry     beta= 0.30
     Davidson diagonalization with overlap

---- Real-time Memory Report at c_bands before calling an iterative solver
           791 MiB given to the printing process from OS
             0 MiB allocation reported by mallinfo(arena+hblkhd)
        763034 MiB available memory on the node where the printing process lives
     GPU memory used/free/total (MiB): 1306 / 79844 / 81151
------------------
     ethr =  1.21E-04,  avg # of iterations =  2.1

     total cpu time spent up to now is       14.6 secs

     total energy              =    -569.29251690 Ry
     estimated scf accuracy    <       0.01157590 Ry

     total magnetization       =     0.18 Bohr mag/cell
     absolute magnetization    =     0.39 Bohr mag/cell
[tb_dev] Currently allocated     3.05E-05 Mbytes, locked:    0 /   2
[tb_pin] Currently allocated     0.00E+00 Mbytes, locked:    0 /   0

     iteration #  9     ecut=    80.00 Ry     beta= 0.30
     Davidson diagonalization with overlap

---- Real-time Memory Report at c_bands before calling an iterative solver
           794 MiB given to the printing process from OS
             0 MiB allocation reported by mallinfo(arena+hblkhd)
        763037 MiB available memory on the node where the printing process lives
     GPU memory used/free/total (MiB): 1306 / 79844 / 81151
------------------
     c_bands:  1 eigenvalues not converged
     ethr =  3.05E-05,  avg # of iterations =  5.6

     total cpu time spent up to now is       16.3 secs

     total energy              =    -569.29514751 Ry
     estimated scf accuracy    <       0.00211407 Ry

     total magnetization       =     0.19 Bohr mag/cell
     absolute magnetization    =     0.34 Bohr mag/cell
[tb_dev] Currently allocated     3.05E-05 Mbytes, locked:    0 /   2
[tb_pin] Currently allocated     0.00E+00 Mbytes, locked:    0 /   0

     iteration # 10     ecut=    80.00 Ry     beta= 0.30
     Davidson diagonalization with overlap

---- Real-time Memory Report at c_bands before calling an iterative solver
           797 MiB given to the printing process from OS
             0 MiB allocation reported by mallinfo(arena+hblkhd)
        763018 MiB available memory on the node where the printing process lives
     GPU memory used/free/total (MiB): 1324 / 79826 / 81151
------------------
     c_bands:  1 eigenvalues not converged
     c_bands:  1 eigenvalues not converged
     c_bands:  1 eigenvalues not converged
     ethr =  5.56E-06,  avg # of iterations =  8.2

     total cpu time spent up to now is       18.3 secs

     total energy              =    -569.29578757 Ry
     estimated scf accuracy    <       0.00081465 Ry

     total magnetization       =     0.18 Bohr mag/cell
     absolute magnetization    =     0.28 Bohr mag/cell
[tb_dev] Currently allocated     3.05E-05 Mbytes, locked:    0 /   2
[tb_pin] Currently allocated     0.00E+00 Mbytes, locked:    0 /   0

     iteration # 11     ecut=    80.00 Ry     beta= 0.30
     Davidson diagonalization with overlap

---- Real-time Memory Report at c_bands before calling an iterative solver
           797 MiB given to the printing process from OS
             0 MiB allocation reported by mallinfo(arena+hblkhd)
        762655 MiB available memory on the node where the printing process lives
     GPU memory used/free/total (MiB): 1342 / 79808 / 81151
------------------
     c_bands:  1 eigenvalues not converged
     ethr =  2.14E-06,  avg # of iterations =  5.3

     total cpu time spent up to now is       19.9 secs

     total energy              =    -569.29613066 Ry
     estimated scf accuracy    <       0.00353903 Ry

     total magnetization       =     0.15 Bohr mag/cell
     absolute magnetization    =     0.27 Bohr mag/cell
[tb_dev] Currently allocated     3.05E-05 Mbytes, locked:    0 /   2
[tb_pin] Currently allocated     0.00E+00 Mbytes, locked:    0 /   0

     iteration # 12     ecut=    80.00 Ry     beta= 0.30
     Davidson diagonalization with overlap

---- Real-time Memory Report at c_bands before calling an iterative solver
           797 MiB given to the printing process from OS
             0 MiB allocation reported by mallinfo(arena+hblkhd)
        762676 MiB available memory on the node where the printing process lives
     GPU memory used/free/total (MiB): 1342 / 79808 / 81151
------------------
     ethr =  2.14E-06,  avg # of iterations =  2.9

     total cpu time spent up to now is       21.2 secs

     total energy              =    -569.29648255 Ry
     estimated scf accuracy    <       0.00064273 Ry

     total magnetization       =     0.17 Bohr mag/cell
     absolute magnetization    =     0.24 Bohr mag/cell
[tb_dev] Currently allocated     3.05E-05 Mbytes, locked:    0 /   2
[tb_pin] Currently allocated     0.00E+00 Mbytes, locked:    0 /   0

     iteration # 13     ecut=    80.00 Ry     beta= 0.30
     Davidson diagonalization with overlap

---- Real-time Memory Report at c_bands before calling an iterative solver
           797 MiB given to the printing process from OS
             0 MiB allocation reported by mallinfo(arena+hblkhd)
        762679 MiB available memory on the node where the printing process lives
     GPU memory used/free/total (MiB): 1342 / 79808 / 81151
------------------
     ethr =  1.69E-06,  avg # of iterations =  1.8

     total cpu time spent up to now is       22.4 secs

     total energy              =    -569.29649461 Ry
     estimated scf accuracy    <       0.00042357 Ry

     total magnetization       =     0.17 Bohr mag/cell
     absolute magnetization    =     0.24 Bohr mag/cell
[tb_dev] Currently allocated     3.05E-05 Mbytes, locked:    0 /   2
[tb_pin] Currently allocated     0.00E+00 Mbytes, locked:    0 /   0

     iteration # 14     ecut=    80.00 Ry     beta= 0.30
     Davidson diagonalization with overlap

---- Real-time Memory Report at c_bands before calling an iterative solver
           797 MiB given to the printing process from OS
             0 MiB allocation reported by mallinfo(arena+hblkhd)
        762699 MiB available memory on the node where the printing process lives
     GPU memory used/free/total (MiB): 1342 / 79808 / 81151
------------------
     ethr =  1.11E-06,  avg # of iterations =  1.7

     total cpu time spent up to now is       23.5 secs

     total energy              =    -569.29648677 Ry
     estimated scf accuracy    <       0.00020508 Ry

     total magnetization       =     0.16 Bohr mag/cell
     absolute magnetization    =     0.22 Bohr mag/cell
[tb_dev] Currently allocated     3.05E-05 Mbytes, locked:    0 /   2
[tb_pin] Currently allocated     0.00E+00 Mbytes, locked:    0 /   0

     iteration # 15     ecut=    80.00 Ry     beta= 0.30
     Davidson diagonalization with overlap

---- Real-time Memory Report at c_bands before calling an iterative solver
           797 MiB given to the printing process from OS
             0 MiB allocation reported by mallinfo(arena+hblkhd)
        762695 MiB available memory on the node where the printing process lives
     GPU memory used/free/total (MiB): 1342 / 79808 / 81151
------------------
     ethr =  5.40E-07,  avg # of iterations =  1.9

     total cpu time spent up to now is       24.8 secs

     total energy              =    -569.29651122 Ry
     estimated scf accuracy    <       0.00001707 Ry

     total magnetization       =     0.16 Bohr mag/cell
     absolute magnetization    =     0.22 Bohr mag/cell
[tb_dev] Currently allocated     3.05E-05 Mbytes, locked:    0 /   2
[tb_pin] Currently allocated     0.00E+00 Mbytes, locked:    0 /   0

     iteration # 16     ecut=    80.00 Ry     beta= 0.30
     Davidson diagonalization with overlap

---- Real-time Memory Report at c_bands before calling an iterative solver
           797 MiB given to the printing process from OS
             0 MiB allocation reported by mallinfo(arena+hblkhd)
        762709 MiB available memory on the node where the printing process lives
     GPU memory used/free/total (MiB): 1342 / 79808 / 81151
------------------
     ethr =  4.49E-08,  avg # of iterations =  9.7

     total cpu time spent up to now is       26.9 secs

     total energy              =    -569.29652802 Ry
     estimated scf accuracy    <       0.00000684 Ry

     total magnetization       =     0.17 Bohr mag/cell
     absolute magnetization    =     0.23 Bohr mag/cell
[tb_dev] Currently allocated     3.05E-05 Mbytes, locked:    0 /   2
[tb_pin] Currently allocated     0.00E+00 Mbytes, locked:    0 /   0

     iteration # 17     ecut=    80.00 Ry     beta= 0.30
     Davidson diagonalization with overlap

---- Real-time Memory Report at c_bands before calling an iterative solver
           797 MiB given to the printing process from OS
             0 MiB allocation reported by mallinfo(arena+hblkhd)
        762738 MiB available memory on the node where the printing process lives
     GPU memory used/free/total (MiB): 1342 / 79808 / 81151
------------------
     ethr =  1.80E-08,  avg # of iterations =  2.5

     total cpu time spent up to now is       28.2 secs

     total energy              =    -569.29653078 Ry
     estimated scf accuracy    <       0.00000274 Ry

     total magnetization       =     0.17 Bohr mag/cell
     absolute magnetization    =     0.23 Bohr mag/cell
[tb_dev] Currently allocated     3.05E-05 Mbytes, locked:    0 /   2
[tb_pin] Currently allocated     0.00E+00 Mbytes, locked:    0 /   0

     iteration # 18     ecut=    80.00 Ry     beta= 0.30
     Davidson diagonalization with overlap

---- Real-time Memory Report at c_bands before calling an iterative solver
           797 MiB given to the printing process from OS
             0 MiB allocation reported by mallinfo(arena+hblkhd)
        762737 MiB available memory on the node where the printing process lives
     GPU memory used/free/total (MiB): 1342 / 79808 / 81151
------------------
     ethr =  7.20E-09,  avg # of iterations =  3.5

     total cpu time spent up to now is       29.6 secs

     total energy              =    -569.29653175 Ry
     estimated scf accuracy    <       0.00000050 Ry

     total magnetization       =     0.17 Bohr mag/cell
     absolute magnetization    =     0.23 Bohr mag/cell
[tb_dev] Currently allocated     3.05E-05 Mbytes, locked:    0 /   2
[tb_pin] Currently allocated     0.00E+00 Mbytes, locked:    0 /   0

     iteration # 19     ecut=    80.00 Ry     beta= 0.30
     Davidson diagonalization with overlap

---- Real-time Memory Report at c_bands before calling an iterative solver
           797 MiB given to the printing process from OS
             0 MiB allocation reported by mallinfo(arena+hblkhd)
        762768 MiB available memory on the node where the printing process lives
     GPU memory used/free/total (MiB): 1342 / 79808 / 81151
------------------
     ethr =  1.32E-09,  avg # of iterations =  5.6

     total cpu time spent up to now is       31.2 secs

     total energy              =    -569.29653220 Ry
     estimated scf accuracy    <       0.00000025 Ry

     total magnetization       =     0.17 Bohr mag/cell
     absolute magnetization    =     0.22 Bohr mag/cell
[tb_dev] Currently allocated     3.05E-05 Mbytes, locked:    0 /   2
[tb_pin] Currently allocated     0.00E+00 Mbytes, locked:    0 /   0

     iteration # 20     ecut=    80.00 Ry     beta= 0.30
     Davidson diagonalization with overlap

---- Real-time Memory Report at c_bands before calling an iterative solver
           797 MiB given to the printing process from OS
             0 MiB allocation reported by mallinfo(arena+hblkhd)
        762782 MiB available memory on the node where the printing process lives
     GPU memory used/free/total (MiB): 1342 / 79808 / 81151
------------------
     ethr =  6.46E-10,  avg # of iterations =  3.1
 
     Magnetic moment per site  (integrated on atomic sphere of radius R)
     atom   1 (R=0.275)  charge= 14.1395  magn=  0.1606
     atom   2 (R=0.275)  charge=  5.2247  magn=  0.0114
     atom   3 (R=0.275)  charge=  5.2772  magn=  0.0081
     atom   4 (R=0.371)  charge=  8.0794  magn= -0.0072

     total cpu time spent up to now is       32.5 secs

     End of self-consistent calculation

 ------ SPIN UP ------------


          k = 0.0000 0.0000 0.0000 (  4063 PWs)   bands (ev):

   -87.5081 -50.7666 -50.7666 -50.7610 -45.9411 -17.7707 -17.7648 -17.7648
   -12.0521 -10.1684   1.3806   2.4924   2.4924   4.8720   5.8131   5.8131
     6.4840   6.4919   6.4919   7.9359  10.0319  10.0319  13.3855  15.2000
    17.8389  22.8553  24.7989

     occupation numbers 
     1.0000   1.0000   1.0000   1.0000   1.0000   1.0000   1.0000   1.0000
     1.0000   1.0000   1.0000   1.0000   1.0000   1.0000   1.0000   1.0000
     1.0000   1.0000   1.0000   0.0835   0.0000   0.0000   0.0000   0.0000
     0.0000   0.0000   0.0000

          k = 0.0000 0.0000 0.1395 (  4093 PWs)   bands (ev):

   -87.5081 -50.7667 -50.7667 -50.7613 -45.9411 -17.7710 -17.7649 -17.7649
   -12.0475 -10.1756   1.5159   2.4925   2.4925   4.2594   5.8124   5.8124
     6.4917   6.4917   7.2848   7.8764  10.0327  10.0327  12.4395  16.0827
    17.8458  22.8352  24.6362

     occupation numbers 
     1.0000   1.0000   1.0000   1.0000   1.0000   1.0000   1.0000   1.0000
     1.0000   1.0000   1.0000   1.0000   1.0000   1.0000   1.0000   1.0000
     1.0000   1.0000   1.0675   0.1517   0.0000   0.0000   0.0000   0.0000
     0.0000   0.0000   0.0000

          k = 0.0000 0.1443 0.0000 (  4069 PWs)   bands (ev):

   -87.5074 -50.7751 -50.7687 -50.7598 -45.9360 -17.8092 -17.7743 -17.7623
   -11.8847 -10.1602   1.5829   2.2455   2.5912   4.7512   5.2761   5.2923
     6.7243   6.7910   6.9256   8.1195   9.5672   9.9323  13.7071  15.8207
    18.4760  21.7770  22.7985

     occupation numbers 
     1.0000   1.0000   1.0000   1.0000   1.0000   1.0000   1.0000   1.0000
     1.0000   1.0000   1.0000   1.0000   1.0000   1.0000   1.0000   1.0000
     1.0000   1.0001   1.0013   0.0075   0.0000   0.0000   0.0000   0.0000
     0.0000   0.0000   0.0000

          k = 0.0000 0.1443 0.1395 (  4079 PWs)   bands (ev):

   -87.5074 -50.7751 -50.7687 -50.7599 -45.9360 -17.8092 -17.7743 -17.7625
   -11.8807 -10.1661   1.6857   2.2270   2.5914   4.7277   4.8373   5.2919
     6.7210   6.9255   7.4202   7.9790   9.7000   9.9326  12.9100  16.6479
    18.3128  21.6103  23.0835

     occupation numbers 
     1.0000   1.0000   1.0000   1.0000   1.0000   1.0000   1.0000   1.0000
     1.0000   1.0000   1.0000   1.0000   1.0000   1.0000   1.0000   1.0000
     1.0000   1.0013   1.0721   0.0513   0.0000   0.0000   0.0000   0.0000
     0.0000   0.0000   0.0000

          k = 0.0000 0.2887 0.0000 (  4067 PWs)   bands (ev):

   -87.5056 -50.7952 -50.7735 -50.7568 -45.9235 -17.9144 -17.7970 -17.7422
   -11.4494 -10.1488   1.7464   2.2199   2.8230   3.3521   4.6945   5.5742
     6.8530   7.2274   7.2869   8.3587   9.2256   9.8064  14.3419  17.2231
    18.1552  19.9156  21.5490

     occupation numbers 
     1.0000   1.0000   1.0000   1.0000   1.0000   1.0000   1.0000   1.0000
     1.0000   1.0000   1.0000   1.0000   1.0000   1.0000   1.0000   1.0000
     1.0004   1.0480   1.0682   0.0001   0.0000   0.0000   0.0000   0.0000
     0.0000   0.0000   0.0000

          k = 0.0000 0.2887 0.1395 (  4051 PWs)   bands (ev):

   -87.5056 -50.7951 -50.7734 -50.7568 -45.9235 -17.9143 -17.7969 -17.7423
   -11.4469 -10.1519   1.7092   2.2816   2.8232   3.3944   4.6943   5.4304
     6.7820   7.2275   7.5425   7.9673   9.6801   9.8063  13.8951  17.7893
    17.9813  19.4570  21.7037

     occupation numbers 
     1.0000   1.0000   1.0000   1.0000   1.0000   1.0000   1.0000   1.0000
     1.0000   1.0000   1.0000   1.0000   1.0000   1.0000   1.0000   1.0000
     1.0001   1.0480   0.9314   0.0588   0.0000   0.0000   0.0000   0.0000
     0.0000   0.0000   0.0000

          k = 0.0000 0.4330 0.0000 (  4064 PWs)   bands (ev):

   -87.5037 -50.8156 -50.7783 -50.7537 -45.9110 -18.0175 -17.8195 -17.7222
   -10.9488 -10.1617   1.2653   2.2379   3.0045   3.3298   4.4158   5.0499
     6.7793   7.1278   7.3392   8.9754   9.8387  10.1441  14.5703  15.7429
    18.2390  19.4755  20.2515

     occupation numbers 
     1.0000   1.0000   1.0000   1.0000   1.0000   1.0000   1.0000   1.0000
     1.0000   1.0000   1.0000   1.0000   1.0000   1.0000   1.0000   1.0000
     1.0001   1.0199   1.0811   0.0000   0.0000   0.0000   0.0000   0.0000
     0.0000   0.0000   0.0000

          k = 0.0000 0.4330 0.1395 (  4063 PWs)   bands (ev):

   -87.5037 -50.8156 -50.7783 -50.7537 -45.9110 -18.0175 -17.8195 -17.7223
   -10.9478 -10.1628   1.2583   2.2202   3.0047   3.3750   4.4156   5.0721
     6.7617   7.1278   7.3505   8.7218   9.8382  10.4339  14.5935  15.3599
    18.7682  19.3913  20.0183

     occupation numbers 
     1.0000   1.0000   1.0000   1.0000   1.0000   1.0000   1.0000   1.0000
     1.0000   1.0000   1.0000   1.0000   1.0000   1.0000   1.0000   1.0000
     1.0001   1.0199   1.0825   0.0000   0.0000   0.0000   0.0000   0.0000
     0.0000   0.0000   0.0000

          k = 0.0000-0.5774 0.0000 (  4054 PWs)   bands (ev):

   -87.5030 -50.8239 -50.7802 -50.7525 -45.9058 -18.0596 -17.8288 -17.7140
   -10.7024 -10.1906   0.8734   2.3437   3.0432   3.6143   4.3916   4.6700
     6.6388   7.0035   7.2852   9.3358   9.8868  11.5586  12.7792  16.6707
    16.9741  19.4267  20.0479

     occupation numbers 
     1.0000   1.0000   1.0000   1.0000   1.0000   1.0000   1.0000   1.0000
     1.0000   1.0000   1.0000   1.0000   1.0000   1.0000   1.0000   1.0000
     1.0000   1.0042   1.0676   0.0000   0.0000   0.0000   0.0000   0.0000
     0.0000   0.0000   0.0000

          k = 0.0000-0.5774 0.1395 (  4068 PWs)   bands (ev):

   -87.5030 -50.8240 -50.7803 -50.7525 -45.9059 -18.0596 -17.8289 -17.7140
   -10.7025 -10.1904   0.8730   2.3238   3.0433   3.6266   4.3914   4.7085
     6.6313   7.0033   7.2795   9.3197   9.8864  11.5594  12.6707  16.4801
    17.5859  19.1830  19.9215

     occupation numbers 
     1.0000   1.0000   1.0000   1.0000   1.0000   1.0000   1.0000   1.0000
     1.0000   1.0000   1.0000   1.0000   1.0000   1.0000   1.0000   1.0000
     1.0000   1.0042   1.0658   0.0000   0.0000   0.0000   0.0000   0.0000
     0.0000   0.0000   0.0000

          k = 0.1250 0.2165 0.0000 (  4056 PWs)   bands (ev):

   -87.5061 -50.7883 -50.7730 -50.7577 -45.9272 -17.8788 -17.7953 -17.7481
   -11.5830 -10.1497   1.8036   2.1505   2.7106   3.8147   4.5976   5.6159
     6.8868   7.1481   7.2432   8.3250   9.1678   9.7731  14.1733  16.8531
    19.0732  19.8850  21.7658

     occupation numbers 
     1.0000   1.0000   1.0000   1.0000   1.0000   1.0000   1.0000   1.0000
     1.0000   1.0000   1.0000   1.0000   1.0000   1.0000   1.0000   1.0000
     1.0007   1.0245   1.0534   0.0002   0.0000   0.0000   0.0000   0.0000
     0.0000   0.0000   0.0000

          k = 0.1250 0.2165 0.1395 (  4053 PWs)   bands (ev):

   -87.5061 -50.7882 -50.7730 -50.7577 -45.9272 -17.8788 -17.7953 -17.7482
   -11.5802 -10.1535   1.7935   2.2006   2.7124   3.8503   4.5969   5.3556
     6.8900   7.1160   7.5047   8.1857   9.4450   9.7237  13.7264  17.4178
    18.9461  19.4911  22.0192

     occupation numbers 
     1.0000   1.0000   1.0000   1.0000   1.0000   1.0000   1.0000   1.0000
     1.0000   1.0000   1.0000   1.0000   1.0000   1.0000   1.0000   1.0000
     1.0007   1.0175   0.9942   0.0025   0.0000   0.0000   0.0000   0.0000
     0.0000   0.0000   0.0000

          k = 0.1250 0.3608 0.0000 (  4062 PWs)   bands (ev):

   -87.5043 -50.8066 -50.7799 -50.7547 -45.9147 -17.9718 -17.8289 -17.7281
   -11.1138 -10.1450   1.6711   2.1964   2.9148   3.2072   4.1187   5.3840
     6.9165   7.2400   7.4236   8.7684   9.3303   9.9459  14.8217  16.6500
    18.2105  20.0296  20.3771

     occupation numbers 
     1.0000   1.0000   1.0000   1.0000   1.0000   1.0000   1.0000   1.0000
     1.0000   1.0000   1.0000   1.0000   1.0000   1.0000   1.0000   1.0000
     1.0011   1.0523   1.0706   0.0000   0.0000   0.0000   0.0000   0.0000
     0.0000   0.0000   0.0000

          k = 0.1250 0.3608 0.1395 (  4062 PWs)   bands (ev):

   -87.5043 -50.8066 -50.7799 -50.7546 -45.9147 -17.9718 -17.8289 -17.7282
   -11.1125 -10.1465   1.6458   2.1958   2.9318   3.2566   4.1188   5.3642
     6.9100   7.2339   7.4136   8.5256   9.5301  10.0437  14.7373  16.4569
    18.3780  19.8290  20.4979

     occupation numbers 
     1.0000   1.0000   1.0000   1.0000   1.0000   1.0000   1.0000   1.0000
     1.0000   1.0000   1.0000   1.0000   1.0000   1.0000   1.0000   1.0000
     1.0010   1.0502   1.0749   0.0000   0.0000   0.0000   0.0000   0.0000
     0.0000   0.0000   0.0000

          k = 0.1250 0.5052 0.0000 (  4073 PWs)   bands (ev):

   -87.5030 -50.8194 -50.7849 -50.7525 -45.9059 -18.0358 -17.8532 -17.7141
   -10.7352 -10.1589   1.1553   2.1902   3.0419   3.6110   3.9593   4.7721
     6.7562   7.0801   7.4003   9.2476   9.5856  11.2280  13.6962  16.3091
    17.9409  18.9791  20.1107

     occupation numbers 
     1.0000   1.0000   1.0000   1.0000   1.0000   1.0000   1.0000   1.0000
     1.0000   1.0000   1.0000   1.0000   1.0000   1.0000   1.0000   1.0000
     1.0001   1.0116   1.0791   0.0000   0.0000   0.0000   0.0000   0.0000
     0.0000   0.0000   0.0000

          k = 0.1250 0.5052 0.1395 (  4067 PWs)   bands (ev):

   -87.5030 -50.8194 -50.7849 -50.7524 -45.9059 -18.0358 -17.8532 -17.7140
   -10.7349 -10.1591   1.1549   2.1755   3.0412   3.6275   3.9589   4.7991
     6.7500   7.0821   7.3892   9.1982   9.6236  11.2230  13.6165  16.1940
    18.3387  18.8872  20.0697

     occupation numbers 
     1.0000   1.0000   1.0000   1.0000   1.0000   1.0000   1.0000   1.0000
     1.0000   1.0000   1.0000   1.0000   1.0000   1.0000   1.0000   1.0000
     1.0000   1.0119   1.0815   0.0000   0.0000   0.0000   0.0000   0.0000
     0.0000   0.0000   0.0000

          k = 0.2500 0.4330 0.0000 (  4076 PWs)   bands (ev):

   -87.5030 -50.8131 -50.7912 -50.7526 -45.9059 -18.0027 -17.8867 -17.7142
   -10.7647 -10.1305   1.6383   1.9851   2.8090   3.4593   3.8149   4.8732
     6.8421   7.1327   7.5382   9.0945   9.3498  11.0583  14.6657  16.2600
    17.6296  19.6302  20.2077

     occupation numbers 
     1.0000   1.0000   1.0000   1.0000   1.0000   1.0000   1.0000   1.0000
     1.0000   1.0000   1.0000   1.0000   1.0000   1.0000   1.0000   1.0000
     1.0003   1.0209   0.9394   0.0000   0.0000   0.0000   0.0000   0.0000
     0.0000   0.0000   0.0000

          k = 0.2500 0.4330 0.1395 (  4065 PWs)   bands (ev):

   -87.5030 -50.8130 -50.7912 -50.7525 -45.9059 -18.0027 -17.8867 -17.7141
   -10.7645 -10.1307   1.6337   1.9741   2.8124   3.4841   3.8182   4.8727
     6.8449   7.1362   7.5047   9.1900   9.3229  10.9332  14.6964  16.2831
    17.4966  19.7558  20.1614

     occupation numbers 
     1.0000   1.0000   1.0000   1.0000   1.0000   1.0000   1.0000   1.0000
     1.0000   1.0000   1.0000   1.0000   1.0000   1.0000   1.0000   1.0000
     1.0003   1.0217   0.9942   0.0000   0.0000   0.0000   0.0000   0.0000
     0.0000   0.0000   0.0000

          k = 0.2500 0.5774 0.0000 (  4068 PWs)   bands (ev):

   -87.5025 -50.8135 -50.7980 -50.7517 -45.9022 -18.0038 -17.9222 -17.7083
   -10.6227 -10.1132   1.5285   2.0576   2.5774   3.6125   4.0069   4.4348
     6.6387   7.2878   7.4926   9.2354   9.3173  12.4565  13.3656  16.4916
    17.8072  18.2314  19.9222

     occupation numbers 
     1.0000   1.0000   1.0000   1.0000   1.0000   1.0000   1.0000   1.0000
     1.0000   1.0000   1.0000   1.0000   1.0000   1.0000   1.0000   1.0000
     1.0000   1.0685   1.0106   0.0000   0.0000   0.0000   0.0000   0.0000
     0.0000   0.0000   0.0000

          k = 0.2500 0.5774 0.1395 (  4074 PWs)   bands (ev):

   -87.5025 -50.8136 -50.7981 -50.7516 -45.9022 -18.0038 -17.9223 -17.7084
   -10.6227 -10.1132   1.5278   2.0536   2.5806   3.6164   4.0042   4.4392
     6.6398   7.2882   7.4810   9.2784   9.3492  12.3241  13.2694  16.4571
    17.8687  18.4949  19.8716

     occupation numbers 
     1.0000   1.0000   1.0000   1.0000   1.0000   1.0000   1.0000   1.0000
     1.0000   1.0000   1.0000   1.0000   1.0000   1.0000   1.0000   1.0000
     1.0000   1.0686   1.0247   0.0000   0.0000   0.0000   0.0000   0.0000
     0.0000   0.0000   0.0000

          k = 0.0000-0.1443 0.1395 (  4079 PWs)   bands (ev):

   -87.5074 -50.7751 -50.7687 -50.7599 -45.9360 -17.8092 -17.7743 -17.7625
   -11.8807 -10.1661   1.6895   2.2232   2.5914   4.6348   4.9373   5.2919
     6.7129   6.9252   7.3867   8.0690   9.6062   9.9333  12.9734  16.6059
    18.3255  21.7254  22.8979

     occupation numbers 
     1.0000   1.0000   1.0000   1.0000   1.0000   1.0000   1.0000   1.0000
     1.0000   1.0000   1.0000   1.0000   1.0000   1.0000   1.0000   1.0000
     1.0000   1.0013   1.0819   0.0159   0.0000   0.0000   0.0000   0.0000
     0.0000   0.0000   0.0000

          k = 0.0000-0.2887 0.1395 (  4051 PWs)   bands (ev):

   -87.5056 -50.7951 -50.7734 -50.7568 -45.9235 -17.9143 -17.7969 -17.7423
   -11.4472 -10.1516   1.7222   2.2575   2.8231   3.4081   4.6943   5.3983
     6.8048   7.2275   7.4060   8.4262   9.2515   9.8068  14.1321  17.3488
    18.4727  19.3796  21.8542

     occupation numbers 
     1.0000   1.0000   1.0000   1.0000   1.0000   1.0000   1.0000   1.0000
     1.0000   1.0000   1.0000   1.0000   1.0000   1.0000   1.0000   1.0000
     1.0001   1.0480   1.0775   0.0000   0.0000   0.0000   0.0000   0.0000
     0.0000   0.0000   0.0000

          k = 0.0000-0.4330 0.1395 (  4063 PWs)   bands (ev):

   -87.5037 -50.8156 -50.7783 -50.7537 -45.9110 -18.0175 -17.8195 -17.7223
   -10.9484 -10.1621   1.2538   2.2194   3.0046   3.3956   4.4156   5.0332
     6.7747   7.1278   7.3145   9.0373   9.8386  10.0319  14.6722  15.7490
    18.3049  19.3711  20.1741

     occupation numbers 
     1.0000   1.0000   1.0000   1.0000   1.0000   1.0000   1.0000   1.0000
     1.0000   1.0000   1.0000   1.0000   1.0000   1.0000   1.0000   1.0000
     1.0001   1.0199   1.0761   0.0000   0.0000   0.0000   0.0000   0.0000
     0.0000   0.0000   0.0000

          k =-0.1250-0.3608 0.1395 (  4062 PWs)   bands (ev):

   -87.5043 -50.8066 -50.7799 -50.7546 -45.9147 -17.9718 -17.8289 -17.7282
   -11.1128 -10.1462   1.6459   2.1906   2.9248   3.2769   4.1168   5.3391
     6.9294   7.2577   7.3393   8.8286   9.3361   9.9165  14.8933  16.4888
    18.3332  19.9201  20.7392

     occupation numbers 
     1.0000   1.0000   1.0000   1.0000   1.0000   1.0000   1.0000   1.0000
     1.0000   1.0000   1.0000   1.0000   1.0000   1.0000   1.0000   1.0000
     1.0014   1.0584   1.0811   0.0000   0.0000   0.0000   0.0000   0.0000
     0.0000   0.0000   0.0000

          k =-0.1250-0.5052 0.1395 (  4067 PWs)   bands (ev):

   -87.5030 -50.8194 -50.7849 -50.7524 -45.9059 -18.0358 -17.8532 -17.7140
   -10.7353 -10.1587   1.1518   2.1775   3.0432   3.6337   3.9619   4.7814
     6.7558   7.0815   7.3797   9.3056   9.5936  11.0780  13.6672  16.5214
    17.9408  18.9553  20.1570

     occupation numbers 
     1.0000   1.0000   1.0000   1.0000   1.0000   1.0000   1.0000   1.0000
     1.0000   1.0000   1.0000   1.0000   1.0000   1.0000   1.0000   1.0000
     1.0001   1.0118   1.0827   0.0000   0.0000   0.0000   0.0000   0.0000
     0.0000   0.0000   0.0000

 ------ SPIN DOWN ----------


          k = 0.0000 0.0000 0.0000 (  4063 PWs)   bands (ev):

   -87.3140 -50.5917 -50.5917 -50.5436 -45.9459 -17.7753 -17.7699 -17.7699
   -12.0358 -10.1503   1.4218   2.5421   2.5421   4.8998   5.8268   5.8268
     6.4634   6.6721   6.6721   8.0789  10.1116  10.1116  13.3738  15.2133
    17.8501  22.8578  24.7517

     occupation numbers 
     1.0000   1.0000   1.0000   1.0000   1.0000   1.0000   1.0000   1.0000
     1.0000   1.0000   1.0000   1.0000   1.0000   1.0000   1.0000   1.0000
     1.0000   1.0000   1.0000   0.0138   0.0000   0.0000   0.0000   0.0000
     0.0000   0.0000   0.0000

          k = 0.0000 0.0000 0.1395 (  4093 PWs)   bands (ev):

   -87.3140 -50.5918 -50.5918 -50.5438 -45.9459 -17.7757 -17.7700 -17.7700
   -12.0311 -10.1575   1.5635   2.5422   2.5422   4.2573   5.8260   5.8260
     6.6719   6.6719   7.3254   7.9802  10.1124  10.1124  12.4333  16.0942
    17.8575  22.8252  24.5958

     occupation numbers 
     1.0000   1.0000   1.0000   1.0000   1.0000   1.0000   1.0000   1.0000
     1.0000   1.0000   1.0000   1.0000   1.0000   1.0000   1.0000   1.0000
     1.0000   1.0000   1.0786   0.0506   0.0000   0.0000   0.0000   0.0000
     0.0000   0.0000   0.0000

          k = 0.0000 0.1443 0.0000 (  4069 PWs)   bands (ev):

   -87.3132 -50.6003 -50.5938 -50.5423 -45.9407 -17.8146 -17.7794 -17.7669
   -11.8684 -10.1419   1.6237   2.2919   2.6391   4.7861   5.3042   5.3391
     6.7667   6.9257   7.0775   8.2250   9.6469  10.0106  13.6962  15.8332
    18.4883  21.6999  22.7910

     occupation numbers 
     1.0000   1.0000   1.0000   1.0000   1.0000   1.0000   1.0000   1.0000
     1.0000   1.0000   1.0000   1.0000   1.0000   1.0000   1.0000   1.0000
     1.0001   1.0013   1.0113   0.0013   0.0000   0.0000   0.0000   0.0000
     0.0000   0.0000   0.0000

          k = 0.0000 0.1443 0.1395 (  4079 PWs)   bands (ev):

   -87.3132 -50.6002 -50.5939 -50.5425 -45.9407 -17.8146 -17.7794 -17.7671
   -11.8644 -10.1478   1.7305   2.2733   2.6393   4.7469   4.8592   5.3388
     6.8768   7.0773   7.5007   8.0476   9.7757  10.0109  12.9017  16.6592
    18.3261  21.5327  23.0667

     occupation numbers 
     1.0000   1.0000   1.0000   1.0000   1.0000   1.0000   1.0000   1.0000
     1.0000   1.0000   1.0000   1.0000   1.0000   1.0000   1.0000   1.0000
     1.0005   1.0113   0.9999   0.0214   0.0000   0.0000   0.0000   0.0000
     0.0000   0.0000   0.0000

          k = 0.0000 0.2887 0.0000 (  4067 PWs)   bands (ev):

   -87.3114 -50.6206 -50.5987 -50.5393 -45.9282 -17.9203 -17.8022 -17.7468
   -11.4332 -10.1299   1.7832   2.2615   2.8671   3.3890   4.7404   5.6043
     7.0199   7.3903   7.4171   8.3749   9.2794   9.8826  14.3278  17.2314
    18.0759  19.9258  21.5531

     occupation numbers 
     1.0000   1.0000   1.0000   1.0000   1.0000   1.0000   1.0000   1.0000
     1.0000   1.0000   1.0000   1.0000   1.0000   1.0000   1.0000   1.0000
     1.0053   1.0813   1.0735   0.0001   0.0000   0.0000   0.0000   0.0000
     0.0000   0.0000   0.0000

          k = 0.0000 0.2887 0.1395 (  4051 PWs)   bands (ev):

   -87.3114 -50.6205 -50.5986 -50.5393 -45.9282 -17.9203 -17.8022 -17.7469
   -11.4308 -10.1331   1.7448   2.3249   2.8673   3.4354   4.7402   5.4492
     6.9398   7.3903   7.7333   7.9590   9.7153   9.8824  13.8817  17.7743
    17.9312  19.4572  21.7139

     occupation numbers 
     1.0000   1.0000   1.0000   1.0000   1.0000   1.0000   1.0000   1.0000
     1.0000   1.0000   1.0000   1.0000   1.0000   1.0000   1.0000   1.0000
     1.0016   1.0813   0.4468   0.0647   0.0000   0.0000   0.0000   0.0000
     0.0000   0.0000   0.0000

          k = 0.0000 0.4330 0.0000 (  4064 PWs)   bands (ev):

   -87.3096 -50.6411 -50.6035 -50.5362 -45.9157 -18.0240 -17.8249 -17.7267
   -10.9329 -10.1421   1.2993   2.2613   3.0492   3.3778   4.4441   5.0830
     6.9600   7.3100   7.5343   9.0350   9.9171  10.0849  14.4980  15.7127
    18.2479  19.4644  20.2689

     occupation numbers 
     1.0000   1.0000   1.0000   1.0000   1.0000   1.0000   1.0000   1.0000
     1.0000   1.0000   1.0000   1.0000   1.0000   1.0000   1.0000   1.0000
     1.0022   1.0749   0.9464   0.0000   0.0000   0.0000   0.0000   0.0000
     0.0000   0.0000   0.0000

          k = 0.0000 0.4330 0.1395 (  4063 PWs)   bands (ev):

   -87.3096 -50.6411 -50.6035 -50.5362 -45.9157 -18.0240 -17.8248 -17.7268
   -10.9320 -10.1431   1.2920   2.2433   3.0493   3.4251   4.4439   5.1056
     6.9398   7.3100   7.5463   8.7585   9.9166  10.3985  14.5210  15.3330
    18.7741  19.3861  20.0271

     occupation numbers 
     1.0000   1.0000   1.0000   1.0000   1.0000   1.0000   1.0000   1.0000
     1.0000   1.0000   1.0000   1.0000   1.0000   1.0000   1.0000   1.0000
     1.0016   1.0749   0.9242   0.0000   0.0000   0.0000   0.0000   0.0000
     0.0000   0.0000   0.0000

          k = 0.0000-0.5774 0.0000 (  4054 PWs)   bands (ev):

   -87.3088 -50.6495 -50.6054 -50.5349 -45.9105 -18.0663 -17.8342 -17.7184
   -10.6871 -10.1702   0.9055   2.3608   3.0904   3.6673   4.4063   4.6983
     6.8359   7.1965   7.4753   9.4305   9.9673  11.4502  12.7015  16.6560
    16.9711  19.4261  20.0623

     occupation numbers 
     1.0000   1.0000   1.0000   1.0000   1.0000   1.0000   1.0000   1.0000
     1.0000   1.0000   1.0000   1.0000   1.0000   1.0000   1.0000   1.0000
     1.0003   1.0379   1.0310   0.0000   0.0000   0.0000   0.0000   0.0000
     0.0000   0.0000   0.0000

          k = 0.0000-0.5774 0.1395 (  4068 PWs)   bands (ev):

   -87.3088 -50.6496 -50.6055 -50.5349 -45.9105 -18.0664 -17.8342 -17.7185
   -10.6872 -10.1701   0.9051   2.3406   3.0905   3.6797   4.4061   4.7385
     6.8274   7.1962   7.4697   9.4095   9.9669  11.4578  12.5930  16.4637
    17.5802  19.1786  19.9435

     occupation numbers 
     1.0000   1.0000   1.0000   1.0000   1.0000   1.0000   1.0000   1.0000
     1.0000   1.0000   1.0000   1.0000   1.0000   1.0000   1.0000   1.0000
     1.0002   1.0378   1.0367   0.0000   0.0000   0.0000   0.0000   0.0000
     0.0000   0.0000   0.0000

          k = 0.1250 0.2165 0.0000 (  4056 PWs)   bands (ev):

   -87.3119 -50.6136 -50.5981 -50.5402 -45.9319 -17.8846 -17.8005 -17.7527
   -11.5668 -10.1310   1.8404   2.1963   2.7549   3.8478   4.6494   5.6434
     7.0657   7.2484   7.3809   8.3552   9.2499   9.8444  14.1609  16.8644
    19.0227  19.8552  21.7460

     occupation numbers 
     1.0000   1.0000   1.0000   1.0000   1.0000   1.0000   1.0000   1.0000
     1.0000   1.0000   1.0000   1.0000   1.0000   1.0000   1.0000   1.0000
     1.0098   1.0552   1.0826   0.0001   0.0000   0.0000   0.0000   0.0000
     0.0000   0.0000   0.0000

          k = 0.1250 0.2165 0.1395 (  4053 PWs)   bands (ev):

   -87.3119 -50.6135 -50.5982 -50.5402 -45.9319 -17.8845 -17.8005 -17.7528
   -11.5640 -10.1349   1.8294   2.2492   2.7571   3.8865   4.6483   5.3681
     7.0699   7.2349   7.6735   8.1943   9.5102   9.7937  13.7156  17.4240
    18.9317  19.4290  22.0023

     occupation numbers 
     1.0000   1.0000   1.0000   1.0000   1.0000   1.0000   1.0000   1.0000
     1.0000   1.0000   1.0000   1.0000   1.0000   1.0000   1.0000   1.0000
     1.0103   1.0506   0.6098   0.0022   0.0000   0.0000   0.0000   0.0000
     0.0000   0.0000   0.0000

          k = 0.1250 0.3608 0.0000 (  4062 PWs)   bands (ev):

   -87.3101 -50.6321 -50.6051 -50.5371 -45.9194 -17.9780 -17.8343 -17.7326
   -11.0978 -10.1257   1.7063   2.2267   2.9572   3.2487   4.1609   5.4152
     7.1017   7.4350   7.5868   8.7736   9.3911   9.9602  14.7950  16.5684
    18.2156  20.0253  20.3702

     occupation numbers 
     1.0000   1.0000   1.0000   1.0000   1.0000   1.0000   1.0000   1.0000
     1.0000   1.0000   1.0000   1.0000   1.0000   1.0000   1.0000   1.0000
     1.0150   1.0644   0.8371   0.0000   0.0000   0.0000   0.0000   0.0000
     0.0000   0.0000   0.0000

          k = 0.1250 0.3608 0.1395 (  4062 PWs)   bands (ev):

   -87.3101 -50.6321 -50.6051 -50.5371 -45.9194 -17.9780 -17.8343 -17.7327
   -11.0965 -10.1272   1.6801   2.2259   2.9736   3.3025   4.1610   5.3930
     7.0916   7.4127   7.5912   8.5382   9.6094  10.0380  14.7159  16.3732
    18.3737  19.8359  20.4950

     occupation numbers 
     1.0000   1.0000   1.0000   1.0000   1.0000   1.0000   1.0000   1.0000
     1.0000   1.0000   1.0000   1.0000   1.0000   1.0000   1.0000   1.0000
     1.0133   1.0752   0.8265   0.0000   0.0000   0.0000   0.0000   0.0000
     0.0000   0.0000   0.0000

          k = 0.1250 0.5052 0.0000 (  4073 PWs)   bands (ev):

   -87.3088 -50.6450 -50.6101 -50.5350 -45.9105 -18.0424 -17.8587 -17.7185
   -10.7197 -10.1387   1.1872   2.2158   3.0793   3.6570   3.9887   4.8039
     6.9662   7.2689   7.5729   9.3315   9.6635  11.1407  13.6068  16.2942
    17.9323  18.9602  20.1137

     occupation numbers 
     1.0000   1.0000   1.0000   1.0000   1.0000   1.0000   1.0000   1.0000
     1.0000   1.0000   1.0000   1.0000   1.0000   1.0000   1.0000   1.0000
     1.0024   1.0623   0.8688   0.0000   0.0000   0.0000   0.0000   0.0000
     0.0000   0.0000   0.0000

          k = 0.1250 0.5052 0.1395 (  4067 PWs)   bands (ev):

   -87.3088 -50.6450 -50.6101 -50.5349 -45.9105 -18.0424 -17.8587 -17.7185
   -10.7195 -10.1389   1.1868   2.2006   3.0787   3.6739   3.9884   4.8322
     6.9588   7.2713   7.5613   9.2759   9.7060  11.1379  13.5284  16.1795
    18.3191  18.8753  20.0863

     occupation numbers 
     1.0000   1.0000   1.0000   1.0000   1.0000   1.0000   1.0000   1.0000
     1.0000   1.0000   1.0000   1.0000   1.0000   1.0000   1.0000   1.0000
     1.0022   1.0631   0.8939   0.0000   0.0000   0.0000   0.0000   0.0000
     0.0000   0.0000   0.0000

          k = 0.2500 0.4330 0.0000 (  4076 PWs)   bands (ev):

   -87.3088 -50.6386 -50.6165 -50.5351 -45.9105 -18.0091 -17.8925 -17.7186
   -10.7491 -10.1105   1.6691   2.0176   2.8353   3.5022   3.8560   4.9073
     7.0634   7.3178   7.6990   9.1608   9.4357  10.9813  14.5675  16.2365
    17.6017  19.6272  20.2224

     occupation numbers 
     1.0000   1.0000   1.0000   1.0000   1.0000   1.0000   1.0000   1.0000
     1.0000   1.0000   1.0000   1.0000   1.0000   1.0000   1.0000   1.0000
     1.0095   1.0769   0.5391   0.0000   0.0000   0.0000   0.0000   0.0000
     0.0000   0.0000   0.0000

          k = 0.2500 0.4330 0.1395 (  4065 PWs)   bands (ev):

   -87.3088 -50.6386 -50.6165 -50.5349 -45.9105 -18.0091 -17.8925 -17.7186
   -10.7489 -10.1106   1.6644   2.0059   2.8387   3.5278   3.8601   4.9067
     7.0662   7.3217   7.6621   9.2650   9.4076  10.8514  14.5947  16.2641
    17.4682  19.7553  20.1571

     occupation numbers 
     1.0000   1.0000   1.0000   1.0000   1.0000   1.0000   1.0000   1.0000
     1.0000   1.0000   1.0000   1.0000   1.0000   1.0000   1.0000   1.0000
     1.0098   1.0778   0.6414   0.0000   0.0000   0.0000   0.0000   0.0000
     0.0000   0.0000   0.0000

          k = 0.2500 0.5774 0.0000 (  4068 PWs)   bands (ev):

   -87.3083 -50.6391 -50.6234 -50.5341 -45.9069 -18.0102 -17.9281 -17.7128
   -10.6073 -10.0928   1.5593   2.0887   2.6027   3.6476   4.0478   4.4689
     6.8728   7.4641   7.6622   9.3186   9.4010  12.3543  13.2679  16.4656
    17.7790  18.2306  19.9096

     occupation numbers 
     1.0000   1.0000   1.0000   1.0000   1.0000   1.0000   1.0000   1.0000
     1.0000   1.0000   1.0000   1.0000   1.0000   1.0000   1.0000   1.0000
     1.0005   1.0422   0.6409   0.0000   0.0000   0.0000   0.0000   0.0000
     0.0000   0.0000   0.0000

          k = 0.2500 0.5774 0.1395 (  4074 PWs)   bands (ev):

   -87.3083 -50.6391 -50.6235 -50.5340 -45.9069 -18.0102 -17.9282 -17.7128
   -10.6074 -10.0927   1.5586   2.0845   2.6057   3.6516   4.0446   4.4744
     6.8741   7.4647   7.6499   9.3654   9.4347  12.2182  13.1704  16.4290
    17.8431  18.4945  19.8693

     occupation numbers 
     1.0000   1.0000   1.0000   1.0000   1.0000   1.0000   1.0000   1.0000
     1.0000   1.0000   1.0000   1.0000   1.0000   1.0000   1.0000   1.0000
     1.0005   1.0416   0.6747   0.0000   0.0000   0.0000   0.0000   0.0000
     0.0000   0.0000   0.0000

          k = 0.0000-0.1443 0.1395 (  4079 PWs)   bands (ev):

   -87.3132 -50.6002 -50.5939 -50.5425 -45.9407 -17.8146 -17.7794 -17.7671
   -11.8644 -10.1478   1.7343   2.2696   2.6393   4.6504   4.9634   5.3387
     6.8633   7.0771   7.4807   8.1252   9.6848  10.0116  12.9661  16.6158
    18.3399  21.6432  22.8893

     occupation numbers 
     1.0000   1.0000   1.0000   1.0000   1.0000   1.0000   1.0000   1.0000
     1.0000   1.0000   1.0000   1.0000   1.0000   1.0000   1.0000   1.0000
     1.0004   1.0112   1.0251   0.0069   0.0000   0.0000   0.0000   0.0000
     0.0000   0.0000   0.0000

          k = 0.0000-0.2887 0.1395 (  4051 PWs)   bands (ev):

   -87.3114 -50.6205 -50.5986 -50.5393 -45.9282 -17.9203 -17.8022 -17.7469
   -11.4310 -10.1328   1.7575   2.3010   2.8673   3.4494   4.7402   5.4160
     6.9605   7.3904   7.5699   8.4351   9.2985   9.8830  14.1201  17.3263
    18.4127  19.3985  21.8555

     occupation numbers 
     1.0000   1.0000   1.0000   1.0000   1.0000   1.0000   1.0000   1.0000
     1.0000   1.0000   1.0000   1.0000   1.0000   1.0000   1.0000   1.0000
     1.0022   1.0813   0.8753   0.0000   0.0000   0.0000   0.0000   0.0000
     0.0000   0.0000   0.0000

          k = 0.0000-0.4330 0.1395 (  4063 PWs)   bands (ev):

   -87.3096 -50.6411 -50.6035 -50.5362 -45.9157 -18.0240 -17.8248 -17.7268
   -10.9325 -10.1424   1.2873   2.2424   3.0493   3.4473   4.4440   5.0643
     6.9519   7.3099   7.5084   9.1043   9.9170   9.9711  14.5926  15.7254
    18.3017  19.3656  20.2024

     occupation numbers 
     1.0000   1.0000   1.0000   1.0000   1.0000   1.0000   1.0000   1.0000
     1.0000   1.0000   1.0000   1.0000   1.0000   1.0000   1.0000   1.0000
     1.0020   1.0749   0.9888   0.0000   0.0000   0.0000   0.0000   0.0000
     0.0000   0.0000   0.0000

          k =-0.1250-0.3608 0.1395 (  4062 PWs)   bands (ev):

   -87.3101 -50.6321 -50.6051 -50.5371 -45.9194 -17.9780 -17.8343 -17.7327
   -11.0968 -10.1269   1.6800   2.2208   2.9668   3.3233   4.1590   5.3663
     7.1137   7.4364   7.5088   8.8487   9.3945   9.9305  14.8702  16.4081
    18.3194  19.9387  20.7405

     occupation numbers 
     1.0000   1.0000   1.0000   1.0000   1.0000   1.0000   1.0000   1.0000
     1.0000   1.0000   1.0000   1.0000   1.0000   1.0000   1.0000   1.0000
     1.0171   1.0636   0.9883   0.0000   0.0000   0.0000   0.0000   0.0000
     0.0000   0.0000   0.0000

          k =-0.1250-0.5052 0.1395 (  4067 PWs)   bands (ev):

   -87.3088 -50.6450 -50.6101 -50.5349 -45.9105 -18.0424 -17.8587 -17.7185
   -10.7198 -10.1385   1.1836   2.2026   3.0807   3.6806   3.9919   4.8134
     6.9649   7.2701   7.5515   9.3957   9.6717  10.9873  13.5767  16.5036
    17.9280  18.9384  20.1747

     occupation numbers 
     1.0000   1.0000   1.0000   1.0000   1.0000   1.0000   1.0000   1.0000
     1.0000   1.0000   1.0000   1.0000   1.0000   1.0000   1.0000   1.0000
     1.0024   1.0627   0.9140   0.0000   0.0000   0.0000   0.0000   0.0000
     0.0000   0.0000   0.0000

     the Fermi energy is     7.7513 ev

!    total energy              =    -569.29653238 Ry
     total all-electron energy =     -3412.787088 Ry
     estimated scf accuracy    <       0.00000007 Ry
     smearing contrib. (-TS)   =       0.00640122 Ry
     internal energy E=F+TS    =    -569.30293359 Ry

     The total energy is F=E-TS. E is the sum of the following terms:
     one-electron contribution =    -433.56608128 Ry
     hartree contribution      =     234.61098628 Ry
     xc contribution           =     -60.19902935 Ry
     ewald contribution        =    -188.20998527 Ry
     one-center paw contrib.   =    -121.93882397 Ry
      -> PAW hartree energy AE =     343.94109792 Ry
      -> PAW hartree energy PS =    -343.93990862 Ry
      -> PAW xc energy AE      =    -179.07255848 Ry
      -> PAW xc energy PS      =      57.13254521 Ry
      -> total E_H with PAW    =     234.61217558 Ry
      -> total E_XC with PAW   =    -182.13904263 Ry

     total magnetization       =     0.17 Bohr mag/cell
     absolute magnetization    =     0.22 Bohr mag/cell

     convergence has been achieved in  20 iterations

     Forces acting on atoms (cartesian axes, Ry/au):

     atom    1 type  1   force =     0.00000000    0.00000000    0.04178684
     atom    2 type  2   force =     0.00000000    0.00000000   -0.00422308
     atom    3 type  2   force =    -0.00000000   -0.00000000   -0.04715063
     atom    4 type  3   force =     0.00000000    0.00000000    0.00958687
     The non-local contrib.  to forces
     atom    1 type  1   force =     0.00000000    0.00000000   -0.00971960
     atom    2 type  2   force =     0.00000000    0.00000000   -0.91963904
     atom    3 type  2   force =     0.00000000    0.00000000    0.47338365
     atom    4 type  3   force =     0.00000000   -0.00000000   -0.21863909
     The ionic contribution  to forces
     atom    1 type  1   force =    -0.00000000   -0.00000000   11.05243542
     atom    2 type  2   force =     0.00000000   -0.00000000   29.50189661
     atom    3 type  2   force =    -0.00000000    0.00000000  -22.34621197
     atom    4 type  3   force =     0.00000000   -0.00000000  -18.20812006
     The local contribution  to forces
     atom    1 type  1   force =     0.00000000    0.00000000  -11.00123311
     atom    2 type  2   force =     0.00000001   -0.00000001  -28.59457820
     atom    3 type  2   force =    -0.00000001    0.00000001   21.82921790
     atom    4 type  3   force =    -0.00000000    0.00000000   18.43682923
     The core correction contribution to forces
     atom    1 type  1   force =    -0.00000000    0.00000000   -0.00034515
     atom    2 type  2   force =    -0.00000000    0.00000000    0.00777057
     atom    3 type  2   force =     0.00000000   -0.00000000   -0.00360257
     atom    4 type  3   force =    -0.00000000    0.00000000    0.00008572
     The Hubbard contrib.    to forces
     atom    1 type  1   force =     0.00000000    0.00000000    0.00000000
     atom    2 type  2   force =     0.00000000    0.00000000    0.00000000
     atom    3 type  2   force =     0.00000000    0.00000000    0.00000000
     atom    4 type  3   force =     0.00000000    0.00000000    0.00000000
     The SCF correction term to forces
     atom    1 type  1   force =    -0.00000000    0.00000000    0.00060054
     atom    2 type  2   force =    -0.00000000    0.00000000    0.00027824
     atom    3 type  2   force =     0.00000000   -0.00000000    0.00001362
     atom    4 type  3   force =    -0.00000000    0.00000000   -0.00061766

     Total force =     0.063868     Total SCF correction =     0.000905

     Writing all to output data dir ./out/pw.save/ :
     XML data file, charge density, pseudopotentials, collected wavefunctions
 
     init_run     :     12.02s CPU      2.99s WALL (       1 calls)
     electrons    :    102.59s CPU     29.11s WALL (       1 calls)
     forces       :      0.61s CPU      0.55s WALL (       1 calls)

     Called by init_run:
     wfcinit      :      0.31s CPU      0.40s WALL (       1 calls)
     wfcinit:atom :      0.04s CPU      0.04s WALL (      50 calls)
     wfcinit:wfcr :      0.21s CPU      0.26s WALL (      50 calls)
     potinit      :     11.00s CPU      1.84s WALL (       1 calls)
     hinit0       :      0.60s CPU      0.60s WALL (       1 calls)

     Called by electrons:
     c_bands      :     14.69s CPU     14.89s WALL (      20 calls)
     sum_band     :      2.35s CPU      2.34s WALL (      20 calls)
     v_of_rho     :      0.36s CPU      0.20s WALL (      21 calls)
     v_h          :      0.26s CPU      0.04s WALL (      21 calls)
     v_xc         :      0.11s CPU      0.17s WALL (      22 calls)
     newd         :      0.48s CPU      0.39s WALL (      21 calls)
                                        0.39s GPU  (      21 calls)
     PAW_pot      :     87.64s CPU     11.14s WALL (      21 calls)
     mix_rho      :      0.63s CPU      0.65s WALL (      20 calls)

     Called by c_bands:
     init_us_2    :      0.84s CPU      0.81s WALL (    2100 calls)
     cegterg      :     12.91s CPU     13.13s WALL (    1000 calls)

     Called by sum_band:
     sum_band:wei :      0.03s CPU      0.03s WALL (      20 calls)
                                        0.03s GPU  (      20 calls)
     sum_band:loo :      1.48s CPU      1.46s WALL (      20 calls)
                                        1.46s GPU  (      20 calls)
     sum_band:buf :      0.22s CPU      0.24s WALL (    1000 calls)
                                        0.22s GPU  (    1000 calls)
     sum_band:ini :      0.40s CPU      0.40s WALL (    1000 calls)
                                        0.39s GPU  (    1000 calls)
     sum_band:cal :      0.04s CPU      0.06s WALL (    1000 calls)
                                        0.05s GPU  (    1000 calls)
     sum_band:bec :      0.22s CPU      0.23s WALL (    1000 calls)
                                        0.22s GPU  (    1000 calls)
     addusdens    :      0.68s CPU      0.68s WALL (      20 calls)
                                        0.68s GPU  (      20 calls)
     addusd:skk   :      0.00s CPU      0.00s WALL (      60 calls)
                                        0.00s GPU  (      60 calls)

     Called by *egterg:
     cdiaghg      :      4.44s CPU      4.59s WALL (    5058 calls)
                                        4.53s GPU  (    5058 calls)
     cegterg:over :      1.25s CPU      1.30s WALL (    4058 calls)
     cegterg:upda :      0.74s CPU      0.75s WALL (    4058 calls)
     cegterg:last :      0.15s CPU      0.15s WALL (    2103 calls)
     h_psi        :      4.63s CPU      4.81s WALL (    5108 calls)
                                        4.75s GPU  (    5108 calls)
     s_psi        :      0.76s CPU      0.80s WALL (    5108 calls)
     g_psi        :      0.02s CPU      0.10s WALL (    4058 calls)
                                        0.05s GPU  (    4058 calls)

     Called by h_psi:
     h_psi:calbec :      0.16s CPU      0.29s WALL (    5108 calls)
                                        0.23s GPU  (    5108 calls)
     vloc_psi     :      3.25s CPU      3.34s WALL (    5108 calls)
                                        3.27s GPU  (    5108 calls)
     add_vuspsi   :      0.69s CPU      0.83s WALL (    5108 calls)
                                        0.77s GPU  (    5108 calls)

     General routines
     calbec       :      0.17s CPU      0.19s WALL (    6308 calls)
     fft          :      5.15s CPU      0.93s WALL (     538 calls)
                                        0.12s GPU  (     496 calls)
     ffts         :      2.03s CPU      0.43s WALL (     733 calls)
                                        0.02s GPU  (     691 calls)
     fftw         :      0.36s CPU      1.36s WALL (   16388 calls)
                                        1.18s GPU  (   16388 calls)
     interpolate  :      7.29s CPU      1.23s WALL (      42 calls)
 
     Parallel routines

     PAW routines
     PAW_pot      :     87.64s CPU     11.14s WALL (      21 calls)
     PAW_symme    :      0.02s CPU      0.00s WALL (      41 calls)
 
     PWSCF        :   1m56.11s CPU     33.18s WALL

 
   This run was terminated on:   4:20:27  12Jul2026            

=------------------------------------------------------------------------------=
   JOB DONE.
=------------------------------------------------------------------------------=
Warning: ieee_divide_by_zero is signaling
Warning: ieee_inexact is signaling
FORTRAN STOP
