
     Program PWSCF v.7.3.1 starts on 12Jul2026 at  3:52:51 

     This program is part of the open-source Quantum ESPRESSO suite
     for quantum simulation of materials; please cite
         "P. Giannozzi et al., J. Phys.:Condens. Matter 21 395502 (2009);
         "P. Giannozzi et al., J. Phys.:Condens. Matter 29 465901 (2017);
         "P. Giannozzi et al., J. Chem. Phys. 152 154105 (2020);
          URL http://www.quantum-espresso.org", 
     in publications or presentations arising from this work. More details at
     http://www.quantum-espresso.org/quote

     Parallel version (MPI & OpenMP), running on      14 processor cores
     Number of MPI processes:                 1
     Threads/MPI process:                    14

     MPI processes distributed on     1 nodes
     841266 MiB available memory on the printing compute node when the environment starts
 
     Reading input from pw.in

     Current dimensions of program PWSCF are:
     Max number of different atomic species (ntypx) = 10
     Max number of k-points (npk) =  40000
     Max angular momentum in pseudopotentials (lmaxx) =  4
     file Co.pbe-spn-kjpaw_psl.0.3.1.UPF: wavefunction(s)  3P 3D renormalized
     file O.pbe-n-kjpaw_psl.1.0.0.UPF: wavefunction(s)  2S 2P renormalized
 
     Subspace diagonalization in iterative solution of the eigenvalue problem:
     a serial algorithm will be used

 
     G-vector sticks info
     --------------------
     sticks:   dense  smooth     PW     G-vecs:    dense   smooth      PW
     Sum         931     475    151                45403    15993    2651
 
     Using Slab Decomposition
 


     bravais-lattice index     =            4
     lattice parameter (alat)  =       5.3290  a.u.
     unit-cell volume          =     255.6161 (a.u.)^3
     number of atoms/cell      =            4
     number of atomic types    =            3
     number of electrons       =        32.00
     number of Kohn-Sham states=           24
     kinetic-energy cutoff     =      60.0000  Ry
     charge density cutoff     =     480.0000  Ry
     scf convergence threshold =      1.0E-07
     mixing beta               =       0.3000
     number of iterations used =            8  local-TF  mixing
     Exchange-correlation= SLA  PW   PBX  PBC
                           (   1   4   3   4   0   0   0)

     GPU acceleration is ACTIVE.  1 visible GPUs per MPI rank
     GPU-aware MPI enabled


     GPU used by master process:

        Device Number: 0
        Device name: NVIDIA A100-SXM4-80GB
        Compute capability : 80
        Ratio of single to double precision performance  : 2
        Memory Clock Rate (KHz): 1593000
        Memory Bus Width (bits): 5120
        Peak Memory Bandwidth (GB/s): ******

     celldm(1)=   5.329028  celldm(2)=   0.000000  celldm(3)=   1.950355
     celldm(4)=   0.000000  celldm(5)=   0.000000  celldm(6)=   0.000000

     crystal axes: (cart. coord. in units of alat)
               a(1) = (   1.000000   0.000000   0.000000 )  
               a(2) = (  -0.500000   0.866025   0.000000 )  
               a(3) = (   0.000000   0.000000   1.950355 )  

     reciprocal axes: (cart. coord. in units 2 pi/alat)
               b(1) = (  1.000000  0.577350 -0.000000 )  
               b(2) = (  0.000000  1.154701  0.000000 )  
               b(3) = (  0.000000 -0.000000  0.512727 )  


     PseudoPot. # 1 for Co read from file:
     ../../pseudo/Co.pbe-spn-kjpaw_psl.0.3.1.UPF
     MD5 check sum: 3c0a43779828c046024e4f3be63f8e67
     Pseudo is Projector augmented-wave + core cor, Zval = 17.0
     Generated using &quot;atomic&quot; code by A. Dal Corso  v.6.2.2
     Shape of augmentation charge: PSQ
     Using radial grid of 1193 points,  6 beta functions with: 
                l(1) =   0
                l(2) =   0
                l(3) =   1
                l(4) =   1
                l(5) =   2
                l(6) =   2
     Q(r) pseudized with 0 coefficients 


     PseudoPot. # 2 for O  read from file:
     ../../pseudo/O.pbe-n-kjpaw_psl.1.0.0.UPF
     MD5 check sum: e99d9cef9b487d1ca56f5b95ecd0fd7a
     Pseudo is Projector augmented-wave + core cor, Zval =  6.0
     Generated using &quot;atomic&quot; code by A. Dal Corso  v.6.3
     Shape of augmentation charge: PSQ
     Using radial grid of 1095 points,  4 beta functions with: 
                l(1) =   0
                l(2) =   0
                l(3) =   1
                l(4) =   1
     Q(r) pseudized with 0 coefficients 


     PseudoPot. # 3 for Li read from file:
     ../../pseudo/Li.pbe-s-kjpaw_psl.1.0.0.UPF
     MD5 check sum: 3974953fb0fea6c4f83fb01d64ffc134
     Pseudo is Projector augmented-wave, Zval =  3.0
     Generated using &quot;atomic&quot; code by A. Dal Corso  v.6.3
     Shape of augmentation charge: PSQ
     Using radial grid of 1017 points,  4 beta functions with: 
                l(1) =   0
                l(2) =   0
                l(3) =   1
                l(4) =   1
     Q(r) pseudized with 0 coefficients 


     atomic species   valence    mass     pseudopotential
     Co               17.00    58.93300     Co( 1.00)
     O                 6.00    15.99900     O ( 1.00)
     Li                3.00     6.94100     Li( 1.00)

     Starting magnetic structure 
     atomic species   magnetization
     Co              0.300
     O               0.000
     Li              0.000

      6 Sym. Ops. (no inversion) found


                                    s                        frac. trans.

      isym =  1     identity                                     

 cryst.   s( 1) = (     1          0          0      )
                  (     0          1          0      )
                  (     0          0          1      )

 cart.    s( 1) = (  1.0000000  0.0000000  0.0000000 )
                  (  0.0000000  1.0000000  0.0000000 )
                  (  0.0000000  0.0000000  1.0000000 )


      isym =  2     120 deg rotation - cryst. axis [0,0,1]       

 cryst.   s( 2) = (     0          1          0      )
                  (    -1         -1          0      )
                  (     0          0          1      )

 cart.    s( 2) = ( -0.5000000 -0.8660254  0.0000000 )
                  (  0.8660254 -0.5000000  0.0000000 )
                  (  0.0000000  0.0000000  1.0000000 )


      isym =  3     120 deg rotation - cryst. axis [0,0,-1]      

 cryst.   s( 3) = (    -1         -1          0      )
                  (     1          0          0      )
                  (     0          0          1      )

 cart.    s( 3) = ( -0.5000000  0.8660254  0.0000000 )
                  ( -0.8660254 -0.5000000  0.0000000 )
                  (  0.0000000  0.0000000  1.0000000 )


      isym =  4     inv. 180 deg rotation - cart. axis [1,0,0]   

 cryst.   s( 4) = (    -1          0          0      )
                  (     1          1          0      )
                  (     0          0          1      )

 cart.    s( 4) = ( -1.0000000  0.0000000  0.0000000 )
                  (  0.0000000  1.0000000  0.0000000 )
                  (  0.0000000  0.0000000  1.0000000 )


      isym =  5     inv. 180 deg rotation - cryst. axis [0,1,0]  

 cryst.   s( 5) = (     1          1          0      )
                  (     0         -1          0      )
                  (     0          0          1      )

 cart.    s( 5) = (  0.5000000  0.8660254  0.0000000 )
                  (  0.8660254 -0.5000000  0.0000000 )
                  (  0.0000000  0.0000000  1.0000000 )


      isym =  6     inv. 180 deg rotation - cryst. axis [1,1,0]  

 cryst.   s( 6) = (     0         -1          0      )
                  (    -1          0          0      )
                  (     0          0          1      )

 cart.    s( 6) = (  0.5000000 -0.8660254  0.0000000 )
                  ( -0.8660254 -0.5000000  0.0000000 )
                  (  0.0000000  0.0000000  1.0000000 )


     point group C_3v (3m)  
     there are  3 classes
     the character table:

       E     2C3   3s_v 
A_1    1.00  1.00  1.00
A_2    1.00  1.00 -1.00
E      2.00 -1.00  0.00

     the symmetry operations in each class and the name of the first element:

     E        1
          identity                                               
     2C3      2    3
          120 deg rotation - cryst. axis [0,0,1]                 
     3s_v     4    5    6
          inv. 180 deg rotation - cart. axis [1,0,0]             

   Cartesian axes

     site n.     atom                  positions (alat units)
         1        Co     tau(   1) = (   0.0000000   0.0000000   0.0000000  )
         2        O      tau(   2) = (  -0.0000000   0.5773503   0.3404255  )
         3        O      tau(   3) = (   0.5000000   0.2886751   1.6099291  )
         4        Li     tau(   4) = (   0.0000000   0.0000000   1.1524823  )

   Crystallographic axes

     site n.     atom                  positions (cryst. coord.)
         1        Co     tau(   1) = (  0.0000000  0.0000000  0.0000000  )
         2        O      tau(   2) = (  0.3333333  0.6666667  0.1745455  )
         3        O      tau(   3) = (  0.6666667  0.3333333  0.8254545  )
         4        Li     tau(   4) = (  0.0000000  0.0000000  0.5909091  )

     number of k points=    25  Marzari-Vanderbilt smearing, width (Ry)=  0.0200
                       cart. coord. in units 2pi/alat
        k(    1) = (   0.0000000   0.0000000   0.0000000), wk =   0.0052083
        k(    2) = (   0.0000000   0.0000000   0.1709091), wk =   0.0104167
        k(    3) = (   0.0000000   0.1443376   0.0000000), wk =   0.0312500
        k(    4) = (   0.0000000   0.1443376   0.1709091), wk =   0.0312500
        k(    5) = (   0.0000000   0.2886751   0.0000000), wk =   0.0312500
        k(    6) = (   0.0000000   0.2886751   0.1709091), wk =   0.0312500
        k(    7) = (   0.0000000   0.4330127   0.0000000), wk =   0.0312500
        k(    8) = (   0.0000000   0.4330127   0.1709091), wk =   0.0312500
        k(    9) = (   0.0000000  -0.5773503   0.0000000), wk =   0.0156250
        k(   10) = (   0.0000000  -0.5773503   0.1709091), wk =   0.0312500
        k(   11) = (   0.1250000   0.2165064   0.0000000), wk =   0.0312500
        k(   12) = (   0.1250000   0.2165064   0.1709091), wk =   0.0625000
        k(   13) = (   0.1250000   0.3608439   0.0000000), wk =   0.0625000
        k(   14) = (   0.1250000   0.3608439   0.1709091), wk =   0.0625000
        k(   15) = (   0.1250000   0.5051815   0.0000000), wk =   0.0625000
        k(   16) = (   0.1250000   0.5051815   0.1709091), wk =   0.0625000
        k(   17) = (   0.2500000   0.4330127   0.0000000), wk =   0.0312500
        k(   18) = (   0.2500000   0.4330127   0.1709091), wk =   0.0625000
        k(   19) = (   0.2500000   0.5773503   0.0000000), wk =   0.0312500
        k(   20) = (   0.2500000   0.5773503   0.1709091), wk =   0.0625000
        k(   21) = (   0.0000000  -0.1443376   0.1709091), wk =   0.0312500
        k(   22) = (   0.0000000  -0.2886751   0.1709091), wk =   0.0312500
        k(   23) = (   0.0000000  -0.4330127   0.1709091), wk =   0.0312500
        k(   24) = (  -0.1250000  -0.3608439   0.1709091), wk =   0.0625000
        k(   25) = (  -0.1250000  -0.5051815   0.1709091), wk =   0.0625000

                       cryst. coord.
        k(    1) = (   0.0000000   0.0000000   0.0000000), wk =   0.0052083
        k(    2) = (   0.0000000   0.0000000   0.3333333), wk =   0.0104167
        k(    3) = (   0.0000000   0.1250000   0.0000000), wk =   0.0312500
        k(    4) = (   0.0000000   0.1250000   0.3333333), wk =   0.0312500
        k(    5) = (   0.0000000   0.2500000   0.0000000), wk =   0.0312500
        k(    6) = (   0.0000000   0.2500000   0.3333333), wk =   0.0312500
        k(    7) = (   0.0000000   0.3750000   0.0000000), wk =   0.0312500
        k(    8) = (   0.0000000   0.3750000   0.3333333), wk =   0.0312500
        k(    9) = (   0.0000000  -0.5000000   0.0000000), wk =   0.0156250
        k(   10) = (   0.0000000  -0.5000000   0.3333333), wk =   0.0312500
        k(   11) = (   0.1250000   0.1250000   0.0000000), wk =   0.0312500
        k(   12) = (   0.1250000   0.1250000   0.3333333), wk =   0.0625000
        k(   13) = (   0.1250000   0.2500000   0.0000000), wk =   0.0625000
        k(   14) = (   0.1250000   0.2500000   0.3333333), wk =   0.0625000
        k(   15) = (   0.1250000   0.3750000   0.0000000), wk =   0.0625000
        k(   16) = (   0.1250000   0.3750000   0.3333333), wk =   0.0625000
        k(   17) = (   0.2500000   0.2500000   0.0000000), wk =   0.0312500
        k(   18) = (   0.2500000   0.2500000   0.3333333), wk =   0.0625000
        k(   19) = (   0.2500000   0.3750000   0.0000000), wk =   0.0312500
        k(   20) = (   0.2500000   0.3750000   0.3333333), wk =   0.0625000
        k(   21) = (   0.0000000  -0.1250000   0.3333333), wk =   0.0312500
        k(   22) = (   0.0000000  -0.2500000   0.3333333), wk =   0.0312500
        k(   23) = (   0.0000000  -0.3750000   0.3333333), wk =   0.0312500
        k(   24) = (  -0.1250000  -0.2500000   0.3333333), wk =   0.0625000
        k(   25) = (  -0.1250000  -0.3750000   0.3333333), wk =   0.0625000

     Dense  grid:    45403 G-vectors     FFT dimensions: (  40,  40,  75)

     Smooth grid:    15993 G-vectors     FFT dimensions: (  27,  27,  54)

     Dynamical RAM for                 wfc:       0.73 MB

     Dynamical RAM for     wfc (w. buffer):      37.47 MB

     Dynamical RAM for           str. fact:       2.08 MB

     Dynamical RAM for           local pot:       0.00 MB

     Dynamical RAM for          nlocal pot:       1.29 MB

     Dynamical RAM for                qrad:       5.27 MB

     Dynamical RAM for          rho,v,vnew:       9.65 MB

     Dynamical RAM for               rhoin:       3.22 MB

     Dynamical RAM for            rho*nmix:      22.17 MB

     Dynamical RAM for           G-vectors:       2.72 MB

     Dynamical RAM for          h,s,v(r/c):       0.11 MB

     Dynamical RAM for          <psi|beta>:       0.02 MB

     Dynamical RAM for                 psi:       1.47 MB

     Dynamical RAM for                hpsi:       1.47 MB

     Dynamical RAM for                spsi:       1.47 MB

     Dynamical RAM for      wfcinit/wfcrot:       1.48 MB

     Dynamical RAM for           addusdens:     130.94 MB

     Dynamical RAM for          addusforce:     132.34 MB

     Estimated static dynamical RAM per process >      69.95 MB

     Estimated max dynamical RAM per process >     224.46 MB

     Check: negative core charge=   -0.000009
     Generating pointlists ...
     new r_m :   0.2765 (alat units)  1.4733 (a.u.) for type    1
     new r_m :   0.2765 (alat units)  1.4733 (a.u.) for type    2
     new r_m :   0.3039 (alat units)  1.6192 (a.u.) for type    3

     Initial potential from superposition of free atoms

     starting charge      31.9951, renormalised to      32.0000
     Starting wfcs are   23 randomized atomic wfcs +    1 random wfcs
     Checking if some PAW data can be deallocated... 

     total cpu time spent up to now is        2.7 secs

     Self-consistent Calculation
[tb_dev] Currently allocated     6.36E-01 Mbytes, locked:    0 /   6
[tb_pin] Currently allocated     0.00E+00 Mbytes, locked:    0 /   0

     iteration #  1     ecut=    60.00 Ry     beta= 0.30
     Davidson diagonalization with overlap

---- Real-time Memory Report at c_bands before calling an iterative solver
           644 MiB given to the printing process from OS
             0 MiB allocation reported by mallinfo(arena+hblkhd)
        840776 MiB available memory on the node where the printing process lives
     GPU memory used/free/total (MiB): 916 / 80234 / 81151
------------------
     ethr =  1.00E-02,  avg # of iterations =  8.7

     total cpu time spent up to now is        4.6 secs

     total energy              =    -474.93622077 Ry
     estimated scf accuracy    <       1.26380270 Ry

     total magnetization       =     4.00 Bohr mag/cell
     absolute magnetization    =     4.00 Bohr mag/cell
[tb_dev] Currently allocated     3.05E-05 Mbytes, locked:    0 /   2
[tb_pin] Currently allocated     0.00E+00 Mbytes, locked:    0 /   0

     iteration #  2     ecut=    60.00 Ry     beta= 0.30
     Davidson diagonalization with overlap

---- Real-time Memory Report at c_bands before calling an iterative solver
           689 MiB given to the printing process from OS
             0 MiB allocation reported by mallinfo(arena+hblkhd)
        840729 MiB available memory on the node where the printing process lives
     GPU memory used/free/total (MiB): 928 / 80222 / 81151
------------------
     ethr =  3.95E-03,  avg # of iterations =  1.8

     total cpu time spent up to now is        5.6 secs

     total energy              =    -474.93556168 Ry
     estimated scf accuracy    <       0.36855401 Ry

     total magnetization       =     3.82 Bohr mag/cell
     absolute magnetization    =     3.82 Bohr mag/cell
[tb_dev] Currently allocated     3.05E-05 Mbytes, locked:    0 /   2
[tb_pin] Currently allocated     0.00E+00 Mbytes, locked:    0 /   0

     iteration #  3     ecut=    60.00 Ry     beta= 0.30
     Davidson diagonalization with overlap

---- Real-time Memory Report at c_bands before calling an iterative solver
           692 MiB given to the printing process from OS
             0 MiB allocation reported by mallinfo(arena+hblkhd)
        840726 MiB available memory on the node where the printing process lives
     GPU memory used/free/total (MiB): 928 / 80222 / 81151
------------------
     ethr =  1.15E-03,  avg # of iterations =  2.3

     total cpu time spent up to now is        6.8 secs

     total energy              =    -475.09985548 Ry
     estimated scf accuracy    <       0.60550944 Ry

     total magnetization       =     1.77 Bohr mag/cell
     absolute magnetization    =     1.91 Bohr mag/cell
[tb_dev] Currently allocated     3.05E-05 Mbytes, locked:    0 /   2
[tb_pin] Currently allocated     0.00E+00 Mbytes, locked:    0 /   0

     iteration #  4     ecut=    60.00 Ry     beta= 0.30
     Davidson diagonalization with overlap

---- Real-time Memory Report at c_bands before calling an iterative solver
           693 MiB given to the printing process from OS
             0 MiB allocation reported by mallinfo(arena+hblkhd)
        840729 MiB available memory on the node where the printing process lives
     GPU memory used/free/total (MiB): 928 / 80222 / 81151
------------------
     ethr =  1.15E-03,  avg # of iterations =  1.1

     total cpu time spent up to now is        7.7 secs

     total energy              =    -475.12048179 Ry
     estimated scf accuracy    <       1.20762974 Ry

     total magnetization       =     1.37 Bohr mag/cell
     absolute magnetization    =     1.60 Bohr mag/cell
[tb_dev] Currently allocated     3.05E-05 Mbytes, locked:    0 /   2
[tb_pin] Currently allocated     0.00E+00 Mbytes, locked:    0 /   0

     iteration #  5     ecut=    60.00 Ry     beta= 0.30
     Davidson diagonalization with overlap

---- Real-time Memory Report at c_bands before calling an iterative solver
           694 MiB given to the printing process from OS
             0 MiB allocation reported by mallinfo(arena+hblkhd)
        840731 MiB available memory on the node where the printing process lives
     GPU memory used/free/total (MiB): 928 / 80222 / 81151
------------------
     ethr =  1.15E-03,  avg # of iterations =  1.0

     total cpu time spent up to now is        8.7 secs

     total energy              =    -475.11462462 Ry
     estimated scf accuracy    <       0.88973089 Ry

     total magnetization       =     1.00 Bohr mag/cell
     absolute magnetization    =     1.32 Bohr mag/cell
[tb_dev] Currently allocated     3.05E-05 Mbytes, locked:    0 /   2
[tb_pin] Currently allocated     0.00E+00 Mbytes, locked:    0 /   0

     iteration #  6     ecut=    60.00 Ry     beta= 0.30
     Davidson diagonalization with overlap

---- Real-time Memory Report at c_bands before calling an iterative solver
           696 MiB given to the printing process from OS
             0 MiB allocation reported by mallinfo(arena+hblkhd)
        840713 MiB available memory on the node where the printing process lives
     GPU memory used/free/total (MiB): 928 / 80222 / 81151
------------------
     ethr =  1.15E-03,  avg # of iterations =  1.0

     total cpu time spent up to now is        9.7 secs

     total energy              =    -475.14329700 Ry
     estimated scf accuracy    <       0.46985576 Ry

     total magnetization       =     0.55 Bohr mag/cell
     absolute magnetization    =     1.01 Bohr mag/cell
[tb_dev] Currently allocated     3.05E-05 Mbytes, locked:    0 /   2
[tb_pin] Currently allocated     0.00E+00 Mbytes, locked:    0 /   0

     iteration #  7     ecut=    60.00 Ry     beta= 0.30
     Davidson diagonalization with overlap

---- Real-time Memory Report at c_bands before calling an iterative solver
           697 MiB given to the printing process from OS
             0 MiB allocation reported by mallinfo(arena+hblkhd)
        840737 MiB available memory on the node where the printing process lives
     GPU memory used/free/total (MiB): 928 / 80222 / 81151
------------------
     ethr =  1.15E-03,  avg # of iterations =  1.0

     total cpu time spent up to now is       10.7 secs

     total energy              =    -475.15817534 Ry
     estimated scf accuracy    <       0.34325475 Ry

     total magnetization       =     0.14 Bohr mag/cell
     absolute magnetization    =     0.74 Bohr mag/cell
[tb_dev] Currently allocated     3.05E-05 Mbytes, locked:    0 /   2
[tb_pin] Currently allocated     0.00E+00 Mbytes, locked:    0 /   0

     iteration #  8     ecut=    60.00 Ry     beta= 0.30
     Davidson diagonalization with overlap

---- Real-time Memory Report at c_bands before calling an iterative solver
           698 MiB given to the printing process from OS
             0 MiB allocation reported by mallinfo(arena+hblkhd)
        840717 MiB available memory on the node where the printing process lives
     GPU memory used/free/total (MiB): 928 / 80222 / 81151
------------------
     ethr =  1.07E-03,  avg # of iterations =  1.0

     total cpu time spent up to now is       11.7 secs

     total energy              =    -475.16288125 Ry
     estimated scf accuracy    <       0.06659894 Ry

     total magnetization       =     0.00 Bohr mag/cell
     absolute magnetization    =     0.29 Bohr mag/cell
[tb_dev] Currently allocated     3.05E-05 Mbytes, locked:    0 /   2
[tb_pin] Currently allocated     0.00E+00 Mbytes, locked:    0 /   0

     iteration #  9     ecut=    60.00 Ry     beta= 0.30
     Davidson diagonalization with overlap

---- Real-time Memory Report at c_bands before calling an iterative solver
           698 MiB given to the printing process from OS
             0 MiB allocation reported by mallinfo(arena+hblkhd)
        840732 MiB available memory on the node where the printing process lives
     GPU memory used/free/total (MiB): 928 / 80222 / 81151
------------------
     ethr =  2.08E-04,  avg # of iterations =  2.2

     total cpu time spent up to now is       12.8 secs

     total energy              =    -475.17245776 Ry
     estimated scf accuracy    <       0.00612721 Ry

     total magnetization       =     0.00 Bohr mag/cell
     absolute magnetization    =     0.17 Bohr mag/cell
[tb_dev] Currently allocated     3.05E-05 Mbytes, locked:    0 /   2
[tb_pin] Currently allocated     0.00E+00 Mbytes, locked:    0 /   0

     iteration # 10     ecut=    60.00 Ry     beta= 0.30
     Davidson diagonalization with overlap

---- Real-time Memory Report at c_bands before calling an iterative solver
           699 MiB given to the printing process from OS
             0 MiB allocation reported by mallinfo(arena+hblkhd)
        840738 MiB available memory on the node where the printing process lives
     GPU memory used/free/total (MiB): 928 / 80222 / 81151
------------------
     ethr =  1.91E-05,  avg # of iterations =  6.1

     total cpu time spent up to now is       14.3 secs

     total energy              =    -475.17482925 Ry
     estimated scf accuracy    <       0.00099979 Ry

     total magnetization       =     0.00 Bohr mag/cell
     absolute magnetization    =     0.06 Bohr mag/cell
[tb_dev] Currently allocated     3.05E-05 Mbytes, locked:    0 /   2
[tb_pin] Currently allocated     0.00E+00 Mbytes, locked:    0 /   0

     iteration # 11     ecut=    60.00 Ry     beta= 0.30
     Davidson diagonalization with overlap

---- Real-time Memory Report at c_bands before calling an iterative solver
           701 MiB given to the printing process from OS
             0 MiB allocation reported by mallinfo(arena+hblkhd)
        840742 MiB available memory on the node where the printing process lives
     GPU memory used/free/total (MiB): 928 / 80222 / 81151
------------------
     c_bands:  1 eigenvalues not converged
     ethr =  3.12E-06,  avg # of iterations =  7.6

     total cpu time spent up to now is       16.0 secs

     total energy              =    -475.17535887 Ry
     estimated scf accuracy    <       0.00039509 Ry

     total magnetization       =     0.00 Bohr mag/cell
     absolute magnetization    =     0.03 Bohr mag/cell
[tb_dev] Currently allocated     3.05E-05 Mbytes, locked:    0 /   2
[tb_pin] Currently allocated     0.00E+00 Mbytes, locked:    0 /   0

     iteration # 12     ecut=    60.00 Ry     beta= 0.30
     Davidson diagonalization with overlap

---- Real-time Memory Report at c_bands before calling an iterative solver
           701 MiB given to the printing process from OS
             0 MiB allocation reported by mallinfo(arena+hblkhd)
        840757 MiB available memory on the node where the printing process lives
     GPU memory used/free/total (MiB): 928 / 80222 / 81151
------------------
     c_bands:  1 eigenvalues not converged
     ethr =  1.23E-06,  avg # of iterations =  2.6

     total cpu time spent up to now is       17.2 secs

     total energy              =    -475.17557782 Ry
     estimated scf accuracy    <       0.00008002 Ry

     total magnetization       =     0.00 Bohr mag/cell
     absolute magnetization    =     0.03 Bohr mag/cell
[tb_dev] Currently allocated     3.05E-05 Mbytes, locked:    0 /   2
[tb_pin] Currently allocated     0.00E+00 Mbytes, locked:    0 /   0

     iteration # 13     ecut=    60.00 Ry     beta= 0.30
     Davidson diagonalization with overlap

---- Real-time Memory Report at c_bands before calling an iterative solver
           701 MiB given to the printing process from OS
             0 MiB allocation reported by mallinfo(arena+hblkhd)
        840759 MiB available memory on the node where the printing process lives
     GPU memory used/free/total (MiB): 928 / 80222 / 81151
------------------
     ethr =  2.50E-07,  avg # of iterations =  5.4

     total cpu time spent up to now is       18.6 secs

     total energy              =    -475.17558320 Ry
     estimated scf accuracy    <       0.00001594 Ry

     total magnetization       =     0.00 Bohr mag/cell
     absolute magnetization    =     0.01 Bohr mag/cell
[tb_dev] Currently allocated     3.05E-05 Mbytes, locked:    0 /   2
[tb_pin] Currently allocated     0.00E+00 Mbytes, locked:    0 /   0

     iteration # 14     ecut=    60.00 Ry     beta= 0.30
     Davidson diagonalization with overlap

---- Real-time Memory Report at c_bands before calling an iterative solver
           701 MiB given to the printing process from OS
             0 MiB allocation reported by mallinfo(arena+hblkhd)
        840757 MiB available memory on the node where the printing process lives
     GPU memory used/free/total (MiB): 928 / 80222 / 81151
------------------
     ethr =  4.98E-08,  avg # of iterations =  5.1

     total cpu time spent up to now is       20.0 secs

     total energy              =    -475.17556048 Ry
     estimated scf accuracy    <       0.00000241 Ry

     total magnetization       =     0.00 Bohr mag/cell
     absolute magnetization    =     0.01 Bohr mag/cell
[tb_dev] Currently allocated     3.05E-05 Mbytes, locked:    0 /   2
[tb_pin] Currently allocated     0.00E+00 Mbytes, locked:    0 /   0

     iteration # 15     ecut=    60.00 Ry     beta= 0.30
     Davidson diagonalization with overlap

---- Real-time Memory Report at c_bands before calling an iterative solver
           701 MiB given to the printing process from OS
             0 MiB allocation reported by mallinfo(arena+hblkhd)
        840731 MiB available memory on the node where the printing process lives
     GPU memory used/free/total (MiB): 928 / 80222 / 81151
------------------
     ethr =  7.52E-09,  avg # of iterations =  4.8

     total cpu time spent up to now is       21.4 secs

     total energy              =    -475.17557141 Ry
     estimated scf accuracy    <       0.00000107 Ry

     total magnetization       =     0.00 Bohr mag/cell
     absolute magnetization    =     0.00 Bohr mag/cell
[tb_dev] Currently allocated     3.05E-05 Mbytes, locked:    0 /   2
[tb_pin] Currently allocated     0.00E+00 Mbytes, locked:    0 /   0

     iteration # 16     ecut=    60.00 Ry     beta= 0.30
     Davidson diagonalization with overlap

---- Real-time Memory Report at c_bands before calling an iterative solver
           701 MiB given to the printing process from OS
             0 MiB allocation reported by mallinfo(arena+hblkhd)
        840910 MiB available memory on the node where the printing process lives
     GPU memory used/free/total (MiB): 928 / 80222 / 81151
------------------
     ethr =  3.35E-09,  avg # of iterations =  2.1

     total cpu time spent up to now is       22.5 secs

     total energy              =    -475.17557663 Ry
     estimated scf accuracy    <       0.00000039 Ry

     total magnetization       =     0.00 Bohr mag/cell
     absolute magnetization    =     0.00 Bohr mag/cell
[tb_dev] Currently allocated     3.05E-05 Mbytes, locked:    0 /   2
[tb_pin] Currently allocated     0.00E+00 Mbytes, locked:    0 /   0

     iteration # 17     ecut=    60.00 Ry     beta= 0.30
     Davidson diagonalization with overlap

---- Real-time Memory Report at c_bands before calling an iterative solver
           701 MiB given to the printing process from OS
             0 MiB allocation reported by mallinfo(arena+hblkhd)
        841068 MiB available memory on the node where the printing process lives
     GPU memory used/free/total (MiB): 928 / 80222 / 81151
------------------
     ethr =  1.23E-09,  avg # of iterations =  4.3
 
     Magnetic moment per site  (integrated on atomic sphere of radius R)
     atom   1 (R=0.276)  charge= 14.0991  magn=  0.0001
     atom   2 (R=0.276)  charge=  5.1937  magn= -0.0002
     atom   3 (R=0.276)  charge=  5.2730  magn= -0.0000
     atom   4 (R=0.304)  charge=  2.1509  magn=  0.0000

     total cpu time spent up to now is       23.9 secs

     End of self-consistent calculation

 ------ SPIN UP ------------


          k = 0.0000 0.0000 0.0000 (  2029 PWs)   bands (ev):

   -86.0023 -49.2858 -49.2858 -49.2079 -37.4141 -11.3601  -9.2788   2.1657
     3.4724   3.4724   6.1963   6.8786   6.8786   7.9012   7.9012   8.7325
    11.5416  11.5416  11.8857  16.5790  19.0702  23.8684  24.5256  24.5256

     occupation numbers 
     1.0000   1.0000   1.0000   1.0000   1.0000   1.0000   1.0000   1.0000
     1.0000   1.0000   1.0000   1.0000   1.0000   1.0000   1.0000   1.0000
     0.0000   0.0000   0.0000   0.0000   0.0000   0.0000   0.0000   0.0000

          k = 0.0000 0.0000 0.1709 (  2024 PWs)   bands (ev):

   -86.0023 -49.2858 -49.2858 -49.2079 -37.4140 -11.3507  -9.2994   2.4190
     3.4737   3.4737   5.5429   6.8750   6.8750   7.8998   7.8998   9.0203
    11.5483  11.5483  12.4915  16.0182  18.7884  24.1717  24.6412  24.6412

     occupation numbers 
     1.0000   1.0000   1.0000   1.0000   1.0000   1.0000   1.0000   1.0000
     1.0000   1.0000   1.0000   1.0000   1.0000   1.0000   1.0000   1.0006
     0.0000   0.0000   0.0000   0.0000   0.0000   0.0000   0.0000   0.0000

          k = 0.0000 0.1443 0.0000 (  2019 PWs)   bands (ev):

   -86.0012 -49.2972 -49.2886 -49.2061 -37.4094 -11.1797  -9.2576   2.3682
     3.1637   3.5645   5.7845   6.3748   6.5775   8.1423   8.3223   8.7977
    11.0197  11.4378  12.2892  17.1673  19.5377  23.1282  24.2162  24.4848

     occupation numbers 
     1.0000   1.0000   1.0000   1.0000   1.0000   1.0000   1.0000   1.0000
     1.0000   1.0000   1.0000   1.0000   1.0000   1.0000   1.0000   1.0000
     0.0000   0.0000   0.0000   0.0000   0.0000   0.0000   0.0000   0.0000

          k = 0.0000 0.1443 0.1709 (  2019 PWs)   bands (ev):

   -86.0012 -49.2972 -49.2885 -49.2061 -37.4094 -11.1701  -9.2771   2.5869
     3.1402   3.5635   5.6852   6.1316   6.3777   8.1204   8.3229   9.0992
    10.9371  11.4335  12.8879  16.6015  19.4573  23.0164  24.2081  24.6744

     occupation numbers 
     1.0000   1.0000   1.0000   1.0000   1.0000   1.0000   1.0000   1.0000
     1.0000   1.0000   1.0000   1.0000   1.0000   1.0000   1.0000   1.0023
     0.0000   0.0000   0.0000   0.0000   0.0000   0.0000   0.0000   0.0000

          k = 0.0000 0.2887 0.0000 (  2021 PWs)   bands (ev):

   -85.9985 -49.3249 -49.2950 -49.2019 -37.3984 -10.7143  -9.2079   2.5753
     2.9687   3.7667   4.2619   5.7508   6.6490   8.2155   8.6675   8.9106
    10.4606  11.3169  13.0403  17.9801  20.2557  21.6234  23.3219  24.0932

     occupation numbers 
     1.0000   1.0000   1.0000   1.0000   1.0000   1.0000   1.0000   1.0000
     1.0000   1.0000   1.0000   1.0000   1.0000   1.0000   1.0000   1.0001
     0.0002   0.0000   0.0000   0.0000   0.0000   0.0000   0.0000   0.0000

          k = 0.0000 0.2887 0.1709 (  2008 PWs)   bands (ev):

   -85.9985 -49.3250 -49.2950 -49.2017 -37.3983 -10.7057  -9.2219   2.4790
     3.1359   3.7612   4.3010   5.7619   6.4751   8.1454   8.6726   9.1077
    10.2150  11.2966  13.5299  17.6105  20.6192  20.9879  23.3414  23.7044

     occupation numbers 
     1.0000   1.0000   1.0000   1.0000   1.0000   1.0000   1.0000   1.0000
     1.0000   1.0000   1.0000   1.0000   1.0000   1.0000   1.0000   1.0027
     0.0137   0.0000   0.0000   0.0000   0.0000   0.0000   0.0000   0.0000

          k = 0.0000 0.4330 0.0000 (  2014 PWs)   bands (ev):

   -85.9959 -49.3527 -49.3016 -49.1974 -37.3872 -10.1977  -9.1570   1.9628
     3.0532   3.8949   4.1069   5.4641   5.8705   8.1229   8.6125   8.8840
    10.7458  11.3677  13.8051  17.4489  20.1370  21.0593  22.4867  23.2232

     occupation numbers 
     1.0000   1.0000   1.0000   1.0000   1.0000   1.0000   1.0000   1.0000
     1.0000   1.0000   1.0000   1.0000   1.0000   1.0000   1.0000   1.0000
     0.0000   0.0000   0.0000   0.0000   0.0000   0.0000   0.0000   0.0000

          k = 0.0000 0.4330 0.1709 (  1996 PWs)   bands (ev):

   -85.9958 -49.3526 -49.3014 -49.1973 -37.3871 -10.1944  -9.1606   1.8700
     3.0130   3.8828   4.2300   5.4866   6.0578   8.0406   8.6150   8.9179
    10.4951  11.3365  14.0577  17.3802  19.7218  21.4352  22.6051  22.9913

     occupation numbers 
     1.0000   1.0000   1.0000   1.0000   1.0000   1.0000   1.0000   1.0000
     1.0000   1.0000   1.0000   1.0000   1.0000   1.0000   1.0000   1.0001
     0.0001   0.0000   0.0000   0.0000   0.0000   0.0000   0.0000   0.0000

          k = 0.0000-0.5774 0.0000 (  1982 PWs)   bands (ev):

   -85.9947 -49.3639 -49.3042 -49.1954 -37.3824  -9.9667  -9.1325   1.5268
     3.1283   3.9080   4.4786   5.2980   5.4346   8.0156   8.5130   8.8364
    11.0319  11.4249  14.2299  16.7763  19.9213  20.9379  22.1699  23.1105

     occupation numbers 
     1.0000   1.0000   1.0000   1.0000   1.0000   1.0000   1.0000   1.0000
     1.0000   1.0000   1.0000   1.0000   1.0000   1.0000   1.0000   1.0000
     0.0000   0.0000   0.0000   0.0000   0.0000   0.0000   0.0000   0.0000

          k = 0.0000-0.5774 0.1709 (  2004 PWs)   bands (ev):

   -85.9947 -49.3642 -49.3042 -49.1956 -37.3825  -9.9661  -9.1321   1.4564
     3.0790   3.8960   4.4573   5.4572   5.6098   7.9507   8.5127   8.8130
    10.9460  11.3944  14.2137  16.7847  19.8625  21.1184  22.3321  23.2648

     occupation numbers 
     1.0000   1.0000   1.0000   1.0000   1.0000   1.0000   1.0000   1.0000
     1.0000   1.0000   1.0000   1.0000   1.0000   1.0000   1.0000   1.0000
     0.0000   0.0000   0.0000   0.0000   0.0000   0.0000   0.0000   0.0000

          k = 0.1250 0.2165 0.0000 (  2017 PWs)   bands (ev):

   -85.9993 -49.3155 -49.2945 -49.2030 -37.4016 -10.8562  -9.2215   2.6498
     2.9174   3.6513   4.7765   5.6527   6.7746   8.2810   8.6375   8.8788
    10.7261  11.0093  12.9178  17.8992  20.1406  22.4928  22.5534  24.4974

     occupation numbers 
     1.0000   1.0000   1.0000   1.0000   1.0000   1.0000   1.0000   1.0000
     1.0000   1.0000   1.0000   1.0000   1.0000   1.0000   1.0000   1.0000
     0.0000   0.0000   0.0000   0.0000   0.0000   0.0000   0.0000   0.0000

          k = 0.1250 0.2165 0.1709 (  2012 PWs)   bands (ev):

   -85.9993 -49.3155 -49.2944 -49.2030 -37.4015 -10.8464  -9.2390   2.6398
     3.0715   3.6569   4.7561   5.6461   6.4358   8.3028   8.5831   9.0831
    10.5741  11.1403  13.2652  17.5421  20.2942  21.8321  22.8691  24.2915

     occupation numbers 
     1.0000   1.0000   1.0000   1.0000   1.0000   1.0000   1.0000   1.0000
     1.0000   1.0000   1.0000   1.0000   1.0000   1.0000   1.0000   1.0018
     0.0000   0.0000   0.0000   0.0000   0.0000   0.0000   0.0000   0.0000

          k = 0.1250 0.3608 0.0000 (  2004 PWs)   bands (ev):

   -85.9966 -49.3404 -49.3037 -49.1986 -37.3904 -10.3626  -9.1656   2.4100
     3.0295   3.7358   4.0493   5.1470   6.3330   8.2859   8.7507   8.9049
    10.5796  10.9945  13.7310  18.0662  20.1071  21.1300  22.4583  23.9053

     occupation numbers 
     1.0000   1.0000   1.0000   1.0000   1.0000   1.0000   1.0000   1.0000
     1.0000   1.0000   1.0000   1.0000   1.0000   1.0000   1.0000   1.0001
     0.0000   0.0000   0.0000   0.0000   0.0000   0.0000   0.0000   0.0000

          k = 0.1250 0.3608 0.1709 (  2005 PWs)   bands (ev):

   -85.9966 -49.3404 -49.3038 -49.1987 -37.3904 -10.3557  -9.1752   2.3124
     3.0150   3.8162   4.1506   5.1527   6.3196   8.2667   8.7149   8.9427
    10.4352  11.0579  13.8653  18.1242  19.7408  21.1569  22.5644  23.4654

     occupation numbers 
     1.0000   1.0000   1.0000   1.0000   1.0000   1.0000   1.0000   1.0000
     1.0000   1.0000   1.0000   1.0000   1.0000   1.0000   1.0000   1.0001
     0.0003   0.0000   0.0000   0.0000   0.0000   0.0000   0.0000   0.0000

          k = 0.1250 0.5052 0.0000 (  1995 PWs)   bands (ev):

   -85.9947 -49.3578 -49.3105 -49.1954 -37.3825  -9.9894  -9.1118   1.8168
     3.0124   3.8108   4.4656   4.9253   5.5740   8.1769   8.5830   8.9050
    10.8471  11.0987  14.4912  17.1024  19.5391  21.1743  22.4212  23.3336

     occupation numbers 
     1.0000   1.0000   1.0000   1.0000   1.0000   1.0000   1.0000   1.0000
     1.0000   1.0000   1.0000   1.0000   1.0000   1.0000   1.0000   1.0001
     0.0000   0.0000   0.0000   0.0000   0.0000   0.0000   0.0000   0.0000

          k = 0.1250 0.5052 0.1709 (  1996 PWs)   bands (ev):

   -85.9947 -49.3579 -49.3105 -49.1955 -37.3824  -9.9884  -9.1118   1.7429
     2.9463   3.8147   4.5137   4.9559   5.7881   8.1133   8.5938   8.8711
    10.7910  11.1613  14.3806  17.0248  19.6841  21.0400  22.2828  23.5388

     occupation numbers 
     1.0000   1.0000   1.0000   1.0000   1.0000   1.0000   1.0000   1.0000
     1.0000   1.0000   1.0000   1.0000   1.0000   1.0000   1.0000   1.0000
     0.0000   0.0000   0.0000   0.0000   0.0000   0.0000   0.0000   0.0000

          k = 0.2500 0.4330 0.0000 (  2011 PWs)   bands (ev):

   -85.9947 -49.3492 -49.3194 -49.1955 -37.3826 -10.0109  -9.0922   2.2641
     2.8760   3.5888   4.2242   4.7700   5.7732   8.2870   8.6355   9.0175
    10.5058  10.9469  14.6887  17.5724  18.9750  21.5045  22.8450  23.7943

     occupation numbers 
     1.0000   1.0000   1.0000   1.0000   1.0000   1.0000   1.0000   1.0000
     1.0000   1.0000   1.0000   1.0000   1.0000   1.0000   1.0000   1.0006
     0.0001   0.0000   0.0000   0.0000   0.0000   0.0000   0.0000   0.0000

          k = 0.2500 0.4330 0.1709 (  2010 PWs)   bands (ev):

   -85.9947 -49.3492 -49.3194 -49.1956 -37.3825 -10.0072  -9.0961   2.2126
     2.7784   3.5817   4.3998   4.8010   5.7830   8.2956   8.6439   8.9103
    10.7022  10.9756  14.3927  17.6095  19.0729  21.3018  22.3972  23.9715

     occupation numbers 
     1.0000   1.0000   1.0000   1.0000   1.0000   1.0000   1.0000   1.0000
     1.0000   1.0000   1.0000   1.0000   1.0000   1.0000   1.0000   1.0001
     0.0000   0.0000   0.0000   0.0000   0.0000   0.0000   0.0000   0.0000

          k = 0.2500 0.5774 0.0000 (  1978 PWs)   bands (ev):

   -85.9939 -49.3496 -49.3287 -49.1940 -37.3792  -9.8745  -9.0411   2.1516
     2.8975   3.3600   4.3974   4.8958   5.3132   8.1332   8.7706   8.9867
    10.5998  10.8333  15.3609  16.8644  18.6668  21.7204  23.3025  23.6147

     occupation numbers 
     1.0000   1.0000   1.0000   1.0000   1.0000   1.0000   1.0000   1.0000
     1.0000   1.0000   1.0000   1.0000   1.0000   1.0000   1.0000   1.0003
     0.0000   0.0000   0.0000   0.0000   0.0000   0.0000   0.0000   0.0000

          k = 0.2500 0.5774 0.1709 (  2008 PWs)   bands (ev):

   -85.9940 -49.3498 -49.3287 -49.1943 -37.3792  -9.8738  -9.0408   2.0972
     2.8306   3.3188   4.5065   4.9201   5.4038   8.1154   8.7680   8.9168
    10.7770  10.9630  15.0073  16.6102  18.9178  21.5711  22.5998  23.8875

     occupation numbers 
     1.0000   1.0000   1.0000   1.0000   1.0000   1.0000   1.0000   1.0000
     1.0000   1.0000   1.0000   1.0000   1.0000   1.0000   1.0000   1.0001
     0.0000   0.0000   0.0000   0.0000   0.0000   0.0000   0.0000   0.0000

          k = 0.0000-0.1443 0.1709 (  2019 PWs)   bands (ev):

   -86.0012 -49.2972 -49.2885 -49.2061 -37.4094 -11.1699  -9.2776   2.5989
     3.1387   3.5675   5.6400   6.1560   6.3656   8.1344   8.3230   9.0759
    11.0217  11.4483  12.7846  16.6497  19.4258  23.0861  24.2993  24.5867

     occupation numbers 
     1.0000   1.0000   1.0000   1.0000   1.0000   1.0000   1.0000   1.0000
     1.0000   1.0000   1.0000   1.0000   1.0000   1.0000   1.0000   1.0016
     0.0000   0.0000   0.0000   0.0000   0.0000   0.0000   0.0000   0.0000

          k = 0.0000-0.2887 0.1709 (  2008 PWs)   bands (ev):

   -85.9985 -49.3249 -49.2949 -49.2017 -37.3983 -10.7036  -9.2257   2.5398
     3.1336   3.7698   4.2802   5.7436   6.3220   8.2130   8.6711   9.0034
    10.5288  11.3177  13.2331  17.9029  20.0771  21.7546  23.3720  23.7436

     occupation numbers 
     1.0000   1.0000   1.0000   1.0000   1.0000   1.0000   1.0000   1.0000
     1.0000   1.0000   1.0000   1.0000   1.0000   1.0000   1.0000   1.0005
     0.0000   0.0000   0.0000   0.0000   0.0000   0.0000   0.0000   0.0000

          k = 0.0000-0.4330 0.1709 (  1996 PWs)   bands (ev):

   -85.9958 -49.3526 -49.3014 -49.1973 -37.3871 -10.1897  -9.1676   1.9123
     3.0074   3.8911   4.3241   5.4709   5.7808   8.1129   8.6162   8.8510
    10.7942  11.3498  13.7256  17.7452  19.8414  21.2382  22.6086  23.5542

     occupation numbers 
     1.0000   1.0000   1.0000   1.0000   1.0000   1.0000   1.0000   1.0000
     1.0000   1.0000   1.0000   1.0000   1.0000   1.0000   1.0000   1.0000
     0.0000   0.0000   0.0000   0.0000   0.0000   0.0000   0.0000   0.0000

          k =-0.1250-0.3608 0.1709 (  2005 PWs)   bands (ev):

   -85.9966 -49.3404 -49.3038 -49.1987 -37.3904 -10.3535  -9.1787   2.3526
     3.0075   3.8225   4.1596   5.1508   6.1796   8.3353   8.7339   8.8440
    10.7073  10.9813  13.6916  18.3505  19.8038  21.1334  22.3467  23.7003

     occupation numbers 
     1.0000   1.0000   1.0000   1.0000   1.0000   1.0000   1.0000   1.0000
     1.0000   1.0000   1.0000   1.0000   1.0000   1.0000   1.0000   1.0000
     0.0000   0.0000   0.0000   0.0000   0.0000   0.0000   0.0000   0.0000

          k =-0.1250-0.5052 0.1709 (  1996 PWs)   bands (ev):

   -85.9947 -49.3579 -49.3105 -49.1955 -37.3824  -9.9858  -9.1154   1.7587
     2.9477   3.8147   4.5939   4.9390   5.6428   8.1593   8.5883   8.8373
    10.9692  11.0970  14.2499  17.1361  20.1800  20.5143  22.1886  23.7743

     occupation numbers 
     1.0000   1.0000   1.0000   1.0000   1.0000   1.0000   1.0000   1.0000
     1.0000   1.0000   1.0000   1.0000   1.0000   1.0000   1.0000   1.0000
     0.0000   0.0000   0.0000   0.0000   0.0000   0.0000   0.0000   0.0000

 ------ SPIN DOWN ----------


          k = 0.0000 0.0000 0.0000 (  2029 PWs)   bands (ev):

   -86.0022 -49.2851 -49.2851 -49.2091 -37.4141 -11.3606  -9.2795   2.1655
     3.4724   3.4724   6.1960   6.8779   6.8779   7.9002   7.9002   8.7330
    11.5418  11.5418  11.8856  16.5786  19.0699  23.8681  24.5253  24.5253

     occupation numbers 
     1.0000   1.0000   1.0000   1.0000   1.0000   1.0000   1.0000   1.0000
     1.0000   1.0000   1.0000   1.0000   1.0000   1.0000   1.0000   1.0000
     0.0000   0.0000   0.0000   0.0000   0.0000   0.0000   0.0000   0.0000

          k = 0.0000 0.0000 0.1709 (  2024 PWs)   bands (ev):

   -86.0022 -49.2851 -49.2851 -49.2091 -37.4141 -11.3512  -9.3001   2.4187
     3.4736   3.4736   5.5426   6.8743   6.8743   7.8989   7.8989   9.0206
    11.5485  11.5485  12.4913  16.0178  18.7881  24.1714  24.6409  24.6409

     occupation numbers 
     1.0000   1.0000   1.0000   1.0000   1.0000   1.0000   1.0000   1.0000
     1.0000   1.0000   1.0000   1.0000   1.0000   1.0000   1.0000   1.0006
     0.0000   0.0000   0.0000   0.0000   0.0000   0.0000   0.0000   0.0000

          k = 0.0000 0.1443 0.0000 (  2019 PWs)   bands (ev):

   -86.0011 -49.2964 -49.2878 -49.2073 -37.4095 -11.1802  -9.2583   2.3680
     3.1636   3.5645   5.7838   6.3740   6.5770   8.1415   8.3215   8.7981
    11.0200  11.4380  12.2890  17.1669  19.5374  23.1280  24.2159  24.4845

     occupation numbers 
     1.0000   1.0000   1.0000   1.0000   1.0000   1.0000   1.0000   1.0000
     1.0000   1.0000   1.0000   1.0000   1.0000   1.0000   1.0000   1.0000
     0.0000   0.0000   0.0000   0.0000   0.0000   0.0000   0.0000   0.0000

          k = 0.0000 0.1443 0.1709 (  2019 PWs)   bands (ev):

   -86.0011 -49.2965 -49.2878 -49.2072 -37.4095 -11.1706  -9.2778   2.5867
     3.1401   3.5634   5.6846   6.1311   6.3769   8.1196   8.3221   9.0995
    10.9374  11.4337  12.8878  16.6011  19.4569  23.0162  24.2079  24.6739

     occupation numbers 
     1.0000   1.0000   1.0000   1.0000   1.0000   1.0000   1.0000   1.0000
     1.0000   1.0000   1.0000   1.0000   1.0000   1.0000   1.0000   1.0024
     0.0000   0.0000   0.0000   0.0000   0.0000   0.0000   0.0000   0.0000

          k = 0.0000 0.2887 0.0000 (  2021 PWs)   bands (ev):

   -85.9985 -49.3242 -49.2943 -49.2030 -37.3984 -10.7147  -9.2086   2.5752
     2.9684   3.7665   4.2613   5.7500   6.6485   8.2149   8.6671   8.9107
    10.4611  11.3168  13.0402  17.9797  20.2554  21.6232  23.3217  24.0929

     occupation numbers 
     1.0000   1.0000   1.0000   1.0000   1.0000   1.0000   1.0000   1.0000
     1.0000   1.0000   1.0000   1.0000   1.0000   1.0000   1.0000   1.0001
     0.0002   0.0000   0.0000   0.0000   0.0000   0.0000   0.0000   0.0000

          k = 0.0000 0.2887 0.1709 (  2008 PWs)   bands (ev):

   -85.9984 -49.3242 -49.2942 -49.2029 -37.3983 -10.7062  -9.2227   2.4789
     3.1356   3.7610   4.3004   5.7611   6.4746   8.1449   8.6723   9.1079
    10.2154  11.2965  13.5298  17.6101  20.6189  20.9877  23.3413  23.7040

     occupation numbers 
     1.0000   1.0000   1.0000   1.0000   1.0000   1.0000   1.0000   1.0000
     1.0000   1.0000   1.0000   1.0000   1.0000   1.0000   1.0000   1.0027
     0.0136   0.0000   0.0000   0.0000   0.0000   0.0000   0.0000   0.0000

          k = 0.0000 0.4330 0.0000 (  2014 PWs)   bands (ev):

   -85.9958 -49.3520 -49.3008 -49.1985 -37.3873 -10.1982  -9.1577   1.9624
     3.0528   3.8945   4.1066   5.4634   5.8702   8.1226   8.6127   8.8840
    10.7462  11.3672  13.8050  17.4487  20.1368  21.0590  22.4865  23.2228

     occupation numbers 
     1.0000   1.0000   1.0000   1.0000   1.0000   1.0000   1.0000   1.0000
     1.0000   1.0000   1.0000   1.0000   1.0000   1.0000   1.0000   1.0000
     0.0000   0.0000   0.0000   0.0000   0.0000   0.0000   0.0000   0.0000

          k = 0.0000 0.4330 0.1709 (  1996 PWs)   bands (ev):

   -85.9958 -49.3519 -49.3007 -49.1985 -37.3871 -10.1948  -9.1613   1.8696
     3.0126   3.8824   4.2297   5.4858   6.0574   8.0403   8.6152   8.9180
    10.4953  11.3360  14.0577  17.3800  19.7216  21.4349  22.6049  22.9909

     occupation numbers 
     1.0000   1.0000   1.0000   1.0000   1.0000   1.0000   1.0000   1.0000
     1.0000   1.0000   1.0000   1.0000   1.0000   1.0000   1.0000   1.0001
     0.0001   0.0000   0.0000   0.0000   0.0000   0.0000   0.0000   0.0000

          k = 0.0000-0.5774 0.0000 (  1982 PWs)   bands (ev):

   -85.9946 -49.3632 -49.3034 -49.1966 -37.3825  -9.9671  -9.1333   1.5263
     3.1278   3.9075   4.4784   5.2976   5.4339   8.0155   8.5134   8.8362
    11.0322  11.4243  14.2298  16.7761  19.9211  20.9376  22.1697  23.1102

     occupation numbers 
     1.0000   1.0000   1.0000   1.0000   1.0000   1.0000   1.0000   1.0000
     1.0000   1.0000   1.0000   1.0000   1.0000   1.0000   1.0000   1.0000
     0.0000   0.0000   0.0000   0.0000   0.0000   0.0000   0.0000   0.0000

          k = 0.0000-0.5774 0.1709 (  2004 PWs)   bands (ev):

   -85.9947 -49.3635 -49.3034 -49.1967 -37.3825  -9.9665  -9.1329   1.4560
     3.0785   3.8955   4.4571   5.4565   5.6094   7.9505   8.5131   8.8130
    10.9462  11.3938  14.2137  16.7846  19.8622  21.1180  22.3320  23.2645

     occupation numbers 
     1.0000   1.0000   1.0000   1.0000   1.0000   1.0000   1.0000   1.0000
     1.0000   1.0000   1.0000   1.0000   1.0000   1.0000   1.0000   1.0000
     0.0000   0.0000   0.0000   0.0000   0.0000   0.0000   0.0000   0.0000

          k = 0.1250 0.2165 0.0000 (  2017 PWs)   bands (ev):

   -85.9992 -49.3148 -49.2937 -49.2042 -37.4017 -10.8567  -9.2223   2.6497
     2.9171   3.6511   4.7759   5.6519   6.7741   8.2806   8.6368   8.8790
    10.7264  11.0094  12.9176  17.8988  20.1403  22.4926  22.5532  24.4970

     occupation numbers 
     1.0000   1.0000   1.0000   1.0000   1.0000   1.0000   1.0000   1.0000
     1.0000   1.0000   1.0000   1.0000   1.0000   1.0000   1.0000   1.0000
     0.0000   0.0000   0.0000   0.0000   0.0000   0.0000   0.0000   0.0000

          k = 0.1250 0.2165 0.1709 (  2012 PWs)   bands (ev):

   -85.9992 -49.3147 -49.2937 -49.2042 -37.4016 -10.8468  -9.2397   2.6397
     3.0712   3.6567   4.7555   5.6453   6.4354   8.3023   8.5825   9.0833
    10.5743  11.1403  13.2651  17.5417  20.2938  21.8319  22.8689  24.2911

     occupation numbers 
     1.0000   1.0000   1.0000   1.0000   1.0000   1.0000   1.0000   1.0000
     1.0000   1.0000   1.0000   1.0000   1.0000   1.0000   1.0000   1.0018
     0.0000   0.0000   0.0000   0.0000   0.0000   0.0000   0.0000   0.0000

          k = 0.1250 0.3608 0.0000 (  2004 PWs)   bands (ev):

   -85.9965 -49.3397 -49.3030 -49.1998 -37.3905 -10.3630  -9.1664   2.4097
     3.0291   3.7356   4.0489   5.1463   6.3326   8.2858   8.7509   8.9047
    10.5797  10.9944  13.7308  18.0660  20.1069  21.1297  22.4581  23.9050

     occupation numbers 
     1.0000   1.0000   1.0000   1.0000   1.0000   1.0000   1.0000   1.0000
     1.0000   1.0000   1.0000   1.0000   1.0000   1.0000   1.0000   1.0001
     0.0000   0.0000   0.0000   0.0000   0.0000   0.0000   0.0000   0.0000

          k = 0.1250 0.3608 0.1709 (  2005 PWs)   bands (ev):

   -85.9965 -49.3396 -49.3030 -49.1998 -37.3904 -10.3561  -9.1759   2.3121
     3.0145   3.8159   4.1502   5.1519   6.3191   8.2665   8.7149   8.9428
    10.4353  11.0576  13.8652  18.1239  19.7406  21.1566  22.5640  23.4651

     occupation numbers 
     1.0000   1.0000   1.0000   1.0000   1.0000   1.0000   1.0000   1.0000
     1.0000   1.0000   1.0000   1.0000   1.0000   1.0000   1.0000   1.0001
     0.0003   0.0000   0.0000   0.0000   0.0000   0.0000   0.0000   0.0000

          k = 0.1250 0.5052 0.0000 (  1995 PWs)   bands (ev):

   -85.9946 -49.3571 -49.3098 -49.1966 -37.3826  -9.9898  -9.1126   1.8163
     3.0119   3.8105   4.4653   4.9246   5.5736   8.1770   8.5834   8.9047
    10.8471  11.0984  14.4911  17.1023  19.5389  21.1740  22.4210  23.3334

     occupation numbers 
     1.0000   1.0000   1.0000   1.0000   1.0000   1.0000   1.0000   1.0000
     1.0000   1.0000   1.0000   1.0000   1.0000   1.0000   1.0000   1.0001
     0.0000   0.0000   0.0000   0.0000   0.0000   0.0000   0.0000   0.0000

          k = 0.1250 0.5052 0.1709 (  1996 PWs)   bands (ev):

   -85.9947 -49.3571 -49.3097 -49.1967 -37.3825  -9.9887  -9.1126   1.7425
     2.9458   3.8144   4.5134   4.9553   5.7877   8.1134   8.5942   8.8710
    10.7911  11.1609  14.3806  17.0246  19.6838  21.0397  22.2825  23.5386

     occupation numbers 
     1.0000   1.0000   1.0000   1.0000   1.0000   1.0000   1.0000   1.0000
     1.0000   1.0000   1.0000   1.0000   1.0000   1.0000   1.0000   1.0000
     0.0000   0.0000   0.0000   0.0000   0.0000   0.0000   0.0000   0.0000

          k = 0.2500 0.4330 0.0000 (  2011 PWs)   bands (ev):

   -85.9947 -49.3485 -49.3187 -49.1966 -37.3826 -10.0113  -9.0929   2.2636
     2.8755   3.5884   4.2240   4.7694   5.7728   8.2873   8.6359   9.0172
    10.5054  10.9469  14.6886  17.5723  18.9748  21.5041  22.8446  23.7935

     occupation numbers 
     1.0000   1.0000   1.0000   1.0000   1.0000   1.0000   1.0000   1.0000
     1.0000   1.0000   1.0000   1.0000   1.0000   1.0000   1.0000   1.0006
     0.0001   0.0000   0.0000   0.0000   0.0000   0.0000   0.0000   0.0000

          k = 0.2500 0.4330 0.1709 (  2010 PWs)   bands (ev):

   -85.9947 -49.3485 -49.3186 -49.1967 -37.3826 -10.0076  -9.0969   2.2121
     2.7779   3.5812   4.3995   4.8004   5.7825   8.2959   8.6442   8.9100
    10.7019  10.9755  14.3926  17.6095  19.0726  21.3014  22.3969  23.9713

     occupation numbers 
     1.0000   1.0000   1.0000   1.0000   1.0000   1.0000   1.0000   1.0000
     1.0000   1.0000   1.0000   1.0000   1.0000   1.0000   1.0000   1.0001
     0.0000   0.0000   0.0000   0.0000   0.0000   0.0000   0.0000   0.0000

          k = 0.2500 0.5774 0.0000 (  1978 PWs)   bands (ev):

   -85.9938 -49.3489 -49.3279 -49.1951 -37.3792  -9.8749  -9.0419   2.1510
     2.8969   3.3595   4.3971   4.8954   5.3128   8.1337   8.7709   8.9865
    10.5995  10.8331  15.3608  16.8643  18.6665  21.7200  23.3022  23.6144

     occupation numbers 
     1.0000   1.0000   1.0000   1.0000   1.0000   1.0000   1.0000   1.0000
     1.0000   1.0000   1.0000   1.0000   1.0000   1.0000   1.0000   1.0003
     0.0000   0.0000   0.0000   0.0000   0.0000   0.0000   0.0000   0.0000

          k = 0.2500 0.5774 0.1709 (  2008 PWs)   bands (ev):

   -85.9939 -49.3490 -49.3280 -49.1955 -37.3793  -9.8742  -9.0416   2.0967
     2.8300   3.3184   4.5062   4.9197   5.4034   8.1159   8.7682   8.9165
    10.7767  10.9628  15.0072  16.6102  18.9176  21.5707  22.5995  23.8878

     occupation numbers 
     1.0000   1.0000   1.0000   1.0000   1.0000   1.0000   1.0000   1.0000
     1.0000   1.0000   1.0000   1.0000   1.0000   1.0000   1.0000   1.0001
     0.0000   0.0000   0.0000   0.0000   0.0000   0.0000   0.0000   0.0000

          k = 0.0000-0.1443 0.1709 (  2019 PWs)   bands (ev):

   -86.0011 -49.2965 -49.2878 -49.2072 -37.4095 -11.1703  -9.2783   2.5987
     3.1387   3.5675   5.6395   6.1555   6.3648   8.1335   8.3222   9.0762
    11.0219  11.4485  12.7845  16.6493  19.4254  23.0859  24.2991  24.5865

     occupation numbers 
     1.0000   1.0000   1.0000   1.0000   1.0000   1.0000   1.0000   1.0000
     1.0000   1.0000   1.0000   1.0000   1.0000   1.0000   1.0000   1.0016
     0.0000   0.0000   0.0000   0.0000   0.0000   0.0000   0.0000   0.0000

          k = 0.0000-0.2887 0.1709 (  2008 PWs)   bands (ev):

   -85.9984 -49.3242 -49.2942 -49.2029 -37.3983 -10.7041  -9.2264   2.5397
     3.1333   3.7696   4.2797   5.7428   6.3215   8.2123   8.6708   9.0037
    10.5291  11.3176  13.2330  17.9025  20.0768  21.7543  23.3719  23.7433

     occupation numbers 
     1.0000   1.0000   1.0000   1.0000   1.0000   1.0000   1.0000   1.0000
     1.0000   1.0000   1.0000   1.0000   1.0000   1.0000   1.0000   1.0005
     0.0000   0.0000   0.0000   0.0000   0.0000   0.0000   0.0000   0.0000

          k = 0.0000-0.4330 0.1709 (  1996 PWs)   bands (ev):

   -85.9957 -49.3519 -49.3007 -49.1985 -37.3871 -10.1901  -9.1684   1.9118
     3.0070   3.8907   4.3238   5.4702   5.7804   8.1125   8.6163   8.8511
    10.7944  11.3493  13.7256  17.7450  19.8410  21.2379  22.6085  23.5539

     occupation numbers 
     1.0000   1.0000   1.0000   1.0000   1.0000   1.0000   1.0000   1.0000
     1.0000   1.0000   1.0000   1.0000   1.0000   1.0000   1.0000   1.0000
     0.0000   0.0000   0.0000   0.0000   0.0000   0.0000   0.0000   0.0000

          k =-0.1250-0.3608 0.1709 (  2005 PWs)   bands (ev):

   -85.9965 -49.3396 -49.3030 -49.1998 -37.3904 -10.3539  -9.1794   2.3523
     3.0070   3.8222   4.1593   5.1500   6.1791   8.3350   8.7338   8.8443
    10.7074  10.9810  13.6915  18.3502  19.8036  21.1331  22.3464  23.6998

     occupation numbers 
     1.0000   1.0000   1.0000   1.0000   1.0000   1.0000   1.0000   1.0000
     1.0000   1.0000   1.0000   1.0000   1.0000   1.0000   1.0000   1.0000
     0.0000   0.0000   0.0000   0.0000   0.0000   0.0000   0.0000   0.0000

          k =-0.1250-0.5052 0.1709 (  1996 PWs)   bands (ev):

   -85.9946 -49.3571 -49.3097 -49.1967 -37.3825  -9.9862  -9.1162   1.7582
     2.9472   3.8143   4.5936   4.9384   5.6424   8.1594   8.5887   8.8372
    10.9694  11.0965  14.2499  17.1360  20.1798  20.5140  22.1883  23.7741

     occupation numbers 
     1.0000   1.0000   1.0000   1.0000   1.0000   1.0000   1.0000   1.0000
     1.0000   1.0000   1.0000   1.0000   1.0000   1.0000   1.0000   1.0000
     0.0000   0.0000   0.0000   0.0000   0.0000   0.0000   0.0000   0.0000

     the Fermi energy is     9.8868 ev

     WARNING: integrated charge=    32.00174511, expected=    32.00000000

!    total energy              =    -475.17557407 Ry
     total all-electron energy =     -3103.047711 Ry
     estimated scf accuracy    <       0.00000004 Ry
     smearing contrib. (-TS)   =       0.00002616 Ry
     internal energy E=F+TS    =    -475.17560023 Ry

     The total energy is F=E-TS. E is the sum of the following terms:
     one-electron contribution =    -343.97513149 Ry
     hartree contribution      =     186.93325326 Ry
     xc contribution           =     -49.32165755 Ry
     ewald contribution        =    -162.13309058 Ry
     one-center paw contrib.   =    -106.67897387 Ry
      -> PAW hartree energy AE =     282.49108837 Ry
      -> PAW hartree energy PS =    -281.12064137 Ry
      -> PAW xc energy AE      =    -154.55080338 Ry
      -> PAW xc energy PS      =      46.50138250 Ry
      -> total E_H with PAW    =     188.30370026 Ry
      -> total E_XC with PAW   =    -157.37107842 Ry

     total magnetization       =     0.00 Bohr mag/cell
     absolute magnetization    =     0.00 Bohr mag/cell

     convergence has been achieved in  17 iterations

     Forces acting on atoms (cartesian axes, Ry/au):

     atom    1 type  1   force =     0.00000000    0.00000000    0.08026561
     atom    2 type  2   force =     0.00000000    0.00000000    0.03877699
     atom    3 type  2   force =     0.00000000    0.00000000   -0.09557328
     atom    4 type  3   force =     0.00000000    0.00000000   -0.02346932
     The non-local contrib.  to forces
     atom    1 type  1   force =     0.00000000    0.00000000   -0.13341179
     atom    2 type  2   force =     0.00000000   -0.00000000   -0.85856672
     atom    3 type  2   force =     0.00000000    0.00000000    0.35904814
     atom    4 type  3   force =     0.00000000    0.00000000   -0.05366909
     The ionic contribution  to forces
     atom    1 type  1   force =    -0.00000000    0.00000000    5.18851479
     atom    2 type  2   force =     0.00000000   -0.00000000   27.37142756
     atom    3 type  2   force =    -0.00000000    0.00000000  -24.82374625
     atom    4 type  3   force =     0.00000000   -0.00000000   -7.73619610
     The local contribution  to forces
     atom    1 type  1   force =    -0.00000000   -0.00000000   -4.97464217
     atom    2 type  2   force =     0.00000001   -0.00000001  -26.48116513
     atom    3 type  2   force =    -0.00000001    0.00000001   24.37155549
     atom    4 type  3   force =    -0.00000000    0.00000000    7.76641429
     The core correction contribution to forces
     atom    1 type  1   force =    -0.00000000    0.00000000   -0.00010427
     atom    2 type  2   force =    -0.00000000    0.00000000    0.00704478
     atom    3 type  2   force =     0.00000000   -0.00000000   -0.00262886
     atom    4 type  3   force =     0.00000000    0.00000000    0.00000000
     The Hubbard contrib.    to forces
     atom    1 type  1   force =     0.00000000    0.00000000    0.00000000
     atom    2 type  2   force =     0.00000000    0.00000000    0.00000000
     atom    3 type  2   force =     0.00000000    0.00000000    0.00000000
     atom    4 type  3   force =     0.00000000    0.00000000    0.00000000
     The SCF correction term to forces
     atom    1 type  1   force =     0.00000000   -0.00000000   -0.00010229
     atom    2 type  2   force =     0.00000000   -0.00000000    0.00002515
     atom    3 type  2   force =    -0.00000000    0.00000000    0.00018686
     atom    4 type  3   force =     0.00000000   -0.00000000   -0.00002977

     Total force =     0.132783     Total SCF correction =     0.000217

     Writing all to output data dir ./out/pw.save/ :
     XML data file, charge density, pseudopotentials, collected wavefunctions
 
     init_run     :      9.11s CPU      2.30s WALL (       1 calls)
     electrons    :     78.83s CPU     21.13s WALL (       1 calls)
     forces       :      0.53s CPU      0.51s WALL (       1 calls)

     Called by init_run:
     wfcinit      :      0.24s CPU      0.33s WALL (       1 calls)
     wfcinit:atom :      0.04s CPU      0.04s WALL (      50 calls)
     wfcinit:wfcr :      0.15s CPU      0.22s WALL (      50 calls)
     potinit      :      8.38s CPU      1.47s WALL (       1 calls)
     hinit0       :      0.41s CPU      0.39s WALL (       1 calls)

     Called by electrons:
     c_bands      :      9.92s CPU      9.85s WALL (      17 calls)
     sum_band     :      1.82s CPU      1.77s WALL (      17 calls)
     v_of_rho     :      0.27s CPU      0.13s WALL (      18 calls)
     v_h          :      0.20s CPU      0.02s WALL (      18 calls)
     v_xc         :      0.08s CPU      0.11s WALL (      19 calls)
     newd         :      0.42s CPU      0.31s WALL (      18 calls)
                                        0.31s GPU  (      18 calls)
     PAW_pot      :     69.61s CPU      9.19s WALL (      18 calls)
     mix_rho      :      0.43s CPU      0.41s WALL (      17 calls)

     Called by c_bands:
     init_us_2    :      0.71s CPU      0.68s WALL (    1800 calls)
     cegterg      :      8.76s CPU      8.73s WALL (     850 calls)

     Called by sum_band:
     sum_band:wei :      0.02s CPU      0.02s WALL (      17 calls)
                                        0.02s GPU  (      17 calls)
     sum_band:loo :      1.17s CPU      1.12s WALL (      17 calls)
                                        1.12s GPU  (      17 calls)
     sum_band:buf :      0.09s CPU      0.11s WALL (     850 calls)
                                        0.10s GPU  (     850 calls)
     sum_band:ini :      0.33s CPU      0.33s WALL (     850 calls)
                                        0.32s GPU  (     850 calls)
     sum_band:cal :      0.03s CPU      0.12s WALL (     850 calls)
                                        0.11s GPU  (     850 calls)
     sum_band:bec :      0.18s CPU      0.20s WALL (     850 calls)
                                        0.18s GPU  (     850 calls)
     addusdens    :      0.54s CPU      0.55s WALL (      17 calls)
                                        0.54s GPU  (      17 calls)
     addusd:skk   :      0.00s CPU      0.00s WALL (      51 calls)
                                        0.00s GPU  (      51 calls)

     Called by *egterg:
     cdiaghg      :      3.00s CPU      3.13s WALL (    3763 calls)
                                        3.09s GPU  (    3763 calls)
     cegterg:over :      0.53s CPU      0.55s WALL (    2913 calls)
     cegterg:upda :      0.50s CPU      0.50s WALL (    2913 calls)
     cegterg:last :      0.09s CPU      0.08s WALL (    1498 calls)
     h_psi        :      3.28s CPU      3.25s WALL (    3813 calls)
                                        3.21s GPU  (    3813 calls)
     s_psi        :      0.57s CPU      0.59s WALL (    3813 calls)
     g_psi        :      0.01s CPU      0.07s WALL (    2913 calls)
                                        0.03s GPU  (    2913 calls)

     Called by h_psi:
     h_psi:calbec :      0.09s CPU      0.35s WALL (    3813 calls)
                                        0.30s GPU  (    3813 calls)
     vloc_psi     :      2.14s CPU      2.04s WALL (    3813 calls)
                                        1.99s GPU  (    3813 calls)
     add_vuspsi   :      0.51s CPU      0.60s WALL (    3813 calls)
                                        0.55s GPU  (    3813 calls)

     General routines
     calbec       :      0.10s CPU      0.13s WALL (    4863 calls)
     fft          :      2.83s CPU      0.58s WALL (     463 calls)
                                        0.02s GPU  (     427 calls)
     ffts         :      1.75s CPU      0.34s WALL (     570 calls)
                                        0.01s GPU  (     534 calls)
     fftw         :      0.21s CPU      0.66s WALL (   12848 calls)
                                        0.51s GPU  (   12848 calls)
     interpolate  :      4.65s CPU      0.89s WALL (      36 calls)
 
     Parallel routines

     PAW routines
     PAW_pot      :     69.61s CPU      9.19s WALL (      18 calls)
     PAW_symme    :      0.02s CPU      0.00s WALL (      35 calls)
 
     PWSCF        :   1m29.24s CPU     24.46s WALL

 
   This run was terminated on:   3:53:15  12Jul2026            

=------------------------------------------------------------------------------=
   JOB DONE.
=------------------------------------------------------------------------------=
Warning: ieee_divide_by_zero is signaling
Warning: ieee_inexact is signaling
FORTRAN STOP
