
     Program PWSCF v.7.3.1 starts on 12Jul2026 at  4:23: 8 

     This program is part of the open-source Quantum ESPRESSO suite
     for quantum simulation of materials; please cite
         "P. Giannozzi et al., J. Phys.:Condens. Matter 21 395502 (2009);
         "P. Giannozzi et al., J. Phys.:Condens. Matter 29 465901 (2017);
         "P. Giannozzi et al., J. Chem. Phys. 152 154105 (2020);
          URL http://www.quantum-espresso.org", 
     in publications or presentations arising from this work. More details at
     http://www.quantum-espresso.org/quote

     Parallel version (MPI & OpenMP), running on      14 processor cores
     Number of MPI processes:                 1
     Threads/MPI process:                    14

     MPI processes distributed on     1 nodes
     763285 MiB available memory on the printing compute node when the environment starts
 
     Reading input from pw.in

     Current dimensions of program PWSCF are:
     Max number of different atomic species (ntypx) = 10
     Max number of k-points (npk) =  40000
     Max angular momentum in pseudopotentials (lmaxx) =  4
     file Co.pbe-spn-kjpaw_psl.0.3.1.UPF: wavefunction(s)  3P 3D renormalized
     file O.pbe-n-kjpaw_psl.1.0.0.UPF: wavefunction(s)  2S 2P renormalized
     file Na.pbe-spn-kjpaw_psl.1.0.0.UPF: wavefunction(s)  2P renormalized
 
     Subspace diagonalization in iterative solution of the eigenvalue problem:
     a serial algorithm will be used

 
     G-vector sticks info
     --------------------
     sticks:   dense  smooth     PW     G-vecs:    dense   smooth      PW
     Sum         979     499    151                85601    30351    5001
 
     Using Slab Decomposition
 


     bravais-lattice index     =            4
     lattice parameter (alat)  =       5.4575  a.u.
     unit-cell volume          =     482.5661 (a.u.)^3
     number of atoms/cell      =            4
     number of atomic types    =            3
     number of electrons       =        38.00
     number of Kohn-Sham states=           27
     kinetic-energy cutoff     =      60.0000  Ry
     charge density cutoff     =     480.0000  Ry
     scf convergence threshold =      1.0E-07
     mixing beta               =       0.3000
     number of iterations used =            8  local-TF  mixing
     Exchange-correlation= SLA  PW   PBX  PBC
                           (   1   4   3   4   0   0   0)

     GPU acceleration is ACTIVE.  4 visible GPUs per MPI rank
     GPU-aware MPI enabled


     GPU used by master process:

        Device Number: 0
        Device name: NVIDIA A100-SXM4-80GB
        Compute capability : 80
        Ratio of single to double precision performance  : 2
        Memory Clock Rate (KHz): 1593000
        Memory Bus Width (bits): 5120
        Peak Memory Bandwidth (GB/s): ******

     celldm(1)=   5.457529  celldm(2)=   0.000000  celldm(3)=   3.427978
     celldm(4)=   0.000000  celldm(5)=   0.000000  celldm(6)=   0.000000

     crystal axes: (cart. coord. in units of alat)
               a(1) = (   1.000000   0.000000   0.000000 )  
               a(2) = (  -0.500000   0.866025   0.000000 )  
               a(3) = (   0.000000   0.000000   3.427978 )  

     reciprocal axes: (cart. coord. in units 2 pi/alat)
               b(1) = (  1.000000  0.577350 -0.000000 )  
               b(2) = (  0.000000  1.154701  0.000000 )  
               b(3) = (  0.000000 -0.000000  0.291717 )  


     PseudoPot. # 1 for Co read from file:
     ../../pseudo/Co.pbe-spn-kjpaw_psl.0.3.1.UPF
     MD5 check sum: 3c0a43779828c046024e4f3be63f8e67
     Pseudo is Projector augmented-wave + core cor, Zval = 17.0
     Generated using &quot;atomic&quot; code by A. Dal Corso  v.6.2.2
     Shape of augmentation charge: PSQ
     Using radial grid of 1193 points,  6 beta functions with: 
                l(1) =   0
                l(2) =   0
                l(3) =   1
                l(4) =   1
                l(5) =   2
                l(6) =   2
     Q(r) pseudized with 0 coefficients 


     PseudoPot. # 2 for O  read from file:
     ../../pseudo/O.pbe-n-kjpaw_psl.1.0.0.UPF
     MD5 check sum: e99d9cef9b487d1ca56f5b95ecd0fd7a
     Pseudo is Projector augmented-wave + core cor, Zval =  6.0
     Generated using &quot;atomic&quot; code by A. Dal Corso  v.6.3
     Shape of augmentation charge: PSQ
     Using radial grid of 1095 points,  4 beta functions with: 
                l(1) =   0
                l(2) =   0
                l(3) =   1
                l(4) =   1
     Q(r) pseudized with 0 coefficients 


     PseudoPot. # 3 for Na read from file:
     ../../pseudo/Na.pbe-spn-kjpaw_psl.1.0.0.UPF
     MD5 check sum: 05b4deb74e3932c23ab016979dc8b5d4
     Pseudo is Projector augmented-wave + core cor, Zval =  9.0
     Generated using &quot;atomic&quot; code by A. Dal Corso  v.6.3
     Shape of augmentation charge: PSQ
     Using radial grid of 1121 points,  4 beta functions with: 
                l(1) =   0
                l(2) =   0
                l(3) =   1
                l(4) =   1
     Q(r) pseudized with 0 coefficients 


     atomic species   valence    mass     pseudopotential
     Co               17.00    58.93300     Co( 1.00)
     O                 6.00    15.99900     O ( 1.00)
     Na                9.00    22.98977     Na( 1.00)

      6 Sym. Ops. (no inversion) found


                                    s                        frac. trans.

      isym =  1     identity                                     

 cryst.   s( 1) = (     1          0          0      )
                  (     0          1          0      )
                  (     0          0          1      )

 cart.    s( 1) = (  1.0000000  0.0000000  0.0000000 )
                  (  0.0000000  1.0000000  0.0000000 )
                  (  0.0000000  0.0000000  1.0000000 )


      isym =  2     120 deg rotation - cryst. axis [0,0,1]       

 cryst.   s( 2) = (     0          1          0      )
                  (    -1         -1          0      )
                  (     0          0          1      )

 cart.    s( 2) = ( -0.5000000 -0.8660254  0.0000000 )
                  (  0.8660254 -0.5000000  0.0000000 )
                  (  0.0000000  0.0000000  1.0000000 )


      isym =  3     120 deg rotation - cryst. axis [0,0,-1]      

 cryst.   s( 3) = (    -1         -1          0      )
                  (     1          0          0      )
                  (     0          0          1      )

 cart.    s( 3) = ( -0.5000000  0.8660254  0.0000000 )
                  ( -0.8660254 -0.5000000  0.0000000 )
                  (  0.0000000  0.0000000  1.0000000 )


      isym =  4     inv. 180 deg rotation - cart. axis [1,0,0]   

 cryst.   s( 4) = (    -1          0          0      )
                  (     1          1          0      )
                  (     0          0          1      )

 cart.    s( 4) = ( -1.0000000  0.0000000  0.0000000 )
                  (  0.0000000  1.0000000  0.0000000 )
                  (  0.0000000  0.0000000  1.0000000 )


      isym =  5     inv. 180 deg rotation - cryst. axis [0,1,0]  

 cryst.   s( 5) = (     1          1          0      )
                  (     0         -1          0      )
                  (     0          0          1      )

 cart.    s( 5) = (  0.5000000  0.8660254  0.0000000 )
                  (  0.8660254 -0.5000000  0.0000000 )
                  (  0.0000000  0.0000000  1.0000000 )


      isym =  6     inv. 180 deg rotation - cryst. axis [1,1,0]  

 cryst.   s( 6) = (     0         -1          0      )
                  (    -1          0          0      )
                  (     0          0          1      )

 cart.    s( 6) = (  0.5000000 -0.8660254  0.0000000 )
                  ( -0.8660254 -0.5000000  0.0000000 )
                  (  0.0000000  0.0000000  1.0000000 )


     point group C_3v (3m)  
     there are  3 classes
     the character table:

       E     2C3   3s_v 
A_1    1.00  1.00  1.00
A_2    1.00  1.00 -1.00
E      2.00 -1.00  0.00

     the symmetry operations in each class and the name of the first element:

     E        1
          identity                                               
     2C3      2    3
          120 deg rotation - cryst. axis [0,0,1]                 
     3s_v     4    5    6
          inv. 180 deg rotation - cart. axis [1,0,0]             

   Cartesian axes

     site n.     atom                  positions (alat units)
         1        Co     tau(   1) = (   0.0000000   0.0000000   0.0000000  )
         2        O      tau(   2) = (  -0.0000000   0.5773503   0.3324100  )
         3        O      tau(   3) = (   0.5000000   0.2886751   3.0955679  )
         4        Na     tau(   4) = (   0.0000000   0.0000000   1.9736842  )

   Crystallographic axes

     site n.     atom                  positions (cryst. coord.)
         1        Co     tau(   1) = (  0.0000000  0.0000000  0.0000000  )
         2        O      tau(   2) = (  0.3333333  0.6666667  0.0969697  )
         3        O      tau(   3) = (  0.6666667  0.3333333  0.9030303  )
         4        Na     tau(   4) = (  0.0000000  0.0000000  0.5757576  )

     number of k points=    25  Marzari-Vanderbilt smearing, width (Ry)=  0.0200
                       cart. coord. in units 2pi/alat
        k(    1) = (   0.0000000   0.0000000   0.0000000), wk =   0.0104167
        k(    2) = (   0.0000000   0.0000000   0.0972391), wk =   0.0208333
        k(    3) = (   0.0000000   0.1443376   0.0000000), wk =   0.0625000
        k(    4) = (   0.0000000   0.1443376   0.0972391), wk =   0.0625000
        k(    5) = (   0.0000000   0.2886751   0.0000000), wk =   0.0625000
        k(    6) = (   0.0000000   0.2886751   0.0972391), wk =   0.0625000
        k(    7) = (   0.0000000   0.4330127   0.0000000), wk =   0.0625000
        k(    8) = (   0.0000000   0.4330127   0.0972391), wk =   0.0625000
        k(    9) = (   0.0000000  -0.5773503   0.0000000), wk =   0.0312500
        k(   10) = (   0.0000000  -0.5773503   0.0972391), wk =   0.0625000
        k(   11) = (   0.1250000   0.2165064   0.0000000), wk =   0.0625000
        k(   12) = (   0.1250000   0.2165064   0.0972391), wk =   0.1250000
        k(   13) = (   0.1250000   0.3608439   0.0000000), wk =   0.1250000
        k(   14) = (   0.1250000   0.3608439   0.0972391), wk =   0.1250000
        k(   15) = (   0.1250000   0.5051815   0.0000000), wk =   0.1250000
        k(   16) = (   0.1250000   0.5051815   0.0972391), wk =   0.1250000
        k(   17) = (   0.2500000   0.4330127   0.0000000), wk =   0.0625000
        k(   18) = (   0.2500000   0.4330127   0.0972391), wk =   0.1250000
        k(   19) = (   0.2500000   0.5773503   0.0000000), wk =   0.0625000
        k(   20) = (   0.2500000   0.5773503   0.0972391), wk =   0.1250000
        k(   21) = (   0.0000000  -0.1443376   0.0972391), wk =   0.0625000
        k(   22) = (   0.0000000  -0.2886751   0.0972391), wk =   0.0625000
        k(   23) = (   0.0000000  -0.4330127   0.0972391), wk =   0.0625000
        k(   24) = (  -0.1250000  -0.3608439   0.0972391), wk =   0.1250000
        k(   25) = (  -0.1250000  -0.5051815   0.0972391), wk =   0.1250000

                       cryst. coord.
        k(    1) = (   0.0000000   0.0000000   0.0000000), wk =   0.0104167
        k(    2) = (   0.0000000   0.0000000   0.3333333), wk =   0.0208333
        k(    3) = (   0.0000000   0.1250000   0.0000000), wk =   0.0625000
        k(    4) = (   0.0000000   0.1250000   0.3333333), wk =   0.0625000
        k(    5) = (   0.0000000   0.2500000   0.0000000), wk =   0.0625000
        k(    6) = (   0.0000000   0.2500000   0.3333333), wk =   0.0625000
        k(    7) = (   0.0000000   0.3750000   0.0000000), wk =   0.0625000
        k(    8) = (   0.0000000   0.3750000   0.3333333), wk =   0.0625000
        k(    9) = (   0.0000000  -0.5000000   0.0000000), wk =   0.0312500
        k(   10) = (   0.0000000  -0.5000000   0.3333333), wk =   0.0625000
        k(   11) = (   0.1250000   0.1250000   0.0000000), wk =   0.0625000
        k(   12) = (   0.1250000   0.1250000   0.3333333), wk =   0.1250000
        k(   13) = (   0.1250000   0.2500000   0.0000000), wk =   0.1250000
        k(   14) = (   0.1250000   0.2500000   0.3333333), wk =   0.1250000
        k(   15) = (   0.1250000   0.3750000   0.0000000), wk =   0.1250000
        k(   16) = (   0.1250000   0.3750000   0.3333333), wk =   0.1250000
        k(   17) = (   0.2500000   0.2500000   0.0000000), wk =   0.0625000
        k(   18) = (   0.2500000   0.2500000   0.3333333), wk =   0.1250000
        k(   19) = (   0.2500000   0.3750000   0.0000000), wk =   0.0625000
        k(   20) = (   0.2500000   0.3750000   0.3333333), wk =   0.1250000
        k(   21) = (   0.0000000  -0.1250000   0.3333333), wk =   0.0625000
        k(   22) = (   0.0000000  -0.2500000   0.3333333), wk =   0.0625000
        k(   23) = (   0.0000000  -0.3750000   0.3333333), wk =   0.0625000
        k(   24) = (  -0.1250000  -0.2500000   0.3333333), wk =   0.1250000
        k(   25) = (  -0.1250000  -0.3750000   0.3333333), wk =   0.1250000

     Dense  grid:    85601 G-vectors     FFT dimensions: (  40,  40, 135)

     Smooth grid:    30351 G-vectors     FFT dimensions: (  27,  27,  96)

     Dynamical RAM for                 wfc:       1.56 MB

     Dynamical RAM for     wfc (w. buffer):      40.57 MB

     Dynamical RAM for           str. fact:       3.92 MB

     Dynamical RAM for           local pot:       0.00 MB

     Dynamical RAM for          nlocal pot:       2.43 MB

     Dynamical RAM for                qrad:       5.27 MB

     Dynamical RAM for          rho,v,vnew:       8.86 MB

     Dynamical RAM for               rhoin:       2.95 MB

     Dynamical RAM for            rho*nmix:      20.90 MB

     Dynamical RAM for           G-vectors:       5.13 MB

     Dynamical RAM for          h,s,v(r/c):       0.13 MB

     Dynamical RAM for          <psi|beta>:       0.02 MB

     Dynamical RAM for                 psi:       3.12 MB

     Dynamical RAM for                hpsi:       3.12 MB

     Dynamical RAM for                spsi:       3.12 MB

     Dynamical RAM for      wfcinit/wfcrot:       3.14 MB

     Dynamical RAM for           addusdens:     245.56 MB

     Dynamical RAM for          addusforce:     248.83 MB

     Estimated static dynamical RAM per process >      82.59 MB

     Estimated max dynamical RAM per process >     352.33 MB

     Check: negative core charge=   -0.000006

     Initial potential from superposition of free atoms

     starting charge      37.9934, renormalised to      38.0000
     Starting wfcs are   23 randomized atomic wfcs +    4 random wfcs
     Checking if some PAW data can be deallocated... 

     total cpu time spent up to now is        3.0 secs

     Self-consistent Calculation
[tb_dev] Currently allocated     6.54E-01 Mbytes, locked:    0 /   6
[tb_pin] Currently allocated     0.00E+00 Mbytes, locked:    0 /   0

     iteration #  1     ecut=    60.00 Ry     beta= 0.30
     Davidson diagonalization with overlap

---- Real-time Memory Report at c_bands before calling an iterative solver
           658 MiB given to the printing process from OS
             0 MiB allocation reported by mallinfo(arena+hblkhd)
        763003 MiB available memory on the node where the printing process lives
     GPU memory used/free/total (MiB): 1080 / 80070 / 81151
------------------
     ethr =  1.00E-02,  avg # of iterations =  8.7
     Minimization algorithm failed to find Fermi energy: reverting to bisection
     Possible cause: smearing is larger than the electronic band-gap.

     total cpu time spent up to now is        4.2 secs

     total energy              =    -569.20792402 Ry
     estimated scf accuracy    <       1.55332048 Ry
[tb_dev] Currently allocated     3.05E-05 Mbytes, locked:    0 /   2
[tb_pin] Currently allocated     0.00E+00 Mbytes, locked:    0 /   0

     iteration #  2     ecut=    60.00 Ry     beta= 0.30
     Davidson diagonalization with overlap

---- Real-time Memory Report at c_bands before calling an iterative solver
           692 MiB given to the printing process from OS
             0 MiB allocation reported by mallinfo(arena+hblkhd)
        762983 MiB available memory on the node where the printing process lives
     GPU memory used/free/total (MiB): 1106 / 80044 / 81151
------------------
     ethr =  4.09E-03,  avg # of iterations =  1.5
     Minimization algorithm failed to find Fermi energy: reverting to bisection
     Possible cause: smearing is larger than the electronic band-gap.

     total cpu time spent up to now is        4.9 secs

     total energy              =    -569.16324848 Ry
     estimated scf accuracy    <       1.10258092 Ry
[tb_dev] Currently allocated     3.05E-05 Mbytes, locked:    0 /   2
[tb_pin] Currently allocated     0.00E+00 Mbytes, locked:    0 /   0

     iteration #  3     ecut=    60.00 Ry     beta= 0.30
     Davidson diagonalization with overlap

---- Real-time Memory Report at c_bands before calling an iterative solver
           694 MiB given to the printing process from OS
             0 MiB allocation reported by mallinfo(arena+hblkhd)
        762982 MiB available memory on the node where the printing process lives
     GPU memory used/free/total (MiB): 1106 / 80044 / 81151
------------------
     ethr =  2.90E-03,  avg # of iterations =  1.2

     total cpu time spent up to now is        5.5 secs

     total energy              =    -569.14828081 Ry
     estimated scf accuracy    <       0.40955268 Ry
[tb_dev] Currently allocated     3.05E-05 Mbytes, locked:    0 /   2
[tb_pin] Currently allocated     0.00E+00 Mbytes, locked:    0 /   0

     iteration #  4     ecut=    60.00 Ry     beta= 0.30
     Davidson diagonalization with overlap

---- Real-time Memory Report at c_bands before calling an iterative solver
           695 MiB given to the printing process from OS
             0 MiB allocation reported by mallinfo(arena+hblkhd)
        762990 MiB available memory on the node where the printing process lives
     GPU memory used/free/total (MiB): 1106 / 80044 / 81151
------------------
     ethr =  1.08E-03,  avg # of iterations =  3.9

     total cpu time spent up to now is        6.3 secs

     total energy              =    -569.17488353 Ry
     estimated scf accuracy    <       0.04464311 Ry
[tb_dev] Currently allocated     3.05E-05 Mbytes, locked:    0 /   2
[tb_pin] Currently allocated     0.00E+00 Mbytes, locked:    0 /   0

     iteration #  5     ecut=    60.00 Ry     beta= 0.30
     Davidson diagonalization with overlap

---- Real-time Memory Report at c_bands before calling an iterative solver
           696 MiB given to the printing process from OS
             0 MiB allocation reported by mallinfo(arena+hblkhd)
        762989 MiB available memory on the node where the printing process lives
     GPU memory used/free/total (MiB): 1106 / 80044 / 81151
------------------
     ethr =  1.17E-04,  avg # of iterations =  8.7

     total cpu time spent up to now is        7.5 secs

     total energy              =    -569.17711693 Ry
     estimated scf accuracy    <       0.02910493 Ry
[tb_dev] Currently allocated     3.05E-05 Mbytes, locked:    0 /   2
[tb_pin] Currently allocated     0.00E+00 Mbytes, locked:    0 /   0

     iteration #  6     ecut=    60.00 Ry     beta= 0.30
     Davidson diagonalization with overlap

---- Real-time Memory Report at c_bands before calling an iterative solver
           698 MiB given to the printing process from OS
             0 MiB allocation reported by mallinfo(arena+hblkhd)
        762994 MiB available memory on the node where the printing process lives
     GPU memory used/free/total (MiB): 1108 / 80042 / 81151
------------------
     ethr =  7.66E-05,  avg # of iterations =  2.9

     total cpu time spent up to now is        8.2 secs

     total energy              =    -569.18032208 Ry
     estimated scf accuracy    <       0.00279240 Ry
[tb_dev] Currently allocated     3.05E-05 Mbytes, locked:    0 /   2
[tb_pin] Currently allocated     0.00E+00 Mbytes, locked:    0 /   0

     iteration #  7     ecut=    60.00 Ry     beta= 0.30
     Davidson diagonalization with overlap

---- Real-time Memory Report at c_bands before calling an iterative solver
           698 MiB given to the printing process from OS
             0 MiB allocation reported by mallinfo(arena+hblkhd)
        762995 MiB available memory on the node where the printing process lives
     GPU memory used/free/total (MiB): 1108 / 80042 / 81151
------------------
     c_bands:  1 eigenvalues not converged
     c_bands:  1 eigenvalues not converged
     c_bands:  1 eigenvalues not converged
     c_bands:  1 eigenvalues not converged
     c_bands:  1 eigenvalues not converged
     ethr =  7.35E-06,  avg # of iterations = 10.4

     total cpu time spent up to now is        9.5 secs

     total energy              =    -569.18084221 Ry
     estimated scf accuracy    <       0.01178596 Ry
[tb_dev] Currently allocated     3.05E-05 Mbytes, locked:    0 /   2
[tb_pin] Currently allocated     0.00E+00 Mbytes, locked:    0 /   0

     iteration #  8     ecut=    60.00 Ry     beta= 0.30
     Davidson diagonalization with overlap

---- Real-time Memory Report at c_bands before calling an iterative solver
           698 MiB given to the printing process from OS
             0 MiB allocation reported by mallinfo(arena+hblkhd)
        763013 MiB available memory on the node where the printing process lives
     GPU memory used/free/total (MiB): 1108 / 80042 / 81151
------------------
     ethr =  7.35E-06,  avg # of iterations =  2.9

     total cpu time spent up to now is       10.2 secs

     total energy              =    -569.18108567 Ry
     estimated scf accuracy    <       0.00296897 Ry
[tb_dev] Currently allocated     3.05E-05 Mbytes, locked:    0 /   2
[tb_pin] Currently allocated     0.00E+00 Mbytes, locked:    0 /   0

     iteration #  9     ecut=    60.00 Ry     beta= 0.30
     Davidson diagonalization with overlap

---- Real-time Memory Report at c_bands before calling an iterative solver
           700 MiB given to the printing process from OS
             0 MiB allocation reported by mallinfo(arena+hblkhd)
        763013 MiB available memory on the node where the printing process lives
     GPU memory used/free/total (MiB): 1108 / 80042 / 81151
------------------
     ethr =  7.35E-06,  avg # of iterations =  1.7

     total cpu time spent up to now is       10.9 secs

     total energy              =    -569.18123582 Ry
     estimated scf accuracy    <       0.04490310 Ry
[tb_dev] Currently allocated     3.05E-05 Mbytes, locked:    0 /   2
[tb_pin] Currently allocated     0.00E+00 Mbytes, locked:    0 /   0

     iteration # 10     ecut=    60.00 Ry     beta= 0.30
     Davidson diagonalization with overlap

---- Real-time Memory Report at c_bands before calling an iterative solver
           703 MiB given to the printing process from OS
             0 MiB allocation reported by mallinfo(arena+hblkhd)
        763014 MiB available memory on the node where the printing process lives
     GPU memory used/free/total (MiB): 1108 / 80042 / 81151
------------------
     ethr =  7.35E-06,  avg # of iterations =  1.1

     total cpu time spent up to now is       11.5 secs

     total energy              =    -569.18189064 Ry
     estimated scf accuracy    <       0.00317250 Ry
[tb_dev] Currently allocated     3.05E-05 Mbytes, locked:    0 /   2
[tb_pin] Currently allocated     0.00E+00 Mbytes, locked:    0 /   0

     iteration # 11     ecut=    60.00 Ry     beta= 0.30
     Davidson diagonalization with overlap

---- Real-time Memory Report at c_bands before calling an iterative solver
           703 MiB given to the printing process from OS
             0 MiB allocation reported by mallinfo(arena+hblkhd)
        763012 MiB available memory on the node where the printing process lives
     GPU memory used/free/total (MiB): 1108 / 80042 / 81151
------------------
     ethr =  7.35E-06,  avg # of iterations =  1.0

     total cpu time spent up to now is       12.2 secs

     total energy              =    -569.18193678 Ry
     estimated scf accuracy    <       0.00060171 Ry
[tb_dev] Currently allocated     3.05E-05 Mbytes, locked:    0 /   2
[tb_pin] Currently allocated     0.00E+00 Mbytes, locked:    0 /   0

     iteration # 12     ecut=    60.00 Ry     beta= 0.30
     Davidson diagonalization with overlap

---- Real-time Memory Report at c_bands before calling an iterative solver
           703 MiB given to the printing process from OS
             0 MiB allocation reported by mallinfo(arena+hblkhd)
        763030 MiB available memory on the node where the printing process lives
     GPU memory used/free/total (MiB): 1108 / 80042 / 81151
------------------
     ethr =  1.58E-06,  avg # of iterations =  1.7

     total cpu time spent up to now is       12.8 secs

     total energy              =    -569.18191903 Ry
     estimated scf accuracy    <       0.00087635 Ry
[tb_dev] Currently allocated     3.05E-05 Mbytes, locked:    0 /   2
[tb_pin] Currently allocated     0.00E+00 Mbytes, locked:    0 /   0

     iteration # 13     ecut=    60.00 Ry     beta= 0.30
     Davidson diagonalization with overlap

---- Real-time Memory Report at c_bands before calling an iterative solver
           703 MiB given to the printing process from OS
             0 MiB allocation reported by mallinfo(arena+hblkhd)
        763031 MiB available memory on the node where the printing process lives
     GPU memory used/free/total (MiB): 1108 / 80042 / 81151
------------------
     ethr =  1.58E-06,  avg # of iterations =  1.1

     total cpu time spent up to now is       13.5 secs

     total energy              =    -569.18191339 Ry
     estimated scf accuracy    <       0.00020206 Ry
[tb_dev] Currently allocated     3.05E-05 Mbytes, locked:    0 /   2
[tb_pin] Currently allocated     0.00E+00 Mbytes, locked:    0 /   0

     iteration # 14     ecut=    60.00 Ry     beta= 0.30
     Davidson diagonalization with overlap

---- Real-time Memory Report at c_bands before calling an iterative solver
           703 MiB given to the printing process from OS
             0 MiB allocation reported by mallinfo(arena+hblkhd)
        763027 MiB available memory on the node where the printing process lives
     GPU memory used/free/total (MiB): 1108 / 80042 / 81151
------------------
     ethr =  5.32E-07,  avg # of iterations =  1.3

     total cpu time spent up to now is       14.1 secs

     total energy              =    -569.18192701 Ry
     estimated scf accuracy    <       0.00002957 Ry
[tb_dev] Currently allocated     3.05E-05 Mbytes, locked:    0 /   2
[tb_pin] Currently allocated     0.00E+00 Mbytes, locked:    0 /   0

     iteration # 15     ecut=    60.00 Ry     beta= 0.30
     Davidson diagonalization with overlap

---- Real-time Memory Report at c_bands before calling an iterative solver
           703 MiB given to the printing process from OS
             0 MiB allocation reported by mallinfo(arena+hblkhd)
        763027 MiB available memory on the node where the printing process lives
     GPU memory used/free/total (MiB): 1108 / 80042 / 81151
------------------
     ethr =  7.78E-08,  avg # of iterations =  3.4

     total cpu time spent up to now is       14.9 secs

     total energy              =    -569.18193025 Ry
     estimated scf accuracy    <       0.00000282 Ry
[tb_dev] Currently allocated     3.05E-05 Mbytes, locked:    0 /   2
[tb_pin] Currently allocated     0.00E+00 Mbytes, locked:    0 /   0

     iteration # 16     ecut=    60.00 Ry     beta= 0.30
     Davidson diagonalization with overlap

---- Real-time Memory Report at c_bands before calling an iterative solver
           703 MiB given to the printing process from OS
             0 MiB allocation reported by mallinfo(arena+hblkhd)
        763029 MiB available memory on the node where the printing process lives
     GPU memory used/free/total (MiB): 1108 / 80042 / 81151
------------------
     ethr =  7.43E-09,  avg # of iterations =  7.5

     total cpu time spent up to now is       15.9 secs

     total energy              =    -569.18193290 Ry
     estimated scf accuracy    <       0.00000096 Ry
[tb_dev] Currently allocated     3.05E-05 Mbytes, locked:    0 /   2
[tb_pin] Currently allocated     0.00E+00 Mbytes, locked:    0 /   0

     iteration # 17     ecut=    60.00 Ry     beta= 0.30
     Davidson diagonalization with overlap

---- Real-time Memory Report at c_bands before calling an iterative solver
           703 MiB given to the printing process from OS
             0 MiB allocation reported by mallinfo(arena+hblkhd)
        763040 MiB available memory on the node where the printing process lives
     GPU memory used/free/total (MiB): 1108 / 80042 / 81151
------------------
     ethr =  2.51E-09,  avg # of iterations =  3.0

     total cpu time spent up to now is       16.7 secs

     total energy              =    -569.18193302 Ry
     estimated scf accuracy    <       0.00000013 Ry
[tb_dev] Currently allocated     3.05E-05 Mbytes, locked:    0 /   2
[tb_pin] Currently allocated     0.00E+00 Mbytes, locked:    0 /   0

     iteration # 18     ecut=    60.00 Ry     beta= 0.30
     Davidson diagonalization with overlap

---- Real-time Memory Report at c_bands before calling an iterative solver
           703 MiB given to the printing process from OS
             0 MiB allocation reported by mallinfo(arena+hblkhd)
        763034 MiB available memory on the node where the printing process lives
     GPU memory used/free/total (MiB): 1108 / 80042 / 81151
------------------
     ethr =  3.33E-10,  avg # of iterations =  5.6

     total cpu time spent up to now is       17.6 secs

     End of self-consistent calculation

          k = 0.0000 0.0000 0.0000 (  3803 PWs)   bands (ev):

   -91.5518 -54.7744 -54.7744 -54.7626 -49.8671 -21.7409 -21.6689 -21.6689
   -15.3586 -13.4478  -1.5259  -1.0881  -1.0881   1.0967   1.9741   2.5113
     2.5113   2.6060   2.6060   3.9698   5.7954   6.3609   6.3609   9.2568
    12.7326  13.1309  15.5994

     occupation numbers 
     1.0000   1.0000   1.0000   1.0000   1.0000   1.0000   1.0000   1.0000
     1.0000   1.0000   1.0000   1.0000   1.0000   1.0000   1.0000   1.0000
     1.0000   1.0000   1.0000   0.1246   0.0000   0.0000   0.0000   0.0000
     0.0000   0.0000   0.0000

          k = 0.0000 0.0000 0.0972 (  3796 PWs)   bands (ev):

   -91.5518 -54.7744 -54.7744 -54.7626 -49.8671 -21.7407 -21.6689 -21.6689
   -15.3586 -13.4478  -1.5193  -1.0881  -1.0881   0.9948   2.1359   2.5112
     2.5112   2.6060   2.6060   3.9293   5.6748   6.3609   6.3609   9.6999
    11.6170  13.9695  15.6278

     occupation numbers 
     1.0000   1.0000   1.0000   1.0000   1.0000   1.0000   1.0000   1.0000
     1.0000   1.0000   1.0000   1.0000   1.0000   1.0000   1.0000   1.0000
     1.0000   1.0000   1.0000   0.1815   0.0000   0.0000   0.0000   0.0000
     0.0000   0.0000   0.0000

          k = 0.0000 0.1443 0.0000 (  3787 PWs)   bands (ev):

   -91.5511 -54.7826 -54.7764 -54.7613 -49.8619 -21.7336 -21.7133 -21.6784
   -15.1874 -13.4530  -1.3604  -1.2284  -0.9784   1.3460   1.5436   1.8118
     2.2922   3.0024   3.2106   4.0111   5.7704   6.2583   6.2603   9.7290
    13.1548  13.6381  16.1443

     occupation numbers 
     1.0000   1.0000   1.0000   1.0000   1.0000   1.0000   1.0000   1.0000
     1.0000   1.0000   1.0000   1.0000   1.0000   1.0000   1.0000   1.0000
     1.0000   1.0014   1.0221   0.0814   0.0000   0.0000   0.0000   0.0000
     0.0000   0.0000   0.0000

          k = 0.0000 0.1443 0.0972 (  3806 PWs)   bands (ev):

   -91.5511 -54.7827 -54.7764 -54.7615 -49.8619 -21.7338 -21.7135 -21.6785
   -15.1874 -13.4531  -1.3576  -1.2272  -0.9784   1.3429   1.4584   1.8118
     2.4229   3.0117   3.2106   3.9690   5.8571   6.0784   6.2583  10.1020
    12.1413  14.5536  15.9850

     occupation numbers 
     1.0000   1.0000   1.0000   1.0000   1.0000   1.0000   1.0000   1.0000
     1.0000   1.0000   1.0000   1.0000   1.0000   1.0000   1.0000   1.0000
     1.0000   1.0016   1.0221   0.1256   0.0000   0.0000   0.0000   0.0000
     0.0000   0.0000   0.0000

          k = 0.0000 0.2887 0.0000 (  3786 PWs)   bands (ev):

   -91.5493 -54.8026 -54.7812 -54.7585 -49.8492 -21.8195 -21.7164 -21.7014
   -14.7381 -13.4793  -1.5256  -0.8840  -0.7178   0.0757   1.2316   2.3750
     2.7746   3.1777   3.4671   3.8820   5.2793   6.1297   7.0873  10.8805
    13.4248  14.1277  14.8834

     occupation numbers 
     1.0000   1.0000   1.0000   1.0000   1.0000   1.0000   1.0000   1.0000
     1.0000   1.0000   1.0000   1.0000   1.0000   1.0000   1.0000   1.0000
     1.0000   1.0155   1.0805   0.2679   0.0000   0.0000   0.0000   0.0000
     0.0000   0.0000   0.0000

          k = 0.0000 0.2887 0.0972 (  3778 PWs)   bands (ev):

   -91.5493 -54.8026 -54.7812 -54.7584 -49.8492 -21.8195 -21.7164 -21.7013
   -14.7381 -13.4793  -1.5265  -0.8821  -0.7178   0.0781   1.2316   2.3285
     2.7984   3.2178   3.4672   3.8497   5.3438   6.1297   6.9842  11.1060
    13.2242  13.6602  15.7408

     occupation numbers 
     1.0000   1.0000   1.0000   1.0000   1.0000   1.0000   1.0000   1.0000
     1.0000   1.0000   1.0000   1.0000   1.0000   1.0000   1.0000   1.0000
     1.0000   1.0237   1.0805   0.3385   0.0000   0.0000   0.0000   0.0000
     0.0000   0.0000   0.0000

          k = 0.0000 0.4330 0.0000 (  3780 PWs)   bands (ev):

   -91.5475 -54.8225 -54.7860 -54.7555 -49.8365 -21.9237 -21.7242 -21.6992
   -14.1972 -13.5571  -1.9898  -0.9433  -0.5101   0.1755   1.0176   1.9436
     3.0701   3.2709   3.5529   4.5520   5.5024   6.1642   8.5909  10.0652
    12.6048  13.8349  15.1910

     occupation numbers 
     1.0000   1.0000   1.0000   1.0000   1.0000   1.0000   1.0000   1.0000
     1.0000   1.0000   1.0000   1.0000   1.0000   1.0000   1.0000   1.0000
     1.0039   1.0384   1.0258   0.0000   0.0000   0.0000   0.0000   0.0000
     0.0000   0.0000   0.0000

          k = 0.0000 0.4330 0.0972 (  3794 PWs)   bands (ev):

   -91.5475 -54.8226 -54.7860 -54.7556 -49.8366 -21.9238 -21.7243 -21.6992
   -14.1972 -13.5571  -1.9899  -0.9436  -0.5101   0.1765   1.0175   1.9445
     3.0689   3.2708   3.5551   4.5202   5.5474   6.1641   8.5577  10.0604
    12.6835  13.9201  14.8199

     occupation numbers 
     1.0000   1.0000   1.0000   1.0000   1.0000   1.0000   1.0000   1.0000
     1.0000   1.0000   1.0000   1.0000   1.0000   1.0000   1.0000   1.0000
     1.0038   1.0384   1.0232   0.0000   0.0000   0.0000   0.0000   0.0000
     0.0000   0.0000   0.0000

          k = 0.0000-0.5774 0.0000 (  3798 PWs)   bands (ev):

   -91.5468 -54.8309 -54.7880 -54.7543 -49.8313 -21.9665 -21.7338 -21.6920
   -13.8493 -13.6981  -2.3793  -0.7659  -0.4648   0.3393   1.0474   1.6809
     2.8735   3.0825   3.4615   5.6568   6.2135   6.4390   7.7272  10.4725
    11.2881  14.4997  14.7043

     occupation numbers 
     1.0000   1.0000   1.0000   1.0000   1.0000   1.0000   1.0000   1.0000
     1.0000   1.0000   1.0000   1.0000   1.0000   1.0000   1.0000   1.0000
     1.0001   1.0046   1.0816   0.0000   0.0000   0.0000   0.0000   0.0000
     0.0000   0.0000   0.0000

          k = 0.0000-0.5774 0.0972 (  3790 PWs)   bands (ev):

   -91.5468 -54.8309 -54.7880 -54.7543 -49.8313 -21.9664 -21.7337 -21.6920
   -13.8493 -13.6981  -2.3793  -0.7660  -0.4648   0.3394   1.0475   1.6817
     2.8733   3.0825   3.4612   5.6510   6.2135   6.4479   7.7171  10.4735
    11.3452  14.1607  14.8561

     occupation numbers 
     1.0000   1.0000   1.0000   1.0000   1.0000   1.0000   1.0000   1.0000
     1.0000   1.0000   1.0000   1.0000   1.0000   1.0000   1.0000   1.0000
     1.0001   1.0046   1.0816   0.0000   0.0000   0.0000   0.0000   0.0000
     0.0000   0.0000   0.0000

          k = 0.1250 0.2165 0.0000 (  3789 PWs)   bands (ev):

   -91.5498 -54.7959 -54.7807 -54.7593 -49.8529 -21.7838 -21.7214 -21.6997
   -14.8770 -13.4680  -1.4368  -0.9826  -0.8265   0.5279   1.0903   2.2281
     2.6511   3.0893   3.5479   3.9342   5.4530   5.9979   6.8068  10.5391
    13.7697  14.5199  14.7759

     occupation numbers 
     1.0000   1.0000   1.0000   1.0000   1.0000   1.0000   1.0000   1.0000
     1.0000   1.0000   1.0000   1.0000   1.0000   1.0000   1.0000   1.0000
     1.0000   1.0051   1.0312   0.1739   0.0000   0.0000   0.0000   0.0000
     0.0000   0.0000   0.0000

          k = 0.1250 0.2165 0.0972 (  3785 PWs)   bands (ev):

   -91.5498 -54.7958 -54.7807 -54.7593 -49.8529 -21.7836 -21.7215 -21.6997
   -14.8770 -13.4680  -1.4378  -0.9800  -0.8263   0.5306   1.0903   2.1416
     2.7516   3.0895   3.5639   3.9057   5.5031   5.9659   6.7376  10.7541
    13.0759  14.7593  15.4107

     occupation numbers 
     1.0000   1.0000   1.0000   1.0000   1.0000   1.0000   1.0000   1.0000
     1.0000   1.0000   1.0000   1.0000   1.0000   1.0000   1.0000   1.0000
     1.0000   1.0051   1.0126   0.2219   0.0000   0.0000   0.0000   0.0000
     0.0000   0.0000   0.0000

          k = 0.1250 0.3608 0.0000 (  3780 PWs)   bands (ev):

   -91.5480 -54.8137 -54.7875 -54.7564 -49.8403 -21.8775 -21.7337 -21.7042
   -14.3828 -13.5123  -1.5706  -1.0867  -0.4829   0.0583   0.6498   2.2350
     3.1432   3.4573   3.6833   3.9379   5.4279   5.8852   7.9896  11.5550
    12.0705  14.5413  15.6350

     occupation numbers 
     1.0000   1.0000   1.0000   1.0000   1.0000   1.0000   1.0000   1.0000
     1.0000   1.0000   1.0000   1.0000   1.0000   1.0000   1.0000   1.0000
     1.0103   1.0822   0.7791   0.1682   0.0000   0.0000   0.0000   0.0000
     0.0000   0.0000   0.0000

          k = 0.1250 0.3608 0.0972 (  3782 PWs)   bands (ev):

   -91.5480 -54.8138 -54.7875 -54.7564 -49.8403 -21.8775 -21.7336 -21.7042
   -14.3828 -13.5123  -1.5710  -1.0867  -0.4827   0.0600   0.6498   2.2331
     3.1425   3.4608   3.6702   3.9353   5.4721   5.8692   7.9577  11.5790
    12.1252  14.2920  15.8819

     occupation numbers 
     1.0000   1.0000   1.0000   1.0000   1.0000   1.0000   1.0000   1.0000
     1.0000   1.0000   1.0000   1.0000   1.0000   1.0000   1.0000   1.0000
     1.0103   1.0817   0.8117   0.1722   0.0000   0.0000   0.0000   0.0000
     0.0000   0.0000   0.0000

          k = 0.1250 0.5052 0.0000 (  3784 PWs)   bands (ev):

   -91.5468 -54.8263 -54.7924 -54.7543 -49.8313 -21.9423 -21.7582 -21.6920
   -13.9314 -13.6164  -2.0912  -1.0852  -0.2300   0.3136   0.6063   1.6556
     2.9825   3.2044   3.6414   5.5618   5.8743   6.0424   8.8058   9.8549
    12.5815  13.5340  14.9508

     occupation numbers 
     1.0000   1.0000   1.0000   1.0000   1.0000   1.0000   1.0000   1.0000
     1.0000   1.0000   1.0000   1.0000   1.0000   1.0000   1.0000   1.0000
     1.0010   1.0207   0.8784   0.0000   0.0000   0.0000   0.0000   0.0000
     0.0000   0.0000   0.0000

          k = 0.1250 0.5052 0.0972 (  3793 PWs)   bands (ev):

   -91.5468 -54.8264 -54.7924 -54.7544 -49.8313 -21.9424 -21.7582 -21.6921
   -13.9314 -13.6164  -2.0912  -1.0853  -0.2301   0.3139   0.6063   1.6561
     2.9823   3.2045   3.6408   5.5403   5.9152   6.0239   8.8013   9.8545
    12.6191  13.5190  15.0164

     occupation numbers 
     1.0000   1.0000   1.0000   1.0000   1.0000   1.0000   1.0000   1.0000
     1.0000   1.0000   1.0000   1.0000   1.0000   1.0000   1.0000   1.0000
     1.0010   1.0207   0.8797   0.0000   0.0000   0.0000   0.0000   0.0000
     0.0000   0.0000   0.0000

          k = 0.2500 0.4330 0.0000 (  3781 PWs)   bands (ev):

   -91.5468 -54.8201 -54.7986 -54.7544 -49.8313 -21.9088 -21.7920 -21.6921
   -13.9836 -13.5646  -1.5478  -1.3813  -0.4704   0.2604   0.4351   1.6688
     3.0507   3.3022   3.8241   5.4055   5.6476   5.8078   9.5502  10.0298
    12.4728  14.3404  14.8065

     occupation numbers 
     1.0000   1.0000   1.0000   1.0000   1.0000   1.0000   1.0000   1.0000
     1.0000   1.0000   1.0000   1.0000   1.0000   1.0000   1.0000   1.0000
     1.0029   1.0487   0.4007   0.0000   0.0000   0.0000   0.0000   0.0000
     0.0000   0.0000   0.0000

          k = 0.2500 0.4330 0.0972 (  3790 PWs)   bands (ev):

   -91.5468 -54.8201 -54.7986 -54.7544 -49.8313 -21.9089 -21.7921 -21.6922
   -13.9836 -13.5646  -1.5479  -1.3815  -0.4704   0.2604   0.4357   1.6687
     3.0508   3.3025   3.8218   5.4245   5.6390   5.7941   9.5715  10.0261
    12.4455  14.3254  14.8616

     occupation numbers 
     1.0000   1.0000   1.0000   1.0000   1.0000   1.0000   1.0000   1.0000
     1.0000   1.0000   1.0000   1.0000   1.0000   1.0000   1.0000   1.0000
     1.0029   1.0488   0.4064   0.0000   0.0000   0.0000   0.0000   0.0000
     0.0000   0.0000   0.0000

          k = 0.2500 0.5774 0.0000 (  3794 PWs)   bands (ev):

   -91.5463 -54.8206 -54.8054 -54.7535 -49.8276 -21.9102 -21.8280 -21.6870
   -13.7734 -13.6224  -1.6922  -1.3121  -0.6329   0.4008   0.6644   1.2109
     2.8039   3.4949   3.7386   5.6353   5.6518   7.3192   8.3325  11.5486
    11.8828  12.2997  14.6292

     occupation numbers 
     1.0000   1.0000   1.0000   1.0000   1.0000   1.0000   1.0000   1.0000
     1.0000   1.0000   1.0000   1.0000   1.0000   1.0000   1.0000   1.0000
     1.0000   1.0713   0.6310   0.0000   0.0000   0.0000   0.0000   0.0000
     0.0000   0.0000   0.0000

          k = 0.2500 0.5774 0.0972 (  3783 PWs)   bands (ev):

   -91.5462 -54.8206 -54.8054 -54.7535 -49.8276 -21.9101 -21.8279 -21.6870
   -13.7734 -13.6224  -1.6922  -1.3121  -0.6328   0.4008   0.6644   1.2110
     2.8038   3.4950   3.7383   5.6361   5.6545   7.3127   8.3274  11.5694
    11.8850  12.3204  14.6435

     occupation numbers 
     1.0000   1.0000   1.0000   1.0000   1.0000   1.0000   1.0000   1.0000
     1.0000   1.0000   1.0000   1.0000   1.0000   1.0000   1.0000   1.0000
     1.0000   1.0712   0.6319   0.0000   0.0000   0.0000   0.0000   0.0000
     0.0000   0.0000   0.0000

          k = 0.0000-0.1443 0.0972 (  3806 PWs)   bands (ev):

   -91.5511 -54.7827 -54.7764 -54.7615 -49.8619 -21.7338 -21.7135 -21.6785
   -15.1874 -13.4531  -1.3569  -1.2277  -0.9784   1.3192   1.4871   1.8118
     2.4155   3.0141   3.2106   3.9734   5.7685   6.1726   6.2583  10.0682
    12.1802  14.5452  15.9671

     occupation numbers 
     1.0000   1.0000   1.0000   1.0000   1.0000   1.0000   1.0000   1.0000
     1.0000   1.0000   1.0000   1.0000   1.0000   1.0000   1.0000   1.0000
     1.0000   1.0016   1.0221   0.1203   0.0000   0.0000   0.0000   0.0000
     0.0000   0.0000   0.0000

          k = 0.0000-0.2887 0.0972 (  3778 PWs)   bands (ev):

   -91.5493 -54.8026 -54.7812 -54.7584 -49.8492 -21.8195 -21.7164 -21.7013
   -14.7381 -13.4793  -1.5261  -0.8828  -0.7178   0.0785   1.2316   2.3178
     2.8131   3.2129   3.4671   3.8735   5.2762   6.1297   7.0603  10.9778
    13.3664  13.7163  15.6425

     occupation numbers 
     1.0000   1.0000   1.0000   1.0000   1.0000   1.0000   1.0000   1.0000
     1.0000   1.0000   1.0000   1.0000   1.0000   1.0000   1.0000   1.0000
     1.0000   1.0226   1.0805   0.2856   0.0000   0.0000   0.0000   0.0000
     0.0000   0.0000   0.0000

          k = 0.0000-0.4330 0.0972 (  3794 PWs)   bands (ev):

   -91.5475 -54.8226 -54.7860 -54.7556 -49.8366 -21.9238 -21.7243 -21.6992
   -14.1972 -13.5571  -1.9899  -0.9436  -0.5101   0.1769   1.0175   1.9427
     3.0701   3.2708   3.5492   4.5578   5.4948   6.1642   8.6183  10.0564
    12.5032  13.9126  15.1169

     occupation numbers 
     1.0000   1.0000   1.0000   1.0000   1.0000   1.0000   1.0000   1.0000
     1.0000   1.0000   1.0000   1.0000   1.0000   1.0000   1.0000   1.0000
     1.0039   1.0384   1.0298   0.0000   0.0000   0.0000   0.0000   0.0000
     0.0000   0.0000   0.0000

          k =-0.1250-0.3608 0.0972 (  3782 PWs)   bands (ev):

   -91.5480 -54.8138 -54.7875 -54.7564 -49.8403 -21.8775 -21.7336 -21.7042
   -14.3828 -13.5123  -1.5710  -1.0868  -0.4829   0.0605   0.6497   2.2309
     3.1444   3.4679   3.6385   3.9765   5.4290   5.8816   7.9920  11.5334
    12.0885  14.4648  15.7867

     occupation numbers 
     1.0000   1.0000   1.0000   1.0000   1.0000   1.0000   1.0000   1.0000
     1.0000   1.0000   1.0000   1.0000   1.0000   1.0000   1.0000   1.0000
     1.0105   1.0804   0.8845   0.1166   0.0000   0.0000   0.0000   0.0000
     0.0000   0.0000   0.0000

          k =-0.1250-0.5052 0.0972 (  3793 PWs)   bands (ev):

   -91.5468 -54.8264 -54.7924 -54.7544 -49.8313 -21.9424 -21.7582 -21.6921
   -13.9314 -13.6164  -2.0913  -1.0853  -0.2301   0.3139   0.6064   1.6557
     2.9825   3.2045   3.6402   5.5733   5.8719   6.0279   8.8016   9.8885
    12.6098  13.3845  15.0546

     occupation numbers 
     1.0000   1.0000   1.0000   1.0000   1.0000   1.0000   1.0000   1.0000
     1.0000   1.0000   1.0000   1.0000   1.0000   1.0000   1.0000   1.0000
     1.0010   1.0207   0.8809   0.0000   0.0000   0.0000   0.0000   0.0000
     0.0000   0.0000   0.0000

     the Fermi energy is     3.8241 ev

!    total energy              =    -569.18193308 Ry
     total all-electron energy =     -3412.672488 Ry
     estimated scf accuracy    <       0.00000001 Ry
     smearing contrib. (-TS)   =       0.00149824 Ry
     internal energy E=F+TS    =    -569.18343132 Ry

     The total energy is F=E-TS. E is the sum of the following terms:
     one-electron contribution =    -703.68082571 Ry
     hartree contribution      =     364.33966197 Ry
     xc contribution           =     -59.96332780 Ry
     ewald contribution        =     -47.92390625 Ry
     one-center paw contrib.   =    -121.95503353 Ry
      -> PAW hartree energy AE =     342.40900441 Ry
      -> PAW hartree energy PS =    -342.41144611 Ry
      -> PAW xc energy AE      =    -178.88195600 Ry
      -> PAW xc energy PS      =      56.92936417 Ry
      -> total E_H with PAW    =     364.33722028 Ry
      -> total E_XC with PAW   =    -181.91591963 Ry

     convergence has been achieved in  18 iterations

     Forces acting on atoms (cartesian axes, Ry/au):

     atom    1 type  1   force =     0.00000000    0.00000000    0.01592681
     atom    2 type  2   force =     0.00000000    0.00000000   -0.04014208
     atom    3 type  2   force =    -0.00000000   -0.00000000    0.01096013
     atom    4 type  3   force =     0.00000000    0.00000000    0.01325513
     The non-local contrib.  to forces
     atom    1 type  1   force =     0.00000000    0.00000000    0.01352409
     atom    2 type  2   force =     0.00000000    0.00000000   -1.21391470
     atom    3 type  2   force =     0.00000000    0.00000000    0.99496002
     atom    4 type  3   force =     0.00000000    0.00000000    0.03762785
     The ionic contribution  to forces
     atom    1 type  1   force =    -0.00000000    0.00000000   11.30509344
     atom    2 type  2   force =     0.00000000   -0.00000000   39.00288123
     atom    3 type  2   force =    -0.00000000    0.00000000  -31.05345327
     atom    4 type  3   force =     0.00000000   -0.00000000  -19.25452139
     The local contribution  to forces
     atom    1 type  1   force =    -0.00000000   -0.00000000  -11.30235252
     atom    2 type  2   force =     0.00000001   -0.00000001  -37.83972114
     atom    3 type  2   force =    -0.00000001    0.00000001   30.07804889
     atom    4 type  3   force =    -0.00000000   -0.00000000   19.22985896
     The core correction contribution to forces
     atom    1 type  1   force =     0.00000000   -0.00000000   -0.00008897
     atom    2 type  2   force =    -0.00000000    0.00000000    0.01076432
     atom    3 type  2   force =     0.00000000   -0.00000000   -0.00856570
     atom    4 type  3   force =    -0.00000000    0.00000000   -0.00004171
     The Hubbard contrib.    to forces
     atom    1 type  1   force =     0.00000000    0.00000000    0.00000000
     atom    2 type  2   force =     0.00000000    0.00000000    0.00000000
     atom    3 type  2   force =     0.00000000    0.00000000    0.00000000
     atom    4 type  3   force =     0.00000000    0.00000000    0.00000000
     The SCF correction term to forces
     atom    1 type  1   force =    -0.00000000   -0.00000000   -0.00025535
     atom    2 type  2   force =     0.00000000   -0.00000000   -0.00015792
     atom    3 type  2   force =    -0.00000000    0.00000000   -0.00003595
     atom    4 type  3   force =    -0.00000000   -0.00000000    0.00032529

     Total force =     0.046485     Total SCF correction =     0.000444

     Writing all to output data dir ./out/pw.save/ :
     XML data file, charge density, pseudopotentials, collected wavefunctions
 
     init_run     :     10.64s CPU      2.58s WALL (       1 calls)
     electrons    :     65.54s CPU     14.59s WALL (       1 calls)
     forces       :      0.35s CPU      0.31s WALL (       1 calls)

     Called by init_run:
     wfcinit      :      0.16s CPU      0.25s WALL (       1 calls)
     wfcinit:atom :      0.02s CPU      0.02s WALL (      25 calls)
     wfcinit:wfcr :      0.10s CPU      0.17s WALL (      25 calls)
     potinit      :      9.95s CPU      1.76s WALL (       1 calls)
     hinit0       :      0.43s CPU      0.42s WALL (       1 calls)

     Called by electrons:
     c_bands      :      6.34s CPU      6.44s WALL (      18 calls)
     sum_band     :      1.13s CPU      1.13s WALL (      18 calls)
     v_of_rho     :      0.30s CPU      0.13s WALL (      19 calls)
     v_h          :      0.24s CPU      0.04s WALL (      19 calls)
     v_xc         :      0.06s CPU      0.09s WALL (      20 calls)
     newd         :      0.44s CPU      0.36s WALL (      19 calls)
                                        0.36s GPU  (      19 calls)
     PAW_pot      :     59.94s CPU      6.48s WALL (      19 calls)
     mix_rho      :      0.49s CPU      0.48s WALL (      18 calls)

     Called by c_bands:
     init_us_2    :      0.40s CPU      0.39s WALL (     950 calls)
     cegterg      :      5.49s CPU      5.60s WALL (     450 calls)

     Called by sum_band:
     sum_band:wei :      0.01s CPU      0.01s WALL (      18 calls)
                                        0.01s GPU  (      18 calls)
     sum_band:loo :      0.70s CPU      0.70s WALL (      18 calls)
                                        0.70s GPU  (      18 calls)
     sum_band:buf :      0.12s CPU      0.13s WALL (     450 calls)
                                        0.12s GPU  (     450 calls)
     sum_band:ini :      0.19s CPU      0.19s WALL (     450 calls)
                                        0.18s GPU  (     450 calls)
     sum_band:cal :      0.02s CPU      0.03s WALL (     450 calls)
                                        0.02s GPU  (     450 calls)
     sum_band:bec :      0.10s CPU      0.11s WALL (     450 calls)
                                        0.10s GPU  (     450 calls)
     addusdens    :      0.32s CPU      0.32s WALL (      18 calls)
                                        0.32s GPU  (      18 calls)
     addusd:skk   :      0.00s CPU      0.00s WALL (      54 calls)
                                        0.00s GPU  (      54 calls)

     Called by *egterg:
     cdiaghg      :      1.87s CPU      1.97s WALL (    2142 calls)
                                        1.95s GPU  (    2142 calls)
     cegterg:over :      0.50s CPU      0.52s WALL (    1692 calls)
     cegterg:upda :      0.33s CPU      0.34s WALL (    1692 calls)
     cegterg:last :      0.06s CPU      0.06s WALL (     870 calls)
     h_psi        :      1.98s CPU      2.08s WALL (    2167 calls)
                                        2.05s GPU  (    2167 calls)
     s_psi        :      0.34s CPU      0.35s WALL (    2167 calls)
     g_psi        :      0.01s CPU      0.04s WALL (    1692 calls)
                                        0.02s GPU  (    1692 calls)

     Called by h_psi:
     h_psi:calbec :      0.08s CPU      0.15s WALL (    2167 calls)
                                        0.12s GPU  (    2167 calls)
     vloc_psi     :      1.36s CPU      1.40s WALL (    2167 calls)
                                        1.38s GPU  (    2167 calls)
     add_vuspsi   :      0.31s CPU      0.37s WALL (    2167 calls)
                                        0.34s GPU  (    2167 calls)

     General routines
     calbec       :      0.09s CPU      0.11s WALL (    2717 calls)
     fft          :      2.77s CPU      0.57s WALL (     256 calls)
                                        0.01s GPU  (     237 calls)
     ffts         :      3.88s CPU      0.79s WALL (     782 calls)
                                        0.02s GPU  (     763 calls)
     fftw         :      0.13s CPU      0.50s WALL (    7108 calls)
                                        0.42s GPU  (    7108 calls)
     interpolate  :      6.71s CPU      1.32s WALL (      19 calls)
 
     Parallel routines

     PAW routines
     PAW_pot      :     59.94s CPU      6.48s WALL (      19 calls)
     PAW_symme    :      0.01s CPU      0.00s WALL (      37 calls)
 
     PWSCF        :   1m17.17s CPU     17.98s WALL

 
   This run was terminated on:   4:23:26  12Jul2026            

=------------------------------------------------------------------------------=
   JOB DONE.
=------------------------------------------------------------------------------=
Warning: ieee_divide_by_zero is signaling
Warning: ieee_inexact is signaling
FORTRAN STOP
