
     Program PWSCF v.7.3.1 starts on 12Jul2026 at  5:41:47 

     This program is part of the open-source Quantum ESPRESSO suite
     for quantum simulation of materials; please cite
         "P. Giannozzi et al., J. Phys.:Condens. Matter 21 395502 (2009);
         "P. Giannozzi et al., J. Phys.:Condens. Matter 29 465901 (2017);
         "P. Giannozzi et al., J. Chem. Phys. 152 154105 (2020);
          URL http://www.quantum-espresso.org", 
     in publications or presentations arising from this work. More details at
     http://www.quantum-espresso.org/quote

     Parallel version (MPI & OpenMP), running on      14 processor cores
     Number of MPI processes:                 1
     Threads/MPI process:                    14

     MPI processes distributed on     1 nodes
     1365369 MiB available memory on the printing compute node when the environment starts
 
     Reading input from pw.in

     Current dimensions of program PWSCF are:
     Max number of different atomic species (ntypx) = 10
     Max number of k-points (npk) =  40000
     Max angular momentum in pseudopotentials (lmaxx) =  4
     file Co.pbe-spn-kjpaw_psl.0.3.1.UPF: wavefunction(s)  3P 3D renormalized
     file O.pbe-n-kjpaw_psl.1.0.0.UPF: wavefunction(s)  2S 2P renormalized
 
     Subspace diagonalization in iterative solution of the eigenvalue problem:
     a serial algorithm will be used

 
     G-vector sticks info
     --------------------
     sticks:   dense  smooth     PW     G-vecs:    dense   smooth      PW
     Sum         931     475    151                45403    15993    2651
 
     Using Slab Decomposition
 


     bravais-lattice index     =            4
     lattice parameter (alat)  =       5.3290  a.u.
     unit-cell volume          =     255.6161 (a.u.)^3
     number of atoms/cell      =            4
     number of atomic types    =            3
     number of electrons       =        32.10
     number of Kohn-Sham states=           24
     kinetic-energy cutoff     =      60.0000  Ry
     charge density cutoff     =     480.0000  Ry
     scf convergence threshold =      1.0E-07
     mixing beta               =       0.3000
     number of iterations used =            8  local-TF  mixing
     Exchange-correlation= SLA  PW   PBX  PBC
                           (   1   4   3   4   0   0   0)

     GPU acceleration is ACTIVE.  1 visible GPUs per MPI rank
     GPU-aware MPI enabled


     GPU used by master process:

        Device Number: 0
        Device name: NVIDIA A100-SXM4-80GB
        Compute capability : 80
        Ratio of single to double precision performance  : 2
        Memory Clock Rate (KHz): 1593000
        Memory Bus Width (bits): 5120
        Peak Memory Bandwidth (GB/s): ******

     celldm(1)=   5.329028  celldm(2)=   0.000000  celldm(3)=   1.950355
     celldm(4)=   0.000000  celldm(5)=   0.000000  celldm(6)=   0.000000

     crystal axes: (cart. coord. in units of alat)
               a(1) = (   1.000000   0.000000   0.000000 )  
               a(2) = (  -0.500000   0.866025   0.000000 )  
               a(3) = (   0.000000   0.000000   1.950355 )  

     reciprocal axes: (cart. coord. in units 2 pi/alat)
               b(1) = (  1.000000  0.577350 -0.000000 )  
               b(2) = (  0.000000  1.154701  0.000000 )  
               b(3) = (  0.000000 -0.000000  0.512727 )  


     PseudoPot. # 1 for Co read from file:
     ../../pseudo/Co.pbe-spn-kjpaw_psl.0.3.1.UPF
     MD5 check sum: 3c0a43779828c046024e4f3be63f8e67
     Pseudo is Projector augmented-wave + core cor, Zval = 17.0
     Generated using &quot;atomic&quot; code by A. Dal Corso  v.6.2.2
     Shape of augmentation charge: PSQ
     Using radial grid of 1193 points,  6 beta functions with: 
                l(1) =   0
                l(2) =   0
                l(3) =   1
                l(4) =   1
                l(5) =   2
                l(6) =   2
     Q(r) pseudized with 0 coefficients 


     PseudoPot. # 2 for O  read from file:
     ../../pseudo/O.pbe-n-kjpaw_psl.1.0.0.UPF
     MD5 check sum: e99d9cef9b487d1ca56f5b95ecd0fd7a
     Pseudo is Projector augmented-wave + core cor, Zval =  6.0
     Generated using &quot;atomic&quot; code by A. Dal Corso  v.6.3
     Shape of augmentation charge: PSQ
     Using radial grid of 1095 points,  4 beta functions with: 
                l(1) =   0
                l(2) =   0
                l(3) =   1
                l(4) =   1
     Q(r) pseudized with 0 coefficients 


     PseudoPot. # 3 for Li read from file:
     ../../pseudo/Li.pbe-s-kjpaw_psl.1.0.0.UPF
     MD5 check sum: 3974953fb0fea6c4f83fb01d64ffc134
     Pseudo is Projector augmented-wave, Zval =  3.0
     Generated using &quot;atomic&quot; code by A. Dal Corso  v.6.3
     Shape of augmentation charge: PSQ
     Using radial grid of 1017 points,  4 beta functions with: 
                l(1) =   0
                l(2) =   0
                l(3) =   1
                l(4) =   1
     Q(r) pseudized with 0 coefficients 


     atomic species   valence    mass     pseudopotential
     Co               17.00    58.93300     Co( 1.00)
     O                 6.00    15.99900     O ( 1.00)
     Li                3.00     6.94100     Li( 1.00)

     Starting magnetic structure 
     atomic species   magnetization
     Co              0.300
     O               0.000
     Li              0.000

      6 Sym. Ops. (no inversion) found


                                    s                        frac. trans.

      isym =  1     identity                                     

 cryst.   s( 1) = (     1          0          0      )
                  (     0          1          0      )
                  (     0          0          1      )

 cart.    s( 1) = (  1.0000000  0.0000000  0.0000000 )
                  (  0.0000000  1.0000000  0.0000000 )
                  (  0.0000000  0.0000000  1.0000000 )


      isym =  2     120 deg rotation - cryst. axis [0,0,1]       

 cryst.   s( 2) = (     0          1          0      )
                  (    -1         -1          0      )
                  (     0          0          1      )

 cart.    s( 2) = ( -0.5000000 -0.8660254  0.0000000 )
                  (  0.8660254 -0.5000000  0.0000000 )
                  (  0.0000000  0.0000000  1.0000000 )


      isym =  3     120 deg rotation - cryst. axis [0,0,-1]      

 cryst.   s( 3) = (    -1         -1          0      )
                  (     1          0          0      )
                  (     0          0          1      )

 cart.    s( 3) = ( -0.5000000  0.8660254  0.0000000 )
                  ( -0.8660254 -0.5000000  0.0000000 )
                  (  0.0000000  0.0000000  1.0000000 )


      isym =  4     inv. 180 deg rotation - cart. axis [1,0,0]   

 cryst.   s( 4) = (    -1          0          0      )
                  (     1          1          0      )
                  (     0          0          1      )

 cart.    s( 4) = ( -1.0000000  0.0000000  0.0000000 )
                  (  0.0000000  1.0000000  0.0000000 )
                  (  0.0000000  0.0000000  1.0000000 )


      isym =  5     inv. 180 deg rotation - cryst. axis [0,1,0]  

 cryst.   s( 5) = (     1          1          0      )
                  (     0         -1          0      )
                  (     0          0          1      )

 cart.    s( 5) = (  0.5000000  0.8660254  0.0000000 )
                  (  0.8660254 -0.5000000  0.0000000 )
                  (  0.0000000  0.0000000  1.0000000 )


      isym =  6     inv. 180 deg rotation - cryst. axis [1,1,0]  

 cryst.   s( 6) = (     0         -1          0      )
                  (    -1          0          0      )
                  (     0          0          1      )

 cart.    s( 6) = (  0.5000000 -0.8660254  0.0000000 )
                  ( -0.8660254 -0.5000000  0.0000000 )
                  (  0.0000000  0.0000000  1.0000000 )


     point group C_3v (3m)  
     there are  3 classes
     the character table:

       E     2C3   3s_v 
A_1    1.00  1.00  1.00
A_2    1.00  1.00 -1.00
E      2.00 -1.00  0.00

     the symmetry operations in each class and the name of the first element:

     E        1
          identity                                               
     2C3      2    3
          120 deg rotation - cryst. axis [0,0,1]                 
     3s_v     4    5    6
          inv. 180 deg rotation - cart. axis [1,0,0]             

   Cartesian axes

     site n.     atom                  positions (alat units)
         1        Co     tau(   1) = (   0.0000000   0.0000000   0.0000000  )
         2        O      tau(   2) = (  -0.0000000   0.5773503   0.3404255  )
         3        O      tau(   3) = (   0.5000000   0.2886751   1.6099291  )
         4        Li     tau(   4) = (   0.0000000   0.0000000   1.1524823  )

   Crystallographic axes

     site n.     atom                  positions (cryst. coord.)
         1        Co     tau(   1) = (  0.0000000  0.0000000  0.0000000  )
         2        O      tau(   2) = (  0.3333333  0.6666667  0.1745455  )
         3        O      tau(   3) = (  0.6666667  0.3333333  0.8254545  )
         4        Li     tau(   4) = (  0.0000000  0.0000000  0.5909091  )

     number of k points=    25  Marzari-Vanderbilt smearing, width (Ry)=  0.0200
                       cart. coord. in units 2pi/alat
        k(    1) = (   0.0000000   0.0000000   0.0000000), wk =   0.0052083
        k(    2) = (   0.0000000   0.0000000   0.1709091), wk =   0.0104167
        k(    3) = (   0.0000000   0.1443376   0.0000000), wk =   0.0312500
        k(    4) = (   0.0000000   0.1443376   0.1709091), wk =   0.0312500
        k(    5) = (   0.0000000   0.2886751   0.0000000), wk =   0.0312500
        k(    6) = (   0.0000000   0.2886751   0.1709091), wk =   0.0312500
        k(    7) = (   0.0000000   0.4330127   0.0000000), wk =   0.0312500
        k(    8) = (   0.0000000   0.4330127   0.1709091), wk =   0.0312500
        k(    9) = (   0.0000000  -0.5773503   0.0000000), wk =   0.0156250
        k(   10) = (   0.0000000  -0.5773503   0.1709091), wk =   0.0312500
        k(   11) = (   0.1250000   0.2165064   0.0000000), wk =   0.0312500
        k(   12) = (   0.1250000   0.2165064   0.1709091), wk =   0.0625000
        k(   13) = (   0.1250000   0.3608439   0.0000000), wk =   0.0625000
        k(   14) = (   0.1250000   0.3608439   0.1709091), wk =   0.0625000
        k(   15) = (   0.1250000   0.5051815   0.0000000), wk =   0.0625000
        k(   16) = (   0.1250000   0.5051815   0.1709091), wk =   0.0625000
        k(   17) = (   0.2500000   0.4330127   0.0000000), wk =   0.0312500
        k(   18) = (   0.2500000   0.4330127   0.1709091), wk =   0.0625000
        k(   19) = (   0.2500000   0.5773503   0.0000000), wk =   0.0312500
        k(   20) = (   0.2500000   0.5773503   0.1709091), wk =   0.0625000
        k(   21) = (   0.0000000  -0.1443376   0.1709091), wk =   0.0312500
        k(   22) = (   0.0000000  -0.2886751   0.1709091), wk =   0.0312500
        k(   23) = (   0.0000000  -0.4330127   0.1709091), wk =   0.0312500
        k(   24) = (  -0.1250000  -0.3608439   0.1709091), wk =   0.0625000
        k(   25) = (  -0.1250000  -0.5051815   0.1709091), wk =   0.0625000

                       cryst. coord.
        k(    1) = (   0.0000000   0.0000000   0.0000000), wk =   0.0052083
        k(    2) = (   0.0000000   0.0000000   0.3333333), wk =   0.0104167
        k(    3) = (   0.0000000   0.1250000   0.0000000), wk =   0.0312500
        k(    4) = (   0.0000000   0.1250000   0.3333333), wk =   0.0312500
        k(    5) = (   0.0000000   0.2500000   0.0000000), wk =   0.0312500
        k(    6) = (   0.0000000   0.2500000   0.3333333), wk =   0.0312500
        k(    7) = (   0.0000000   0.3750000   0.0000000), wk =   0.0312500
        k(    8) = (   0.0000000   0.3750000   0.3333333), wk =   0.0312500
        k(    9) = (   0.0000000  -0.5000000   0.0000000), wk =   0.0156250
        k(   10) = (   0.0000000  -0.5000000   0.3333333), wk =   0.0312500
        k(   11) = (   0.1250000   0.1250000   0.0000000), wk =   0.0312500
        k(   12) = (   0.1250000   0.1250000   0.3333333), wk =   0.0625000
        k(   13) = (   0.1250000   0.2500000   0.0000000), wk =   0.0625000
        k(   14) = (   0.1250000   0.2500000   0.3333333), wk =   0.0625000
        k(   15) = (   0.1250000   0.3750000   0.0000000), wk =   0.0625000
        k(   16) = (   0.1250000   0.3750000   0.3333333), wk =   0.0625000
        k(   17) = (   0.2500000   0.2500000   0.0000000), wk =   0.0312500
        k(   18) = (   0.2500000   0.2500000   0.3333333), wk =   0.0625000
        k(   19) = (   0.2500000   0.3750000   0.0000000), wk =   0.0312500
        k(   20) = (   0.2500000   0.3750000   0.3333333), wk =   0.0625000
        k(   21) = (   0.0000000  -0.1250000   0.3333333), wk =   0.0312500
        k(   22) = (   0.0000000  -0.2500000   0.3333333), wk =   0.0312500
        k(   23) = (   0.0000000  -0.3750000   0.3333333), wk =   0.0312500
        k(   24) = (  -0.1250000  -0.2500000   0.3333333), wk =   0.0625000
        k(   25) = (  -0.1250000  -0.3750000   0.3333333), wk =   0.0625000

     Dense  grid:    45403 G-vectors     FFT dimensions: (  40,  40,  75)

     Smooth grid:    15993 G-vectors     FFT dimensions: (  27,  27,  54)

     Dynamical RAM for                 wfc:       0.73 MB

     Dynamical RAM for     wfc (w. buffer):      37.47 MB

     Dynamical RAM for           str. fact:       2.08 MB

     Dynamical RAM for           local pot:       0.00 MB

     Dynamical RAM for          nlocal pot:       1.29 MB

     Dynamical RAM for                qrad:       5.27 MB

     Dynamical RAM for          rho,v,vnew:       9.65 MB

     Dynamical RAM for               rhoin:       3.22 MB

     Dynamical RAM for            rho*nmix:      22.17 MB

     Dynamical RAM for           G-vectors:       2.72 MB

     Dynamical RAM for          h,s,v(r/c):       0.11 MB

     Dynamical RAM for          <psi|beta>:       0.02 MB

     Dynamical RAM for                 psi:       1.47 MB

     Dynamical RAM for                hpsi:       1.47 MB

     Dynamical RAM for                spsi:       1.47 MB

     Dynamical RAM for      wfcinit/wfcrot:       1.48 MB

     Dynamical RAM for           addusdens:     130.94 MB

     Dynamical RAM for          addusforce:     132.34 MB

     Estimated static dynamical RAM per process >      69.95 MB

     Estimated max dynamical RAM per process >     224.46 MB

     Check: negative core charge=   -0.000009
     Generating pointlists ...
     new r_m :   0.2765 (alat units)  1.4733 (a.u.) for type    1
     new r_m :   0.2765 (alat units)  1.4733 (a.u.) for type    2
     new r_m :   0.3039 (alat units)  1.6192 (a.u.) for type    3

     Initial potential from superposition of free atoms

     starting charge      31.9951, renormalised to      32.1000
     Starting wfcs are   23 randomized atomic wfcs +    1 random wfcs
     Checking if some PAW data can be deallocated... 

     total cpu time spent up to now is        2.8 secs

     Self-consistent Calculation
[tb_dev] Currently allocated     6.36E-01 Mbytes, locked:    0 /   6
[tb_pin] Currently allocated     0.00E+00 Mbytes, locked:    0 /   0

     iteration #  1     ecut=    60.00 Ry     beta= 0.30
     Davidson diagonalization with overlap

---- Real-time Memory Report at c_bands before calling an iterative solver
           644 MiB given to the printing process from OS
             0 MiB allocation reported by mallinfo(arena+hblkhd)
       1365211 MiB available memory on the node where the printing process lives
     GPU memory used/free/total (MiB): 916 / 80234 / 81151
------------------
     ethr =  1.00E-02,  avg # of iterations =  8.3

     total cpu time spent up to now is        4.7 secs

     total energy              =    -474.86725401 Ry
     estimated scf accuracy    <       1.32419887 Ry

     total magnetization       =     3.90 Bohr mag/cell
     absolute magnetization    =     3.90 Bohr mag/cell
[tb_dev] Currently allocated     3.05E-05 Mbytes, locked:    0 /   2
[tb_pin] Currently allocated     0.00E+00 Mbytes, locked:    0 /   0

     iteration #  2     ecut=    60.00 Ry     beta= 0.30
     Davidson diagonalization with overlap

---- Real-time Memory Report at c_bands before calling an iterative solver
           687 MiB given to the printing process from OS
             0 MiB allocation reported by mallinfo(arena+hblkhd)
       1365264 MiB available memory on the node where the printing process lives
     GPU memory used/free/total (MiB): 928 / 80222 / 81151
------------------
     ethr =  4.13E-03,  avg # of iterations =  1.9

     total cpu time spent up to now is        5.7 secs

     total energy              =    -474.83586578 Ry
     estimated scf accuracy    <       0.42424738 Ry

     total magnetization       =     3.90 Bohr mag/cell
     absolute magnetization    =     3.90 Bohr mag/cell
[tb_dev] Currently allocated     3.05E-05 Mbytes, locked:    0 /   2
[tb_pin] Currently allocated     0.00E+00 Mbytes, locked:    0 /   0

     iteration #  3     ecut=    60.00 Ry     beta= 0.30
     Davidson diagonalization with overlap

---- Real-time Memory Report at c_bands before calling an iterative solver
           689 MiB given to the printing process from OS
             0 MiB allocation reported by mallinfo(arena+hblkhd)
       1365315 MiB available memory on the node where the printing process lives
     GPU memory used/free/total (MiB): 928 / 80222 / 81151
------------------
     ethr =  1.32E-03,  avg # of iterations =  2.2

     total cpu time spent up to now is        6.8 secs

     total energy              =    -475.02396251 Ry
     estimated scf accuracy    <       0.73979822 Ry

     total magnetization       =     1.62 Bohr mag/cell
     absolute magnetization    =     1.79 Bohr mag/cell
[tb_dev] Currently allocated     3.05E-05 Mbytes, locked:    0 /   2
[tb_pin] Currently allocated     0.00E+00 Mbytes, locked:    0 /   0

     iteration #  4     ecut=    60.00 Ry     beta= 0.30
     Davidson diagonalization with overlap

---- Real-time Memory Report at c_bands before calling an iterative solver
           691 MiB given to the printing process from OS
             0 MiB allocation reported by mallinfo(arena+hblkhd)
       1365315 MiB available memory on the node where the printing process lives
     GPU memory used/free/total (MiB): 928 / 80222 / 81151
------------------
     ethr =  1.32E-03,  avg # of iterations =  1.1

     total cpu time spent up to now is        7.8 secs

     total energy              =    -475.07199054 Ry
     estimated scf accuracy    <       0.94757224 Ry

     total magnetization       =     1.49 Bohr mag/cell
     absolute magnetization    =     1.70 Bohr mag/cell
[tb_dev] Currently allocated     3.05E-05 Mbytes, locked:    0 /   2
[tb_pin] Currently allocated     0.00E+00 Mbytes, locked:    0 /   0

     iteration #  5     ecut=    60.00 Ry     beta= 0.30
     Davidson diagonalization with overlap

---- Real-time Memory Report at c_bands before calling an iterative solver
           692 MiB given to the printing process from OS
             0 MiB allocation reported by mallinfo(arena+hblkhd)
       1365372 MiB available memory on the node where the printing process lives
     GPU memory used/free/total (MiB): 928 / 80222 / 81151
------------------
     ethr =  1.32E-03,  avg # of iterations =  1.0

     total cpu time spent up to now is        8.8 secs

     total energy              =    -475.05861034 Ry
     estimated scf accuracy    <       1.09524248 Ry

     total magnetization       =     0.88 Bohr mag/cell
     absolute magnetization    =     1.26 Bohr mag/cell
[tb_dev] Currently allocated     3.05E-05 Mbytes, locked:    0 /   2
[tb_pin] Currently allocated     0.00E+00 Mbytes, locked:    0 /   0

     iteration #  6     ecut=    60.00 Ry     beta= 0.30
     Davidson diagonalization with overlap

---- Real-time Memory Report at c_bands before calling an iterative solver
           693 MiB given to the printing process from OS
             0 MiB allocation reported by mallinfo(arena+hblkhd)
       1365446 MiB available memory on the node where the printing process lives
     GPU memory used/free/total (MiB): 928 / 80222 / 81151
------------------
     ethr =  1.32E-03,  avg # of iterations =  1.0

     total cpu time spent up to now is        9.8 secs

     total energy              =    -475.07068804 Ry
     estimated scf accuracy    <       0.63185046 Ry

     total magnetization       =     0.55 Bohr mag/cell
     absolute magnetization    =     1.03 Bohr mag/cell
[tb_dev] Currently allocated     3.05E-05 Mbytes, locked:    0 /   2
[tb_pin] Currently allocated     0.00E+00 Mbytes, locked:    0 /   0

     iteration #  7     ecut=    60.00 Ry     beta= 0.30
     Davidson diagonalization with overlap

---- Real-time Memory Report at c_bands before calling an iterative solver
           694 MiB given to the printing process from OS
             0 MiB allocation reported by mallinfo(arena+hblkhd)
       1365497 MiB available memory on the node where the printing process lives
     GPU memory used/free/total (MiB): 928 / 80222 / 81151
------------------
     ethr =  1.32E-03,  avg # of iterations =  1.0

     total cpu time spent up to now is       10.8 secs

     total energy              =    -475.09041734 Ry
     estimated scf accuracy    <       0.58153622 Ry

     total magnetization       =     0.49 Bohr mag/cell
     absolute magnetization    =     0.99 Bohr mag/cell
[tb_dev] Currently allocated     3.05E-05 Mbytes, locked:    0 /   2
[tb_pin] Currently allocated     0.00E+00 Mbytes, locked:    0 /   0

     iteration #  8     ecut=    60.00 Ry     beta= 0.30
     Davidson diagonalization with overlap

---- Real-time Memory Report at c_bands before calling an iterative solver
           695 MiB given to the printing process from OS
             0 MiB allocation reported by mallinfo(arena+hblkhd)
       1365553 MiB available memory on the node where the printing process lives
     GPU memory used/free/total (MiB): 928 / 80222 / 81151
------------------
     ethr =  1.32E-03,  avg # of iterations =  1.0

     total cpu time spent up to now is       11.8 secs

     total energy              =    -475.09019845 Ry
     estimated scf accuracy    <       0.45545132 Ry

     total magnetization       =     0.09 Bohr mag/cell
     absolute magnetization    =     0.73 Bohr mag/cell
[tb_dev] Currently allocated     3.05E-05 Mbytes, locked:    0 /   2
[tb_pin] Currently allocated     0.00E+00 Mbytes, locked:    0 /   0

     iteration #  9     ecut=    60.00 Ry     beta= 0.30
     Davidson diagonalization with overlap

---- Real-time Memory Report at c_bands before calling an iterative solver
           696 MiB given to the printing process from OS
             0 MiB allocation reported by mallinfo(arena+hblkhd)
       1365628 MiB available memory on the node where the printing process lives
     GPU memory used/free/total (MiB): 928 / 80222 / 81151
------------------
     ethr =  1.32E-03,  avg # of iterations =  1.0

     total cpu time spent up to now is       12.7 secs

     total energy              =    -475.09440858 Ry
     estimated scf accuracy    <       0.09579257 Ry

     total magnetization       =     0.08 Bohr mag/cell
     absolute magnetization    =     0.26 Bohr mag/cell
[tb_dev] Currently allocated     3.05E-05 Mbytes, locked:    0 /   2
[tb_pin] Currently allocated     0.00E+00 Mbytes, locked:    0 /   0

     iteration # 10     ecut=    60.00 Ry     beta= 0.30
     Davidson diagonalization with overlap

---- Real-time Memory Report at c_bands before calling an iterative solver
           697 MiB given to the printing process from OS
             0 MiB allocation reported by mallinfo(arena+hblkhd)
       1365694 MiB available memory on the node where the printing process lives
     GPU memory used/free/total (MiB): 928 / 80222 / 81151
------------------
     ethr =  2.98E-04,  avg # of iterations =  1.4

     total cpu time spent up to now is       13.8 secs

     total energy              =    -475.09829595 Ry
     estimated scf accuracy    <       0.02006804 Ry

     total magnetization       =     0.10 Bohr mag/cell
     absolute magnetization    =     0.28 Bohr mag/cell
[tb_dev] Currently allocated     3.05E-05 Mbytes, locked:    0 /   2
[tb_pin] Currently allocated     0.00E+00 Mbytes, locked:    0 /   0

     iteration # 11     ecut=    60.00 Ry     beta= 0.30
     Davidson diagonalization with overlap

---- Real-time Memory Report at c_bands before calling an iterative solver
           697 MiB given to the printing process from OS
             0 MiB allocation reported by mallinfo(arena+hblkhd)
       1366277 MiB available memory on the node where the printing process lives
     GPU memory used/free/total (MiB): 928 / 80222 / 81151
------------------
     ethr =  6.25E-05,  avg # of iterations =  3.3

     total cpu time spent up to now is       15.0 secs

     total energy              =    -475.09988452 Ry
     estimated scf accuracy    <       0.00281160 Ry

     total magnetization       =     0.07 Bohr mag/cell
     absolute magnetization    =     0.18 Bohr mag/cell
[tb_dev] Currently allocated     3.05E-05 Mbytes, locked:    0 /   2
[tb_pin] Currently allocated     0.00E+00 Mbytes, locked:    0 /   0

     iteration # 12     ecut=    60.00 Ry     beta= 0.30
     Davidson diagonalization with overlap

---- Real-time Memory Report at c_bands before calling an iterative solver
           697 MiB given to the printing process from OS
             0 MiB allocation reported by mallinfo(arena+hblkhd)
       1366116 MiB available memory on the node where the printing process lives
     GPU memory used/free/total (MiB): 928 / 80222 / 81151
------------------
     c_bands:  1 eigenvalues not converged
     ethr =  8.76E-06,  avg # of iterations =  6.9

     total cpu time spent up to now is       16.6 secs

     total energy              =    -475.10125744 Ry
     estimated scf accuracy    <       0.00069900 Ry

     total magnetization       =     0.02 Bohr mag/cell
     absolute magnetization    =     0.05 Bohr mag/cell
[tb_dev] Currently allocated     3.05E-05 Mbytes, locked:    0 /   2
[tb_pin] Currently allocated     0.00E+00 Mbytes, locked:    0 /   0

     iteration # 13     ecut=    60.00 Ry     beta= 0.30
     Davidson diagonalization with overlap

---- Real-time Memory Report at c_bands before calling an iterative solver
           698 MiB given to the printing process from OS
             0 MiB allocation reported by mallinfo(arena+hblkhd)
       1366158 MiB available memory on the node where the printing process lives
     GPU memory used/free/total (MiB): 928 / 80222 / 81151
------------------
     ethr =  2.18E-06,  avg # of iterations =  4.5

     total cpu time spent up to now is       18.0 secs

     total energy              =    -475.10142583 Ry
     estimated scf accuracy    <       0.00024956 Ry

     total magnetization       =     0.02 Bohr mag/cell
     absolute magnetization    =     0.05 Bohr mag/cell
[tb_dev] Currently allocated     3.05E-05 Mbytes, locked:    0 /   2
[tb_pin] Currently allocated     0.00E+00 Mbytes, locked:    0 /   0

     iteration # 14     ecut=    60.00 Ry     beta= 0.30
     Davidson diagonalization with overlap

---- Real-time Memory Report at c_bands before calling an iterative solver
           698 MiB given to the printing process from OS
             0 MiB allocation reported by mallinfo(arena+hblkhd)
       1366064 MiB available memory on the node where the printing process lives
     GPU memory used/free/total (MiB): 928 / 80222 / 81151
------------------
     ethr =  7.77E-07,  avg # of iterations =  2.9

     total cpu time spent up to now is       19.1 secs

     total energy              =    -475.10129039 Ry
     estimated scf accuracy    <       0.00017152 Ry

     total magnetization       =     0.02 Bohr mag/cell
     absolute magnetization    =     0.04 Bohr mag/cell
[tb_dev] Currently allocated     3.05E-05 Mbytes, locked:    0 /   2
[tb_pin] Currently allocated     0.00E+00 Mbytes, locked:    0 /   0

     iteration # 15     ecut=    60.00 Ry     beta= 0.30
     Davidson diagonalization with overlap

---- Real-time Memory Report at c_bands before calling an iterative solver
           698 MiB given to the printing process from OS
             0 MiB allocation reported by mallinfo(arena+hblkhd)
       1366074 MiB available memory on the node where the printing process lives
     GPU memory used/free/total (MiB): 928 / 80222 / 81151
------------------
     ethr =  5.34E-07,  avg # of iterations =  2.5

     total cpu time spent up to now is       20.3 secs

     total energy              =    -475.10142942 Ry
     estimated scf accuracy    <       0.00022508 Ry

     total magnetization       =     0.04 Bohr mag/cell
     absolute magnetization    =     0.06 Bohr mag/cell
[tb_dev] Currently allocated     3.05E-05 Mbytes, locked:    0 /   2
[tb_pin] Currently allocated     0.00E+00 Mbytes, locked:    0 /   0

     iteration # 16     ecut=    60.00 Ry     beta= 0.30
     Davidson diagonalization with overlap

---- Real-time Memory Report at c_bands before calling an iterative solver
           698 MiB given to the printing process from OS
             0 MiB allocation reported by mallinfo(arena+hblkhd)
       1366077 MiB available memory on the node where the printing process lives
     GPU memory used/free/total (MiB): 928 / 80222 / 81151
------------------
     ethr =  5.34E-07,  avg # of iterations =  1.1

     total cpu time spent up to now is       21.3 secs

     total energy              =    -475.10146169 Ry
     estimated scf accuracy    <       0.00008202 Ry

     total magnetization       =     0.03 Bohr mag/cell
     absolute magnetization    =     0.04 Bohr mag/cell
[tb_dev] Currently allocated     3.05E-05 Mbytes, locked:    0 /   2
[tb_pin] Currently allocated     0.00E+00 Mbytes, locked:    0 /   0

     iteration # 17     ecut=    60.00 Ry     beta= 0.30
     Davidson diagonalization with overlap

---- Real-time Memory Report at c_bands before calling an iterative solver
           698 MiB given to the printing process from OS
             0 MiB allocation reported by mallinfo(arena+hblkhd)
       1366114 MiB available memory on the node where the printing process lives
     GPU memory used/free/total (MiB): 928 / 80222 / 81151
------------------
     ethr =  2.56E-07,  avg # of iterations =  1.7

     total cpu time spent up to now is       22.3 secs

     total energy              =    -475.10148425 Ry
     estimated scf accuracy    <       0.00000941 Ry

     total magnetization       =     0.02 Bohr mag/cell
     absolute magnetization    =     0.03 Bohr mag/cell
[tb_dev] Currently allocated     3.05E-05 Mbytes, locked:    0 /   2
[tb_pin] Currently allocated     0.00E+00 Mbytes, locked:    0 /   0

     iteration # 18     ecut=    60.00 Ry     beta= 0.30
     Davidson diagonalization with overlap

---- Real-time Memory Report at c_bands before calling an iterative solver
           698 MiB given to the printing process from OS
             0 MiB allocation reported by mallinfo(arena+hblkhd)
       1366190 MiB available memory on the node where the printing process lives
     GPU memory used/free/total (MiB): 928 / 80222 / 81151
------------------
     ethr =  2.93E-08,  avg # of iterations =  7.0

     total cpu time spent up to now is       24.1 secs

     total energy              =    -475.10149352 Ry
     estimated scf accuracy    <       0.00000477 Ry

     total magnetization       =     0.01 Bohr mag/cell
     absolute magnetization    =     0.02 Bohr mag/cell
[tb_dev] Currently allocated     3.05E-05 Mbytes, locked:    0 /   2
[tb_pin] Currently allocated     0.00E+00 Mbytes, locked:    0 /   0

     iteration # 19     ecut=    60.00 Ry     beta= 0.30
     Davidson diagonalization with overlap

---- Real-time Memory Report at c_bands before calling an iterative solver
           698 MiB given to the printing process from OS
             0 MiB allocation reported by mallinfo(arena+hblkhd)
       1366277 MiB available memory on the node where the printing process lives
     GPU memory used/free/total (MiB): 928 / 80222 / 81151
------------------
     ethr =  1.48E-08,  avg # of iterations =  2.3

     total cpu time spent up to now is       25.2 secs

     total energy              =    -475.10149322 Ry
     estimated scf accuracy    <       0.00000246 Ry

     total magnetization       =     0.01 Bohr mag/cell
     absolute magnetization    =     0.02 Bohr mag/cell
[tb_dev] Currently allocated     3.05E-05 Mbytes, locked:    0 /   2
[tb_pin] Currently allocated     0.00E+00 Mbytes, locked:    0 /   0

     iteration # 20     ecut=    60.00 Ry     beta= 0.30
     Davidson diagonalization with overlap

---- Real-time Memory Report at c_bands before calling an iterative solver
           698 MiB given to the printing process from OS
             0 MiB allocation reported by mallinfo(arena+hblkhd)
       1366374 MiB available memory on the node where the printing process lives
     GPU memory used/free/total (MiB): 928 / 80222 / 81151
------------------
     ethr =  7.65E-09,  avg # of iterations =  3.8

     total cpu time spent up to now is       26.5 secs

     total energy              =    -475.10149845 Ry
     estimated scf accuracy    <       0.00000052 Ry

     total magnetization       =     0.00 Bohr mag/cell
     absolute magnetization    =     0.00 Bohr mag/cell
[tb_dev] Currently allocated     3.05E-05 Mbytes, locked:    0 /   2
[tb_pin] Currently allocated     0.00E+00 Mbytes, locked:    0 /   0

     iteration # 21     ecut=    60.00 Ry     beta= 0.30
     Davidson diagonalization with overlap

---- Real-time Memory Report at c_bands before calling an iterative solver
           698 MiB given to the printing process from OS
             0 MiB allocation reported by mallinfo(arena+hblkhd)
       1366521 MiB available memory on the node where the printing process lives
     GPU memory used/free/total (MiB): 928 / 80222 / 81151
------------------
     ethr =  1.63E-09,  avg # of iterations =  3.7

     total cpu time spent up to now is       27.8 secs

     total energy              =    -475.10149832 Ry
     estimated scf accuracy    <       0.00000019 Ry

     total magnetization       =     0.00 Bohr mag/cell
     absolute magnetization    =     0.00 Bohr mag/cell
[tb_dev] Currently allocated     3.05E-05 Mbytes, locked:    0 /   2
[tb_pin] Currently allocated     0.00E+00 Mbytes, locked:    0 /   0

     iteration # 22     ecut=    60.00 Ry     beta= 0.30
     Davidson diagonalization with overlap

---- Real-time Memory Report at c_bands before calling an iterative solver
           698 MiB given to the printing process from OS
             0 MiB allocation reported by mallinfo(arena+hblkhd)
       1366628 MiB available memory on the node where the printing process lives
     GPU memory used/free/total (MiB): 928 / 80222 / 81151
------------------
     ethr =  5.94E-10,  avg # of iterations =  4.8
 
     Magnetic moment per site  (integrated on atomic sphere of radius R)
     atom   1 (R=0.276)  charge= 14.1169  magn= -0.0001
     atom   2 (R=0.276)  charge=  5.2037  magn= -0.0000
     atom   3 (R=0.276)  charge=  5.2814  magn= -0.0000
     atom   4 (R=0.304)  charge=  2.1575  magn= -0.0000

     total cpu time spent up to now is       29.2 secs

     End of self-consistent calculation

 ------ SPIN UP ------------


          k = 0.0000 0.0000 0.0000 (  2029 PWs)   bands (ev):

   -85.8281 -49.1129 -49.1129 -49.0518 -37.4715 -11.3426  -9.2548   2.1673
     3.5364   3.5364   6.2039   6.9082   6.9082   8.0346   8.0346   8.8190
    11.6503  11.6503  11.7760  16.5405  19.0508  23.8024  24.4457  24.4457

     occupation numbers 
     1.0000   1.0000   1.0000   1.0000   1.0000   1.0000   1.0000   1.0000
     1.0000   1.0000   1.0000   1.0000   1.0000   1.0000   1.0000   1.0000
     0.0000   0.0000   0.0000   0.0000   0.0000   0.0000   0.0000   0.0000

          k = 0.0000 0.0000 0.1709 (  2024 PWs)   bands (ev):

   -85.8281 -49.1128 -49.1128 -49.0518 -37.4715 -11.3329  -9.2761   2.4311
     3.5376   3.5376   5.5256   6.9045   6.9045   8.0332   8.0332   9.1253
    11.6572  11.6572  12.3760  15.9825  18.7608  24.1238  24.5608  24.5608

     occupation numbers 
     1.0000   1.0000   1.0000   1.0000   1.0000   1.0000   1.0000   1.0000
     1.0000   1.0000   1.0000   1.0000   1.0000   1.0000   1.0000   1.0000
     0.0000   0.0000   0.0000   0.0000   0.0000   0.0000   0.0000   0.0000

          k = 0.0000 0.1443 0.0000 (  2019 PWs)   bands (ev):

   -85.8270 -49.1243 -49.1156 -49.0500 -37.4669 -11.1623  -9.2322   2.3711
     3.2141   3.6266   5.8187   6.4209   6.5962   8.2625   8.4417   8.8845
    11.1142  11.5465  12.1922  17.1297  19.5209  23.0467  24.1212  24.4308

     occupation numbers 
     1.0000   1.0000   1.0000   1.0000   1.0000   1.0000   1.0000   1.0000
     1.0000   1.0000   1.0000   1.0000   1.0000   1.0000   1.0000   1.0000
     0.0000   0.0000   0.0000   0.0000   0.0000   0.0000   0.0000   0.0000

          k = 0.0000 0.1443 0.1709 (  2019 PWs)   bands (ev):

   -85.8270 -49.1244 -49.1156 -49.0500 -37.4669 -11.1523  -9.2522   2.6002
     3.1864   3.6255   5.7040   6.1464   6.4239   8.2407   8.4422   9.2049
    11.0176  11.5422  12.7996  16.5650  19.4336  22.9382  24.1135  24.6283

     occupation numbers 
     1.0000   1.0000   1.0000   1.0000   1.0000   1.0000   1.0000   1.0000
     1.0000   1.0000   1.0000   1.0000   1.0000   1.0000   1.0000   1.0000
     0.0001   0.0000   0.0000   0.0000   0.0000   0.0000   0.0000   0.0000

          k = 0.0000 0.2887 0.0000 (  2021 PWs)   bands (ev):

   -85.8244 -49.1523 -49.1221 -49.0457 -37.4557 -10.6971  -9.1785   2.6019
     2.9786   3.8239   4.2929   5.7979   6.6704   8.3264   8.7933   9.0163
    10.5583  11.4252  12.9362  17.9179  20.2319  21.5453  23.2116  24.0439

     occupation numbers 
     1.0000   1.0000   1.0000   1.0000   1.0000   1.0000   1.0000   1.0000
     1.0000   1.0000   1.0000   1.0000   1.0000   1.0000   1.0000   1.0000
     0.1187   0.0000   0.0000   0.0000   0.0000   0.0000   0.0000   0.0000

          k = 0.0000 0.2887 0.1709 (  2008 PWs)   bands (ev):

   -85.8243 -49.1524 -49.1221 -49.0456 -37.4556 -10.6883  -9.1930   2.5024
     3.1522   3.8182   4.3331   5.8093   6.4873   8.2552   8.7983   9.2246
    10.2908  11.4044  13.4444  17.5542  20.5583  20.9363  23.2328  23.6664

     occupation numbers 
     1.0000   1.0000   1.0000   1.0000   1.0000   1.0000   1.0000   1.0000
     1.0000   1.0000   1.0000   1.0000   1.0000   1.0000   1.0000   1.0000
     0.7167   0.0000   0.0000   0.0000   0.0000   0.0000   0.0000   0.0000

          k = 0.0000 0.4330 0.0000 (  2014 PWs)   bands (ev):

   -85.8217 -49.1804 -49.1288 -49.0411 -37.4445 -10.1817  -9.1226   1.9801
     3.0707   3.9481   4.1237   5.5031   5.8908   8.2330   8.7535   9.0111
    10.8528  11.4757  13.6868  17.3310  20.0784  21.0326  22.3720  23.1931

     occupation numbers 
     1.0000   1.0000   1.0000   1.0000   1.0000   1.0000   1.0000   1.0000
     1.0000   1.0000   1.0000   1.0000   1.0000   1.0000   1.0000   1.0000
     0.0021   0.0000   0.0000   0.0000   0.0000   0.0000   0.0000   0.0000

          k = 0.0000 0.4330 0.1709 (  1996 PWs)   bands (ev):

   -85.8216 -49.1803 -49.1286 -49.0411 -37.4444 -10.1782  -9.1263   1.8843
     3.0293   3.9357   4.2533   5.5260   6.0811   8.1453   8.7560   9.0464
    10.5836  11.4435  13.9554  17.2639  19.6582  21.4179  22.4915  22.9580

     occupation numbers 
     1.0000   1.0000   1.0000   1.0000   1.0000   1.0000   1.0000   1.0000
     1.0000   1.0000   1.0000   1.0000   1.0000   1.0000   1.0000   1.0000
     0.0917   0.0000   0.0000   0.0000   0.0000   0.0000   0.0000   0.0000

          k = 0.0000-0.5774 0.0000 (  1982 PWs)   bands (ev):

   -85.8205 -49.1917 -49.1314 -49.0392 -37.4397  -9.9519  -9.0952   1.5424
     3.1388   3.9602   4.5079   5.3058   5.4672   8.1299   8.6626   8.9683
    11.1507  11.5330  14.0995  16.6423  19.8631  20.9097  22.0543  23.0882

     occupation numbers 
     1.0000   1.0000   1.0000   1.0000   1.0000   1.0000   1.0000   1.0000
     1.0000   1.0000   1.0000   1.0000   1.0000   1.0000   1.0000   1.0000
     0.0000   0.0000   0.0000   0.0000   0.0000   0.0000   0.0000   0.0000

          k = 0.0000-0.5774 0.1709 (  2004 PWs)   bands (ev):

   -85.8205 -49.1920 -49.1314 -49.0393 -37.4398  -9.9512  -9.0947   1.4698
     3.0872   3.9479   4.4891   5.4901   5.6249   8.0604   8.6622   8.9451
    11.0572  11.5016  14.0892  16.6471  19.8208  21.0770  22.2170  23.2369

     occupation numbers 
     1.0000   1.0000   1.0000   1.0000   1.0000   1.0000   1.0000   1.0000
     1.0000   1.0000   1.0000   1.0000   1.0000   1.0000   1.0000   1.0000
     0.0000   0.0000   0.0000   0.0000   0.0000   0.0000   0.0000   0.0000

          k = 0.1250 0.2165 0.0000 (  2017 PWs)   bands (ev):

   -85.8251 -49.1429 -49.1216 -49.0469 -37.4590 -10.8389  -9.1934   2.6660
     2.9421   3.7085   4.8054   5.7063   6.7943   8.4037   8.7482   8.9806
    10.8301  11.0957  12.8298  17.8499  20.1229  22.3879  22.4699  24.4674

     occupation numbers 
     1.0000   1.0000   1.0000   1.0000   1.0000   1.0000   1.0000   1.0000
     1.0000   1.0000   1.0000   1.0000   1.0000   1.0000   1.0000   1.0000
     0.0031   0.0000   0.0000   0.0000   0.0000   0.0000   0.0000   0.0000

          k = 0.1250 0.2165 0.1709 (  2012 PWs)   bands (ev):

   -85.8251 -49.1428 -49.1215 -49.0468 -37.4589 -10.8288  -9.2114   2.6655
     3.0917   3.7143   4.7836   5.6995   6.4435   8.4285   8.6920   9.1949
    10.6606  11.2449  13.1734  17.5009  20.2631  21.7432  22.7745  24.2644

     occupation numbers 
     1.0000   1.0000   1.0000   1.0000   1.0000   1.0000   1.0000   1.0000
     1.0000   1.0000   1.0000   1.0000   1.0000   1.0000   1.0000   1.0000
     0.0377   0.0000   0.0000   0.0000   0.0000   0.0000   0.0000   0.0000

          k = 0.1250 0.3608 0.0000 (  2004 PWs)   bands (ev):

   -85.8224 -49.1680 -49.1309 -49.0424 -37.4478 -10.3459  -9.1330   2.4307
     3.0489   3.7749   4.0731   5.1962   6.3561   8.4023   8.8804   9.0222
    10.6707  11.1009  13.6298  17.9675  20.0274  21.0838  22.4091  23.8629

     occupation numbers 
     1.0000   1.0000   1.0000   1.0000   1.0000   1.0000   1.0000   1.0000
     1.0000   1.0000   1.0000   1.0000   1.0000   1.0000   1.0000   1.0000
     0.0332   0.0000   0.0000   0.0000   0.0000   0.0000   0.0000   0.0000

          k = 0.1250 0.3608 0.1709 (  2005 PWs)   bands (ev):

   -85.8224 -49.1680 -49.1310 -49.0425 -37.4477 -10.3389  -9.1428   2.3294
     3.0365   3.8596   4.1758   5.2019   6.3395   8.3799   8.8420   9.0645
    10.5211  11.1656  13.7662  18.0323  19.6533  21.1085  22.5179  23.4307

     occupation numbers 
     1.0000   1.0000   1.0000   1.0000   1.0000   1.0000   1.0000   1.0000
     1.0000   1.0000   1.0000   1.0000   1.0000   1.0000   1.0000   1.0000
     0.1687   0.0000   0.0000   0.0000   0.0000   0.0000   0.0000   0.0000

          k = 0.1250 0.5052 0.0000 (  1995 PWs)   bands (ev):

   -85.8205 -49.1855 -49.1378 -49.0392 -37.4398  -9.9741  -9.0750   1.8325
     3.0334   3.8432   4.4900   4.9634   5.5954   8.2935   8.7277   9.0309
    10.9500  11.2064  14.3761  16.9695  19.4495  21.1425  22.3722  23.3003

     occupation numbers 
     1.0000   1.0000   1.0000   1.0000   1.0000   1.0000   1.0000   1.0000
     1.0000   1.0000   1.0000   1.0000   1.0000   1.0000   1.0000   1.0000
     0.0003   0.0000   0.0000   0.0000   0.0000   0.0000   0.0000   0.0000

          k = 0.1250 0.5052 0.1709 (  1996 PWs)   bands (ev):

   -85.8205 -49.1856 -49.1377 -49.0393 -37.4397  -9.9730  -9.0750   1.7563
     2.9646   3.8470   4.5441   4.9955   5.8133   8.2249   8.7388   8.9966
    10.8937  11.2710  14.2597  16.8902  19.6034  20.9937  22.2432  23.5110

     occupation numbers 
     1.0000   1.0000   1.0000   1.0000   1.0000   1.0000   1.0000   1.0000
     1.0000   1.0000   1.0000   1.0000   1.0000   1.0000   1.0000   1.0000
     0.0010   0.0000   0.0000   0.0000   0.0000   0.0000   0.0000   0.0000

          k = 0.2500 0.4330 0.0000 (  2011 PWs)   bands (ev):

   -85.8206 -49.1769 -49.1468 -49.0392 -37.4399  -9.9952  -9.0557   2.2802
     2.9008   3.6128   4.2484   4.8110   5.7995   8.4049   8.7780   9.1371
    10.5928  11.0631  14.5803  17.4398  18.8682  21.4784  22.8377  23.7750

     occupation numbers 
     1.0000   1.0000   1.0000   1.0000   1.0000   1.0000   1.0000   1.0000
     1.0000   1.0000   1.0000   1.0000   1.0000   1.0000   1.0000   1.0000
     0.0831   0.0000   0.0000   0.0000   0.0000   0.0000   0.0000   0.0000

          k = 0.2500 0.4330 0.1709 (  2010 PWs)   bands (ev):

   -85.8205 -49.1769 -49.1467 -49.0393 -37.4398  -9.9915  -9.0597   2.2268
     2.7996   3.6047   4.4360   4.8406   5.8089   8.4134   8.7861   9.0256
    10.8023  11.0918  14.2686  17.4736  18.9690  21.2727  22.3743  23.9706

     occupation numbers 
     1.0000   1.0000   1.0000   1.0000   1.0000   1.0000   1.0000   1.0000
     1.0000   1.0000   1.0000   1.0000   1.0000   1.0000   1.0000   1.0000
     0.0049   0.0000   0.0000   0.0000   0.0000   0.0000   0.0000   0.0000

          k = 0.2500 0.5774 0.0000 (  1978 PWs)   bands (ev):

   -85.8197 -49.1773 -49.1561 -49.0377 -37.4364  -9.8590  -9.0032   2.1672
     2.9235   3.3772   4.4291   4.9261   5.3400   8.2595   8.9064   9.1123
    10.6958  10.9424  15.2459  16.7322  18.5533  21.6941  23.3045  23.5899

     occupation numbers 
     1.0000   1.0000   1.0000   1.0000   1.0000   1.0000   1.0000   1.0000
     1.0000   1.0000   1.0000   1.0000   1.0000   1.0000   1.0000   1.0000
     0.0239   0.0004   0.0000   0.0000   0.0000   0.0000   0.0000   0.0000

          k = 0.2500 0.5774 0.1709 (  2008 PWs)   bands (ev):

   -85.8198 -49.1774 -49.1562 -49.0381 -37.4365  -9.8583  -9.0028   2.1110
     2.8538   3.3342   4.5453   4.9510   5.4346   8.2403   8.9034   9.0403
    10.8828  11.0785  14.8765  16.4707  18.8008  21.5511  22.5759  23.8699

     occupation numbers 
     1.0000   1.0000   1.0000   1.0000   1.0000   1.0000   1.0000   1.0000
     1.0000   1.0000   1.0000   1.0000   1.0000   1.0000   1.0000   1.0000
     0.0012   0.0000   0.0000   0.0000   0.0000   0.0000   0.0000   0.0000

          k = 0.0000-0.1443 0.1709 (  2019 PWs)   bands (ev):

   -85.8270 -49.1244 -49.1156 -49.0500 -37.4669 -11.1521  -9.2528   2.6121
     3.1856   3.6297   5.6544   6.1746   6.4113   8.2550   8.4425   9.1800
    11.1166  11.5575  12.6811  16.6159  19.4003  23.0114  24.2029  24.5389

     occupation numbers 
     1.0000   1.0000   1.0000   1.0000   1.0000   1.0000   1.0000   1.0000
     1.0000   1.0000   1.0000   1.0000   1.0000   1.0000   1.0000   1.0000
     0.0000   0.0000   0.0000   0.0000   0.0000   0.0000   0.0000   0.0000

          k = 0.0000-0.2887 0.1709 (  2008 PWs)   bands (ev):

   -85.8243 -49.1524 -49.1221 -49.0456 -37.4556 -10.6862  -9.1968   2.5658
     3.1489   3.8272   4.3118   5.7903   6.3298   8.3265   8.7970   9.1146
    10.6309  11.4263  13.1219  17.8565  20.0227  21.6952  23.2611  23.7039

     occupation numbers 
     1.0000   1.0000   1.0000   1.0000   1.0000   1.0000   1.0000   1.0000
     1.0000   1.0000   1.0000   1.0000   1.0000   1.0000   1.0000   1.0000
     0.0541   0.0000   0.0000   0.0000   0.0000   0.0000   0.0000   0.0000

          k = 0.0000-0.4330 0.1709 (  1996 PWs)   bands (ev):

   -85.8216 -49.1803 -49.1286 -49.0411 -37.4444 -10.1736  -9.1334   1.9276
     3.0232   3.9443   4.3526   5.5099   5.7933   8.2219   8.7572   8.9773
    10.9056  11.4574  13.6013  17.6220  19.8155  21.1810  22.4936  23.5188

     occupation numbers 
     1.0000   1.0000   1.0000   1.0000   1.0000   1.0000   1.0000   1.0000
     1.0000   1.0000   1.0000   1.0000   1.0000   1.0000   1.0000   1.0000
     0.0008   0.0000   0.0000   0.0000   0.0000   0.0000   0.0000   0.0000

          k =-0.1250-0.3608 0.1709 (  2005 PWs)   bands (ev):

   -85.8224 -49.1680 -49.1310 -49.0425 -37.4477 -10.3367  -9.1464   2.3708
     3.0282   3.8670   4.1854   5.1998   6.1946   8.4553   8.8531   8.9673
    10.8142  11.0805  13.5813  18.2561  19.7412  21.0518  22.3032  23.6815

     occupation numbers 
     1.0000   1.0000   1.0000   1.0000   1.0000   1.0000   1.0000   1.0000
     1.0000   1.0000   1.0000   1.0000   1.0000   1.0000   1.0000   1.0000
     0.0041   0.0000   0.0000   0.0000   0.0000   0.0000   0.0000   0.0000

          k =-0.1250-0.5052 0.1709 (  1996 PWs)   bands (ev):

   -85.8205 -49.1856 -49.1377 -49.0393 -37.4397  -9.9705  -9.0786   1.7724
     2.9656   3.8479   4.6288   4.9758   5.6631   8.2732   8.7327   8.9621
    11.0863  11.2001  14.1232  16.9990  20.0788  20.4901  22.1438  23.7510

     occupation numbers 
     1.0000   1.0000   1.0000   1.0000   1.0000   1.0000   1.0000   1.0000
     1.0000   1.0000   1.0000   1.0000   1.0000   1.0000   1.0000   1.0000
     0.0000   0.0000   0.0000   0.0000   0.0000   0.0000   0.0000   0.0000

 ------ SPIN DOWN ----------


          k = 0.0000 0.0000 0.0000 (  2029 PWs)   bands (ev):

   -85.8284 -49.1131 -49.1131 -49.0519 -37.4716 -11.3429  -9.2551   2.1671
     3.5361   3.5361   6.2035   6.9081   6.9081   8.0347   8.0347   8.8187
    11.6499  11.6499  11.7756  16.5404  19.0505  23.8022  24.4456  24.4456

     occupation numbers 
     1.0000   1.0000   1.0000   1.0000   1.0000   1.0000   1.0000   1.0000
     1.0000   1.0000   1.0000   1.0000   1.0000   1.0000   1.0000   1.0000
     0.0000   0.0000   0.0000   0.0000   0.0000   0.0000   0.0000   0.0000

          k = 0.0000 0.0000 0.1709 (  2024 PWs)   bands (ev):

   -85.8284 -49.1131 -49.1131 -49.0518 -37.4715 -11.3332  -9.2764   2.4308
     3.5374   3.5374   5.5251   6.9044   6.9044   8.0332   8.0332   9.1250
    11.6568  11.6568  12.3756  15.9823  18.7606  24.1235  24.5607  24.5607

     occupation numbers 
     1.0000   1.0000   1.0000   1.0000   1.0000   1.0000   1.0000   1.0000
     1.0000   1.0000   1.0000   1.0000   1.0000   1.0000   1.0000   1.0000
     0.0000   0.0000   0.0000   0.0000   0.0000   0.0000   0.0000   0.0000

          k = 0.0000 0.1443 0.0000 (  2019 PWs)   bands (ev):

   -85.8273 -49.1246 -49.1159 -49.0501 -37.4669 -11.1625  -9.2325   2.3708
     3.2138   3.6263   5.8185   6.4207   6.5958   8.2625   8.4418   8.8842
    11.1138  11.5462  12.1918  17.1296  19.5206  23.0465  24.1211  24.4307

     occupation numbers 
     1.0000   1.0000   1.0000   1.0000   1.0000   1.0000   1.0000   1.0000
     1.0000   1.0000   1.0000   1.0000   1.0000   1.0000   1.0000   1.0000
     0.0000   0.0000   0.0000   0.0000   0.0000   0.0000   0.0000   0.0000

          k = 0.0000 0.1443 0.1709 (  2019 PWs)   bands (ev):

   -85.8273 -49.1246 -49.1159 -49.0500 -37.4669 -11.1526  -9.2525   2.5999
     3.1862   3.6252   5.7037   6.1461   6.4238   8.2407   8.4422   9.2046
    11.0172  11.5418  12.7992  16.5648  19.4335  22.9380  24.1134  24.6282

     occupation numbers 
     1.0000   1.0000   1.0000   1.0000   1.0000   1.0000   1.0000   1.0000
     1.0000   1.0000   1.0000   1.0000   1.0000   1.0000   1.0000   1.0000
     0.0001   0.0000   0.0000   0.0000   0.0000   0.0000   0.0000   0.0000

          k = 0.0000 0.2887 0.0000 (  2021 PWs)   bands (ev):

   -85.8246 -49.1526 -49.1224 -49.0457 -37.4558 -10.6973  -9.1788   2.6016
     2.9783   3.8237   4.2927   5.7977   6.6700   8.3263   8.7932   9.0161
    10.5578  11.4249  12.9359  17.9177  20.2317  21.5451  23.2115  24.0437

     occupation numbers 
     1.0000   1.0000   1.0000   1.0000   1.0000   1.0000   1.0000   1.0000
     1.0000   1.0000   1.0000   1.0000   1.0000   1.0000   1.0000   1.0000
     0.1193   0.0000   0.0000   0.0000   0.0000   0.0000   0.0000   0.0000

          k = 0.0000 0.2887 0.1709 (  2008 PWs)   bands (ev):

   -85.8246 -49.1526 -49.1223 -49.0456 -37.4557 -10.6886  -9.1933   2.5021
     3.1520   3.8180   4.3329   5.8091   6.4870   8.2551   8.7983   9.2244
    10.2903  11.4041  13.4440  17.5540  20.5580  20.9361  23.2326  23.6662

     occupation numbers 
     1.0000   1.0000   1.0000   1.0000   1.0000   1.0000   1.0000   1.0000
     1.0000   1.0000   1.0000   1.0000   1.0000   1.0000   1.0000   1.0000
     0.7179   0.0000   0.0000   0.0000   0.0000   0.0000   0.0000   0.0000

          k = 0.0000 0.4330 0.0000 (  2014 PWs)   bands (ev):

   -85.8219 -49.1807 -49.1290 -49.0412 -37.4446 -10.1820  -9.1229   1.9799
     3.0705   3.9478   4.1234   5.5029   5.8904   8.2328   8.7534   9.0109
    10.8522  11.4754  13.6864  17.3308  20.0783  21.0324  22.3719  23.1930

     occupation numbers 
     1.0000   1.0000   1.0000   1.0000   1.0000   1.0000   1.0000   1.0000
     1.0000   1.0000   1.0000   1.0000   1.0000   1.0000   1.0000   1.0000
     0.0021   0.0000   0.0000   0.0000   0.0000   0.0000   0.0000   0.0000

          k = 0.0000 0.4330 0.1709 (  1996 PWs)   bands (ev):

   -85.8219 -49.1806 -49.1289 -49.0412 -37.4444 -10.1785  -9.1266   1.8841
     3.0291   3.9355   4.2530   5.5259   6.0808   8.1452   8.7559   9.0463
    10.5831  11.4433  13.9550  17.2637  19.6579  21.4178  22.4913  22.9578

     occupation numbers 
     1.0000   1.0000   1.0000   1.0000   1.0000   1.0000   1.0000   1.0000
     1.0000   1.0000   1.0000   1.0000   1.0000   1.0000   1.0000   1.0000
     0.0921   0.0000   0.0000   0.0000   0.0000   0.0000   0.0000   0.0000

          k = 0.0000-0.5774 0.0000 (  1982 PWs)   bands (ev):

   -85.8208 -49.1920 -49.1316 -49.0393 -37.4398  -9.9521  -9.0955   1.5423
     3.1386   3.9600   4.5077   5.3054   5.4671   8.1297   8.6624   8.9682
    11.1502  11.5327  14.0991  16.6420  19.8629  20.9096  22.0542  23.0880

     occupation numbers 
     1.0000   1.0000   1.0000   1.0000   1.0000   1.0000   1.0000   1.0000
     1.0000   1.0000   1.0000   1.0000   1.0000   1.0000   1.0000   1.0000
     0.0000   0.0000   0.0000   0.0000   0.0000   0.0000   0.0000   0.0000

          k = 0.0000-0.5774 0.1709 (  2004 PWs)   bands (ev):

   -85.8208 -49.1923 -49.1316 -49.0394 -37.4398  -9.9515  -9.0950   1.4697
     3.0870   3.9477   4.4888   5.4900   5.6246   8.0602   8.6620   8.9449
    11.0567  11.5013  14.0888  16.6468  19.8207  21.0768  22.2168  23.2367

     occupation numbers 
     1.0000   1.0000   1.0000   1.0000   1.0000   1.0000   1.0000   1.0000
     1.0000   1.0000   1.0000   1.0000   1.0000   1.0000   1.0000   1.0000
     0.0000   0.0000   0.0000   0.0000   0.0000   0.0000   0.0000   0.0000

          k = 0.1250 0.2165 0.0000 (  2017 PWs)   bands (ev):

   -85.8254 -49.1431 -49.1218 -49.0469 -37.4590 -10.8392  -9.1937   2.6658
     2.9419   3.7083   4.8052   5.7062   6.7940   8.4037   8.7482   8.9804
    10.8297  11.0953  12.8294  17.8497  20.1227  22.3877  22.4697  24.4674

     occupation numbers 
     1.0000   1.0000   1.0000   1.0000   1.0000   1.0000   1.0000   1.0000
     1.0000   1.0000   1.0000   1.0000   1.0000   1.0000   1.0000   1.0000
     0.0031   0.0000   0.0000   0.0000   0.0000   0.0000   0.0000   0.0000

          k = 0.1250 0.2165 0.1709 (  2012 PWs)   bands (ev):

   -85.8254 -49.1431 -49.1218 -49.0469 -37.4590 -10.8290  -9.2117   2.6653
     3.0914   3.7141   4.7834   5.6993   6.4431   8.4284   8.6920   9.1947
    10.6602  11.2445  13.1729  17.5007  20.2630  21.7430  22.7743  24.2643

     occupation numbers 
     1.0000   1.0000   1.0000   1.0000   1.0000   1.0000   1.0000   1.0000
     1.0000   1.0000   1.0000   1.0000   1.0000   1.0000   1.0000   1.0000
     0.0379   0.0000   0.0000   0.0000   0.0000   0.0000   0.0000   0.0000

          k = 0.1250 0.3608 0.0000 (  2004 PWs)   bands (ev):

   -85.8227 -49.1682 -49.1312 -49.0425 -37.4478 -10.3462  -9.1333   2.4306
     3.0487   3.7746   4.0729   5.1960   6.3557   8.4022   8.8802   9.0221
    10.6703  11.1005  13.6294  17.9673  20.0272  21.0836  22.4090  23.8628

     occupation numbers 
     1.0000   1.0000   1.0000   1.0000   1.0000   1.0000   1.0000   1.0000
     1.0000   1.0000   1.0000   1.0000   1.0000   1.0000   1.0000   1.0000
     0.0334   0.0000   0.0000   0.0000   0.0000   0.0000   0.0000   0.0000

          k = 0.1250 0.3608 0.1709 (  2005 PWs)   bands (ev):

   -85.8227 -49.1682 -49.1312 -49.0425 -37.4477 -10.3392  -9.1431   2.3292
     3.0363   3.8594   4.1756   5.2018   6.3392   8.3798   8.8419   9.0643
    10.5207  11.1652  13.7657  18.0321  19.6530  21.1083  22.5177  23.4305

     occupation numbers 
     1.0000   1.0000   1.0000   1.0000   1.0000   1.0000   1.0000   1.0000
     1.0000   1.0000   1.0000   1.0000   1.0000   1.0000   1.0000   1.0000
     0.1693   0.0000   0.0000   0.0000   0.0000   0.0000   0.0000   0.0000

          k = 0.1250 0.5052 0.0000 (  1995 PWs)   bands (ev):

   -85.8208 -49.1858 -49.1381 -49.0392 -37.4398  -9.9743  -9.0752   1.8323
     3.0333   3.8429   4.4897   4.9633   5.5951   8.2933   8.7275   9.0308
    10.9496  11.2061  14.3757  16.9692  19.4493  21.1424  22.3720  23.3002

     occupation numbers 
     1.0000   1.0000   1.0000   1.0000   1.0000   1.0000   1.0000   1.0000
     1.0000   1.0000   1.0000   1.0000   1.0000   1.0000   1.0000   1.0000
     0.0003   0.0000   0.0000   0.0000   0.0000   0.0000   0.0000   0.0000

          k = 0.1250 0.5052 0.1709 (  1996 PWs)   bands (ev):

   -85.8208 -49.1859 -49.1380 -49.0393 -37.4398  -9.9733  -9.0753   1.7562
     2.9644   3.8468   4.5438   4.9953   5.8129   8.2246   8.7387   8.9965
    10.8933  11.2707  14.2593  16.8898  19.6032  20.9936  22.2431  23.5109

     occupation numbers 
     1.0000   1.0000   1.0000   1.0000   1.0000   1.0000   1.0000   1.0000
     1.0000   1.0000   1.0000   1.0000   1.0000   1.0000   1.0000   1.0000
     0.0010   0.0000   0.0000   0.0000   0.0000   0.0000   0.0000   0.0000

          k = 0.2500 0.4330 0.0000 (  2011 PWs)   bands (ev):

   -85.8208 -49.1772 -49.1471 -49.0393 -37.4399  -9.9955  -9.0560   2.2801
     2.9007   3.6126   4.2481   4.8108   5.7992   8.4046   8.7778   9.1370
    10.5925  11.0626  14.5799  17.4395  18.8681  21.4783  22.8375  23.7749

     occupation numbers 
     1.0000   1.0000   1.0000   1.0000   1.0000   1.0000   1.0000   1.0000
     1.0000   1.0000   1.0000   1.0000   1.0000   1.0000   1.0000   1.0000
     0.0834   0.0000   0.0000   0.0000   0.0000   0.0000   0.0000   0.0000

          k = 0.2500 0.4330 0.1709 (  2010 PWs)   bands (ev):

   -85.8208 -49.1771 -49.1470 -49.0394 -37.4398  -9.9918  -9.0600   2.2266
     2.7994   3.6045   4.4357   4.8404   5.8086   8.4132   8.7860   9.0255
    10.8020  11.0914  14.2682  17.4732  18.9688  21.2725  22.3741  23.9692

     occupation numbers 
     1.0000   1.0000   1.0000   1.0000   1.0000   1.0000   1.0000   1.0000
     1.0000   1.0000   1.0000   1.0000   1.0000   1.0000   1.0000   1.0000
     0.0050   0.0000   0.0000   0.0000   0.0000   0.0000   0.0000   0.0000

          k = 0.2500 0.5774 0.0000 (  1978 PWs)   bands (ev):

   -85.8200 -49.1776 -49.1564 -49.0378 -37.4365  -9.8593  -9.0034   2.1671
     2.9234   3.3771   4.4288   4.9259   5.3397   8.2592   8.9063   9.1123
    10.6954  10.9420  15.2454  16.7318  18.5531  21.6940  23.3044  23.5897

     occupation numbers 
     1.0000   1.0000   1.0000   1.0000   1.0000   1.0000   1.0000   1.0000
     1.0000   1.0000   1.0000   1.0000   1.0000   1.0000   1.0000   1.0000
     0.0240   0.0004   0.0000   0.0000   0.0000   0.0000   0.0000   0.0000

          k = 0.2500 0.5774 0.1709 (  2008 PWs)   bands (ev):

   -85.8200 -49.1777 -49.1565 -49.0381 -37.4366  -9.8586  -9.0031   2.1108
     2.8537   3.3340   4.5451   4.9507   5.4343   8.2400   8.9032   9.0402
    10.8824  11.0781  14.8760  16.4703  18.8006  21.5510  22.5758  23.8719

     occupation numbers 
     1.0000   1.0000   1.0000   1.0000   1.0000   1.0000   1.0000   1.0000
     1.0000   1.0000   1.0000   1.0000   1.0000   1.0000   1.0000   1.0000
     0.0012   0.0000   0.0000   0.0000   0.0000   0.0000   0.0000   0.0000

          k = 0.0000-0.1443 0.1709 (  2019 PWs)   bands (ev):

   -85.8273 -49.1247 -49.1158 -49.0500 -37.4669 -11.1523  -9.2531   2.6119
     3.1853   3.6295   5.6541   6.1743   6.4112   8.2550   8.4425   9.1797
    11.1162  11.5571  12.6807  16.6157  19.4002  23.0112  24.2028  24.5387

     occupation numbers 
     1.0000   1.0000   1.0000   1.0000   1.0000   1.0000   1.0000   1.0000
     1.0000   1.0000   1.0000   1.0000   1.0000   1.0000   1.0000   1.0000
     0.0000   0.0000   0.0000   0.0000   0.0000   0.0000   0.0000   0.0000

          k = 0.0000-0.2887 0.1709 (  2008 PWs)   bands (ev):

   -85.8246 -49.1526 -49.1223 -49.0456 -37.4557 -10.6864  -9.1971   2.5656
     3.1487   3.8269   4.3116   5.7902   6.3295   8.3265   8.7970   9.1143
    10.6304  11.4259  13.1215  17.8563  20.0225  21.6950  23.2609  23.7038

     occupation numbers 
     1.0000   1.0000   1.0000   1.0000   1.0000   1.0000   1.0000   1.0000
     1.0000   1.0000   1.0000   1.0000   1.0000   1.0000   1.0000   1.0000
     0.0544   0.0000   0.0000   0.0000   0.0000   0.0000   0.0000   0.0000

          k = 0.0000-0.4330 0.1709 (  1996 PWs)   bands (ev):

   -85.8219 -49.1806 -49.1289 -49.0412 -37.4444 -10.1739  -9.1337   1.9274
     3.0230   3.9441   4.3523   5.5097   5.7929   8.2217   8.7571   8.9772
    10.9051  11.4571  13.6009  17.6217  19.8153  21.1808  22.4935  23.5187

     occupation numbers 
     1.0000   1.0000   1.0000   1.0000   1.0000   1.0000   1.0000   1.0000
     1.0000   1.0000   1.0000   1.0000   1.0000   1.0000   1.0000   1.0000
     0.0008   0.0000   0.0000   0.0000   0.0000   0.0000   0.0000   0.0000

          k =-0.1250-0.3608 0.1709 (  2005 PWs)   bands (ev):

   -85.8227 -49.1682 -49.1312 -49.0425 -37.4477 -10.3370  -9.1466   2.3706
     3.0280   3.8667   4.1851   5.1997   6.1943   8.4552   8.8531   8.9671
    10.8138  11.0802  13.5809  18.2558  19.7410  21.0517  22.3030  23.6811

     occupation numbers 
     1.0000   1.0000   1.0000   1.0000   1.0000   1.0000   1.0000   1.0000
     1.0000   1.0000   1.0000   1.0000   1.0000   1.0000   1.0000   1.0000
     0.0041   0.0000   0.0000   0.0000   0.0000   0.0000   0.0000   0.0000

          k =-0.1250-0.5052 0.1709 (  1996 PWs)   bands (ev):

   -85.8208 -49.1859 -49.1380 -49.0393 -37.4398  -9.9708  -9.0789   1.7723
     2.9654   3.8477   4.6285   4.9757   5.6628   8.2729   8.7326   8.9620
    11.0858  11.1998  14.1228  16.9987  20.0786  20.4900  22.1436  23.7505

     occupation numbers 
     1.0000   1.0000   1.0000   1.0000   1.0000   1.0000   1.0000   1.0000
     1.0000   1.0000   1.0000   1.0000   1.0000   1.0000   1.0000   1.0000
     0.0000   0.0000   0.0000   0.0000   0.0000   0.0000   0.0000   0.0000

     the Fermi energy is    10.4077 ev

!    total energy              =    -475.10149886 Ry
     total all-electron energy =     -3102.973636 Ry
     estimated scf accuracy    <       0.00000002 Ry
     smearing contrib. (-TS)   =      -0.00117646 Ry
     internal energy E=F+TS    =    -475.10032240 Ry

     The total energy is F=E-TS. E is the sum of the following terms:
     one-electron contribution =    -344.00925621 Ry
     hartree contribution      =     187.13969811 Ry
     xc contribution           =     -49.42152932 Ry
     ewald contribution        =    -162.13309058 Ry
     one-center paw contrib.   =    -106.67614439 Ry
      -> PAW hartree energy AE =     283.28206948 Ry
      -> PAW hartree energy PS =    -281.90876591 Ry
      -> PAW xc energy AE      =    -154.62467267 Ry
      -> PAW xc energy PS      =      46.57522471 Ry
      -> total E_H with PAW    =     188.51300167 Ry
      -> total E_XC with PAW   =    -157.47097728 Ry

     total magnetization       =    -0.00 Bohr mag/cell
     absolute magnetization    =     0.00 Bohr mag/cell

     convergence has been achieved in  22 iterations

     Forces acting on atoms (cartesian axes, Ry/au):

     atom    1 type  1   force =     0.00000000    0.00000000    0.07925526
     atom    2 type  2   force =     0.00000000    0.00000000    0.04608703
     atom    3 type  2   force =     0.00000000    0.00000000   -0.10326742
     atom    4 type  3   force =     0.00000000    0.00000000   -0.02207488
     The non-local contrib.  to forces
     atom    1 type  1   force =     0.00000000    0.00000000   -0.14452704
     atom    2 type  2   force =     0.00000000    0.00000000   -0.81113146
     atom    3 type  2   force =     0.00000000    0.00000000    0.31961559
     atom    4 type  3   force =     0.00000000    0.00000000   -0.05338309
     The ionic contribution  to forces
     atom    1 type  1   force =    -0.00000000    0.00000000    5.18851479
     atom    2 type  2   force =     0.00000000   -0.00000000   27.37142756
     atom    3 type  2   force =    -0.00000000    0.00000000  -24.82374625
     atom    4 type  3   force =     0.00000000   -0.00000000   -7.73619610
     The local contribution  to forces
     atom    1 type  1   force =     0.00000000   -0.00000000   -4.96477298
     atom    2 type  2   force =     0.00000001   -0.00000001  -26.52096877
     atom    3 type  2   force =    -0.00000001    0.00000001   24.40325799
     atom    4 type  3   force =     0.00000000    0.00000000    7.76750067
     The core correction contribution to forces
     atom    1 type  1   force =    -0.00000000    0.00000000   -0.00005514
     atom    2 type  2   force =    -0.00000000    0.00000000    0.00653437
     atom    3 type  2   force =     0.00000000   -0.00000000   -0.00222159
     atom    4 type  3   force =     0.00000000    0.00000000    0.00000000
     The Hubbard contrib.    to forces
     atom    1 type  1   force =     0.00000000    0.00000000    0.00000000
     atom    2 type  2   force =     0.00000000    0.00000000    0.00000000
     atom    3 type  2   force =     0.00000000    0.00000000    0.00000000
     atom    4 type  3   force =     0.00000000    0.00000000    0.00000000
     The SCF correction term to forces
     atom    1 type  1   force =    -0.00000000    0.00000000    0.00010599
     atom    2 type  2   force =    -0.00000000    0.00000000    0.00023568
     atom    3 type  2   force =     0.00000000   -0.00000000   -0.00016282
     atom    4 type  3   force =     0.00000000   -0.00000000    0.00001399

     Total force =     0.139846     Total SCF correction =     0.000306

     Writing all to output data dir ./out/pw.save/ :
     XML data file, charge density, pseudopotentials, collected wavefunctions
 
     init_run     :      9.86s CPU      2.38s WALL (       1 calls)
     electrons    :    100.15s CPU     26.41s WALL (       1 calls)
     forces       :      0.64s CPU      0.51s WALL (       1 calls)

     Called by init_run:
     wfcinit      :      0.25s CPU      0.30s WALL (       1 calls)
     wfcinit:atom :      0.04s CPU      0.04s WALL (      50 calls)
     wfcinit:wfcr :      0.16s CPU      0.19s WALL (      50 calls)
     potinit      :      9.11s CPU      1.55s WALL (       1 calls)
     hinit0       :      0.41s CPU      0.41s WALL (       1 calls)

     Called by electrons:
     c_bands      :     11.67s CPU     11.74s WALL (      22 calls)
     sum_band     :      2.39s CPU      2.39s WALL (      22 calls)
     v_of_rho     :      0.34s CPU      0.17s WALL (      23 calls)
     v_h          :      0.24s CPU      0.03s WALL (      23 calls)
     v_xc         :      0.10s CPU      0.14s WALL (      24 calls)
     newd         :      0.54s CPU      0.40s WALL (      23 calls)
                                        0.40s GPU  (      23 calls)
     PAW_pot      :     88.51s CPU     11.69s WALL (      23 calls)
     mix_rho      :      0.57s CPU      0.57s WALL (      22 calls)

     Called by c_bands:
     init_us_2    :      0.91s CPU      0.90s WALL (    2300 calls)
     cegterg      :     10.20s CPU     10.28s WALL (    1100 calls)

     Called by sum_band:
     sum_band:wei :      0.03s CPU      0.03s WALL (      22 calls)
                                        0.03s GPU  (      22 calls)
     sum_band:loo :      1.51s CPU      1.51s WALL (      22 calls)
                                        1.51s GPU  (      22 calls)
     sum_band:buf :      0.12s CPU      0.15s WALL (    1100 calls)
                                        0.13s GPU  (    1100 calls)
     sum_band:ini :      0.43s CPU      0.45s WALL (    1100 calls)
                                        0.43s GPU  (    1100 calls)
     sum_band:cal :      0.03s CPU      0.15s WALL (    1100 calls)
                                        0.14s GPU  (    1100 calls)
     sum_band:bec :      0.24s CPU      0.26s WALL (    1100 calls)
                                        0.24s GPU  (    1100 calls)
     addusdens    :      0.73s CPU      0.74s WALL (      22 calls)
                                        0.74s GPU  (      22 calls)
     addusd:skk   :      0.00s CPU      0.00s WALL (      66 calls)
                                        0.00s GPU  (      66 calls)

     Called by *egterg:
     cdiaghg      :      3.40s CPU      3.53s WALL (    4335 calls)
                                        3.47s GPU  (    4335 calls)
     cegterg:over :      0.57s CPU      0.58s WALL (    3235 calls)
     cegterg:upda :      0.60s CPU      0.61s WALL (    3235 calls)
     cegterg:last :      0.10s CPU      0.10s WALL (    1857 calls)
     h_psi        :      3.87s CPU      3.95s WALL (    4385 calls)
                                        3.89s GPU  (    4385 calls)
     s_psi        :      0.68s CPU      0.70s WALL (    4385 calls)
     g_psi        :      0.02s CPU      0.08s WALL (    3235 calls)
                                        0.03s GPU  (    3235 calls)

     Called by h_psi:
     h_psi:calbec :      0.11s CPU      0.42s WALL (    4385 calls)
                                        0.36s GPU  (    4385 calls)
     vloc_psi     :      2.51s CPU      2.50s WALL (    4385 calls)
                                        2.45s GPU  (    4385 calls)
     add_vuspsi   :      0.61s CPU      0.72s WALL (    4385 calls)
                                        0.66s GPU  (    4385 calls)

     General routines
     calbec       :      0.12s CPU      0.14s WALL (    5685 calls)
     fft          :      2.91s CPU      0.60s WALL (     588 calls)
                                        0.02s GPU  (     542 calls)
     ffts         :      2.14s CPU      0.37s WALL (     747 calls)
                                        0.02s GPU  (     701 calls)
     fftw         :      0.27s CPU      0.82s WALL (   15470 calls)
                                        0.64s GPU  (   15470 calls)
     interpolate  :      5.14s CPU      0.93s WALL (      46 calls)
 
     Parallel routines

     PAW routines
     PAW_pot      :     88.51s CPU     11.69s WALL (      23 calls)
     PAW_symme    :      0.02s CPU      0.00s WALL (      45 calls)
 
     PWSCF        :   1m51.41s CPU     29.79s WALL

 
   This run was terminated on:   5:42:17  12Jul2026            

=------------------------------------------------------------------------------=
   JOB DONE.
=------------------------------------------------------------------------------=
Warning: ieee_divide_by_zero is signaling
Warning: ieee_inexact is signaling
FORTRAN STOP
