
     Program PWSCF v.7.3.1 starts on 12Jul2026 at  5:40:21 

     This program is part of the open-source Quantum ESPRESSO suite
     for quantum simulation of materials; please cite
         "P. Giannozzi et al., J. Phys.:Condens. Matter 21 395502 (2009);
         "P. Giannozzi et al., J. Phys.:Condens. Matter 29 465901 (2017);
         "P. Giannozzi et al., J. Chem. Phys. 152 154105 (2020);
          URL http://www.quantum-espresso.org", 
     in publications or presentations arising from this work. More details at
     http://www.quantum-espresso.org/quote

     Parallel version (MPI & OpenMP), running on      14 processor cores
     Number of MPI processes:                 1
     Threads/MPI process:                    14

     MPI processes distributed on     1 nodes
     1356256 MiB available memory on the printing compute node when the environment starts
 
     Reading input from pw.in

     Current dimensions of program PWSCF are:
     Max number of different atomic species (ntypx) = 10
     Max number of k-points (npk) =  40000
     Max angular momentum in pseudopotentials (lmaxx) =  4
     file Co.pbe-spn-kjpaw_psl.0.3.1.UPF: wavefunction(s)  3P 3D renormalized
     file O.pbe-n-kjpaw_psl.1.0.0.UPF: wavefunction(s)  2S 2P renormalized
 
     Subspace diagonalization in iterative solution of the eigenvalue problem:
     a serial algorithm will be used

 
     G-vector sticks info
     --------------------
     sticks:   dense  smooth     PW     G-vecs:    dense   smooth      PW
     Sum         931     475    151                45403    15993    2651
 
     Using Slab Decomposition
 


     bravais-lattice index     =            4
     lattice parameter (alat)  =       5.3290  a.u.
     unit-cell volume          =     255.6161 (a.u.)^3
     number of atoms/cell      =            4
     number of atomic types    =            3
     number of electrons       =        32.20
     number of Kohn-Sham states=           24
     kinetic-energy cutoff     =      60.0000  Ry
     charge density cutoff     =     480.0000  Ry
     scf convergence threshold =      1.0E-07
     mixing beta               =       0.3000
     number of iterations used =            8  local-TF  mixing
     Exchange-correlation= SLA  PW   PBX  PBC
                           (   1   4   3   4   0   0   0)

     GPU acceleration is ACTIVE.  1 visible GPUs per MPI rank
     GPU-aware MPI enabled


     GPU used by master process:

        Device Number: 0
        Device name: NVIDIA A100-SXM4-80GB
        Compute capability : 80
        Ratio of single to double precision performance  : 2
        Memory Clock Rate (KHz): 1593000
        Memory Bus Width (bits): 5120
        Peak Memory Bandwidth (GB/s): ******

     celldm(1)=   5.329028  celldm(2)=   0.000000  celldm(3)=   1.950355
     celldm(4)=   0.000000  celldm(5)=   0.000000  celldm(6)=   0.000000

     crystal axes: (cart. coord. in units of alat)
               a(1) = (   1.000000   0.000000   0.000000 )  
               a(2) = (  -0.500000   0.866025   0.000000 )  
               a(3) = (   0.000000   0.000000   1.950355 )  

     reciprocal axes: (cart. coord. in units 2 pi/alat)
               b(1) = (  1.000000  0.577350 -0.000000 )  
               b(2) = (  0.000000  1.154701  0.000000 )  
               b(3) = (  0.000000 -0.000000  0.512727 )  


     PseudoPot. # 1 for Co read from file:
     ../../pseudo/Co.pbe-spn-kjpaw_psl.0.3.1.UPF
     MD5 check sum: 3c0a43779828c046024e4f3be63f8e67
     Pseudo is Projector augmented-wave + core cor, Zval = 17.0
     Generated using &quot;atomic&quot; code by A. Dal Corso  v.6.2.2
     Shape of augmentation charge: PSQ
     Using radial grid of 1193 points,  6 beta functions with: 
                l(1) =   0
                l(2) =   0
                l(3) =   1
                l(4) =   1
                l(5) =   2
                l(6) =   2
     Q(r) pseudized with 0 coefficients 


     PseudoPot. # 2 for O  read from file:
     ../../pseudo/O.pbe-n-kjpaw_psl.1.0.0.UPF
     MD5 check sum: e99d9cef9b487d1ca56f5b95ecd0fd7a
     Pseudo is Projector augmented-wave + core cor, Zval =  6.0
     Generated using &quot;atomic&quot; code by A. Dal Corso  v.6.3
     Shape of augmentation charge: PSQ
     Using radial grid of 1095 points,  4 beta functions with: 
                l(1) =   0
                l(2) =   0
                l(3) =   1
                l(4) =   1
     Q(r) pseudized with 0 coefficients 


     PseudoPot. # 3 for Li read from file:
     ../../pseudo/Li.pbe-s-kjpaw_psl.1.0.0.UPF
     MD5 check sum: 3974953fb0fea6c4f83fb01d64ffc134
     Pseudo is Projector augmented-wave, Zval =  3.0
     Generated using &quot;atomic&quot; code by A. Dal Corso  v.6.3
     Shape of augmentation charge: PSQ
     Using radial grid of 1017 points,  4 beta functions with: 
                l(1) =   0
                l(2) =   0
                l(3) =   1
                l(4) =   1
     Q(r) pseudized with 0 coefficients 


     atomic species   valence    mass     pseudopotential
     Co               17.00    58.93300     Co( 1.00)
     O                 6.00    15.99900     O ( 1.00)
     Li                3.00     6.94100     Li( 1.00)

     Starting magnetic structure 
     atomic species   magnetization
     Co              0.300
     O               0.000
     Li              0.000

     12 Sym. Ops., with inversion, found


                                    s                        frac. trans.

      isym =  1     identity                                     

 cryst.   s( 1) = (     1          0          0      )
                  (     0          1          0      )
                  (     0          0          1      )

 cart.    s( 1) = (  1.0000000  0.0000000  0.0000000 )
                  (  0.0000000  1.0000000  0.0000000 )
                  (  0.0000000  0.0000000  1.0000000 )


      isym =  2     180 deg rotation - cart. axis [1,0,0]        

 cryst.   s( 2) = (     1          0          0      )
                  (    -1         -1          0      )
                  (     0          0         -1      )

 cart.    s( 2) = (  1.0000000  0.0000000  0.0000000 )
                  (  0.0000000 -1.0000000  0.0000000 )
                  (  0.0000000  0.0000000 -1.0000000 )


      isym =  3     120 deg rotation - cryst. axis [0,0,1]       

 cryst.   s( 3) = (     0          1          0      )
                  (    -1         -1          0      )
                  (     0          0          1      )

 cart.    s( 3) = ( -0.5000000 -0.8660254  0.0000000 )
                  (  0.8660254 -0.5000000  0.0000000 )
                  (  0.0000000  0.0000000  1.0000000 )


      isym =  4     120 deg rotation - cryst. axis [0,0,-1]      

 cryst.   s( 4) = (    -1         -1          0      )
                  (     1          0          0      )
                  (     0          0          1      )

 cart.    s( 4) = ( -0.5000000  0.8660254  0.0000000 )
                  ( -0.8660254 -0.5000000  0.0000000 )
                  (  0.0000000  0.0000000  1.0000000 )


      isym =  5     180 deg rotation - cryst. axis [0,1,0]       

 cryst.   s( 5) = (    -1         -1          0      )
                  (     0          1          0      )
                  (     0          0         -1      )

 cart.    s( 5) = ( -0.5000000 -0.8660254  0.0000000 )
                  ( -0.8660254  0.5000000  0.0000000 )
                  (  0.0000000  0.0000000 -1.0000000 )


      isym =  6     180 deg rotation - cryst. axis [1,1,0]       

 cryst.   s( 6) = (     0          1          0      )
                  (     1          0          0      )
                  (     0          0         -1      )

 cart.    s( 6) = ( -0.5000000  0.8660254  0.0000000 )
                  (  0.8660254  0.5000000  0.0000000 )
                  (  0.0000000  0.0000000 -1.0000000 )


      isym =  7     inversion                                    

 cryst.   s( 7) = (    -1          0          0      )
                  (     0         -1          0      )
                  (     0          0         -1      )

 cart.    s( 7) = ( -1.0000000  0.0000000  0.0000000 )
                  (  0.0000000 -1.0000000  0.0000000 )
                  (  0.0000000  0.0000000 -1.0000000 )


      isym =  8     inv. 180 deg rotation - cart. axis [1,0,0]   

 cryst.   s( 8) = (    -1          0          0      )
                  (     1          1          0      )
                  (     0          0          1      )

 cart.    s( 8) = ( -1.0000000  0.0000000  0.0000000 )
                  (  0.0000000  1.0000000  0.0000000 )
                  (  0.0000000  0.0000000  1.0000000 )


      isym =  9     inv. 120 deg rotation - cryst. axis [0,0,1]  

 cryst.   s( 9) = (     0         -1          0      )
                  (     1          1          0      )
                  (     0          0         -1      )

 cart.    s( 9) = (  0.5000000  0.8660254  0.0000000 )
                  ( -0.8660254  0.5000000  0.0000000 )
                  (  0.0000000  0.0000000 -1.0000000 )


      isym = 10     inv. 120 deg rotation - cryst. axis [0,0,-1] 

 cryst.   s(10) = (     1          1          0      )
                  (    -1          0          0      )
                  (     0          0         -1      )

 cart.    s(10) = (  0.5000000 -0.8660254  0.0000000 )
                  (  0.8660254  0.5000000  0.0000000 )
                  (  0.0000000  0.0000000 -1.0000000 )


      isym = 11     inv. 180 deg rotation - cryst. axis [0,1,0]  

 cryst.   s(11) = (     1          1          0      )
                  (     0         -1          0      )
                  (     0          0          1      )

 cart.    s(11) = (  0.5000000  0.8660254  0.0000000 )
                  (  0.8660254 -0.5000000  0.0000000 )
                  (  0.0000000  0.0000000  1.0000000 )


      isym = 12     inv. 180 deg rotation - cryst. axis [1,1,0]  

 cryst.   s(12) = (     0         -1          0      )
                  (    -1          0          0      )
                  (     0          0          1      )

 cart.    s(12) = (  0.5000000 -0.8660254  0.0000000 )
                  ( -0.8660254 -0.5000000  0.0000000 )
                  (  0.0000000  0.0000000  1.0000000 )


     point group D_3d (-3m) 
     there are  6 classes
     the character table:

       E     2C3   3C2'  i     2S6   3s_d 
A_1g   1.00  1.00  1.00  1.00  1.00  1.00
A_2g   1.00  1.00 -1.00  1.00  1.00 -1.00
E_g    2.00 -1.00  0.00  2.00 -1.00  0.00
A_1u   1.00  1.00  1.00 -1.00 -1.00 -1.00
A_2u   1.00  1.00 -1.00 -1.00 -1.00  1.00
E_u    2.00 -1.00  0.00 -2.00  1.00  0.00

     the symmetry operations in each class and the name of the first element:

     E        1
          identity                                               
     2C3      3    4
          120 deg rotation - cryst. axis [0,0,1]                 
     3C2'     2    5    6
          180 deg rotation - cart. axis [1,0,0]                  
     i        7
          inversion                                              
     2S6      9   10
          inv. 120 deg rotation - cryst. axis [0,0,1]            
     3s_d     8   11   12
          inv. 180 deg rotation - cart. axis [1,0,0]             

   Cartesian axes

     site n.     atom                  positions (alat units)
         1        Co     tau(   1) = (   0.0000000   0.0000000   0.0000000  )
         2        O      tau(   2) = (  -0.0000000   0.5773503   0.3404255  )
         3        O      tau(   3) = (   0.5000000   0.2886751   1.6099291  )
         4        Li     tau(   4) = (   0.0000000   0.0000000   0.9751773  )

   Crystallographic axes

     site n.     atom                  positions (cryst. coord.)
         1        Co     tau(   1) = (  0.0000000  0.0000000  0.0000000  )
         2        O      tau(   2) = (  0.3333333  0.6666667  0.1745455  )
         3        O      tau(   3) = (  0.6666667  0.3333333  0.8254545  )
         4        Li     tau(   4) = (  0.0000000  0.0000000  0.5000000  )

     number of k points=    25  Marzari-Vanderbilt smearing, width (Ry)=  0.0200
                       cart. coord. in units 2pi/alat
        k(    1) = (   0.0000000   0.0000000   0.0000000), wk =   0.0052083
        k(    2) = (   0.0000000   0.0000000   0.1709091), wk =   0.0104167
        k(    3) = (   0.0000000   0.1443376   0.0000000), wk =   0.0312500
        k(    4) = (   0.0000000   0.1443376   0.1709091), wk =   0.0312500
        k(    5) = (   0.0000000   0.2886751   0.0000000), wk =   0.0312500
        k(    6) = (   0.0000000   0.2886751   0.1709091), wk =   0.0312500
        k(    7) = (   0.0000000   0.4330127   0.0000000), wk =   0.0312500
        k(    8) = (   0.0000000   0.4330127   0.1709091), wk =   0.0312500
        k(    9) = (   0.0000000  -0.5773503   0.0000000), wk =   0.0156250
        k(   10) = (   0.0000000  -0.5773503   0.1709091), wk =   0.0312500
        k(   11) = (   0.1250000   0.2165064   0.0000000), wk =   0.0312500
        k(   12) = (   0.1250000   0.2165064   0.1709091), wk =   0.0625000
        k(   13) = (   0.1250000   0.3608439   0.0000000), wk =   0.0625000
        k(   14) = (   0.1250000   0.3608439   0.1709091), wk =   0.0625000
        k(   15) = (   0.1250000   0.5051815   0.0000000), wk =   0.0625000
        k(   16) = (   0.1250000   0.5051815   0.1709091), wk =   0.0625000
        k(   17) = (   0.2500000   0.4330127   0.0000000), wk =   0.0312500
        k(   18) = (   0.2500000   0.4330127   0.1709091), wk =   0.0625000
        k(   19) = (   0.2500000   0.5773503   0.0000000), wk =   0.0312500
        k(   20) = (   0.2500000   0.5773503   0.1709091), wk =   0.0625000
        k(   21) = (   0.0000000   0.1443376  -0.1709091), wk =   0.0312500
        k(   22) = (   0.0000000   0.2886751  -0.1709091), wk =   0.0312500
        k(   23) = (   0.0000000   0.4330127  -0.1709091), wk =   0.0312500
        k(   24) = (  -0.1250000   0.3608439  -0.1709091), wk =   0.0625000
        k(   25) = (  -0.1250000   0.5051815  -0.1709091), wk =   0.0625000

                       cryst. coord.
        k(    1) = (   0.0000000   0.0000000   0.0000000), wk =   0.0052083
        k(    2) = (   0.0000000   0.0000000   0.3333333), wk =   0.0104167
        k(    3) = (   0.0000000   0.1250000   0.0000000), wk =   0.0312500
        k(    4) = (   0.0000000   0.1250000   0.3333333), wk =   0.0312500
        k(    5) = (   0.0000000   0.2500000   0.0000000), wk =   0.0312500
        k(    6) = (   0.0000000   0.2500000   0.3333333), wk =   0.0312500
        k(    7) = (   0.0000000   0.3750000   0.0000000), wk =   0.0312500
        k(    8) = (   0.0000000   0.3750000   0.3333333), wk =   0.0312500
        k(    9) = (   0.0000000  -0.5000000   0.0000000), wk =   0.0156250
        k(   10) = (   0.0000000  -0.5000000   0.3333333), wk =   0.0312500
        k(   11) = (   0.1250000   0.1250000   0.0000000), wk =   0.0312500
        k(   12) = (   0.1250000   0.1250000   0.3333333), wk =   0.0625000
        k(   13) = (   0.1250000   0.2500000   0.0000000), wk =   0.0625000
        k(   14) = (   0.1250000   0.2500000   0.3333333), wk =   0.0625000
        k(   15) = (   0.1250000   0.3750000   0.0000000), wk =   0.0625000
        k(   16) = (   0.1250000   0.3750000   0.3333333), wk =   0.0625000
        k(   17) = (   0.2500000   0.2500000   0.0000000), wk =   0.0312500
        k(   18) = (   0.2500000   0.2500000   0.3333333), wk =   0.0625000
        k(   19) = (   0.2500000   0.3750000   0.0000000), wk =   0.0312500
        k(   20) = (   0.2500000   0.3750000   0.3333333), wk =   0.0625000
        k(   21) = (   0.0000000   0.1250000  -0.3333333), wk =   0.0312500
        k(   22) = (   0.0000000   0.2500000  -0.3333333), wk =   0.0312500
        k(   23) = (   0.0000000   0.3750000  -0.3333333), wk =   0.0312500
        k(   24) = (  -0.1250000   0.3750000  -0.3333333), wk =   0.0625000
        k(   25) = (  -0.1250000   0.5000000  -0.3333333), wk =   0.0625000

     Dense  grid:    45403 G-vectors     FFT dimensions: (  40,  40,  75)

     Smooth grid:    15993 G-vectors     FFT dimensions: (  27,  27,  54)

     Dynamical RAM for                 wfc:       0.73 MB

     Dynamical RAM for     wfc (w. buffer):      37.47 MB

     Dynamical RAM for           str. fact:       2.08 MB

     Dynamical RAM for           local pot:       0.00 MB

     Dynamical RAM for          nlocal pot:       1.29 MB

     Dynamical RAM for                qrad:       5.27 MB

     Dynamical RAM for          rho,v,vnew:       9.65 MB

     Dynamical RAM for               rhoin:       3.22 MB

     Dynamical RAM for            rho*nmix:      22.17 MB

     Dynamical RAM for           G-vectors:       2.72 MB

     Dynamical RAM for          h,s,v(r/c):       0.11 MB

     Dynamical RAM for          <psi|beta>:       0.02 MB

     Dynamical RAM for                 psi:       1.47 MB

     Dynamical RAM for                hpsi:       1.47 MB

     Dynamical RAM for                spsi:       1.47 MB

     Dynamical RAM for      wfcinit/wfcrot:       1.48 MB

     Dynamical RAM for           addusdens:     130.94 MB

     Dynamical RAM for          addusforce:     132.34 MB

     Estimated static dynamical RAM per process >      69.95 MB

     Estimated max dynamical RAM per process >     224.46 MB

     Check: negative core charge=   -0.000009
     Generating pointlists ...
     new r_m :   0.2765 (alat units)  1.4733 (a.u.) for type    1
     new r_m :   0.2765 (alat units)  1.4733 (a.u.) for type    2
     new r_m :   0.3539 (alat units)  1.8862 (a.u.) for type    3

     Initial potential from superposition of free atoms

     starting charge      31.9951, renormalised to      32.2000
     Starting wfcs are   23 randomized atomic wfcs +    1 random wfcs
     Checking if some PAW data can be deallocated... 

     total cpu time spent up to now is        2.8 secs

     Self-consistent Calculation
[tb_dev] Currently allocated     6.36E-01 Mbytes, locked:    0 /   6
[tb_pin] Currently allocated     0.00E+00 Mbytes, locked:    0 /   0

     iteration #  1     ecut=    60.00 Ry     beta= 0.30
     Davidson diagonalization with overlap

---- Real-time Memory Report at c_bands before calling an iterative solver
           643 MiB given to the printing process from OS
             0 MiB allocation reported by mallinfo(arena+hblkhd)
       1353558 MiB available memory on the node where the printing process lives
     GPU memory used/free/total (MiB): 916 / 80234 / 81151
------------------
     ethr =  1.00E-02,  avg # of iterations =  7.8

     total cpu time spent up to now is        4.7 secs

     total energy              =    -474.80351629 Ry
     estimated scf accuracy    <       1.40858438 Ry

     total magnetization       =     3.84 Bohr mag/cell
     absolute magnetization    =     3.84 Bohr mag/cell
[tb_dev] Currently allocated     3.05E-05 Mbytes, locked:    0 /   2
[tb_pin] Currently allocated     0.00E+00 Mbytes, locked:    0 /   0

     iteration #  2     ecut=    60.00 Ry     beta= 0.30
     Davidson diagonalization with overlap

---- Real-time Memory Report at c_bands before calling an iterative solver
           687 MiB given to the printing process from OS
             0 MiB allocation reported by mallinfo(arena+hblkhd)
       1351705 MiB available memory on the node where the printing process lives
     GPU memory used/free/total (MiB): 928 / 80222 / 81151
------------------
     ethr =  4.37E-03,  avg # of iterations =  1.9

     total cpu time spent up to now is        5.7 secs

     total energy              =    -474.76559148 Ry
     estimated scf accuracy    <       0.45830096 Ry

     total magnetization       =     3.83 Bohr mag/cell
     absolute magnetization    =     3.83 Bohr mag/cell
[tb_dev] Currently allocated     3.05E-05 Mbytes, locked:    0 /   2
[tb_pin] Currently allocated     0.00E+00 Mbytes, locked:    0 /   0

     iteration #  3     ecut=    60.00 Ry     beta= 0.30
     Davidson diagonalization with overlap

---- Real-time Memory Report at c_bands before calling an iterative solver
           690 MiB given to the printing process from OS
             0 MiB allocation reported by mallinfo(arena+hblkhd)
       1350581 MiB available memory on the node where the printing process lives
     GPU memory used/free/total (MiB): 928 / 80222 / 81151
------------------
     ethr =  1.42E-03,  avg # of iterations =  2.5

     total cpu time spent up to now is        6.9 secs

     total energy              =    -474.93014535 Ry
     estimated scf accuracy    <       0.45567451 Ry

     total magnetization       =     1.90 Bohr mag/cell
     absolute magnetization    =     1.96 Bohr mag/cell
[tb_dev] Currently allocated     3.05E-05 Mbytes, locked:    0 /   2
[tb_pin] Currently allocated     0.00E+00 Mbytes, locked:    0 /   0

     iteration #  4     ecut=    60.00 Ry     beta= 0.30
     Davidson diagonalization with overlap

---- Real-time Memory Report at c_bands before calling an iterative solver
           691 MiB given to the printing process from OS
             0 MiB allocation reported by mallinfo(arena+hblkhd)
       1350289 MiB available memory on the node where the printing process lives
     GPU memory used/free/total (MiB): 928 / 80222 / 81151
------------------
     ethr =  1.42E-03,  avg # of iterations =  1.4

     total cpu time spent up to now is        8.0 secs

     total energy              =    -474.96059233 Ry
     estimated scf accuracy    <       0.46050703 Ry

     total magnetization       =     1.92 Bohr mag/cell
     absolute magnetization    =     1.98 Bohr mag/cell
[tb_dev] Currently allocated     3.05E-05 Mbytes, locked:    0 /   2
[tb_pin] Currently allocated     0.00E+00 Mbytes, locked:    0 /   0

     iteration #  5     ecut=    60.00 Ry     beta= 0.30
     Davidson diagonalization with overlap

---- Real-time Memory Report at c_bands before calling an iterative solver
           691 MiB given to the printing process from OS
             0 MiB allocation reported by mallinfo(arena+hblkhd)
       1348390 MiB available memory on the node where the printing process lives
     GPU memory used/free/total (MiB): 928 / 80222 / 81151
------------------
     ethr =  1.42E-03,  avg # of iterations =  1.4

     total cpu time spent up to now is        9.0 secs

     total energy              =    -475.02121294 Ry
     estimated scf accuracy    <       0.74414514 Ry

     total magnetization       =     1.64 Bohr mag/cell
     absolute magnetization    =     1.72 Bohr mag/cell
[tb_dev] Currently allocated     3.05E-05 Mbytes, locked:    0 /   2
[tb_pin] Currently allocated     0.00E+00 Mbytes, locked:    0 /   0

     iteration #  6     ecut=    60.00 Ry     beta= 0.30
     Davidson diagonalization with overlap

---- Real-time Memory Report at c_bands before calling an iterative solver
           693 MiB given to the printing process from OS
             0 MiB allocation reported by mallinfo(arena+hblkhd)
       1346712 MiB available memory on the node where the printing process lives
     GPU memory used/free/total (MiB): 928 / 80222 / 81151
------------------
     ethr =  1.42E-03,  avg # of iterations =  1.1

     total cpu time spent up to now is       10.1 secs

     total energy              =    -474.93846323 Ry
     estimated scf accuracy    <       1.16612922 Ry

     total magnetization       =     0.93 Bohr mag/cell
     absolute magnetization    =     1.23 Bohr mag/cell
[tb_dev] Currently allocated     3.05E-05 Mbytes, locked:    0 /   2
[tb_pin] Currently allocated     0.00E+00 Mbytes, locked:    0 /   0

     iteration #  7     ecut=    60.00 Ry     beta= 0.30
     Davidson diagonalization with overlap

---- Real-time Memory Report at c_bands before calling an iterative solver
           693 MiB given to the printing process from OS
             0 MiB allocation reported by mallinfo(arena+hblkhd)
       1344620 MiB available memory on the node where the printing process lives
     GPU memory used/free/total (MiB): 928 / 80222 / 81151
------------------
     ethr =  1.42E-03,  avg # of iterations =  1.2

     total cpu time spent up to now is       11.1 secs

     total energy              =    -474.97270293 Ry
     estimated scf accuracy    <       0.33211142 Ry

     total magnetization       =     0.99 Bohr mag/cell
     absolute magnetization    =     1.23 Bohr mag/cell
[tb_dev] Currently allocated     3.05E-05 Mbytes, locked:    0 /   2
[tb_pin] Currently allocated     0.00E+00 Mbytes, locked:    0 /   0

     iteration #  8     ecut=    60.00 Ry     beta= 0.30
     Davidson diagonalization with overlap

---- Real-time Memory Report at c_bands before calling an iterative solver
           695 MiB given to the printing process from OS
             0 MiB allocation reported by mallinfo(arena+hblkhd)
       1343185 MiB available memory on the node where the printing process lives
     GPU memory used/free/total (MiB): 928 / 80222 / 81151
------------------
     ethr =  1.03E-03,  avg # of iterations =  1.0

     total cpu time spent up to now is       12.1 secs

     total energy              =    -474.97865474 Ry
     estimated scf accuracy    <       0.27777622 Ry

     total magnetization       =     0.90 Bohr mag/cell
     absolute magnetization    =     1.15 Bohr mag/cell
[tb_dev] Currently allocated     3.05E-05 Mbytes, locked:    0 /   2
[tb_pin] Currently allocated     0.00E+00 Mbytes, locked:    0 /   0

     iteration #  9     ecut=    60.00 Ry     beta= 0.30
     Davidson diagonalization with overlap

---- Real-time Memory Report at c_bands before calling an iterative solver
           695 MiB given to the printing process from OS
             0 MiB allocation reported by mallinfo(arena+hblkhd)
       1360030 MiB available memory on the node where the printing process lives
     GPU memory used/free/total (MiB): 928 / 80222 / 81151
------------------
     ethr =  8.63E-04,  avg # of iterations =  1.1

     total cpu time spent up to now is       13.2 secs

     total energy              =    -474.98396523 Ry
     estimated scf accuracy    <       0.19250900 Ry

     total magnetization       =     0.63 Bohr mag/cell
     absolute magnetization    =     0.96 Bohr mag/cell
[tb_dev] Currently allocated     3.05E-05 Mbytes, locked:    0 /   2
[tb_pin] Currently allocated     0.00E+00 Mbytes, locked:    0 /   0

     iteration # 10     ecut=    60.00 Ry     beta= 0.30
     Davidson diagonalization with overlap

---- Real-time Memory Report at c_bands before calling an iterative solver
           697 MiB given to the printing process from OS
             0 MiB allocation reported by mallinfo(arena+hblkhd)
       1360074 MiB available memory on the node where the printing process lives
     GPU memory used/free/total (MiB): 928 / 80222 / 81151
------------------
     ethr =  5.98E-04,  avg # of iterations =  1.1

     total cpu time spent up to now is       14.2 secs

     total energy              =    -474.98370221 Ry
     estimated scf accuracy    <       0.16440470 Ry

     total magnetization       =     0.56 Bohr mag/cell
     absolute magnetization    =     0.89 Bohr mag/cell
[tb_dev] Currently allocated     3.05E-05 Mbytes, locked:    0 /   2
[tb_pin] Currently allocated     0.00E+00 Mbytes, locked:    0 /   0

     iteration # 11     ecut=    60.00 Ry     beta= 0.30
     Davidson diagonalization with overlap

---- Real-time Memory Report at c_bands before calling an iterative solver
           697 MiB given to the printing process from OS
             0 MiB allocation reported by mallinfo(arena+hblkhd)
       1359102 MiB available memory on the node where the printing process lives
     GPU memory used/free/total (MiB): 928 / 80222 / 81151
------------------
     ethr =  5.11E-04,  avg # of iterations =  1.2

     total cpu time spent up to now is       15.3 secs

     total energy              =    -474.93894286 Ry
     estimated scf accuracy    <       0.11686964 Ry

     total magnetization       =     0.28 Bohr mag/cell
     absolute magnetization    =     0.60 Bohr mag/cell
[tb_dev] Currently allocated     3.05E-05 Mbytes, locked:    0 /   2
[tb_pin] Currently allocated     0.00E+00 Mbytes, locked:    0 /   0

     iteration # 12     ecut=    60.00 Ry     beta= 0.30
     Davidson diagonalization with overlap

---- Real-time Memory Report at c_bands before calling an iterative solver
           697 MiB given to the printing process from OS
             0 MiB allocation reported by mallinfo(arena+hblkhd)
       1358248 MiB available memory on the node where the printing process lives
     GPU memory used/free/total (MiB): 928 / 80222 / 81151
------------------
     ethr =  3.63E-04,  avg # of iterations =  1.1

     total cpu time spent up to now is       16.3 secs

     total energy              =    -474.73465643 Ry
     estimated scf accuracy    <       0.07462384 Ry

     total magnetization       =     1.24 Bohr mag/cell
     absolute magnetization    =     1.39 Bohr mag/cell
[tb_dev] Currently allocated     3.05E-05 Mbytes, locked:    0 /   2
[tb_pin] Currently allocated     0.00E+00 Mbytes, locked:    0 /   0

     iteration # 13     ecut=    60.00 Ry     beta= 0.30
     Davidson diagonalization with overlap

---- Real-time Memory Report at c_bands before calling an iterative solver
           697 MiB given to the printing process from OS
             0 MiB allocation reported by mallinfo(arena+hblkhd)
       1357416 MiB available memory on the node where the printing process lives
     GPU memory used/free/total (MiB): 928 / 80222 / 81151
------------------
     ethr =  2.32E-04,  avg # of iterations =  2.8

     negative rho (up, down):  0.000E+00 2.081E-04

     total cpu time spent up to now is       17.5 secs

     total energy              =    -474.80547249 Ry
     estimated scf accuracy    <       0.16515218 Ry

     total magnetization       =     3.76 Bohr mag/cell
     absolute magnetization    =     3.77 Bohr mag/cell
[tb_dev] Currently allocated     3.05E-05 Mbytes, locked:    0 /   2
[tb_pin] Currently allocated     0.00E+00 Mbytes, locked:    0 /   0

     iteration # 14     ecut=    60.00 Ry     beta= 0.30
     Davidson diagonalization with overlap

---- Real-time Memory Report at c_bands before calling an iterative solver
           697 MiB given to the printing process from OS
             0 MiB allocation reported by mallinfo(arena+hblkhd)
       1356233 MiB available memory on the node where the printing process lives
     GPU memory used/free/total (MiB): 928 / 80222 / 81151
------------------
     ethr =  2.32E-04,  avg # of iterations =  1.5

     total cpu time spent up to now is       18.6 secs

     total energy              =    -474.90292102 Ry
     estimated scf accuracy    <       0.25281381 Ry

     total magnetization       =     3.83 Bohr mag/cell
     absolute magnetization    =     3.85 Bohr mag/cell
[tb_dev] Currently allocated     3.05E-05 Mbytes, locked:    0 /   2
[tb_pin] Currently allocated     0.00E+00 Mbytes, locked:    0 /   0

     iteration # 15     ecut=    60.00 Ry     beta= 0.30
     Davidson diagonalization with overlap

---- Real-time Memory Report at c_bands before calling an iterative solver
           697 MiB given to the printing process from OS
             0 MiB allocation reported by mallinfo(arena+hblkhd)
       1355514 MiB available memory on the node where the printing process lives
     GPU memory used/free/total (MiB): 928 / 80222 / 81151
------------------
     ethr =  2.32E-04,  avg # of iterations =  1.5

     total cpu time spent up to now is       19.6 secs

     total energy              =    -474.93061690 Ry
     estimated scf accuracy    <       0.05525395 Ry

     total magnetization       =     2.99 Bohr mag/cell
     absolute magnetization    =     3.01 Bohr mag/cell
[tb_dev] Currently allocated     3.05E-05 Mbytes, locked:    0 /   2
[tb_pin] Currently allocated     0.00E+00 Mbytes, locked:    0 /   0

     iteration # 16     ecut=    60.00 Ry     beta= 0.30
     Davidson diagonalization with overlap

---- Real-time Memory Report at c_bands before calling an iterative solver
           697 MiB given to the printing process from OS
             0 MiB allocation reported by mallinfo(arena+hblkhd)
       1354730 MiB available memory on the node where the printing process lives
     GPU memory used/free/total (MiB): 928 / 80222 / 81151
------------------
     ethr =  1.72E-04,  avg # of iterations =  2.7

     total cpu time spent up to now is       20.8 secs

     total energy              =    -474.96338102 Ry
     estimated scf accuracy    <       0.05200959 Ry

     total magnetization       =     1.12 Bohr mag/cell
     absolute magnetization    =     1.28 Bohr mag/cell
[tb_dev] Currently allocated     3.05E-05 Mbytes, locked:    0 /   2
[tb_pin] Currently allocated     0.00E+00 Mbytes, locked:    0 /   0

     iteration # 17     ecut=    60.00 Ry     beta= 0.30
     Davidson diagonalization with overlap

---- Real-time Memory Report at c_bands before calling an iterative solver
           697 MiB given to the printing process from OS
             0 MiB allocation reported by mallinfo(arena+hblkhd)
       1353999 MiB available memory on the node where the printing process lives
     GPU memory used/free/total (MiB): 928 / 80222 / 81151
------------------
     ethr =  1.62E-04,  avg # of iterations =  1.0

     total cpu time spent up to now is       21.8 secs

     total energy              =    -474.98618481 Ry
     estimated scf accuracy    <       0.05896475 Ry

     total magnetization       =     1.07 Bohr mag/cell
     absolute magnetization    =     1.26 Bohr mag/cell
[tb_dev] Currently allocated     3.05E-05 Mbytes, locked:    0 /   2
[tb_pin] Currently allocated     0.00E+00 Mbytes, locked:    0 /   0

     iteration # 18     ecut=    60.00 Ry     beta= 0.30
     Davidson diagonalization with overlap

---- Real-time Memory Report at c_bands before calling an iterative solver
           697 MiB given to the printing process from OS
             0 MiB allocation reported by mallinfo(arena+hblkhd)
       1353040 MiB available memory on the node where the printing process lives
     GPU memory used/free/total (MiB): 928 / 80222 / 81151
------------------
     ethr =  1.62E-04,  avg # of iterations =  1.5

     total cpu time spent up to now is       22.8 secs

     total energy              =    -475.00879521 Ry
     estimated scf accuracy    <       0.04528782 Ry

     total magnetization       =     0.06 Bohr mag/cell
     absolute magnetization    =     0.47 Bohr mag/cell
[tb_dev] Currently allocated     3.05E-05 Mbytes, locked:    0 /   2
[tb_pin] Currently allocated     0.00E+00 Mbytes, locked:    0 /   0

     iteration # 19     ecut=    60.00 Ry     beta= 0.30
     Davidson diagonalization with overlap

---- Real-time Memory Report at c_bands before calling an iterative solver
           697 MiB given to the printing process from OS
             0 MiB allocation reported by mallinfo(arena+hblkhd)
       1352025 MiB available memory on the node where the printing process lives
     GPU memory used/free/total (MiB): 928 / 80222 / 81151
------------------
     ethr =  1.41E-04,  avg # of iterations =  1.0

     total cpu time spent up to now is       23.8 secs

     total energy              =    -475.00913813 Ry
     estimated scf accuracy    <       0.05045799 Ry

     total magnetization       =     0.07 Bohr mag/cell
     absolute magnetization    =     0.48 Bohr mag/cell
[tb_dev] Currently allocated     3.05E-05 Mbytes, locked:    0 /   2
[tb_pin] Currently allocated     0.00E+00 Mbytes, locked:    0 /   0

     iteration # 20     ecut=    60.00 Ry     beta= 0.30
     Davidson diagonalization with overlap

---- Real-time Memory Report at c_bands before calling an iterative solver
           697 MiB given to the printing process from OS
             0 MiB allocation reported by mallinfo(arena+hblkhd)
       1351291 MiB available memory on the node where the printing process lives
     GPU memory used/free/total (MiB): 928 / 80222 / 81151
------------------
     ethr =  1.41E-04,  avg # of iterations =  1.0

     total cpu time spent up to now is       24.8 secs

     total energy              =    -475.01028966 Ry
     estimated scf accuracy    <       0.05131709 Ry

     total magnetization       =     0.07 Bohr mag/cell
     absolute magnetization    =     0.47 Bohr mag/cell
[tb_dev] Currently allocated     3.05E-05 Mbytes, locked:    0 /   2
[tb_pin] Currently allocated     0.00E+00 Mbytes, locked:    0 /   0

     iteration # 21     ecut=    60.00 Ry     beta= 0.30
     Davidson diagonalization with overlap

---- Real-time Memory Report at c_bands before calling an iterative solver
           697 MiB given to the printing process from OS
             0 MiB allocation reported by mallinfo(arena+hblkhd)
       1350414 MiB available memory on the node where the printing process lives
     GPU memory used/free/total (MiB): 928 / 80222 / 81151
------------------
     ethr =  1.41E-04,  avg # of iterations =  1.1

     total cpu time spent up to now is       25.8 secs

     total energy              =    -475.00402500 Ry
     estimated scf accuracy    <       0.04281193 Ry

     total magnetization       =     0.06 Bohr mag/cell
     absolute magnetization    =     0.46 Bohr mag/cell
[tb_dev] Currently allocated     3.05E-05 Mbytes, locked:    0 /   2
[tb_pin] Currently allocated     0.00E+00 Mbytes, locked:    0 /   0

     iteration # 22     ecut=    60.00 Ry     beta= 0.30
     Davidson diagonalization with overlap

---- Real-time Memory Report at c_bands before calling an iterative solver
           697 MiB given to the printing process from OS
             0 MiB allocation reported by mallinfo(arena+hblkhd)
       1349423 MiB available memory on the node where the printing process lives
     GPU memory used/free/total (MiB): 928 / 80222 / 81151
------------------
     ethr =  1.33E-04,  avg # of iterations =  1.0

     total cpu time spent up to now is       26.8 secs

     total energy              =    -475.01262615 Ry
     estimated scf accuracy    <       0.05607253 Ry

     total magnetization       =     0.10 Bohr mag/cell
     absolute magnetization    =     0.51 Bohr mag/cell
[tb_dev] Currently allocated     3.05E-05 Mbytes, locked:    0 /   2
[tb_pin] Currently allocated     0.00E+00 Mbytes, locked:    0 /   0

     iteration # 23     ecut=    60.00 Ry     beta= 0.30
     Davidson diagonalization with overlap

---- Real-time Memory Report at c_bands before calling an iterative solver
           697 MiB given to the printing process from OS
             0 MiB allocation reported by mallinfo(arena+hblkhd)
       1347533 MiB available memory on the node where the printing process lives
     GPU memory used/free/total (MiB): 928 / 80222 / 81151
------------------
     ethr =  1.33E-04,  avg # of iterations =  1.0

     total cpu time spent up to now is       27.8 secs

     total energy              =    -475.02470640 Ry
     estimated scf accuracy    <       0.03598749 Ry

     total magnetization       =     0.08 Bohr mag/cell
     absolute magnetization    =     0.46 Bohr mag/cell
[tb_dev] Currently allocated     3.05E-05 Mbytes, locked:    0 /   2
[tb_pin] Currently allocated     0.00E+00 Mbytes, locked:    0 /   0

     iteration # 24     ecut=    60.00 Ry     beta= 0.30
     Davidson diagonalization with overlap

---- Real-time Memory Report at c_bands before calling an iterative solver
           697 MiB given to the printing process from OS
             0 MiB allocation reported by mallinfo(arena+hblkhd)
       1345946 MiB available memory on the node where the printing process lives
     GPU memory used/free/total (MiB): 928 / 80222 / 81151
------------------
     ethr =  1.12E-04,  avg # of iterations =  1.8

     total cpu time spent up to now is       28.9 secs

     total energy              =    -475.02095635 Ry
     estimated scf accuracy    <       0.00994409 Ry

     total magnetization       =     0.08 Bohr mag/cell
     absolute magnetization    =     0.20 Bohr mag/cell
[tb_dev] Currently allocated     3.05E-05 Mbytes, locked:    0 /   2
[tb_pin] Currently allocated     0.00E+00 Mbytes, locked:    0 /   0

     iteration # 25     ecut=    60.00 Ry     beta= 0.30
     Davidson diagonalization with overlap

---- Real-time Memory Report at c_bands before calling an iterative solver
           697 MiB given to the printing process from OS
             0 MiB allocation reported by mallinfo(arena+hblkhd)
       1343489 MiB available memory on the node where the printing process lives
     GPU memory used/free/total (MiB): 928 / 80222 / 81151
------------------
     ethr =  3.09E-05,  avg # of iterations =  3.2

     total cpu time spent up to now is       30.1 secs

     total energy              =    -475.02609423 Ry
     estimated scf accuracy    <       0.01960872 Ry

     total magnetization       =    -0.11 Bohr mag/cell
     absolute magnetization    =     0.16 Bohr mag/cell
[tb_dev] Currently allocated     3.05E-05 Mbytes, locked:    0 /   2
[tb_pin] Currently allocated     0.00E+00 Mbytes, locked:    0 /   0

     iteration # 26     ecut=    60.00 Ry     beta= 0.30
     Davidson diagonalization with overlap

---- Real-time Memory Report at c_bands before calling an iterative solver
           697 MiB given to the printing process from OS
             0 MiB allocation reported by mallinfo(arena+hblkhd)
       1360525 MiB available memory on the node where the printing process lives
     GPU memory used/free/total (MiB): 928 / 80222 / 81151
------------------
     ethr =  3.09E-05,  avg # of iterations =  1.0

     total cpu time spent up to now is       31.0 secs

     total energy              =    -475.02645713 Ry
     estimated scf accuracy    <       0.01327728 Ry

     total magnetization       =     0.02 Bohr mag/cell
     absolute magnetization    =     0.16 Bohr mag/cell
[tb_dev] Currently allocated     3.05E-05 Mbytes, locked:    0 /   2
[tb_pin] Currently allocated     0.00E+00 Mbytes, locked:    0 /   0

     iteration # 27     ecut=    60.00 Ry     beta= 0.30
     Davidson diagonalization with overlap

---- Real-time Memory Report at c_bands before calling an iterative solver
           697 MiB given to the printing process from OS
             0 MiB allocation reported by mallinfo(arena+hblkhd)
       1359602 MiB available memory on the node where the printing process lives
     GPU memory used/free/total (MiB): 928 / 80222 / 81151
------------------
     ethr =  3.09E-05,  avg # of iterations =  1.1

     total cpu time spent up to now is       32.0 secs

     total energy              =    -475.02773986 Ry
     estimated scf accuracy    <       0.00479595 Ry

     total magnetization       =     0.16 Bohr mag/cell
     absolute magnetization    =     0.29 Bohr mag/cell
[tb_dev] Currently allocated     3.05E-05 Mbytes, locked:    0 /   2
[tb_pin] Currently allocated     0.00E+00 Mbytes, locked:    0 /   0

     iteration # 28     ecut=    60.00 Ry     beta= 0.30
     Davidson diagonalization with overlap

---- Real-time Memory Report at c_bands before calling an iterative solver
           697 MiB given to the printing process from OS
             0 MiB allocation reported by mallinfo(arena+hblkhd)
       1359022 MiB available memory on the node where the printing process lives
     GPU memory used/free/total (MiB): 928 / 80222 / 81151
------------------
     ethr =  1.49E-05,  avg # of iterations =  1.5

     total cpu time spent up to now is       33.1 secs

     total energy              =    -475.02678615 Ry
     estimated scf accuracy    <       0.00461028 Ry

     total magnetization       =     0.16 Bohr mag/cell
     absolute magnetization    =     0.30 Bohr mag/cell
[tb_dev] Currently allocated     3.05E-05 Mbytes, locked:    0 /   2
[tb_pin] Currently allocated     0.00E+00 Mbytes, locked:    0 /   0

     iteration # 29     ecut=    60.00 Ry     beta= 0.30
     Davidson diagonalization with overlap

---- Real-time Memory Report at c_bands before calling an iterative solver
           697 MiB given to the printing process from OS
             0 MiB allocation reported by mallinfo(arena+hblkhd)
       1358123 MiB available memory on the node where the printing process lives
     GPU memory used/free/total (MiB): 928 / 80222 / 81151
------------------
     ethr =  1.43E-05,  avg # of iterations =  1.3

     total cpu time spent up to now is       34.1 secs

     total energy              =    -475.02674996 Ry
     estimated scf accuracy    <       0.00276787 Ry

     total magnetization       =     0.19 Bohr mag/cell
     absolute magnetization    =     0.33 Bohr mag/cell
[tb_dev] Currently allocated     3.05E-05 Mbytes, locked:    0 /   2
[tb_pin] Currently allocated     0.00E+00 Mbytes, locked:    0 /   0

     iteration # 30     ecut=    60.00 Ry     beta= 0.30
     Davidson diagonalization with overlap

---- Real-time Memory Report at c_bands before calling an iterative solver
           697 MiB given to the printing process from OS
             0 MiB allocation reported by mallinfo(arena+hblkhd)
       1357258 MiB available memory on the node where the printing process lives
     GPU memory used/free/total (MiB): 928 / 80222 / 81151
------------------
     ethr =  8.60E-06,  avg # of iterations =  1.4

     total cpu time spent up to now is       35.1 secs

     total energy              =    -475.02658370 Ry
     estimated scf accuracy    <       0.00276204 Ry

     total magnetization       =     0.19 Bohr mag/cell
     absolute magnetization    =     0.33 Bohr mag/cell
[tb_dev] Currently allocated     3.05E-05 Mbytes, locked:    0 /   2
[tb_pin] Currently allocated     0.00E+00 Mbytes, locked:    0 /   0

     iteration # 31     ecut=    60.00 Ry     beta= 0.30
     Davidson diagonalization with overlap

---- Real-time Memory Report at c_bands before calling an iterative solver
           697 MiB given to the printing process from OS
             0 MiB allocation reported by mallinfo(arena+hblkhd)
       1356792 MiB available memory on the node where the printing process lives
     GPU memory used/free/total (MiB): 928 / 80222 / 81151
------------------
     c_bands:  1 eigenvalues not converged
     ethr =  8.58E-06,  avg # of iterations =  2.1

     total cpu time spent up to now is       36.2 secs

     total energy              =    -475.02656545 Ry
     estimated scf accuracy    <       0.00365547 Ry

     total magnetization       =     0.19 Bohr mag/cell
     absolute magnetization    =     0.33 Bohr mag/cell
[tb_dev] Currently allocated     3.05E-05 Mbytes, locked:    0 /   2
[tb_pin] Currently allocated     0.00E+00 Mbytes, locked:    0 /   0

     iteration # 32     ecut=    60.00 Ry     beta= 0.30
     Davidson diagonalization with overlap

---- Real-time Memory Report at c_bands before calling an iterative solver
           697 MiB given to the printing process from OS
             0 MiB allocation reported by mallinfo(arena+hblkhd)
       1355710 MiB available memory on the node where the printing process lives
     GPU memory used/free/total (MiB): 928 / 80222 / 81151
------------------
     ethr =  8.58E-06,  avg # of iterations =  1.2

     total cpu time spent up to now is       37.2 secs

     total energy              =    -475.02723451 Ry
     estimated scf accuracy    <       0.00240020 Ry

     total magnetization       =     0.19 Bohr mag/cell
     absolute magnetization    =     0.33 Bohr mag/cell
[tb_dev] Currently allocated     3.05E-05 Mbytes, locked:    0 /   2
[tb_pin] Currently allocated     0.00E+00 Mbytes, locked:    0 /   0

     iteration # 33     ecut=    60.00 Ry     beta= 0.30
     Davidson diagonalization with overlap

---- Real-time Memory Report at c_bands before calling an iterative solver
           697 MiB given to the printing process from OS
             0 MiB allocation reported by mallinfo(arena+hblkhd)
       1355033 MiB available memory on the node where the printing process lives
     GPU memory used/free/total (MiB): 928 / 80222 / 81151
------------------
     ethr =  7.45E-06,  avg # of iterations =  1.2

     total cpu time spent up to now is       38.2 secs

     total energy              =    -475.02832995 Ry
     estimated scf accuracy    <       0.00038840 Ry

     total magnetization       =     0.12 Bohr mag/cell
     absolute magnetization    =     0.17 Bohr mag/cell
[tb_dev] Currently allocated     3.05E-05 Mbytes, locked:    0 /   2
[tb_pin] Currently allocated     0.00E+00 Mbytes, locked:    0 /   0

     iteration # 34     ecut=    60.00 Ry     beta= 0.30
     Davidson diagonalization with overlap

---- Real-time Memory Report at c_bands before calling an iterative solver
           697 MiB given to the printing process from OS
             0 MiB allocation reported by mallinfo(arena+hblkhd)
       1354008 MiB available memory on the node where the printing process lives
     GPU memory used/free/total (MiB): 928 / 80222 / 81151
------------------
     ethr =  1.21E-06,  avg # of iterations =  3.4

     total cpu time spent up to now is       39.4 secs

     total energy              =    -475.02844129 Ry
     estimated scf accuracy    <       0.00009091 Ry

     total magnetization       =     0.11 Bohr mag/cell
     absolute magnetization    =     0.14 Bohr mag/cell
[tb_dev] Currently allocated     3.05E-05 Mbytes, locked:    0 /   2
[tb_pin] Currently allocated     0.00E+00 Mbytes, locked:    0 /   0

     iteration # 35     ecut=    60.00 Ry     beta= 0.30
     Davidson diagonalization with overlap

---- Real-time Memory Report at c_bands before calling an iterative solver
           697 MiB given to the printing process from OS
             0 MiB allocation reported by mallinfo(arena+hblkhd)
       1352824 MiB available memory on the node where the printing process lives
     GPU memory used/free/total (MiB): 928 / 80222 / 81151
------------------
     ethr =  2.82E-07,  avg # of iterations =  4.0

     total cpu time spent up to now is       40.8 secs

     total energy              =    -475.02853484 Ry
     estimated scf accuracy    <       0.00002848 Ry

     total magnetization       =     0.07 Bohr mag/cell
     absolute magnetization    =     0.10 Bohr mag/cell
[tb_dev] Currently allocated     3.05E-05 Mbytes, locked:    0 /   2
[tb_pin] Currently allocated     0.00E+00 Mbytes, locked:    0 /   0

     iteration # 36     ecut=    60.00 Ry     beta= 0.30
     Davidson diagonalization with overlap

---- Real-time Memory Report at c_bands before calling an iterative solver
           697 MiB given to the printing process from OS
             0 MiB allocation reported by mallinfo(arena+hblkhd)
       1351943 MiB available memory on the node where the printing process lives
     GPU memory used/free/total (MiB): 928 / 80222 / 81151
------------------
     ethr =  8.85E-08,  avg # of iterations =  3.0

     total cpu time spent up to now is       42.0 secs

     total energy              =    -475.02856100 Ry
     estimated scf accuracy    <       0.00001343 Ry

     total magnetization       =     0.06 Bohr mag/cell
     absolute magnetization    =     0.08 Bohr mag/cell
[tb_dev] Currently allocated     3.05E-05 Mbytes, locked:    0 /   2
[tb_pin] Currently allocated     0.00E+00 Mbytes, locked:    0 /   0

     iteration # 37     ecut=    60.00 Ry     beta= 0.30
     Davidson diagonalization with overlap

---- Real-time Memory Report at c_bands before calling an iterative solver
           697 MiB given to the printing process from OS
             0 MiB allocation reported by mallinfo(arena+hblkhd)
       1349625 MiB available memory on the node where the printing process lives
     GPU memory used/free/total (MiB): 928 / 80222 / 81151
------------------
     ethr =  4.17E-08,  avg # of iterations =  5.7

     total cpu time spent up to now is       43.5 secs

     total energy              =    -475.02858085 Ry
     estimated scf accuracy    <       0.00000726 Ry

     total magnetization       =     0.04 Bohr mag/cell
     absolute magnetization    =     0.06 Bohr mag/cell
[tb_dev] Currently allocated     3.05E-05 Mbytes, locked:    0 /   2
[tb_pin] Currently allocated     0.00E+00 Mbytes, locked:    0 /   0

     iteration # 38     ecut=    60.00 Ry     beta= 0.30
     Davidson diagonalization with overlap

---- Real-time Memory Report at c_bands before calling an iterative solver
           697 MiB given to the printing process from OS
             0 MiB allocation reported by mallinfo(arena+hblkhd)
       1349874 MiB available memory on the node where the printing process lives
     GPU memory used/free/total (MiB): 928 / 80222 / 81151
------------------
     ethr =  2.26E-08,  avg # of iterations =  3.6

     total cpu time spent up to now is       44.8 secs

     total energy              =    -475.02858508 Ry
     estimated scf accuracy    <       0.00000407 Ry

     total magnetization       =     0.03 Bohr mag/cell
     absolute magnetization    =     0.04 Bohr mag/cell
[tb_dev] Currently allocated     3.05E-05 Mbytes, locked:    0 /   2
[tb_pin] Currently allocated     0.00E+00 Mbytes, locked:    0 /   0

     iteration # 39     ecut=    60.00 Ry     beta= 0.30
     Davidson diagonalization with overlap

---- Real-time Memory Report at c_bands before calling an iterative solver
           697 MiB given to the printing process from OS
             0 MiB allocation reported by mallinfo(arena+hblkhd)
       1348660 MiB available memory on the node where the printing process lives
     GPU memory used/free/total (MiB): 928 / 80222 / 81151
------------------
     ethr =  1.26E-08,  avg # of iterations =  4.3

     total cpu time spent up to now is       46.2 secs

     total energy              =    -475.02859704 Ry
     estimated scf accuracy    <       0.00000159 Ry

     total magnetization       =     0.02 Bohr mag/cell
     absolute magnetization    =     0.02 Bohr mag/cell
[tb_dev] Currently allocated     3.05E-05 Mbytes, locked:    0 /   2
[tb_pin] Currently allocated     0.00E+00 Mbytes, locked:    0 /   0

     iteration # 40     ecut=    60.00 Ry     beta= 0.30
     Davidson diagonalization with overlap

---- Real-time Memory Report at c_bands before calling an iterative solver
           697 MiB given to the printing process from OS
             0 MiB allocation reported by mallinfo(arena+hblkhd)
       1346150 MiB available memory on the node where the printing process lives
     GPU memory used/free/total (MiB): 928 / 80222 / 81151
------------------
     ethr =  4.94E-09,  avg # of iterations =  2.4

     total cpu time spent up to now is       47.3 secs

     total energy              =    -475.02859347 Ry
     estimated scf accuracy    <       0.00000086 Ry

     total magnetization       =     0.01 Bohr mag/cell
     absolute magnetization    =     0.02 Bohr mag/cell
[tb_dev] Currently allocated     3.05E-05 Mbytes, locked:    0 /   2
[tb_pin] Currently allocated     0.00E+00 Mbytes, locked:    0 /   0

     iteration # 41     ecut=    60.00 Ry     beta= 0.30
     Davidson diagonalization with overlap

---- Real-time Memory Report at c_bands before calling an iterative solver
           697 MiB given to the printing process from OS
             0 MiB allocation reported by mallinfo(arena+hblkhd)
       1344210 MiB available memory on the node where the printing process lives
     GPU memory used/free/total (MiB): 928 / 80222 / 81151
------------------
     ethr =  2.67E-09,  avg # of iterations =  4.5

     total cpu time spent up to now is       48.7 secs

     total energy              =    -475.02859967 Ry
     estimated scf accuracy    <       0.00000011 Ry

     total magnetization       =     0.00 Bohr mag/cell
     absolute magnetization    =     0.00 Bohr mag/cell
[tb_dev] Currently allocated     3.05E-05 Mbytes, locked:    0 /   2
[tb_pin] Currently allocated     0.00E+00 Mbytes, locked:    0 /   0

     iteration # 42     ecut=    60.00 Ry     beta= 0.30
     Davidson diagonalization with overlap

---- Real-time Memory Report at c_bands before calling an iterative solver
           697 MiB given to the printing process from OS
             0 MiB allocation reported by mallinfo(arena+hblkhd)
       1341886 MiB available memory on the node where the printing process lives
     GPU memory used/free/total (MiB): 928 / 80222 / 81151
------------------
     ethr =  3.55E-10,  avg # of iterations =  5.6
 
     Magnetic moment per site  (integrated on atomic sphere of radius R)
     atom   1 (R=0.276)  charge= 14.1259  magn=  0.0008
     atom   2 (R=0.276)  charge=  5.2401  magn= -0.0000
     atom   3 (R=0.276)  charge=  5.2401  magn= -0.0000
     atom   4 (R=0.354)  charge=  2.2207  magn=  0.0000

     total cpu time spent up to now is       50.2 secs

     End of self-consistent calculation

 ------ SPIN UP ------------


          k = 0.0000 0.0000 0.0000 (  2029 PWs)   bands (ev):

   -85.5052 -48.7910 -48.7910 -48.7371 -37.7495 -11.0534  -9.1668   2.2288
     3.8292   3.8292   6.1366   7.1266   7.1266   8.3417   8.3417   9.2105
    11.8439  11.9100  11.9100  16.3463  19.1782  22.4412  24.6656  24.6656

     occupation numbers 
     1.0000   1.0000   1.0000   1.0000   1.0000   1.0000   1.0000   1.0000
     1.0000   1.0000   1.0000   1.0000   1.0000   1.0000   1.0000   1.0000
     0.0000   0.0000   0.0000   0.0000   0.0000   0.0000   0.0000   0.0000

          k = 0.0000 0.0000 0.1709 (  2024 PWs)   bands (ev):

   -85.5052 -48.7909 -48.7909 -48.7371 -37.7494 -11.0425  -9.1896   2.5124
     3.8306   3.8306   5.4562   7.1226   7.1226   8.3401   8.3401   9.4641
    11.9175  11.9175  12.6403  15.5155  18.9690  22.8325  24.8322  24.8322

     occupation numbers 
     1.0000   1.0000   1.0000   1.0000   1.0000   1.0000   1.0000   1.0000
     1.0000   1.0000   1.0000   1.0000   1.0000   1.0000   1.0000   1.0000
     0.0000   0.0000   0.0000   0.0000   0.0000   0.0000   0.0000   0.0000

          k = 0.0000 0.1443 0.0000 (  2019 PWs)   bands (ev):

   -85.5041 -48.8025 -48.7937 -48.7353 -37.7453 -10.8625  -9.1472   2.4587
     3.4462   3.9284   6.0573   6.5870   6.6455   8.5598   8.7369   9.2352
    11.3368  11.8081  12.2678  16.8465  19.5743  22.8695  23.3778  24.0494

     occupation numbers 
     1.0000   1.0000   1.0000   1.0000   1.0000   1.0000   1.0000   1.0000
     1.0000   1.0000   1.0000   1.0000   1.0000   1.0000   1.0000   1.0000
     0.0000   0.0000   0.0000   0.0000   0.0000   0.0000   0.0000   0.0000

          k = 0.0000 0.1443 0.1709 (  2019 PWs)   bands (ev):

   -85.5041 -48.8025 -48.7937 -48.7353 -37.7452 -10.8510  -9.1692   2.7246
     3.3816   3.9271   5.9918   6.0956   6.6493   8.5390   8.7375   9.5154
    11.2191  11.8027  13.0758  16.0615  19.6141  22.7670  23.5150  24.0408

     occupation numbers 
     1.0000   1.0000   1.0000   1.0000   1.0000   1.0000   1.0000   1.0000
     1.0000   1.0000   1.0000   1.0000   1.0000   1.0000   1.0000   1.0000
     0.0003   0.0000   0.0000   0.0000   0.0000   0.0000   0.0000   0.0000

          k = 0.0000 0.2887 0.0000 (  2021 PWs)   bands (ev):

   -85.5014 -48.8307 -48.8003 -48.7310 -37.7352 -10.3594  -9.1127   2.8906
     3.1018   4.1578   4.4035   5.9964   6.7944   8.6128   9.0902   9.3059
    10.7290  11.6910  12.9349  17.4852  20.3197  20.9525  22.8216  23.6463

     occupation numbers 
     1.0000   1.0000   1.0000   1.0000   1.0000   1.0000   1.0000   1.0000
     1.0000   1.0000   1.0000   1.0000   1.0000   1.0000   1.0000   1.0000
     0.2807   0.0000   0.0000   0.0000   0.0000   0.0000   0.0000   0.0000

          k = 0.0000 0.2887 0.1709 (  2008 PWs)   bands (ev):

   -85.5014 -48.8308 -48.8002 -48.7308 -37.7351 -10.3479  -9.1302   2.7409
     3.3442   4.1506   4.4338   6.0102   6.6064   8.5229   9.0960   9.5103
    10.4343  11.6660  13.5500  17.1189  20.1479  21.0554  22.8558  23.1361

     occupation numbers 
     1.0000   1.0000   1.0000   1.0000   1.0000   1.0000   1.0000   1.0000
     1.0000   1.0000   1.0000   1.0000   1.0000   1.0000   1.0000   1.0000
     0.9891   0.0000   0.0000   0.0000   0.0000   0.0000   0.0000   0.0000

          k = 0.0000 0.4330 0.0000 (  2014 PWs)   bands (ev):

   -85.4987 -48.8590 -48.8070 -48.7264 -37.7250  -9.7516  -9.1299   2.3387
     3.2856   4.1182   4.3305   5.6520   5.9969   8.5215   9.0573   9.2955
    11.0528  11.7469  13.3853  17.5479  18.7344  21.0137  21.8646  23.2108

     occupation numbers 
     1.0000   1.0000   1.0000   1.0000   1.0000   1.0000   1.0000   1.0000
     1.0000   1.0000   1.0000   1.0000   1.0000   1.0000   1.0000   1.0000
     0.0067   0.0000   0.0000   0.0000   0.0000   0.0000   0.0000   0.0000

          k = 0.0000 0.4330 0.1709 (  1996 PWs)   bands (ev):

   -85.4986 -48.8589 -48.8068 -48.7264 -37.7249  -9.7454  -9.1363   2.2035
     3.2549   4.2637   4.3133   5.6815   6.2517   8.3909   9.0601   9.3313
    10.7126  11.7081  13.6516  17.9781  18.1068  21.3763  21.9950  22.6318

     occupation numbers 
     1.0000   1.0000   1.0000   1.0000   1.0000   1.0000   1.0000   1.0000
     1.0000   1.0000   1.0000   1.0000   1.0000   1.0000   1.0000   1.0000
     0.3166   0.0000   0.0000   0.0000   0.0000   0.0000   0.0000   0.0000

          k = 0.0000-0.5774 0.0000 (  1982 PWs)   bands (ev):

   -85.4975 -48.8704 -48.8096 -48.7245 -37.7207  -9.3239  -9.2920   1.9007
     3.3200   4.3621   4.6794   5.2649   5.5949   8.4222   8.9701   9.2596
    11.4097  11.8072  13.4868  17.3597  18.1324  20.9609  21.5192  23.0648

     occupation numbers 
     1.0000   1.0000   1.0000   1.0000   1.0000   1.0000   1.0000   1.0000
     1.0000   1.0000   1.0000   1.0000   1.0000   1.0000   1.0000   1.0000
     0.0000   0.0000   0.0000   0.0000   0.0000   0.0000   0.0000   0.0000

          k = 0.0000-0.5774 0.1709 (  2004 PWs)   bands (ev):

   -85.4975 -48.8707 -48.8096 -48.7246 -37.7207  -9.3159  -9.2988   1.8017
     3.2817   4.3442   4.5852   5.6250   5.7263   8.3162   8.9696   9.2305
    11.2433  11.7690  13.4979  17.0251  19.0684  20.4692  21.6880  23.1021

     occupation numbers 
     1.0000   1.0000   1.0000   1.0000   1.0000   1.0000   1.0000   1.0000
     1.0000   1.0000   1.0000   1.0000   1.0000   1.0000   1.0000   1.0000
     0.0002   0.0000   0.0000   0.0000   0.0000   0.0000   0.0000   0.0000

          k = 0.1250 0.2165 0.0000 (  2017 PWs)   bands (ev):

   -85.5022 -48.8212 -48.7997 -48.7322 -37.7381 -10.5152  -9.1193   2.8796
     3.0840   4.0208   4.9914   5.9113   6.8858   8.7183   9.0192   9.2847
    11.0504  11.2864  12.9009  17.3961  20.2209  21.7446  22.5096  23.6421

     occupation numbers 
     1.0000   1.0000   1.0000   1.0000   1.0000   1.0000   1.0000   1.0000
     1.0000   1.0000   1.0000   1.0000   1.0000   1.0000   1.0000   1.0000
     0.0070   0.0001   0.0000   0.0000   0.0000   0.0000   0.0000   0.0000

          k = 0.1250 0.2165 0.1709 (  2012 PWs)   bands (ev):

   -85.5022 -48.8211 -48.7997 -48.7321 -37.7381 -10.5023  -9.1404   2.9154
     3.2054   4.0229   4.9929   5.8992   6.5047   8.7326   8.9593   9.4902
    10.8360  11.4959  13.3263  17.0230  20.2712  21.4730  22.7545  23.2347

     occupation numbers 
     1.0000   1.0000   1.0000   1.0000   1.0000   1.0000   1.0000   1.0000
     1.0000   1.0000   1.0000   1.0000   1.0000   1.0000   1.0000   1.0000
     0.1095   0.0000   0.0000   0.0000   0.0000   0.0000   0.0000   0.0000

          k = 0.1250 0.3608 0.0000 (  2004 PWs)   bands (ev):

   -85.4994 -48.8465 -48.8091 -48.7277 -37.7279  -9.9591  -9.1031   2.7842
     3.3021   3.8573   4.3332   5.3224   6.4904   8.6989   9.1786   9.2967
    10.8547  11.3231  13.5088  17.6725  19.3809  20.7647  22.0446  23.8629

     occupation numbers 
     1.0000   1.0000   1.0000   1.0000   1.0000   1.0000   1.0000   1.0000
     1.0000   1.0000   1.0000   1.0000   1.0000   1.0000   1.0000   1.0000
     0.0903   0.0000   0.0000   0.0000   0.0000   0.0000   0.0000   0.0000

          k = 0.1250 0.3608 0.1709 (  2005 PWs)   bands (ev):

   -85.4994 -48.8465 -48.8092 -48.7278 -37.7279  -9.9480  -9.1172   2.6292
     3.3007   4.0960   4.3279   5.3377   6.4792   8.6523   9.1229   9.3466
    10.6775  11.4208  13.6425  17.9367  18.8392  20.6653  22.5744  23.2136

     occupation numbers 
     1.0000   1.0000   1.0000   1.0000   1.0000   1.0000   1.0000   1.0000
     1.0000   1.0000   1.0000   1.0000   1.0000   1.0000   1.0000   1.0000
     0.4004   0.0000   0.0000   0.0000   0.0000   0.0000   0.0000   0.0000

          k = 0.1250 0.5052 0.0000 (  1995 PWs)   bands (ev):

   -85.4975 -48.8642 -48.8160 -48.7245 -37.7207  -9.4474  -9.1711   2.2150
     3.2162   4.3495   4.4769   5.1022   5.6094   8.5951   9.0270   9.3116
    11.1721  11.4439  13.8924  17.1084  18.5358  20.5734  22.1224  23.2802

     occupation numbers 
     1.0000   1.0000   1.0000   1.0000   1.0000   1.0000   1.0000   1.0000
     1.0000   1.0000   1.0000   1.0000   1.0000   1.0000   1.0000   1.0000
     0.0009   0.0000   0.0000   0.0000   0.0000   0.0000   0.0000   0.0000

          k = 0.1250 0.5052 0.1709 (  1996 PWs)   bands (ev):

   -85.4975 -48.8643 -48.8160 -48.7246 -37.7207  -9.4448  -9.1726   2.1073
     3.1559   4.3575   4.4916   5.1608   5.9046   8.4953   9.0416   9.2678
    11.0827  11.5440  13.7168  16.9873  18.8453  20.4370  22.0715  23.2263

     occupation numbers 
     1.0000   1.0000   1.0000   1.0000   1.0000   1.0000   1.0000   1.0000
     1.0000   1.0000   1.0000   1.0000   1.0000   1.0000   1.0000   1.0000
     0.0041   0.0000   0.0000   0.0000   0.0000   0.0000   0.0000   0.0000

          k = 0.2500 0.4330 0.0000 (  2011 PWs)   bands (ev):

   -85.4975 -48.8555 -48.8251 -48.7245 -37.7208  -9.5051  -9.1159   2.8442
     2.9345   4.0492   4.3899   4.7767   5.8808   8.7090   9.0766   9.4110
    10.7807  11.2958  14.2249  16.8588  18.9301  20.3064  22.7822  23.8466

     occupation numbers 
     1.0000   1.0000   1.0000   1.0000   1.0000   1.0000   1.0000   1.0000
     1.0000   1.0000   1.0000   1.0000   1.0000   1.0000   1.0000   1.0000
     0.1846   0.0001   0.0000   0.0000   0.0000   0.0000   0.0000   0.0000

          k = 0.2500 0.4330 0.1709 (  2010 PWs)   bands (ev):

   -85.4975 -48.8554 -48.8251 -48.7246 -37.7207  -9.4946  -9.1267   2.7802
     2.8077   4.0303   4.6443   4.8049   5.8907   8.7175   9.0865   9.2684
    11.0389  11.3465  13.8515  16.8013  19.2061  20.0479  22.4422  23.8397

     occupation numbers 
     1.0000   1.0000   1.0000   1.0000   1.0000   1.0000   1.0000   1.0000
     1.0000   1.0000   1.0000   1.0000   1.0000   1.0000   1.0000   1.0000
     0.0083   0.0000   0.0000   0.0000   0.0000   0.0000   0.0000   0.0000

          k = 0.2500 0.5774 0.0000 (  1978 PWs)   bands (ev):

   -85.4967 -48.8559 -48.8345 -48.7230 -37.7177  -9.2414  -9.1855   2.6474
     3.0897   3.7458   4.6608   4.9820   5.2630   8.5743   9.1950   9.3853
    10.9403  11.1312  14.7403  16.0190  19.0910  20.1182  23.3089  23.7207

     occupation numbers 
     1.0000   1.0000   1.0000   1.0000   1.0000   1.0000   1.0000   1.0000
     1.0000   1.0000   1.0000   1.0000   1.0000   1.0000   1.0000   1.0000
     0.0332   0.0018   0.0000   0.0000   0.0000   0.0000   0.0000   0.0000

          k = 0.2500 0.5774 0.1709 (  2008 PWs)   bands (ev):

   -85.4968 -48.8560 -48.8346 -48.7234 -37.7178  -9.2353  -9.1904   2.5607
     3.0125   3.6926   4.7650   5.0519   5.3964   8.5515   9.1925   9.2957
    11.1603  11.3326  14.2959  15.7092  19.4445  19.9546  22.6658  23.8550

     occupation numbers 
     1.0000   1.0000   1.0000   1.0000   1.0000   1.0000   1.0000   1.0000
     1.0000   1.0000   1.0000   1.0000   1.0000   1.0000   1.0000   1.0000
     0.0011   0.0000   0.0000   0.0000   0.0000   0.0000   0.0000   0.0000

          k = 0.0000 0.1443-0.1709 (  2019 PWs)   bands (ev):

   -85.5041 -48.8026 -48.7937 -48.7353 -37.7452 -10.8506  -9.1699   2.7379
     3.3793   3.9321   5.8892   6.1785   6.6345   8.5465   8.7379   9.4950
    11.3311  11.8206  12.9128  16.1654  19.5439  22.8321  23.5106  24.1350

     occupation numbers 
     1.0000   1.0000   1.0000   1.0000   1.0000   1.0000   1.0000   1.0000
     1.0000   1.0000   1.0000   1.0000   1.0000   1.0000   1.0000   1.0000
     0.0000   0.0000   0.0000   0.0000   0.0000   0.0000   0.0000   0.0000

          k = 0.0000 0.2887-0.1709 (  2008 PWs)   bands (ev):

   -85.5014 -48.8308 -48.8002 -48.7309 -37.7351 -10.3448  -9.1352   2.8232
     3.3222   4.1620   4.4334   5.9872   6.4097   8.5952   9.0946   9.4033
    10.8136  11.6920  13.1474  17.5568  19.6675  21.7787  22.8720  22.9997

     occupation numbers 
     1.0000   1.0000   1.0000   1.0000   1.0000   1.0000   1.0000   1.0000
     1.0000   1.0000   1.0000   1.0000   1.0000   1.0000   1.0000   1.0000
     0.1366   0.0000   0.0000   0.0000   0.0000   0.0000   0.0000   0.0000

          k = 0.0000 0.4330-0.1709 (  1996 PWs)   bands (ev):

   -85.4986 -48.8589 -48.8068 -48.7264 -37.7249  -9.7351  -9.1493   2.2564
     3.2349   4.3254   4.4102   5.6606   5.8832   8.4880   9.0616   9.2571
    11.1046  11.7247  13.2845  17.7671  19.1348  20.6116  21.9897  23.4462

     occupation numbers 
     1.0000   1.0000   1.0000   1.0000   1.0000   1.0000   1.0000   1.0000
     1.0000   1.0000   1.0000   1.0000   1.0000   1.0000   1.0000   1.0000
     0.0029   0.0000   0.0000   0.0000   0.0000   0.0000   0.0000   0.0000

          k =-0.1250 0.3608-0.1709 (  2005 PWs)   bands (ev):

   -85.4994 -48.8465 -48.8092 -48.7277 -37.7279  -9.9441  -9.1226   2.6819
     3.2790   4.1208   4.3468   5.3256   6.2984   8.7482   9.1108   9.2604
    11.0077  11.3258  13.4427  18.0868  19.0636  20.6006  22.1703  23.7079

     occupation numbers 
     1.0000   1.0000   1.0000   1.0000   1.0000   1.0000   1.0000   1.0000
     1.0000   1.0000   1.0000   1.0000   1.0000   1.0000   1.0000   1.0000
     0.0132   0.0000   0.0000   0.0000   0.0000   0.0000   0.0000   0.0000

          k =-0.1250 0.5052-0.1709 (  1996 PWs)   bands (ev):

   -85.4975 -48.8643 -48.8160 -48.7246 -37.7207  -9.4335  -9.1851   2.1273
     3.1522   4.3319   4.6253   5.1675   5.6894   8.5590   9.0318   9.2278
    11.3102  11.4656  13.6121  16.9220  19.4333  20.1222  21.7027  23.5505

     occupation numbers 
     1.0000   1.0000   1.0000   1.0000   1.0000   1.0000   1.0000   1.0000
     1.0000   1.0000   1.0000   1.0000   1.0000   1.0000   1.0000   1.0000
     0.0000   0.0000   0.0000   0.0000   0.0000   0.0000   0.0000   0.0000

 ------ SPIN DOWN ----------


          k = 0.0000 0.0000 0.0000 (  2029 PWs)   bands (ev):

   -85.5038 -48.7898 -48.7898 -48.7355 -37.7494 -11.0532  -9.1666   2.2290
     3.8300   3.8300   6.1366   7.1269   7.1269   8.3428   8.3428   9.2107
    11.8445  11.9113  11.9113  16.3466  19.1787  22.4416  24.6658  24.6658

     occupation numbers 
     1.0000   1.0000   1.0000   1.0000   1.0000   1.0000   1.0000   1.0000
     1.0000   1.0000   1.0000   1.0000   1.0000   1.0000   1.0000   1.0000
     0.0000   0.0000   0.0000   0.0000   0.0000   0.0000   0.0000   0.0000

          k = 0.0000 0.0000 0.1709 (  2024 PWs)   bands (ev):

   -85.5038 -48.7897 -48.7897 -48.7355 -37.7494 -11.0422  -9.1894   2.5125
     3.8314   3.8314   5.4564   7.1229   7.1229   8.3412   8.3412   9.4641
    11.9189  11.9189  12.6409  15.5158  18.9695  22.8328  24.8324  24.8324

     occupation numbers 
     1.0000   1.0000   1.0000   1.0000   1.0000   1.0000   1.0000   1.0000
     1.0000   1.0000   1.0000   1.0000   1.0000   1.0000   1.0000   1.0000
     0.0000   0.0000   0.0000   0.0000   0.0000   0.0000   0.0000   0.0000

          k = 0.0000 0.1443 0.0000 (  2019 PWs)   bands (ev):

   -85.5027 -48.8013 -48.7925 -48.7337 -37.7452 -10.8622  -9.1469   2.4588
     3.4468   3.9292   6.0577   6.5871   6.6460   8.5607   8.7377   9.2354
    11.3381  11.8096  12.2684  16.8468  19.5748  22.8699  23.3781  24.0496

     occupation numbers 
     1.0000   1.0000   1.0000   1.0000   1.0000   1.0000   1.0000   1.0000
     1.0000   1.0000   1.0000   1.0000   1.0000   1.0000   1.0000   1.0000
     0.0000   0.0000   0.0000   0.0000   0.0000   0.0000   0.0000   0.0000

          k = 0.0000 0.1443 0.1709 (  2019 PWs)   bands (ev):

   -85.5027 -48.8014 -48.7925 -48.7337 -37.7452 -10.8507  -9.1689   2.7247
     3.3822   3.9278   5.9921   6.0959   6.6497   8.5398   8.7383   9.5155
    11.2204  11.8041  13.0764  16.0619  19.6146  22.7674  23.5153  24.0410

     occupation numbers 
     1.0000   1.0000   1.0000   1.0000   1.0000   1.0000   1.0000   1.0000
     1.0000   1.0000   1.0000   1.0000   1.0000   1.0000   1.0000   1.0000
     0.0003   0.0000   0.0000   0.0000   0.0000   0.0000   0.0000   0.0000

          k = 0.0000 0.2887 0.0000 (  2021 PWs)   bands (ev):

   -85.5000 -48.8296 -48.7991 -48.7294 -37.7352 -10.3592  -9.1125   2.8910
     3.1020   4.1586   4.4040   5.9968   6.7945   8.6135   9.0907   9.3061
    10.7305  11.6926  12.9355  17.4855  20.3201  20.9530  22.8218  23.6467

     occupation numbers 
     1.0000   1.0000   1.0000   1.0000   1.0000   1.0000   1.0000   1.0000
     1.0000   1.0000   1.0000   1.0000   1.0000   1.0000   1.0000   1.0000
     0.2776   0.0000   0.0000   0.0000   0.0000   0.0000   0.0000   0.0000

          k = 0.0000 0.2887 0.1709 (  2008 PWs)   bands (ev):

   -85.5000 -48.8296 -48.7990 -48.7292 -37.7350 -10.3477  -9.1300   2.7413
     3.3444   4.1515   4.4342   6.0106   6.6065   8.5236   9.0966   9.5104
    10.4359  11.6676  13.5507  17.1192  20.1483  21.0560  22.8560  23.1366

     occupation numbers 
     1.0000   1.0000   1.0000   1.0000   1.0000   1.0000   1.0000   1.0000
     1.0000   1.0000   1.0000   1.0000   1.0000   1.0000   1.0000   1.0000
     0.9867   0.0000   0.0000   0.0000   0.0000   0.0000   0.0000   0.0000

          k = 0.0000 0.4330 0.0000 (  2014 PWs)   bands (ev):

   -85.4973 -48.8578 -48.8058 -48.7248 -37.7250  -9.7513  -9.1297   2.3391
     3.2859   4.1185   4.3314   5.6524   5.9971   8.5222   9.0578   9.2958
    11.0543  11.7486  13.3859  17.5484  18.7348  21.0142  21.8649  23.2112

     occupation numbers 
     1.0000   1.0000   1.0000   1.0000   1.0000   1.0000   1.0000   1.0000
     1.0000   1.0000   1.0000   1.0000   1.0000   1.0000   1.0000   1.0000
     0.0065   0.0000   0.0000   0.0000   0.0000   0.0000   0.0000   0.0000

          k = 0.0000 0.4330 0.1709 (  1996 PWs)   bands (ev):

   -85.4973 -48.8578 -48.8056 -48.7248 -37.7249  -9.7451  -9.1361   2.2038
     3.2553   4.2639   4.3142   5.6818   6.2518   8.3915   9.0606   9.3316
    10.7142  11.7098  13.6523  17.9786  18.1071  21.3768  21.9953  22.6322

     occupation numbers 
     1.0000   1.0000   1.0000   1.0000   1.0000   1.0000   1.0000   1.0000
     1.0000   1.0000   1.0000   1.0000   1.0000   1.0000   1.0000   1.0000
     0.3129   0.0000   0.0000   0.0000   0.0000   0.0000   0.0000   0.0000

          k = 0.0000-0.5774 0.0000 (  1982 PWs)   bands (ev):

   -85.4961 -48.8692 -48.8084 -48.7229 -37.7206  -9.3237  -9.2918   1.9011
     3.3203   4.3630   4.6797   5.2651   5.5952   8.4228   8.9706   9.2601
    11.4112  11.8089  13.4875  17.3604  18.1326  20.9614  21.5195  23.0652

     occupation numbers 
     1.0000   1.0000   1.0000   1.0000   1.0000   1.0000   1.0000   1.0000
     1.0000   1.0000   1.0000   1.0000   1.0000   1.0000   1.0000   1.0000
     0.0000   0.0000   0.0000   0.0000   0.0000   0.0000   0.0000   0.0000

          k = 0.0000-0.5774 0.1709 (  2004 PWs)   bands (ev):

   -85.4962 -48.8695 -48.8084 -48.7230 -37.7207  -9.3157  -9.2986   1.8020
     3.2820   4.3452   4.5855   5.6253   5.7264   8.3168   8.9702   9.2309
    11.2449  11.7707  13.4985  17.0257  19.0687  20.4697  21.6883  23.1026

     occupation numbers 
     1.0000   1.0000   1.0000   1.0000   1.0000   1.0000   1.0000   1.0000
     1.0000   1.0000   1.0000   1.0000   1.0000   1.0000   1.0000   1.0000
     0.0002   0.0000   0.0000   0.0000   0.0000   0.0000   0.0000   0.0000

          k = 0.1250 0.2165 0.0000 (  2017 PWs)   bands (ev):

   -85.5008 -48.8200 -48.7985 -48.7306 -37.7381 -10.5149  -9.1191   2.8798
     3.0844   4.0216   4.9917   5.9119   6.8858   8.7189   9.0198   9.2849
    11.0520  11.2878  12.9017  17.3965  20.2214  21.7451  22.5098  23.6425

     occupation numbers 
     1.0000   1.0000   1.0000   1.0000   1.0000   1.0000   1.0000   1.0000
     1.0000   1.0000   1.0000   1.0000   1.0000   1.0000   1.0000   1.0000
     0.0068   0.0001   0.0000   0.0000   0.0000   0.0000   0.0000   0.0000

          k = 0.1250 0.2165 0.1709 (  2012 PWs)   bands (ev):

   -85.5008 -48.8199 -48.7985 -48.7305 -37.7380 -10.5021  -9.1402   2.9158
     3.2055   4.0237   4.9933   5.8999   6.5049   8.7332   8.9599   9.4903
    10.8375  11.4974  13.3270  17.0234  20.2716  21.4735  22.7547  23.2351

     occupation numbers 
     1.0000   1.0000   1.0000   1.0000   1.0000   1.0000   1.0000   1.0000
     1.0000   1.0000   1.0000   1.0000   1.0000   1.0000   1.0000   1.0000
     0.1079   0.0000   0.0000   0.0000   0.0000   0.0000   0.0000   0.0000

          k = 0.1250 0.3608 0.0000 (  2004 PWs)   bands (ev):

   -85.4981 -48.8453 -48.8080 -48.7261 -37.7279  -9.9589  -9.1028   2.7845
     3.3025   3.8577   4.3337   5.3230   6.4905   8.6993   9.1790   9.2971
    10.8563  11.3248  13.5095  17.6730  19.3813  20.7651  22.0450  23.8633

     occupation numbers 
     1.0000   1.0000   1.0000   1.0000   1.0000   1.0000   1.0000   1.0000
     1.0000   1.0000   1.0000   1.0000   1.0000   1.0000   1.0000   1.0000
     0.0887   0.0000   0.0000   0.0000   0.0000   0.0000   0.0000   0.0000

          k = 0.1250 0.3608 0.1709 (  2005 PWs)   bands (ev):

   -85.4981 -48.8453 -48.8080 -48.7261 -37.7279  -9.9477  -9.1169   2.6295
     3.3011   4.0964   4.3285   5.3383   6.4793   8.6528   9.1234   9.3469
    10.6792  11.4226  13.6432  17.9371  18.8397  20.6656  22.5747  23.2139

     occupation numbers 
     1.0000   1.0000   1.0000   1.0000   1.0000   1.0000   1.0000   1.0000
     1.0000   1.0000   1.0000   1.0000   1.0000   1.0000   1.0000   1.0000
     0.3961   0.0000   0.0000   0.0000   0.0000   0.0000   0.0000   0.0000

          k = 0.1250 0.5052 0.0000 (  1995 PWs)   bands (ev):

   -85.4961 -48.8630 -48.8149 -48.7229 -37.7207  -9.4472  -9.1709   2.2154
     3.2166   4.3502   4.4771   5.1026   5.6096   8.5955   9.0275   9.3121
    11.1738  11.4456  13.8931  17.1091  18.5360  20.5737  22.1228  23.2806

     occupation numbers 
     1.0000   1.0000   1.0000   1.0000   1.0000   1.0000   1.0000   1.0000
     1.0000   1.0000   1.0000   1.0000   1.0000   1.0000   1.0000   1.0000
     0.0008   0.0000   0.0000   0.0000   0.0000   0.0000   0.0000   0.0000

          k = 0.1250 0.5052 0.1709 (  1996 PWs)   bands (ev):

   -85.4961 -48.8631 -48.8148 -48.7230 -37.7206  -9.4445  -9.1724   2.1077
     3.1563   4.3581   4.4920   5.1613   5.9048   8.4957   9.0421   9.2682
    11.0844  11.5458  13.7175  16.9879  18.8455  20.4373  22.0719  23.2268

     occupation numbers 
     1.0000   1.0000   1.0000   1.0000   1.0000   1.0000   1.0000   1.0000
     1.0000   1.0000   1.0000   1.0000   1.0000   1.0000   1.0000   1.0000
     0.0040   0.0000   0.0000   0.0000   0.0000   0.0000   0.0000   0.0000

          k = 0.2500 0.4330 0.0000 (  2011 PWs)   bands (ev):

   -85.4962 -48.8543 -48.8239 -48.7229 -37.7208  -9.5049  -9.1157   2.8447
     2.9348   4.0497   4.3901   4.7774   5.8810   8.7091   9.0770   9.4115
    10.7825  11.2976  14.2256  16.8595  18.9302  20.3066  22.7827  23.8471

     occupation numbers 
     1.0000   1.0000   1.0000   1.0000   1.0000   1.0000   1.0000   1.0000
     1.0000   1.0000   1.0000   1.0000   1.0000   1.0000   1.0000   1.0000
     0.1817   0.0001   0.0000   0.0000   0.0000   0.0000   0.0000   0.0000

          k = 0.2500 0.4330 0.1709 (  2010 PWs)   bands (ev):

   -85.4962 -48.8543 -48.8239 -48.7230 -37.7207  -9.4943  -9.1265   2.7806
     2.8080   4.0308   4.6446   4.8056   5.8910   8.7177   9.0869   9.2689
    11.0407  11.3483  13.8522  16.8020  19.2062  20.0481  22.4426  23.8406

     occupation numbers 
     1.0000   1.0000   1.0000   1.0000   1.0000   1.0000   1.0000   1.0000
     1.0000   1.0000   1.0000   1.0000   1.0000   1.0000   1.0000   1.0000
     0.0081   0.0000   0.0000   0.0000   0.0000   0.0000   0.0000   0.0000

          k = 0.2500 0.5774 0.0000 (  1978 PWs)   bands (ev):

   -85.4953 -48.8547 -48.8333 -48.7214 -37.7176  -9.2412  -9.1853   2.6478
     3.0902   3.7462   4.6613   4.9824   5.2632   8.5744   9.1955   9.3858
    10.9422  11.1330  14.7410  16.0197  19.0911  20.1184  23.3093  23.7211

     occupation numbers 
     1.0000   1.0000   1.0000   1.0000   1.0000   1.0000   1.0000   1.0000
     1.0000   1.0000   1.0000   1.0000   1.0000   1.0000   1.0000   1.0000
     0.0324   0.0017   0.0000   0.0000   0.0000   0.0000   0.0000   0.0000

          k = 0.2500 0.5774 0.1709 (  2008 PWs)   bands (ev):

   -85.4954 -48.8548 -48.8334 -48.7217 -37.7177  -9.2350  -9.1902   2.5611
     3.0130   3.6929   4.7655   5.0524   5.3966   8.5516   9.1929   9.2962
    11.1622  11.3344  14.2966  15.7099  19.4446  19.9548  22.6663  23.8576

     occupation numbers 
     1.0000   1.0000   1.0000   1.0000   1.0000   1.0000   1.0000   1.0000
     1.0000   1.0000   1.0000   1.0000   1.0000   1.0000   1.0000   1.0000
     0.0010   0.0000   0.0000   0.0000   0.0000   0.0000   0.0000   0.0000

          k = 0.0000 0.1443-0.1709 (  2019 PWs)   bands (ev):

   -85.5027 -48.8014 -48.7925 -48.7337 -37.7452 -10.8503  -9.1696   2.7380
     3.3799   3.9329   5.8896   6.1788   6.6349   8.5474   8.7387   9.4951
    11.3324  11.8220  12.9134  16.1658  19.5444  22.8325  23.5108  24.1352

     occupation numbers 
     1.0000   1.0000   1.0000   1.0000   1.0000   1.0000   1.0000   1.0000
     1.0000   1.0000   1.0000   1.0000   1.0000   1.0000   1.0000   1.0000
     0.0000   0.0000   0.0000   0.0000   0.0000   0.0000   0.0000   0.0000

          k = 0.0000 0.2887-0.1709 (  2008 PWs)   bands (ev):

   -85.5000 -48.8296 -48.7990 -48.7292 -37.7350 -10.3446  -9.1350   2.8236
     3.3223   4.1628   4.4339   5.9877   6.4098   8.5960   9.0951   9.4035
    10.8151  11.6936  13.1480  17.5572  19.6679  21.7792  22.8723  23.0001

     occupation numbers 
     1.0000   1.0000   1.0000   1.0000   1.0000   1.0000   1.0000   1.0000
     1.0000   1.0000   1.0000   1.0000   1.0000   1.0000   1.0000   1.0000
     0.1346   0.0000   0.0000   0.0000   0.0000   0.0000   0.0000   0.0000

          k = 0.0000 0.4330-0.1709 (  1996 PWs)   bands (ev):

   -85.4973 -48.8578 -48.8056 -48.7248 -37.7249  -9.7349  -9.1491   2.2568
     3.2352   4.3263   4.4104   5.6610   5.8834   8.4887   9.0621   9.2574
    11.1062  11.7265  13.2852  17.7676  19.1350  20.6121  21.9900  23.4467

     occupation numbers 
     1.0000   1.0000   1.0000   1.0000   1.0000   1.0000   1.0000   1.0000
     1.0000   1.0000   1.0000   1.0000   1.0000   1.0000   1.0000   1.0000
     0.0028   0.0000   0.0000   0.0000   0.0000   0.0000   0.0000   0.0000

          k =-0.1250 0.3608-0.1709 (  2005 PWs)   bands (ev):

   -85.4981 -48.8453 -48.8080 -48.7261 -37.7279  -9.9438  -9.1224   2.6823
     3.2794   4.1212   4.3473   5.3262   6.2985   8.7488   9.1114   9.2606
    11.0094  11.3274  13.4434  18.0873  19.0640  20.6009  22.1707  23.7089

     occupation numbers 
     1.0000   1.0000   1.0000   1.0000   1.0000   1.0000   1.0000   1.0000
     1.0000   1.0000   1.0000   1.0000   1.0000   1.0000   1.0000   1.0000
     0.0129   0.0000   0.0000   0.0000   0.0000   0.0000   0.0000   0.0000

          k =-0.1250 0.5052-0.1709 (  1996 PWs)   bands (ev):

   -85.4961 -48.8631 -48.8148 -48.7229 -37.7206  -9.4333  -9.1849   2.1277
     3.1526   4.3326   4.6256   5.1680   5.6896   8.5594   9.0323   9.2283
    11.3119  11.4673  13.6128  16.9227  19.4334  20.1226  21.7031  23.5511

     occupation numbers 
     1.0000   1.0000   1.0000   1.0000   1.0000   1.0000   1.0000   1.0000
     1.0000   1.0000   1.0000   1.0000   1.0000   1.0000   1.0000   1.0000
     0.0000   0.0000   0.0000   0.0000   0.0000   0.0000   0.0000   0.0000

     the Fermi energy is    10.6773 ev

!    total energy              =    -475.02859972 Ry
     total all-electron energy =     -3102.900737 Ry
     estimated scf accuracy    <       0.00000002 Ry
     smearing contrib. (-TS)   =      -0.00170274 Ry
     internal energy E=F+TS    =    -475.02689698 Ry

     The total energy is F=E-TS. E is the sum of the following terms:
     one-electron contribution =    -337.09085601 Ry
     hartree contribution      =     184.00569994 Ry
     xc contribution           =     -49.46851272 Ry
     ewald contribution        =    -165.79803195 Ry
     one-center paw contrib.   =    -106.67519624 Ry
      -> PAW hartree energy AE =     283.48190228 Ry
      -> PAW hartree energy PS =    -282.10713684 Ry
      -> PAW xc energy AE      =    -154.62621186 Ry
      -> PAW xc energy PS      =      46.57625017 Ry
      -> total E_H with PAW    =     185.38046538 Ry
      -> total E_XC with PAW   =    -157.51847440 Ry

     total magnetization       =     0.00 Bohr mag/cell
     absolute magnetization    =     0.00 Bohr mag/cell

     convergence has been achieved in  42 iterations

     Forces acting on atoms (cartesian axes, Ry/au):

     atom    1 type  1   force =     0.00000000    0.00000000    0.00000000
     atom    2 type  2   force =     0.00000000    0.00000000    0.09090241
     atom    3 type  2   force =     0.00000000    0.00000000   -0.09090241
     atom    4 type  3   force =     0.00000000    0.00000000    0.00000000
     The non-local contrib.  to forces
     atom    1 type  1   force =     0.00000000    0.00000000    0.00000000
     atom    2 type  2   force =     0.00000000    0.00000000   -0.46723152
     atom    3 type  2   force =     0.00000000    0.00000000    0.46723152
     atom    4 type  3   force =     0.00000000    0.00000000    0.00000000
     The ionic contribution  to forces
     atom    1 type  1   force =    -0.00000000   -0.00000000   -0.00000000
     atom    2 type  2   force =     0.00000000   -0.00000000   25.88988048
     atom    3 type  2   force =    -0.00000000    0.00000000  -25.88988048
     atom    4 type  3   force =    -0.00000000    0.00000000    0.00000000
     The local contribution  to forces
     atom    1 type  1   force =    -0.00000000   -0.00000000   -0.00000000
     atom    2 type  2   force =     0.00000001   -0.00000001  -25.33488402
     atom    3 type  2   force =    -0.00000001    0.00000001   25.33488402
     atom    4 type  3   force =     0.00000000   -0.00000000    0.00000000
     The core correction contribution to forces
     atom    1 type  1   force =    -0.00000000   -0.00000000    0.00000000
     atom    2 type  2   force =    -0.00000000    0.00000000    0.00324896
     atom    3 type  2   force =     0.00000000   -0.00000000   -0.00324896
     atom    4 type  3   force =     0.00000000    0.00000000    0.00000000
     The Hubbard contrib.    to forces
     atom    1 type  1   force =     0.00000000    0.00000000    0.00000000
     atom    2 type  2   force =     0.00000000    0.00000000    0.00000000
     atom    3 type  2   force =     0.00000000    0.00000000    0.00000000
     atom    4 type  3   force =     0.00000000    0.00000000    0.00000000
     The SCF correction term to forces
     atom    1 type  1   force =    -0.00000000   -0.00000000   -0.00000000
     atom    2 type  2   force =     0.00000000   -0.00000000   -0.00011148
     atom    3 type  2   force =    -0.00000000    0.00000000    0.00011148
     atom    4 type  3   force =     0.00000000    0.00000000   -0.00000000

     Total force =     0.128555     Total SCF correction =     0.000158

     Writing all to output data dir ./out/pw.save/ :
     XML data file, charge density, pseudopotentials, collected wavefunctions
 
     init_run     :     10.41s CPU      2.41s WALL (       1 calls)
     electrons    :    193.45s CPU     47.37s WALL (       1 calls)
     forces       :      0.59s CPU      0.52s WALL (       1 calls)

     Called by init_run:
     wfcinit      :      0.25s CPU      0.30s WALL (       1 calls)
     wfcinit:atom :      0.04s CPU      0.04s WALL (      50 calls)
     wfcinit:wfcr :      0.16s CPU      0.19s WALL (      50 calls)
     potinit      :      9.68s CPU      1.58s WALL (       1 calls)
     hinit0       :      0.41s CPU      0.40s WALL (       1 calls)

     Called by electrons:
     c_bands      :     18.97s CPU     18.95s WALL (      42 calls)
     sum_band     :      4.50s CPU      4.47s WALL (      42 calls)
     v_of_rho     :      0.64s CPU      0.25s WALL (      43 calls)
     v_h          :      0.46s CPU      0.05s WALL (      43 calls)
     v_xc         :      0.18s CPU      0.21s WALL (      44 calls)
     newd         :      0.97s CPU      0.71s WALL (      43 calls)
                                        0.71s GPU  (      43 calls)
     PAW_pot      :    170.64s CPU     22.33s WALL (      43 calls)
     mix_rho      :      1.14s CPU      1.11s WALL (      42 calls)

     Called by c_bands:
     init_us_2    :      1.72s CPU      1.70s WALL (    4300 calls)
     cegterg      :     16.09s CPU     16.13s WALL (    2100 calls)

     Called by sum_band:
     sum_band:wei :      0.05s CPU      0.05s WALL (      42 calls)
                                        0.05s GPU  (      42 calls)
     sum_band:loo :      2.88s CPU      2.85s WALL (      42 calls)
                                        2.84s GPU  (      42 calls)
     sum_band:buf :      0.23s CPU      0.27s WALL (    2100 calls)
                                        0.24s GPU  (    2100 calls)
     sum_band:ini :      0.83s CPU      0.85s WALL (    2100 calls)
                                        0.83s GPU  (    2100 calls)
     sum_band:cal :      0.06s CPU      0.29s WALL (    2100 calls)
                                        0.26s GPU  (    2100 calls)
     sum_band:bec :      0.45s CPU      0.49s WALL (    2100 calls)
                                        0.46s GPU  (    2100 calls)
     addusdens    :      1.37s CPU      1.38s WALL (      42 calls)
                                        1.38s GPU  (      42 calls)
     addusd:skk   :      0.01s CPU      0.01s WALL (     126 calls)
                                        0.01s GPU  (     126 calls)

     Called by *egterg:
     cdiaghg      :      5.18s CPU      5.36s WALL (    6673 calls)
                                        5.28s GPU  (    6673 calls)
     cegterg:over :      0.71s CPU      0.74s WALL (    4573 calls)
     cegterg:upda :      0.97s CPU      0.98s WALL (    4573 calls)
     cegterg:last :      0.16s CPU      0.15s WALL (    3141 calls)
     h_psi        :      6.36s CPU      6.40s WALL (    6723 calls)
                                        6.32s GPU  (    6723 calls)
     s_psi        :      1.05s CPU      1.09s WALL (    6723 calls)
     g_psi        :      0.02s CPU      0.11s WALL (    4573 calls)
                                        0.05s GPU  (    4573 calls)

     Called by h_psi:
     h_psi:calbec :      0.16s CPU      0.68s WALL (    6723 calls)
                                        0.59s GPU  (    6723 calls)
     vloc_psi     :      4.19s CPU      4.14s WALL (    6723 calls)
                                        4.06s GPU  (    6723 calls)
     add_vuspsi   :      0.95s CPU      1.11s WALL (    6723 calls)
                                        1.02s GPU  (    6723 calls)

     General routines
     calbec       :      0.17s CPU      0.20s WALL (    9023 calls)
     fft          :      3.63s CPU      0.67s WALL (    1088 calls)
                                        0.04s GPU  (    1002 calls)
     ffts         :      2.26s CPU      0.41s WALL (    1349 calls)
                                        0.03s GPU  (    1263 calls)
     fftw         :      0.44s CPU      1.39s WALL (   26146 calls)
                                        1.09s GPU  (   26146 calls)
     interpolate  :      6.03s CPU      1.01s WALL (      86 calls)
 
     Parallel routines

     PAW routines
     PAW_pot      :    170.64s CPU     22.33s WALL (      43 calls)
     PAW_symme    :      0.08s CPU      0.01s WALL (      85 calls)
 
     PWSCF        :   3m25.25s CPU     50.79s WALL

 
   This run was terminated on:   5:41:11  12Jul2026            

=------------------------------------------------------------------------------=
   JOB DONE.
=------------------------------------------------------------------------------=
Warning: ieee_divide_by_zero is signaling
Warning: ieee_inexact is signaling
FORTRAN STOP
