
     Program PWSCF v.7.3.1 starts on 12Jul2026 at  3:15:40 

     This program is part of the open-source Quantum ESPRESSO suite
     for quantum simulation of materials; please cite
         "P. Giannozzi et al., J. Phys.:Condens. Matter 21 395502 (2009);
         "P. Giannozzi et al., J. Phys.:Condens. Matter 29 465901 (2017);
         "P. Giannozzi et al., J. Chem. Phys. 152 154105 (2020);
          URL http://www.quantum-espresso.org", 
     in publications or presentations arising from this work. More details at
     http://www.quantum-espresso.org/quote

     Parallel version (MPI & OpenMP), running on      14 processor cores
     Number of MPI processes:                 1
     Threads/MPI process:                    14

     MPI processes distributed on     1 nodes
     851168 MiB available memory on the printing compute node when the environment starts
 
     Reading input from pw.in

     Current dimensions of program PWSCF are:
     Max number of different atomic species (ntypx) = 10
     Max number of k-points (npk) =  40000
     Max angular momentum in pseudopotentials (lmaxx) =  4
     file Co.pbe-spn-kjpaw_psl.0.3.1.UPF: wavefunction(s)  3P 3D renormalized
     file O.pbe-n-kjpaw_psl.1.0.0.UPF: wavefunction(s)  2S 2P renormalized
     file Na.pbe-spn-kjpaw_psl.1.0.0.UPF: wavefunction(s)  2P renormalized
 
     Subspace diagonalization in iterative solution of the eigenvalue problem:
     a serial algorithm will be used

 
     G-vector sticks info
     --------------------
     sticks:   dense  smooth     PW     G-vecs:    dense   smooth      PW
     Sum         979     499    151                47419    16845    2747
 
     Using Slab Decomposition
 


     bravais-lattice index     =            4
     lattice parameter (alat)  =       5.4575  a.u.
     unit-cell volume          =     268.0923 (a.u.)^3
     number of atoms/cell      =            4
     number of atomic types    =            3
     number of electrons       =        38.00
     number of Kohn-Sham states=           27
     kinetic-energy cutoff     =      60.0000  Ry
     charge density cutoff     =     480.0000  Ry
     scf convergence threshold =      1.0E-07
     mixing beta               =       0.3000
     number of iterations used =            8  local-TF  mixing
     Exchange-correlation= SLA  PW   PBX  PBC
                           (   1   4   3   4   0   0   0)

     GPU acceleration is ACTIVE.  1 visible GPUs per MPI rank
     GPU-aware MPI enabled


     GPU used by master process:

        Device Number: 0
        Device name: NVIDIA A100-SXM4-80GB
        Compute capability : 80
        Ratio of single to double precision performance  : 2
        Memory Clock Rate (KHz): 1593000
        Memory Bus Width (bits): 5120
        Peak Memory Bandwidth (GB/s): ******

     celldm(1)=   5.457529  celldm(2)=   0.000000  celldm(3)=   1.904432
     celldm(4)=   0.000000  celldm(5)=   0.000000  celldm(6)=   0.000000

     crystal axes: (cart. coord. in units of alat)
               a(1) = (   1.000000   0.000000   0.000000 )  
               a(2) = (  -0.500000   0.866025   0.000000 )  
               a(3) = (   0.000000   0.000000   1.904432 )  

     reciprocal axes: (cart. coord. in units 2 pi/alat)
               b(1) = (  1.000000  0.577350 -0.000000 )  
               b(2) = (  0.000000  1.154701  0.000000 )  
               b(3) = (  0.000000 -0.000000  0.525091 )  


     PseudoPot. # 1 for Co read from file:
     ../../pseudo/Co.pbe-spn-kjpaw_psl.0.3.1.UPF
     MD5 check sum: 3c0a43779828c046024e4f3be63f8e67
     Pseudo is Projector augmented-wave + core cor, Zval = 17.0
     Generated using &quot;atomic&quot; code by A. Dal Corso  v.6.2.2
     Shape of augmentation charge: PSQ
     Using radial grid of 1193 points,  6 beta functions with: 
                l(1) =   0
                l(2) =   0
                l(3) =   1
                l(4) =   1
                l(5) =   2
                l(6) =   2
     Q(r) pseudized with 0 coefficients 


     PseudoPot. # 2 for O  read from file:
     ../../pseudo/O.pbe-n-kjpaw_psl.1.0.0.UPF
     MD5 check sum: e99d9cef9b487d1ca56f5b95ecd0fd7a
     Pseudo is Projector augmented-wave + core cor, Zval =  6.0
     Generated using &quot;atomic&quot; code by A. Dal Corso  v.6.3
     Shape of augmentation charge: PSQ
     Using radial grid of 1095 points,  4 beta functions with: 
                l(1) =   0
                l(2) =   0
                l(3) =   1
                l(4) =   1
     Q(r) pseudized with 0 coefficients 


     PseudoPot. # 3 for Na read from file:
     ../../pseudo/Na.pbe-spn-kjpaw_psl.1.0.0.UPF
     MD5 check sum: 05b4deb74e3932c23ab016979dc8b5d4
     Pseudo is Projector augmented-wave + core cor, Zval =  9.0
     Generated using &quot;atomic&quot; code by A. Dal Corso  v.6.3
     Shape of augmentation charge: PSQ
     Using radial grid of 1121 points,  4 beta functions with: 
                l(1) =   0
                l(2) =   0
                l(3) =   1
                l(4) =   1
     Q(r) pseudized with 0 coefficients 


     atomic species   valence    mass     pseudopotential
     Co               17.00    58.93300     Co( 1.00)
     O                 6.00    15.99900     O ( 1.00)
     Na                9.00    22.98977     Na( 1.00)

     Starting magnetic structure 
     atomic species   magnetization
     Co              0.300
     O               0.000
     Na              0.000

      6 Sym. Ops. (no inversion) found


                                    s                        frac. trans.

      isym =  1     identity                                     

 cryst.   s( 1) = (     1          0          0      )
                  (     0          1          0      )
                  (     0          0          1      )

 cart.    s( 1) = (  1.0000000  0.0000000  0.0000000 )
                  (  0.0000000  1.0000000  0.0000000 )
                  (  0.0000000  0.0000000  1.0000000 )


      isym =  2     120 deg rotation - cryst. axis [0,0,1]       

 cryst.   s( 2) = (     0          1          0      )
                  (    -1         -1          0      )
                  (     0          0          1      )

 cart.    s( 2) = ( -0.5000000 -0.8660254  0.0000000 )
                  (  0.8660254 -0.5000000  0.0000000 )
                  (  0.0000000  0.0000000  1.0000000 )


      isym =  3     120 deg rotation - cryst. axis [0,0,-1]      

 cryst.   s( 3) = (    -1         -1          0      )
                  (     1          0          0      )
                  (     0          0          1      )

 cart.    s( 3) = ( -0.5000000  0.8660254  0.0000000 )
                  ( -0.8660254 -0.5000000  0.0000000 )
                  (  0.0000000  0.0000000  1.0000000 )


      isym =  4     inv. 180 deg rotation - cart. axis [1,0,0]   

 cryst.   s( 4) = (    -1          0          0      )
                  (     1          1          0      )
                  (     0          0          1      )

 cart.    s( 4) = ( -1.0000000  0.0000000  0.0000000 )
                  (  0.0000000  1.0000000  0.0000000 )
                  (  0.0000000  0.0000000  1.0000000 )


      isym =  5     inv. 180 deg rotation - cryst. axis [0,1,0]  

 cryst.   s( 5) = (     1          1          0      )
                  (     0         -1          0      )
                  (     0          0          1      )

 cart.    s( 5) = (  0.5000000  0.8660254  0.0000000 )
                  (  0.8660254 -0.5000000  0.0000000 )
                  (  0.0000000  0.0000000  1.0000000 )


      isym =  6     inv. 180 deg rotation - cryst. axis [1,1,0]  

 cryst.   s( 6) = (     0         -1          0      )
                  (    -1          0          0      )
                  (     0          0          1      )

 cart.    s( 6) = (  0.5000000 -0.8660254  0.0000000 )
                  ( -0.8660254 -0.5000000  0.0000000 )
                  (  0.0000000  0.0000000  1.0000000 )


     point group C_3v (3m)  
     there are  3 classes
     the character table:

       E     2C3   3s_v 
A_1    1.00  1.00  1.00
A_2    1.00  1.00 -1.00
E      2.00 -1.00  0.00

     the symmetry operations in each class and the name of the first element:

     E        1
          identity                                               
     2C3      2    3
          120 deg rotation - cryst. axis [0,0,1]                 
     3s_v     4    5    6
          inv. 180 deg rotation - cart. axis [1,0,0]             

   Cartesian axes

     site n.     atom                  positions (alat units)
         1        Co     tau(   1) = (   0.0000000   0.0000000   0.0000000  )
         2        O      tau(   2) = (  -0.0000000   0.5773503   0.3324100  )
         3        O      tau(   3) = (   0.5000000   0.2886751   1.5720222  )
         4        Na     tau(   4) = (   0.0000000   0.0000000   1.0041551  )

   Crystallographic axes

     site n.     atom                  positions (cryst. coord.)
         1        Co     tau(   1) = (  0.0000000  0.0000000  0.0000000  )
         2        O      tau(   2) = (  0.3333333  0.6666667  0.1745455  )
         3        O      tau(   3) = (  0.6666667  0.3333333  0.8254545  )
         4        Na     tau(   4) = (  0.0000000  0.0000000  0.5272727  )

     number of k points=    25  Marzari-Vanderbilt smearing, width (Ry)=  0.0200
                       cart. coord. in units 2pi/alat
        k(    1) = (   0.0000000   0.0000000   0.0000000), wk =   0.0052083
        k(    2) = (   0.0000000   0.0000000   0.1750303), wk =   0.0104167
        k(    3) = (   0.0000000   0.1443376   0.0000000), wk =   0.0312500
        k(    4) = (   0.0000000   0.1443376   0.1750303), wk =   0.0312500
        k(    5) = (   0.0000000   0.2886751   0.0000000), wk =   0.0312500
        k(    6) = (   0.0000000   0.2886751   0.1750303), wk =   0.0312500
        k(    7) = (   0.0000000   0.4330127   0.0000000), wk =   0.0312500
        k(    8) = (   0.0000000   0.4330127   0.1750303), wk =   0.0312500
        k(    9) = (   0.0000000  -0.5773503   0.0000000), wk =   0.0156250
        k(   10) = (   0.0000000  -0.5773503   0.1750303), wk =   0.0312500
        k(   11) = (   0.1250000   0.2165064   0.0000000), wk =   0.0312500
        k(   12) = (   0.1250000   0.2165064   0.1750303), wk =   0.0625000
        k(   13) = (   0.1250000   0.3608439   0.0000000), wk =   0.0625000
        k(   14) = (   0.1250000   0.3608439   0.1750303), wk =   0.0625000
        k(   15) = (   0.1250000   0.5051815   0.0000000), wk =   0.0625000
        k(   16) = (   0.1250000   0.5051815   0.1750303), wk =   0.0625000
        k(   17) = (   0.2500000   0.4330127   0.0000000), wk =   0.0312500
        k(   18) = (   0.2500000   0.4330127   0.1750303), wk =   0.0625000
        k(   19) = (   0.2500000   0.5773503   0.0000000), wk =   0.0312500
        k(   20) = (   0.2500000   0.5773503   0.1750303), wk =   0.0625000
        k(   21) = (   0.0000000  -0.1443376   0.1750303), wk =   0.0312500
        k(   22) = (   0.0000000  -0.2886751   0.1750303), wk =   0.0312500
        k(   23) = (   0.0000000  -0.4330127   0.1750303), wk =   0.0312500
        k(   24) = (  -0.1250000  -0.3608439   0.1750303), wk =   0.0625000
        k(   25) = (  -0.1250000  -0.5051815   0.1750303), wk =   0.0625000

                       cryst. coord.
        k(    1) = (   0.0000000   0.0000000   0.0000000), wk =   0.0052083
        k(    2) = (   0.0000000   0.0000000   0.3333333), wk =   0.0104167
        k(    3) = (   0.0000000   0.1250000   0.0000000), wk =   0.0312500
        k(    4) = (   0.0000000   0.1250000   0.3333333), wk =   0.0312500
        k(    5) = (   0.0000000   0.2500000   0.0000000), wk =   0.0312500
        k(    6) = (   0.0000000   0.2500000   0.3333333), wk =   0.0312500
        k(    7) = (   0.0000000   0.3750000   0.0000000), wk =   0.0312500
        k(    8) = (   0.0000000   0.3750000   0.3333333), wk =   0.0312500
        k(    9) = (   0.0000000  -0.5000000   0.0000000), wk =   0.0156250
        k(   10) = (   0.0000000  -0.5000000   0.3333333), wk =   0.0312500
        k(   11) = (   0.1250000   0.1250000   0.0000000), wk =   0.0312500
        k(   12) = (   0.1250000   0.1250000   0.3333333), wk =   0.0625000
        k(   13) = (   0.1250000   0.2500000   0.0000000), wk =   0.0625000
        k(   14) = (   0.1250000   0.2500000   0.3333333), wk =   0.0625000
        k(   15) = (   0.1250000   0.3750000   0.0000000), wk =   0.0625000
        k(   16) = (   0.1250000   0.3750000   0.3333333), wk =   0.0625000
        k(   17) = (   0.2500000   0.2500000   0.0000000), wk =   0.0312500
        k(   18) = (   0.2500000   0.2500000   0.3333333), wk =   0.0625000
        k(   19) = (   0.2500000   0.3750000   0.0000000), wk =   0.0312500
        k(   20) = (   0.2500000   0.3750000   0.3333333), wk =   0.0625000
        k(   21) = (   0.0000000  -0.1250000   0.3333333), wk =   0.0312500
        k(   22) = (   0.0000000  -0.2500000   0.3333333), wk =   0.0312500
        k(   23) = (   0.0000000  -0.3750000   0.3333333), wk =   0.0312500
        k(   24) = (  -0.1250000  -0.2500000   0.3333333), wk =   0.0625000
        k(   25) = (  -0.1250000  -0.3750000   0.3333333), wk =   0.0625000

     Dense  grid:    47419 G-vectors     FFT dimensions: (  40,  40,  75)

     Smooth grid:    16845 G-vectors     FFT dimensions: (  27,  27,  54)

     Dynamical RAM for                 wfc:       0.87 MB

     Dynamical RAM for     wfc (w. buffer):      44.21 MB

     Dynamical RAM for           str. fact:       2.17 MB

     Dynamical RAM for           local pot:       0.00 MB

     Dynamical RAM for          nlocal pot:       1.35 MB

     Dynamical RAM for                qrad:       5.27 MB

     Dynamical RAM for          rho,v,vnew:       9.83 MB

     Dynamical RAM for               rhoin:       3.28 MB

     Dynamical RAM for            rho*nmix:      23.15 MB

     Dynamical RAM for           G-vectors:       2.84 MB

     Dynamical RAM for          h,s,v(r/c):       0.13 MB

     Dynamical RAM for          <psi|beta>:       0.02 MB

     Dynamical RAM for                 psi:       1.73 MB

     Dynamical RAM for                hpsi:       1.73 MB

     Dynamical RAM for                spsi:       1.73 MB

     Dynamical RAM for      wfcinit/wfcrot:       1.75 MB

     Dynamical RAM for           addusdens:     136.75 MB

     Dynamical RAM for          addusforce:     138.21 MB

     Estimated static dynamical RAM per process >      77.34 MB

     Estimated max dynamical RAM per process >     238.71 MB

     Check: negative core charge=   -0.000009
     Generating pointlists ...
     new r_m :   0.2748 (alat units)  1.4998 (a.u.) for type    1
     new r_m :   0.2748 (alat units)  1.4998 (a.u.) for type    2
     new r_m :   0.3341 (alat units)  1.8231 (a.u.) for type    3

     Initial potential from superposition of free atoms

     starting charge      37.9934, renormalised to      38.0000
     Starting wfcs are   23 randomized atomic wfcs +    4 random wfcs
     Checking if some PAW data can be deallocated... 

     total cpu time spent up to now is        3.1 secs

     Self-consistent Calculation
[tb_dev] Currently allocated     6.54E-01 Mbytes, locked:    0 /   6
[tb_pin] Currently allocated     0.00E+00 Mbytes, locked:    0 /   0

     iteration #  1     ecut=    60.00 Ry     beta= 0.30
     Davidson diagonalization with overlap

---- Real-time Memory Report at c_bands before calling an iterative solver
           667 MiB given to the printing process from OS
             0 MiB allocation reported by mallinfo(arena+hblkhd)
        849895 MiB available memory on the node where the printing process lives
     GPU memory used/free/total (MiB): 924 / 80226 / 81151
------------------
     ethr =  1.00E-02,  avg # of iterations =  9.7

     total cpu time spent up to now is        5.2 secs

     total energy              =    -569.16268364 Ry
     estimated scf accuracy    <       1.35109534 Ry

     total magnetization       =     4.00 Bohr mag/cell
     absolute magnetization    =     4.00 Bohr mag/cell
[tb_dev] Currently allocated     3.05E-05 Mbytes, locked:    0 /   2
[tb_pin] Currently allocated     0.00E+00 Mbytes, locked:    0 /   0

     iteration #  2     ecut=    60.00 Ry     beta= 0.30
     Davidson diagonalization with overlap

---- Real-time Memory Report at c_bands before calling an iterative solver
           708 MiB given to the printing process from OS
             0 MiB allocation reported by mallinfo(arena+hblkhd)
        849769 MiB available memory on the node where the printing process lives
     GPU memory used/free/total (MiB): 936 / 80214 / 81151
------------------
     ethr =  3.56E-03,  avg # of iterations =  1.9

     total cpu time spent up to now is        6.3 secs

     total energy              =    -569.11799195 Ry
     estimated scf accuracy    <       0.43388684 Ry

     total magnetization       =     4.05 Bohr mag/cell
     absolute magnetization    =     4.05 Bohr mag/cell
[tb_dev] Currently allocated     3.05E-05 Mbytes, locked:    0 /   2
[tb_pin] Currently allocated     0.00E+00 Mbytes, locked:    0 /   0

     iteration #  3     ecut=    60.00 Ry     beta= 0.30
     Davidson diagonalization with overlap

---- Real-time Memory Report at c_bands before calling an iterative solver
           710 MiB given to the printing process from OS
             0 MiB allocation reported by mallinfo(arena+hblkhd)
        849770 MiB available memory on the node where the printing process lives
     GPU memory used/free/total (MiB): 936 / 80214 / 81151
------------------
     ethr =  1.14E-03,  avg # of iterations =  3.3

     total cpu time spent up to now is        7.6 secs

     total energy              =    -569.31440817 Ry
     estimated scf accuracy    <       0.84532480 Ry

     total magnetization       =     1.66 Bohr mag/cell
     absolute magnetization    =     1.74 Bohr mag/cell
[tb_dev] Currently allocated     3.05E-05 Mbytes, locked:    0 /   2
[tb_pin] Currently allocated     0.00E+00 Mbytes, locked:    0 /   0

     iteration #  4     ecut=    60.00 Ry     beta= 0.30
     Davidson diagonalization with overlap

---- Real-time Memory Report at c_bands before calling an iterative solver
           712 MiB given to the printing process from OS
             0 MiB allocation reported by mallinfo(arena+hblkhd)
        849772 MiB available memory on the node where the printing process lives
     GPU memory used/free/total (MiB): 936 / 80214 / 81151
------------------
     ethr =  1.14E-03,  avg # of iterations =  1.2

     total cpu time spent up to now is        8.6 secs

     total energy              =    -569.36984601 Ry
     estimated scf accuracy    <       1.19359190 Ry

     total magnetization       =     1.43 Bohr mag/cell
     absolute magnetization    =     1.55 Bohr mag/cell
[tb_dev] Currently allocated     3.05E-05 Mbytes, locked:    0 /   2
[tb_pin] Currently allocated     0.00E+00 Mbytes, locked:    0 /   0

     iteration #  5     ecut=    60.00 Ry     beta= 0.30
     Davidson diagonalization with overlap

---- Real-time Memory Report at c_bands before calling an iterative solver
           713 MiB given to the printing process from OS
             0 MiB allocation reported by mallinfo(arena+hblkhd)
        849763 MiB available memory on the node where the printing process lives
     GPU memory used/free/total (MiB): 936 / 80214 / 81151
------------------
     ethr =  1.14E-03,  avg # of iterations =  1.1

     total cpu time spent up to now is        9.6 secs

     total energy              =    -569.32481164 Ry
     estimated scf accuracy    <       1.41257242 Ry

     total magnetization       =     0.82 Bohr mag/cell
     absolute magnetization    =     1.18 Bohr mag/cell
[tb_dev] Currently allocated     3.05E-05 Mbytes, locked:    0 /   2
[tb_pin] Currently allocated     0.00E+00 Mbytes, locked:    0 /   0

     iteration #  6     ecut=    60.00 Ry     beta= 0.30
     Davidson diagonalization with overlap

---- Real-time Memory Report at c_bands before calling an iterative solver
           713 MiB given to the printing process from OS
             0 MiB allocation reported by mallinfo(arena+hblkhd)
        849740 MiB available memory on the node where the printing process lives
     GPU memory used/free/total (MiB): 936 / 80214 / 81151
------------------
     ethr =  1.14E-03,  avg # of iterations =  1.3

     total cpu time spent up to now is       10.7 secs

     total energy              =    -569.34686857 Ry
     estimated scf accuracy    <       0.61085371 Ry

     total magnetization       =     0.45 Bohr mag/cell
     absolute magnetization    =     0.95 Bohr mag/cell
[tb_dev] Currently allocated     3.05E-05 Mbytes, locked:    0 /   2
[tb_pin] Currently allocated     0.00E+00 Mbytes, locked:    0 /   0

     iteration #  7     ecut=    60.00 Ry     beta= 0.30
     Davidson diagonalization with overlap

---- Real-time Memory Report at c_bands before calling an iterative solver
           715 MiB given to the printing process from OS
             0 MiB allocation reported by mallinfo(arena+hblkhd)
        849733 MiB available memory on the node where the printing process lives
     GPU memory used/free/total (MiB): 936 / 80214 / 81151
------------------
     ethr =  1.14E-03,  avg # of iterations =  1.0

     total cpu time spent up to now is       11.8 secs

     total energy              =    -569.35518644 Ry
     estimated scf accuracy    <       0.52773958 Ry

     total magnetization       =     0.39 Bohr mag/cell
     absolute magnetization    =     0.90 Bohr mag/cell
[tb_dev] Currently allocated     3.05E-05 Mbytes, locked:    0 /   2
[tb_pin] Currently allocated     0.00E+00 Mbytes, locked:    0 /   0

     iteration #  8     ecut=    60.00 Ry     beta= 0.30
     Davidson diagonalization with overlap

---- Real-time Memory Report at c_bands before calling an iterative solver
           716 MiB given to the printing process from OS
             0 MiB allocation reported by mallinfo(arena+hblkhd)
        849722 MiB available memory on the node where the printing process lives
     GPU memory used/free/total (MiB): 936 / 80214 / 81151
------------------
     ethr =  1.14E-03,  avg # of iterations =  1.2

     total cpu time spent up to now is       12.8 secs

     total energy              =    -569.35664449 Ry
     estimated scf accuracy    <       0.43735602 Ry

     total magnetization       =     0.18 Bohr mag/cell
     absolute magnetization    =     0.75 Bohr mag/cell
[tb_dev] Currently allocated     3.05E-05 Mbytes, locked:    0 /   2
[tb_pin] Currently allocated     0.00E+00 Mbytes, locked:    0 /   0

     iteration #  9     ecut=    60.00 Ry     beta= 0.30
     Davidson diagonalization with overlap

---- Real-time Memory Report at c_bands before calling an iterative solver
           717 MiB given to the printing process from OS
             0 MiB allocation reported by mallinfo(arena+hblkhd)
        849724 MiB available memory on the node where the printing process lives
     GPU memory used/free/total (MiB): 936 / 80214 / 81151
------------------
     ethr =  1.14E-03,  avg # of iterations =  1.0

     total cpu time spent up to now is       13.8 secs

     total energy              =    -569.33043937 Ry
     estimated scf accuracy    <       0.14092254 Ry

     total magnetization       =     0.00 Bohr mag/cell
     absolute magnetization    =     0.22 Bohr mag/cell
[tb_dev] Currently allocated     3.05E-05 Mbytes, locked:    0 /   2
[tb_pin] Currently allocated     0.00E+00 Mbytes, locked:    0 /   0

     iteration # 10     ecut=    60.00 Ry     beta= 0.30
     Davidson diagonalization with overlap

---- Real-time Memory Report at c_bands before calling an iterative solver
           718 MiB given to the printing process from OS
             0 MiB allocation reported by mallinfo(arena+hblkhd)
        849706 MiB available memory on the node where the printing process lives
     GPU memory used/free/total (MiB): 936 / 80214 / 81151
------------------
     ethr =  3.71E-04,  avg # of iterations =  2.0

     total cpu time spent up to now is       15.0 secs

     total energy              =    -569.35570850 Ry
     estimated scf accuracy    <       0.00899431 Ry

     total magnetization       =    -0.00 Bohr mag/cell
     absolute magnetization    =     0.06 Bohr mag/cell
[tb_dev] Currently allocated     3.05E-05 Mbytes, locked:    0 /   2
[tb_pin] Currently allocated     0.00E+00 Mbytes, locked:    0 /   0

     iteration # 11     ecut=    60.00 Ry     beta= 0.30
     Davidson diagonalization with overlap

---- Real-time Memory Report at c_bands before calling an iterative solver
           718 MiB given to the printing process from OS
             0 MiB allocation reported by mallinfo(arena+hblkhd)
        849718 MiB available memory on the node where the printing process lives
     GPU memory used/free/total (MiB): 936 / 80214 / 81151
------------------
     ethr =  2.37E-05,  avg # of iterations =  9.3

     total cpu time spent up to now is       17.0 secs

     total energy              =    -569.36141165 Ry
     estimated scf accuracy    <       0.00301494 Ry

     total magnetization       =     0.00 Bohr mag/cell
     absolute magnetization    =     0.06 Bohr mag/cell
[tb_dev] Currently allocated     3.05E-05 Mbytes, locked:    0 /   2
[tb_pin] Currently allocated     0.00E+00 Mbytes, locked:    0 /   0

     iteration # 12     ecut=    60.00 Ry     beta= 0.30
     Davidson diagonalization with overlap

---- Real-time Memory Report at c_bands before calling an iterative solver
           718 MiB given to the printing process from OS
             0 MiB allocation reported by mallinfo(arena+hblkhd)
        849719 MiB available memory on the node where the printing process lives
     GPU memory used/free/total (MiB): 936 / 80214 / 81151
------------------
     ethr =  7.93E-06,  avg # of iterations =  3.3

     total cpu time spent up to now is       18.3 secs

     total energy              =    -569.36149060 Ry
     estimated scf accuracy    <       0.00095336 Ry

     total magnetization       =     0.00 Bohr mag/cell
     absolute magnetization    =     0.04 Bohr mag/cell
[tb_dev] Currently allocated     3.05E-05 Mbytes, locked:    0 /   2
[tb_pin] Currently allocated     0.00E+00 Mbytes, locked:    0 /   0

     iteration # 13     ecut=    60.00 Ry     beta= 0.30
     Davidson diagonalization with overlap

---- Real-time Memory Report at c_bands before calling an iterative solver
           719 MiB given to the printing process from OS
             0 MiB allocation reported by mallinfo(arena+hblkhd)
        849702 MiB available memory on the node where the printing process lives
     GPU memory used/free/total (MiB): 936 / 80214 / 81151
------------------
     ethr =  2.51E-06,  avg # of iterations =  5.1

     total cpu time spent up to now is       19.7 secs

     total energy              =    -569.36128124 Ry
     estimated scf accuracy    <       0.00039913 Ry

     total magnetization       =     0.00 Bohr mag/cell
     absolute magnetization    =     0.02 Bohr mag/cell
[tb_dev] Currently allocated     3.05E-05 Mbytes, locked:    0 /   2
[tb_pin] Currently allocated     0.00E+00 Mbytes, locked:    0 /   0

     iteration # 14     ecut=    60.00 Ry     beta= 0.30
     Davidson diagonalization with overlap

---- Real-time Memory Report at c_bands before calling an iterative solver
           719 MiB given to the printing process from OS
             0 MiB allocation reported by mallinfo(arena+hblkhd)
        849699 MiB available memory on the node where the printing process lives
     GPU memory used/free/total (MiB): 936 / 80214 / 81151
------------------
     ethr =  1.05E-06,  avg # of iterations =  4.5

     total cpu time spent up to now is       21.2 secs

     total energy              =    -569.36127052 Ry
     estimated scf accuracy    <       0.00039351 Ry

     total magnetization       =    -0.00 Bohr mag/cell
     absolute magnetization    =     0.02 Bohr mag/cell
[tb_dev] Currently allocated     3.05E-05 Mbytes, locked:    0 /   2
[tb_pin] Currently allocated     0.00E+00 Mbytes, locked:    0 /   0

     iteration # 15     ecut=    60.00 Ry     beta= 0.30
     Davidson diagonalization with overlap

---- Real-time Memory Report at c_bands before calling an iterative solver
           719 MiB given to the printing process from OS
             0 MiB allocation reported by mallinfo(arena+hblkhd)
        849676 MiB available memory on the node where the printing process lives
     GPU memory used/free/total (MiB): 936 / 80214 / 81151
------------------
     ethr =  1.04E-06,  avg # of iterations =  1.2

     total cpu time spent up to now is       22.2 secs

     total energy              =    -569.36152625 Ry
     estimated scf accuracy    <       0.00012133 Ry

     total magnetization       =    -0.00 Bohr mag/cell
     absolute magnetization    =     0.01 Bohr mag/cell
[tb_dev] Currently allocated     3.05E-05 Mbytes, locked:    0 /   2
[tb_pin] Currently allocated     0.00E+00 Mbytes, locked:    0 /   0

     iteration # 16     ecut=    60.00 Ry     beta= 0.30
     Davidson diagonalization with overlap

---- Real-time Memory Report at c_bands before calling an iterative solver
           719 MiB given to the printing process from OS
             0 MiB allocation reported by mallinfo(arena+hblkhd)
        849657 MiB available memory on the node where the printing process lives
     GPU memory used/free/total (MiB): 936 / 80214 / 81151
------------------
     ethr =  3.19E-07,  avg # of iterations =  2.9

     total cpu time spent up to now is       23.5 secs

     total energy              =    -569.36161507 Ry
     estimated scf accuracy    <       0.00002355 Ry

     total magnetization       =    -0.00 Bohr mag/cell
     absolute magnetization    =     0.01 Bohr mag/cell
[tb_dev] Currently allocated     3.05E-05 Mbytes, locked:    0 /   2
[tb_pin] Currently allocated     0.00E+00 Mbytes, locked:    0 /   0

     iteration # 17     ecut=    60.00 Ry     beta= 0.30
     Davidson diagonalization with overlap

---- Real-time Memory Report at c_bands before calling an iterative solver
           719 MiB given to the printing process from OS
             0 MiB allocation reported by mallinfo(arena+hblkhd)
        849673 MiB available memory on the node where the printing process lives
     GPU memory used/free/total (MiB): 936 / 80214 / 81151
------------------
     ethr =  6.20E-08,  avg # of iterations =  5.7

     total cpu time spent up to now is       25.0 secs

     total energy              =    -569.36162507 Ry
     estimated scf accuracy    <       0.00000118 Ry

     total magnetization       =    -0.00 Bohr mag/cell
     absolute magnetization    =     0.00 Bohr mag/cell
[tb_dev] Currently allocated     3.05E-05 Mbytes, locked:    0 /   2
[tb_pin] Currently allocated     0.00E+00 Mbytes, locked:    0 /   0

     iteration # 18     ecut=    60.00 Ry     beta= 0.30
     Davidson diagonalization with overlap

---- Real-time Memory Report at c_bands before calling an iterative solver
           719 MiB given to the printing process from OS
             0 MiB allocation reported by mallinfo(arena+hblkhd)
        849636 MiB available memory on the node where the printing process lives
     GPU memory used/free/total (MiB): 936 / 80214 / 81151
------------------
     ethr =  3.11E-09,  avg # of iterations =  7.0

     total cpu time spent up to now is       26.8 secs

     total energy              =    -569.36162130 Ry
     estimated scf accuracy    <       0.00000073 Ry

     total magnetization       =     0.00 Bohr mag/cell
     absolute magnetization    =     0.00 Bohr mag/cell
[tb_dev] Currently allocated     3.05E-05 Mbytes, locked:    0 /   2
[tb_pin] Currently allocated     0.00E+00 Mbytes, locked:    0 /   0

     iteration # 19     ecut=    60.00 Ry     beta= 0.30
     Davidson diagonalization with overlap

---- Real-time Memory Report at c_bands before calling an iterative solver
           719 MiB given to the printing process from OS
             0 MiB allocation reported by mallinfo(arena+hblkhd)
        849643 MiB available memory on the node where the printing process lives
     GPU memory used/free/total (MiB): 936 / 80214 / 81151
------------------
     ethr =  1.92E-09,  avg # of iterations =  1.6

     total cpu time spent up to now is       27.9 secs

     total energy              =    -569.36162292 Ry
     estimated scf accuracy    <       0.00000051 Ry

     total magnetization       =     0.00 Bohr mag/cell
     absolute magnetization    =     0.00 Bohr mag/cell
[tb_dev] Currently allocated     3.05E-05 Mbytes, locked:    0 /   2
[tb_pin] Currently allocated     0.00E+00 Mbytes, locked:    0 /   0

     iteration # 20     ecut=    60.00 Ry     beta= 0.30
     Davidson diagonalization with overlap

---- Real-time Memory Report at c_bands before calling an iterative solver
           719 MiB given to the printing process from OS
             0 MiB allocation reported by mallinfo(arena+hblkhd)
        849640 MiB available memory on the node where the printing process lives
     GPU memory used/free/total (MiB): 936 / 80214 / 81151
------------------
     ethr =  1.34E-09,  avg # of iterations =  2.0
 
     Magnetic moment per site  (integrated on atomic sphere of radius R)
     atom   1 (R=0.275)  charge= 14.1717  magn=  0.0000
     atom   2 (R=0.275)  charge=  5.2863  magn= -0.0001
     atom   3 (R=0.275)  charge=  5.3205  magn= -0.0001
     atom   4 (R=0.334)  charge=  7.9871  magn=  0.0000

     total cpu time spent up to now is       29.0 secs

     End of self-consistent calculation

 ------ SPIN UP ------------


          k = 0.0000 0.0000 0.0000 (  2113 PWs)   bands (ev):

   -84.8344 -48.1310 -48.1310 -48.0005 -41.9918 -13.9172 -13.8049 -13.8049
    -9.7603  -7.8699   3.5342   4.8852   4.8852   7.5439   8.0673   8.0673
     9.0946   9.0946   9.9541  12.4630  12.4630  12.9081  18.1844  19.4987
    25.4503  27.6946  27.6946

     occupation numbers 
     1.0000   1.0000   1.0000   1.0000   1.0000   1.0000   1.0000   1.0000
     1.0000   1.0000   1.0000   1.0000   1.0000   1.0000   1.0000   1.0000
     1.0000   1.0000   1.0001   0.0000   0.0000   0.0000   0.0000   0.0000
     0.0000   0.0000   0.0000

          k = 0.0000 0.0000 0.1750 (  2114 PWs)   bands (ev):

   -84.8344 -48.1311 -48.1311 -48.0003 -41.9917 -13.9283 -13.8052 -13.8052
    -9.6677  -7.9797   3.9367   4.8922   4.8922   6.7098   8.0477   8.0477
     9.0959   9.0959  10.1493  12.4803  12.4803  13.8201  17.3311  19.3104
    25.5429  27.1110  27.1110

     occupation numbers 
     1.0000   1.0000   1.0000   1.0000   1.0000   1.0000   1.0000   1.0000
     1.0000   1.0000   1.0000   1.0000   1.0000   1.0000   1.0000   1.0000
     1.0000   1.0000   1.0023   0.0000   0.0000   0.0000   0.0000   0.0000
     0.0000   0.0000   0.0000

          k = 0.0000 0.1443 0.0000 (  2123 PWs)   bands (ev):

   -84.8337 -48.1397 -48.1332 -47.9991 -41.9866 -13.9041 -13.8522 -13.8149
    -9.5836  -7.8727   3.7716   4.6294   4.9796   7.0365   7.6037   7.8138
     9.3219   9.4697  10.0031  12.0147  12.3695  13.4802  18.7847  19.9341
    25.4829  26.0594  26.6141

     occupation numbers 
     1.0000   1.0000   1.0000   1.0000   1.0000   1.0000   1.0000   1.0000
     1.0000   1.0000   1.0000   1.0000   1.0000   1.0000   1.0000   1.0000
     1.0000   1.0000   1.0002   0.0000   0.0000   0.0000   0.0000   0.0000
     0.0000   0.0000   0.0000

          k = 0.0000 0.1443 0.1750 (  2102 PWs)   bands (ev):

   -84.8336 -48.1396 -48.1331 -47.9989 -41.9864 -13.9129 -13.8521 -13.8147
    -9.5046  -7.9640   4.0939   4.5678   4.9862   7.0545   7.2233   7.5917
     9.2999   9.4687  10.2153  11.8890  12.3763  14.3243  17.9037  19.9657
    24.5277  26.3323  26.7602

     occupation numbers 
     1.0000   1.0000   1.0000   1.0000   1.0000   1.0000   1.0000   1.0000
     1.0000   1.0000   1.0000   1.0000   1.0000   1.0000   1.0000   1.0000
     1.0000   1.0000   1.0060   0.0000   0.0000   0.0000   0.0000   0.0000
     0.0000   0.0000   0.0000

          k = 0.0000 0.2887 0.0000 (  2112 PWs)   bands (ev):

   -84.8318 -48.1604 -48.1382 -47.9959 -41.9738 -13.9711 -13.8638 -13.8381
    -9.1232  -7.8897   4.1858   4.4006   5.2021   5.5224   6.9925   7.8564
     9.3996   9.7790  10.0557  11.5038  12.2603  14.6539  19.6844  20.9174
    22.9666  24.8391  25.9975

     occupation numbers 
     1.0000   1.0000   1.0000   1.0000   1.0000   1.0000   1.0000   1.0000
     1.0000   1.0000   1.0000   1.0000   1.0000   1.0000   1.0000   1.0000
     1.0000   1.0000   1.0005   0.0002   0.0000   0.0000   0.0000   0.0000
     0.0000   0.0000   0.0000

          k = 0.0000 0.2887 0.1750 (  2100 PWs)   bands (ev):

   -84.8318 -48.1604 -48.1381 -47.9958 -41.9737 -13.9708 -13.8690 -13.8379
    -9.0742  -7.9420   4.0016   4.6261   5.2076   5.6445   6.9863   7.7000
     9.3538   9.7793  10.1907  11.2094  12.2556  15.2450  19.1029  21.1235
    22.1625  24.4705  26.2395

     occupation numbers 
     1.0000   1.0000   1.0000   1.0000   1.0000   1.0000   1.0000   1.0000
     1.0000   1.0000   1.0000   1.0000   1.0000   1.0000   1.0000   1.0000
     1.0000   1.0000   1.0043   0.0299   0.0000   0.0000   0.0000   0.0000
     0.0000   0.0000   0.0000

          k = 0.0000 0.4330 0.0000 (  2098 PWs)   bands (ev):

   -84.8299 -48.1812 -48.1430 -47.9926 -41.9610 -14.0807 -13.8610 -13.8287
    -8.5794  -7.9468   3.5563   4.5751   5.3816   5.4246   6.6666   7.1945
     9.3078   9.7148   9.9722  11.6793  12.3091  15.9897  19.3146  21.2680
    21.5760  24.3944  25.4660

     occupation numbers 
     1.0000   1.0000   1.0000   1.0000   1.0000   1.0000   1.0000   1.0000
     1.0000   1.0000   1.0000   1.0000   1.0000   1.0000   1.0000   1.0000
     1.0000   1.0000   1.0001   0.0000   0.0000   0.0000   0.0000   0.0000
     0.0000   0.0000   0.0000

          k = 0.0000 0.4330 0.1750 (  2109 PWs)   bands (ev):

   -84.8299 -48.1812 -48.1431 -47.9928 -41.9610 -14.0807 -13.8610 -13.8319
    -8.5566  -7.9686   3.5329   4.4281   5.3861   5.6305   6.6629   7.2937
     9.2879   9.7153   9.9851  11.4944  12.3011  16.2649  19.3409  20.1023
    22.1341  24.1089  25.8628

     occupation numbers 
     1.0000   1.0000   1.0000   1.0000   1.0000   1.0000   1.0000   1.0000
     1.0000   1.0000   1.0000   1.0000   1.0000   1.0000   1.0000   1.0000
     1.0000   1.0000   1.0001   0.0003   0.0000   0.0000   0.0000   0.0000
     0.0000   0.0000   0.0000

          k = 0.0000-0.5774 0.0000 (  2102 PWs)   bands (ev):

   -84.8292 -48.1899 -48.1450 -47.9912 -41.9558 -14.1256 -13.8704 -13.8142
    -8.2616  -8.0464   3.1195   4.6509   5.4219   5.8024   6.6118   6.7303
     9.1977   9.6147   9.9028  11.8772  12.3630  17.1239  18.0881  21.1854
    21.4361  24.5018  25.3457

     occupation numbers 
     1.0000   1.0000   1.0000   1.0000   1.0000   1.0000   1.0000   1.0000
     1.0000   1.0000   1.0000   1.0000   1.0000   1.0000   1.0000   1.0000
     1.0000   1.0000   1.0000   0.0000   0.0000   0.0000   0.0000   0.0000
     0.0000   0.0000   0.0000

          k = 0.0000-0.5774 0.1750 (  2116 PWs)   bands (ev):

   -84.8292 -48.1898 -48.1453 -47.9914 -41.9557 -14.1253 -13.8709 -13.8165
    -8.2679  -8.0379   3.1302   4.4907   5.4261   5.8948   6.6079   6.8841
     9.1898   9.6149   9.8918  11.8895  12.3573  17.0304  18.0196  20.3348
    22.4113  24.2251  25.3170

     occupation numbers 
     1.0000   1.0000   1.0000   1.0000   1.0000   1.0000   1.0000   1.0000
     1.0000   1.0000   1.0000   1.0000   1.0000   1.0000   1.0000   1.0000
     1.0000   1.0000   1.0000   0.0000   0.0000   0.0000   0.0000   0.0000
     0.0000   0.0000   0.0000

          k = 0.1250 0.2165 0.0000 (  2101 PWs)   bands (ev):

   -84.8323 -48.1533 -48.1375 -47.9968 -41.9775 -13.9335 -13.8736 -13.8361
    -9.2649  -7.8818   4.1899   4.3659   5.0808   6.0273   6.9152   7.9649
     9.4497   9.7771  10.0381  11.7461  12.0142  14.3678  19.5391  20.6747
    24.0728  24.7391  26.0413

     occupation numbers 
     1.0000   1.0000   1.0000   1.0000   1.0000   1.0000   1.0000   1.0000
     1.0000   1.0000   1.0000   1.0000   1.0000   1.0000   1.0000   1.0000
     1.0000   1.0000   1.0003   0.0000   0.0000   0.0000   0.0000   0.0000
     0.0000   0.0000   0.0000

          k = 0.1250 0.2165 0.1750 (  2101 PWs)   bands (ev):

   -84.8323 -48.1534 -48.1376 -47.9967 -41.9774 -13.9334 -13.8796 -13.8362
    -9.2101  -7.9415   4.1355   4.5178   5.0915   6.1184   6.9068   7.6745
     9.4559   9.7141  10.1780  11.5277  12.1165  14.8638  18.8994  20.9131
    23.0655  25.0749  25.9686

     occupation numbers 
     1.0000   1.0000   1.0000   1.0000   1.0000   1.0000   1.0000   1.0000
     1.0000   1.0000   1.0000   1.0000   1.0000   1.0000   1.0000   1.0000
     1.0000   1.0000   1.0035   0.0001   0.0000   0.0000   0.0000   0.0000
     0.0000   0.0000   0.0000

          k = 0.1250 0.3608 0.0000 (  2106 PWs)   bands (ev):

   -84.8305 -48.1720 -48.1447 -47.9936 -41.9648 -14.0316 -13.8724 -13.8388
    -8.7630  -7.9114   4.0467   4.4953   5.1626   5.3946   6.3913   7.5622
     9.4651   9.8500  10.0165  11.6181  11.9822  15.6058  19.8533  21.6166
    22.1331  23.9463  25.5643

     occupation numbers 
     1.0000   1.0000   1.0000   1.0000   1.0000   1.0000   1.0000   1.0000
     1.0000   1.0000   1.0000   1.0000   1.0000   1.0000   1.0000   1.0000
     1.0000   1.0000   1.0002   0.0000   0.0000   0.0000   0.0000   0.0000
     0.0000   0.0000   0.0000

          k = 0.1250 0.3608 0.1750 (  2102 PWs)   bands (ev):

   -84.8305 -48.1720 -48.1446 -47.9936 -41.9647 -14.0313 -13.8724 -13.8422
    -8.7364  -7.9375   3.9256   4.4465   5.2999   5.5312   6.3882   7.5645
     9.4618   9.8289  10.0232  11.4270  12.0281  15.8200  19.9189  20.8677
    22.0158  24.0368  25.3056

     occupation numbers 
     1.0000   1.0000   1.0000   1.0000   1.0000   1.0000   1.0000   1.0000
     1.0000   1.0000   1.0000   1.0000   1.0000   1.0000   1.0000   1.0000
     1.0000   1.0000   1.0003   0.0010   0.0000   0.0000   0.0000   0.0000
     0.0000   0.0000   0.0000

          k = 0.1250 0.5052 0.0000 (  2104 PWs)   bands (ev):

   -84.8292 -48.1851 -48.1498 -47.9913 -41.9558 -14.0994 -13.8974 -13.8143
    -8.3237  -7.9851   3.4165   4.4768   5.4583   5.7134   6.2039   6.8779
     9.3452   9.6838   9.9839  11.7964  12.0855  16.9676  18.7482  21.4662
    21.8981  24.2381  24.9250

     occupation numbers 
     1.0000   1.0000   1.0000   1.0000   1.0000   1.0000   1.0000   1.0000
     1.0000   1.0000   1.0000   1.0000   1.0000   1.0000   1.0000   1.0000
     1.0000   1.0000   1.0001   0.0000   0.0000   0.0000   0.0000   0.0000
     0.0000   0.0000   0.0000

          k = 0.1250 0.5052 0.1750 (  2107 PWs)   bands (ev):

   -84.8292 -48.1851 -48.1498 -47.9914 -41.9557 -14.0992 -13.8972 -13.8166
    -8.3161  -7.9916   3.4277   4.3623   5.4354   5.8209   6.2089   6.9852
     9.3353   9.6883   9.9631  11.7685  12.1159  16.9603  18.5974  20.7058
    22.4686  23.9136  25.1049

     occupation numbers 
     1.0000   1.0000   1.0000   1.0000   1.0000   1.0000   1.0000   1.0000
     1.0000   1.0000   1.0000   1.0000   1.0000   1.0000   1.0000   1.0000
     1.0000   1.0000   1.0001   0.0000   0.0000   0.0000   0.0000   0.0000
     0.0000   0.0000   0.0000

          k = 0.2500 0.4330 0.0000 (  2095 PWs)   bands (ev):

   -84.8291 -48.1786 -48.1562 -47.9913 -41.9557 -14.0631 -13.9339 -13.8145
    -8.3687  -7.9410   3.9689   4.2127   5.1093   5.7013   5.9923   7.0251
     9.4512   9.7308  10.1008  11.6377  11.8780  16.8999  19.3798  21.8648
    22.5225  23.3541  24.7493

     occupation numbers 
     1.0000   1.0000   1.0000   1.0000   1.0000   1.0000   1.0000   1.0000
     1.0000   1.0000   1.0000   1.0000   1.0000   1.0000   1.0000   1.0000
     1.0000   1.0000   1.0010   0.0000   0.0000   0.0000   0.0000   0.0000
     0.0000   0.0000   0.0000

          k = 0.2500 0.4330 0.1750 (  2101 PWs)   bands (ev):

   -84.8292 -48.1786 -48.1562 -47.9914 -41.9557 -14.0627 -13.9339 -13.8169
    -8.3667  -7.9419   3.9541   4.1328   5.1478   5.8342   5.9662   7.0312
     9.4634   9.7364  10.0407  11.7304  11.8767  16.6956  19.4422  21.5448
    22.0156  23.6733  24.7566

     occupation numbers 
     1.0000   1.0000   1.0000   1.0000   1.0000   1.0000   1.0000   1.0000
     1.0000   1.0000   1.0000   1.0000   1.0000   1.0000   1.0000   1.0000
     1.0000   1.0000   1.0004   0.0000   0.0000   0.0000   0.0000   0.0000
     0.0000   0.0000   0.0000

          k = 0.2500 0.5774 0.0000 (  2102 PWs)   bands (ev):

   -84.8286 -48.1791 -48.1632 -47.9904 -41.9520 -14.0634 -13.9721 -13.8048
    -8.1856  -7.9635   3.8122   4.2888   4.8381   5.9297   6.1727   6.5631
     9.2854   9.8688  10.0525  11.7295  11.7803  18.0019  18.5959  21.4591
    22.8153  23.8296  24.5939

     occupation numbers 
     1.0000   1.0000   1.0000   1.0000   1.0000   1.0000   1.0000   1.0000
     1.0000   1.0000   1.0000   1.0000   1.0000   1.0000   1.0000   1.0000
     1.0000   1.0000   1.0004   0.0000   0.0000   0.0000   0.0000   0.0000
     0.0000   0.0000   0.0000

          k = 0.2500 0.5774 0.1750 (  2105 PWs)   bands (ev):

   -84.8286 -48.1791 -48.1633 -47.9905 -41.9520 -14.0632 -13.9722 -13.8064
    -8.1880  -7.9614   3.8179   4.2513   4.8811   5.9119   6.2008   6.5564
     9.2977   9.8681  10.0206  11.8034  11.8650  17.7523  18.4456  21.0960
    23.0160  23.3248  24.5200

     occupation numbers 
     1.0000   1.0000   1.0000   1.0000   1.0000   1.0000   1.0000   1.0000
     1.0000   1.0000   1.0000   1.0000   1.0000   1.0000   1.0000   1.0000
     1.0000   1.0000   1.0002   0.0000   0.0000   0.0000   0.0000   0.0000
     0.0000   0.0000   0.0000

          k = 0.0000-0.1443 0.1750 (  2102 PWs)   bands (ev):

   -84.8336 -48.1397 -48.1331 -47.9989 -41.9864 -13.9128 -13.8521 -13.8147
    -9.5057  -7.9626   4.1061   4.5548   4.9861   6.9438   7.3401   7.5910
     9.2975   9.4651  10.1940  11.9724  12.3870  14.2058  17.9589  19.9611
    24.6089  26.2450  27.4773

     occupation numbers 
     1.0000   1.0000   1.0000   1.0000   1.0000   1.0000   1.0000   1.0000
     1.0000   1.0000   1.0000   1.0000   1.0000   1.0000   1.0000   1.0000
     1.0000   1.0000   1.0045   0.0000   0.0000   0.0000   0.0000   0.0000
     0.0000   0.0000   0.0000

          k = 0.0000-0.2887 0.1750 (  2100 PWs)   bands (ev):

   -84.8318 -48.1604 -48.1381 -47.9958 -41.9737 -13.9704 -13.8691 -13.8379
    -9.0819  -7.9326   4.0399   4.5358   5.2074   5.7066   6.9850   7.6463
     9.3675   9.7756  10.0985  11.4927  12.2684  14.8929  19.3093  21.1111
    22.5146  25.1236  25.5750

     occupation numbers 
     1.0000   1.0000   1.0000   1.0000   1.0000   1.0000   1.0000   1.0000
     1.0000   1.0000   1.0000   1.0000   1.0000   1.0000   1.0000   1.0000
     1.0000   1.0000   1.0010   0.0003   0.0000   0.0000   0.0000   0.0000
     0.0000   0.0000   0.0000

          k = 0.0000-0.4330 0.1750 (  2109 PWs)   bands (ev):

   -84.8299 -48.1812 -48.1431 -47.9928 -41.9610 -14.0804 -13.8610 -13.8319
    -8.5769  -7.9458   3.4993   4.4395   5.3859   5.7084   6.6621   7.1742
     9.3029   9.7141   9.9419  11.7373  12.3082  15.8087  19.5961  20.4625
    22.2846  24.5031  24.7677

     occupation numbers 
     1.0000   1.0000   1.0000   1.0000   1.0000   1.0000   1.0000   1.0000
     1.0000   1.0000   1.0000   1.0000   1.0000   1.0000   1.0000   1.0000
     1.0000   1.0000   1.0000   0.0000   0.0000   0.0000   0.0000   0.0000
     0.0000   0.0000   0.0000

          k =-0.1250-0.3608 0.1750 (  2102 PWs)   bands (ev):

   -84.8305 -48.1720 -48.1446 -47.9937 -41.9647 -14.0310 -13.8725 -13.8422
    -8.7449  -7.9277   3.9137   4.4341   5.2754   5.6130   6.3756   7.5027
     9.4845   9.8475   9.9510  11.6424  11.9757  15.5925  20.0490  20.9767
    22.3482  24.1505  24.6552

     occupation numbers 
     1.0000   1.0000   1.0000   1.0000   1.0000   1.0000   1.0000   1.0000
     1.0000   1.0000   1.0000   1.0000   1.0000   1.0000   1.0000   1.0000
     1.0000   1.0000   1.0001   0.0000   0.0000   0.0000   0.0000   0.0000
     0.0000   0.0000   0.0000

          k =-0.1250-0.5052 0.1750 (  2107 PWs)   bands (ev):

   -84.8292 -48.1851 -48.1498 -47.9914 -41.9557 -14.0991 -13.8973 -13.8167
    -8.3323  -7.9743   3.4053   4.3806   5.4596   5.8210   6.2271   6.9188
     9.3497   9.6853   9.9460  11.8847  12.0899  16.6796  18.8166  20.9114
    22.5548  23.7342  24.9698

     occupation numbers 
     1.0000   1.0000   1.0000   1.0000   1.0000   1.0000   1.0000   1.0000
     1.0000   1.0000   1.0000   1.0000   1.0000   1.0000   1.0000   1.0000
     1.0000   1.0000   1.0001   0.0000   0.0000   0.0000   0.0000   0.0000
     0.0000   0.0000   0.0000

 ------ SPIN DOWN ----------


          k = 0.0000 0.0000 0.0000 (  2113 PWs)   bands (ev):

   -84.8344 -48.1300 -48.1300 -48.0024 -41.9918 -13.9172 -13.8049 -13.8049
    -9.7606  -7.8703   3.5342   4.8855   4.8855   7.5436   8.0669   8.0669
     9.0936   9.0936   9.9543  12.4634  12.4634  12.9081  18.1844  19.4987
    25.4504  27.6950  27.6950

     occupation numbers 
     1.0000   1.0000   1.0000   1.0000   1.0000   1.0000   1.0000   1.0000
     1.0000   1.0000   1.0000   1.0000   1.0000   1.0000   1.0000   1.0000
     1.0000   1.0000   1.0001   0.0000   0.0000   0.0000   0.0000   0.0000
     0.0000   0.0000   0.0000

          k = 0.0000 0.0000 0.1750 (  2114 PWs)   bands (ev):

   -84.8344 -48.1302 -48.1302 -48.0022 -41.9917 -13.9283 -13.8052 -13.8052
    -9.6680  -7.9801   3.9367   4.8925   4.8925   6.7096   8.0473   8.0473
     9.0949   9.0949  10.1495  12.4807  12.4807  13.8200  17.3311  19.3105
    25.5429  27.1113  27.1113

     occupation numbers 
     1.0000   1.0000   1.0000   1.0000   1.0000   1.0000   1.0000   1.0000
     1.0000   1.0000   1.0000   1.0000   1.0000   1.0000   1.0000   1.0000
     1.0000   1.0000   1.0023   0.0000   0.0000   0.0000   0.0000   0.0000
     0.0000   0.0000   0.0000

          k = 0.0000 0.1443 0.0000 (  2123 PWs)   bands (ev):

   -84.8336 -48.1387 -48.1322 -48.0010 -41.9866 -13.9041 -13.8522 -13.8149
    -9.5839  -7.8731   3.7716   4.6296   4.9797   7.0361   7.6031   7.8135
     9.3210   9.4690  10.0033  12.0151  12.3697  13.4802  18.7847  19.9340
    25.4831  26.0595  26.6143

     occupation numbers 
     1.0000   1.0000   1.0000   1.0000   1.0000   1.0000   1.0000   1.0000
     1.0000   1.0000   1.0000   1.0000   1.0000   1.0000   1.0000   1.0000
     1.0000   1.0000   1.0002   0.0000   0.0000   0.0000   0.0000   0.0000
     0.0000   0.0000   0.0000

          k = 0.0000 0.1443 0.1750 (  2102 PWs)   bands (ev):

   -84.8336 -48.1387 -48.1321 -48.0008 -41.9864 -13.9129 -13.8521 -13.8147
    -9.5049  -7.9644   4.0939   4.5680   4.9864   7.0541   7.2230   7.5912
     9.2991   9.4680  10.2155  11.8894  12.3766  14.3243  17.9037  19.9657
    24.5278  26.3325  26.7605

     occupation numbers 
     1.0000   1.0000   1.0000   1.0000   1.0000   1.0000   1.0000   1.0000
     1.0000   1.0000   1.0000   1.0000   1.0000   1.0000   1.0000   1.0000
     1.0000   1.0000   1.0060   0.0000   0.0000   0.0000   0.0000   0.0000
     0.0000   0.0000   0.0000

          k = 0.0000 0.2887 0.0000 (  2112 PWs)   bands (ev):

   -84.8318 -48.1595 -48.1372 -47.9978 -41.9738 -13.9711 -13.8638 -13.8381
    -9.1235  -7.8901   4.1859   4.4006   5.2021   5.5221   6.9919   7.8561
     9.3989   9.7789  10.0557  11.5043  12.2602  14.6538  19.6843  20.9173
    22.9666  24.8392  25.9979

     occupation numbers 
     1.0000   1.0000   1.0000   1.0000   1.0000   1.0000   1.0000   1.0000
     1.0000   1.0000   1.0000   1.0000   1.0000   1.0000   1.0000   1.0000
     1.0000   1.0000   1.0005   0.0002   0.0000   0.0000   0.0000   0.0000
     0.0000   0.0000   0.0000

          k = 0.0000 0.2887 0.1750 (  2100 PWs)   bands (ev):

   -84.8317 -48.1594 -48.1371 -47.9977 -41.9737 -13.9708 -13.8690 -13.8379
    -9.0745  -7.9423   4.0018   4.6260   5.2077   5.6442   6.9858   7.6997
     9.3532   9.7791  10.1909  11.2098  12.2554  15.2449  19.1028  21.1235
    22.1625  24.4706  26.2397

     occupation numbers 
     1.0000   1.0000   1.0000   1.0000   1.0000   1.0000   1.0000   1.0000
     1.0000   1.0000   1.0000   1.0000   1.0000   1.0000   1.0000   1.0000
     1.0000   1.0000   1.0043   0.0298   0.0000   0.0000   0.0000   0.0000
     0.0000   0.0000   0.0000

          k = 0.0000 0.4330 0.0000 (  2098 PWs)   bands (ev):

   -84.8299 -48.1802 -48.1421 -47.9945 -41.9610 -14.0807 -13.8610 -13.8287
    -8.5797  -7.9472   3.5562   4.5750   5.3813   5.4246   6.6662   7.1943
     9.3073   9.7152   9.9722  11.6796  12.3085  15.9896  19.3146  21.2680
    21.5760  24.3944  25.4662

     occupation numbers 
     1.0000   1.0000   1.0000   1.0000   1.0000   1.0000   1.0000   1.0000
     1.0000   1.0000   1.0000   1.0000   1.0000   1.0000   1.0000   1.0000
     1.0000   1.0000   1.0001   0.0000   0.0000   0.0000   0.0000   0.0000
     0.0000   0.0000   0.0000

          k = 0.0000 0.4330 0.1750 (  2109 PWs)   bands (ev):

   -84.8299 -48.1803 -48.1421 -47.9947 -41.9610 -14.0807 -13.8610 -13.8319
    -8.5569  -7.9689   3.5329   4.4279   5.3859   5.6304   6.6625   7.2935
     9.2874   9.7157   9.9852  11.4947  12.3005  16.2649  19.3409  20.1024
    22.1340  24.1088  25.8623

     occupation numbers 
     1.0000   1.0000   1.0000   1.0000   1.0000   1.0000   1.0000   1.0000
     1.0000   1.0000   1.0000   1.0000   1.0000   1.0000   1.0000   1.0000
     1.0000   1.0000   1.0001   0.0003   0.0000   0.0000   0.0000   0.0000
     0.0000   0.0000   0.0000

          k = 0.0000-0.5774 0.0000 (  2102 PWs)   bands (ev):

   -84.8291 -48.1889 -48.1441 -47.9931 -41.9557 -14.1256 -13.8704 -13.8142
    -8.2619  -8.0468   3.1194   4.6507   5.4215   5.8026   6.6115   6.7301
     9.1974   9.6154   9.9027  11.8774  12.3623  17.1239  18.0881  21.1854
    21.4362  24.5017  25.3456

     occupation numbers 
     1.0000   1.0000   1.0000   1.0000   1.0000   1.0000   1.0000   1.0000
     1.0000   1.0000   1.0000   1.0000   1.0000   1.0000   1.0000   1.0000
     1.0000   1.0000   1.0000   0.0000   0.0000   0.0000   0.0000   0.0000
     0.0000   0.0000   0.0000

          k = 0.0000-0.5774 0.1750 (  2116 PWs)   bands (ev):

   -84.8291 -48.1889 -48.1443 -47.9934 -41.9557 -14.1253 -13.8709 -13.8164
    -8.2682  -8.0382   3.1301   4.4906   5.4257   5.8950   6.6076   6.8838
     9.1895   9.6156   9.8918  11.8897  12.3566  17.0305  18.0196  20.3349
    22.4112  24.2250  25.3169

     occupation numbers 
     1.0000   1.0000   1.0000   1.0000   1.0000   1.0000   1.0000   1.0000
     1.0000   1.0000   1.0000   1.0000   1.0000   1.0000   1.0000   1.0000
     1.0000   1.0000   1.0000   0.0000   0.0000   0.0000   0.0000   0.0000
     0.0000   0.0000   0.0000

          k = 0.1250 0.2165 0.0000 (  2101 PWs)   bands (ev):

   -84.8323 -48.1524 -48.1366 -47.9987 -41.9775 -13.9335 -13.8736 -13.8361
    -9.2652  -7.8821   4.1898   4.3660   5.0808   6.0270   6.9146   7.9645
     9.4493   9.7765  10.0382  11.7465  12.0143  14.3677  19.5390  20.6746
    24.0728  24.7393  26.0415

     occupation numbers 
     1.0000   1.0000   1.0000   1.0000   1.0000   1.0000   1.0000   1.0000
     1.0000   1.0000   1.0000   1.0000   1.0000   1.0000   1.0000   1.0000
     1.0000   1.0000   1.0003   0.0000   0.0000   0.0000   0.0000   0.0000
     0.0000   0.0000   0.0000

          k = 0.1250 0.2165 0.1750 (  2101 PWs)   bands (ev):

   -84.8323 -48.1524 -48.1366 -47.9987 -41.9774 -13.9334 -13.8796 -13.8362
    -9.2104  -7.9419   4.1356   4.5178   5.0916   6.1181   6.9062   7.6742
     9.4554   9.7136  10.1782  11.5279  12.1166  14.8637  18.8993  20.9131
    23.0655  25.0750  25.9690

     occupation numbers 
     1.0000   1.0000   1.0000   1.0000   1.0000   1.0000   1.0000   1.0000
     1.0000   1.0000   1.0000   1.0000   1.0000   1.0000   1.0000   1.0000
     1.0000   1.0000   1.0035   0.0001   0.0000   0.0000   0.0000   0.0000
     0.0000   0.0000   0.0000

          k = 0.1250 0.3608 0.0000 (  2106 PWs)   bands (ev):

   -84.8304 -48.1710 -48.1437 -47.9955 -41.9648 -14.0316 -13.8724 -13.8388
    -8.7634  -7.9118   4.0468   4.4951   5.1626   5.3944   6.3908   7.5619
     9.4649   9.8502  10.0163  11.6183  11.9819  15.6057  19.8532  21.6166
    22.1331  23.9464  25.5650

     occupation numbers 
     1.0000   1.0000   1.0000   1.0000   1.0000   1.0000   1.0000   1.0000
     1.0000   1.0000   1.0000   1.0000   1.0000   1.0000   1.0000   1.0000
     1.0000   1.0000   1.0002   0.0000   0.0000   0.0000   0.0000   0.0000
     0.0000   0.0000   0.0000

          k = 0.1250 0.3608 0.1750 (  2102 PWs)   bands (ev):

   -84.8304 -48.1711 -48.1437 -47.9956 -41.9647 -14.0313 -13.8724 -13.8422
    -8.7367  -7.9379   3.9257   4.4463   5.2998   5.5310   6.3876   7.5643
     9.4616   9.8291  10.0233  11.4271  12.0277  15.8200  19.9188  20.8678
    22.0157  24.0369  25.3055

     occupation numbers 
     1.0000   1.0000   1.0000   1.0000   1.0000   1.0000   1.0000   1.0000
     1.0000   1.0000   1.0000   1.0000   1.0000   1.0000   1.0000   1.0000
     1.0000   1.0000   1.0003   0.0010   0.0000   0.0000   0.0000   0.0000
     0.0000   0.0000   0.0000

          k = 0.1250 0.5052 0.0000 (  2104 PWs)   bands (ev):

   -84.8291 -48.1842 -48.1489 -47.9932 -41.9558 -14.0994 -13.8974 -13.8143
    -8.3241  -7.9855   3.4163   4.4766   5.4581   5.7134   6.2035   6.8777
     9.3451   9.6845   9.9838  11.7965  12.0849  16.9675  18.7482  21.4662
    21.8982  24.2381  24.9251

     occupation numbers 
     1.0000   1.0000   1.0000   1.0000   1.0000   1.0000   1.0000   1.0000
     1.0000   1.0000   1.0000   1.0000   1.0000   1.0000   1.0000   1.0000
     1.0000   1.0000   1.0001   0.0000   0.0000   0.0000   0.0000   0.0000
     0.0000   0.0000   0.0000

          k = 0.1250 0.5052 0.1750 (  2107 PWs)   bands (ev):

   -84.8291 -48.1842 -48.1488 -47.9933 -41.9557 -14.0992 -13.8972 -13.8166
    -8.3165  -7.9919   3.4276   4.3621   5.4351   5.8208   6.2086   6.9850
     9.3352   9.6889   9.9630  11.7685  12.1152  16.9602  18.5975  20.7059
    22.4684  23.9136  25.1057

     occupation numbers 
     1.0000   1.0000   1.0000   1.0000   1.0000   1.0000   1.0000   1.0000
     1.0000   1.0000   1.0000   1.0000   1.0000   1.0000   1.0000   1.0000
     1.0000   1.0000   1.0001   0.0000   0.0000   0.0000   0.0000   0.0000
     0.0000   0.0000   0.0000

          k = 0.2500 0.4330 0.0000 (  2095 PWs)   bands (ev):

   -84.8291 -48.1776 -48.1552 -47.9932 -41.9557 -14.0631 -13.9339 -13.8145
    -8.3690  -7.9414   3.9686   4.2126   5.1090   5.7013   5.9919   7.0249
     9.4513   9.7314  10.1007  11.6371  11.8779  16.8998  19.3798  21.8648
    22.5225  23.3543  24.7493

     occupation numbers 
     1.0000   1.0000   1.0000   1.0000   1.0000   1.0000   1.0000   1.0000
     1.0000   1.0000   1.0000   1.0000   1.0000   1.0000   1.0000   1.0000
     1.0000   1.0000   1.0010   0.0000   0.0000   0.0000   0.0000   0.0000
     0.0000   0.0000   0.0000

          k = 0.2500 0.4330 0.1750 (  2101 PWs)   bands (ev):

   -84.8291 -48.1776 -48.1552 -47.9934 -41.9557 -14.0627 -13.9339 -13.8169
    -8.3670  -7.9422   3.9539   4.1327   5.1475   5.8341   5.9659   7.0310
     9.4635   9.7369  10.0406  11.7299  11.8765  16.6956  19.4422  21.5448
    22.0155  23.6734  24.7564

     occupation numbers 
     1.0000   1.0000   1.0000   1.0000   1.0000   1.0000   1.0000   1.0000
     1.0000   1.0000   1.0000   1.0000   1.0000   1.0000   1.0000   1.0000
     1.0000   1.0000   1.0004   0.0000   0.0000   0.0000   0.0000   0.0000
     0.0000   0.0000   0.0000

          k = 0.2500 0.5774 0.0000 (  2102 PWs)   bands (ev):

   -84.8286 -48.1782 -48.1623 -47.9923 -41.9520 -14.0634 -13.9721 -13.8048
    -8.1860  -7.9638   3.8120   4.2885   4.8379   5.9296   6.1727   6.5629
     9.2857   9.8693  10.0525  11.7289  11.7800  18.0019  18.5959  21.4590
    22.8153  23.8297  24.5940

     occupation numbers 
     1.0000   1.0000   1.0000   1.0000   1.0000   1.0000   1.0000   1.0000
     1.0000   1.0000   1.0000   1.0000   1.0000   1.0000   1.0000   1.0000
     1.0000   1.0000   1.0004   0.0000   0.0000   0.0000   0.0000   0.0000
     0.0000   0.0000   0.0000

          k = 0.2500 0.5774 0.1750 (  2105 PWs)   bands (ev):

   -84.8286 -48.1781 -48.1623 -47.9924 -41.9520 -14.0631 -13.9721 -13.8064
    -8.1883  -7.9618   3.8177   4.2510   4.8809   5.9118   6.2008   6.5563
     9.2980   9.8686  10.0206  11.8029  11.8647  17.7523  18.4456  21.0959
    23.0159  23.3249  24.5202

     occupation numbers 
     1.0000   1.0000   1.0000   1.0000   1.0000   1.0000   1.0000   1.0000
     1.0000   1.0000   1.0000   1.0000   1.0000   1.0000   1.0000   1.0000
     1.0000   1.0000   1.0002   0.0000   0.0000   0.0000   0.0000   0.0000
     0.0000   0.0000   0.0000

          k = 0.0000-0.1443 0.1750 (  2102 PWs)   bands (ev):

   -84.8336 -48.1387 -48.1321 -48.0008 -41.9864 -13.9128 -13.8521 -13.8147
    -9.5060  -7.9630   4.1061   4.5550   4.9862   6.9434   7.3398   7.5904
     9.2966   9.4644  10.1942  11.9728  12.3872  14.2057  17.9589  19.9612
    24.6090  26.2452  27.4776

     occupation numbers 
     1.0000   1.0000   1.0000   1.0000   1.0000   1.0000   1.0000   1.0000
     1.0000   1.0000   1.0000   1.0000   1.0000   1.0000   1.0000   1.0000
     1.0000   1.0000   1.0045   0.0000   0.0000   0.0000   0.0000   0.0000
     0.0000   0.0000   0.0000

          k = 0.0000-0.2887 0.1750 (  2100 PWs)   bands (ev):

   -84.8317 -48.1594 -48.1371 -47.9977 -41.9737 -13.9703 -13.8691 -13.8379
    -9.0822  -7.9330   4.0400   4.5358   5.2074   5.7062   6.9845   7.6460
     9.3667   9.7754  10.0988  11.4930  12.2683  14.8928  19.3092  21.1111
    22.5147  25.1237  25.5753

     occupation numbers 
     1.0000   1.0000   1.0000   1.0000   1.0000   1.0000   1.0000   1.0000
     1.0000   1.0000   1.0000   1.0000   1.0000   1.0000   1.0000   1.0000
     1.0000   1.0000   1.0010   0.0003   0.0000   0.0000   0.0000   0.0000
     0.0000   0.0000   0.0000

          k = 0.0000-0.4330 0.1750 (  2109 PWs)   bands (ev):

   -84.8299 -48.1803 -48.1421 -47.9947 -41.9610 -14.0804 -13.8610 -13.8319
    -8.5772  -7.9462   3.4992   4.4393   5.3856   5.7084   6.6617   7.1740
     9.3024   9.7146   9.9421  11.7376  12.3076  15.8088  19.5961  20.4625
    22.2847  24.5032  24.7677

     occupation numbers 
     1.0000   1.0000   1.0000   1.0000   1.0000   1.0000   1.0000   1.0000
     1.0000   1.0000   1.0000   1.0000   1.0000   1.0000   1.0000   1.0000
     1.0000   1.0000   1.0001   0.0000   0.0000   0.0000   0.0000   0.0000
     0.0000   0.0000   0.0000

          k =-0.1250-0.3608 0.1750 (  2102 PWs)   bands (ev):

   -84.8304 -48.1711 -48.1437 -47.9956 -41.9647 -14.0310 -13.8724 -13.8422
    -8.7452  -7.9280   3.9137   4.4338   5.2753   5.6128   6.3751   7.5024
     9.4842   9.8476   9.9511  11.6425  11.9753  15.5925  20.0489  20.9767
    22.3482  24.1506  24.6553

     occupation numbers 
     1.0000   1.0000   1.0000   1.0000   1.0000   1.0000   1.0000   1.0000
     1.0000   1.0000   1.0000   1.0000   1.0000   1.0000   1.0000   1.0000
     1.0000   1.0000   1.0001   0.0000   0.0000   0.0000   0.0000   0.0000
     0.0000   0.0000   0.0000

          k =-0.1250-0.5052 0.1750 (  2107 PWs)   bands (ev):

   -84.8291 -48.1842 -48.1488 -47.9933 -41.9557 -14.0990 -13.8973 -13.8166
    -8.3327  -7.9746   3.4052   4.3804   5.4593   5.8209   6.2268   6.9186
     9.3496   9.6859   9.9459  11.8848  12.0892  16.6796  18.8166  20.9114
    22.5548  23.7342  24.9698

     occupation numbers 
     1.0000   1.0000   1.0000   1.0000   1.0000   1.0000   1.0000   1.0000
     1.0000   1.0000   1.0000   1.0000   1.0000   1.0000   1.0000   1.0000
     1.0000   1.0000   1.0001   0.0000   0.0000   0.0000   0.0000   0.0000
     0.0000   0.0000   0.0000

     the Fermi energy is    10.9383 ev

     WARNING: integrated charge=    38.00387931, expected=    38.00000000

!    total energy              =    -569.36162628 Ry
     total all-electron energy =     -3412.852182 Ry
     estimated scf accuracy    <       0.00000006 Ry
     smearing contrib. (-TS)   =       0.00005855 Ry
     internal energy E=F+TS    =    -569.36168483 Ry

     The total energy is F=E-TS. E is the sum of the following terms:
     one-electron contribution =    -311.34435779 Ry
     hartree contribution      =     177.43308662 Ry
     xc contribution           =     -60.42747694 Ry
     ewald contribution        =    -253.10390007 Ry
     one-center paw contrib.   =    -121.91903665 Ry
      -> PAW hartree energy AE =     346.60203982 Ry
      -> PAW hartree energy PS =    -346.57631979 Ry
      -> PAW xc energy AE      =    -179.34510648 Ry
      -> PAW xc energy PS      =      57.40034980 Ry
      -> total E_H with PAW    =     177.45880665 Ry
      -> total E_XC with PAW   =    -182.37223362 Ry

     total magnetization       =     0.00 Bohr mag/cell
     absolute magnetization    =     0.00 Bohr mag/cell

     convergence has been achieved in  20 iterations

     Forces acting on atoms (cartesian axes, Ry/au):

     atom    1 type  1   force =    -0.00000000   -0.00000000    0.02841753
     atom    2 type  2   force =     0.00000000    0.00000000    0.03568212
     atom    3 type  2   force =    -0.00000000   -0.00000000   -0.03175047
     atom    4 type  3   force =    -0.00000000   -0.00000000   -0.03234918
     The non-local contrib.  to forces
     atom    1 type  1   force =    -0.00000000   -0.00000000   -0.06056018
     atom    2 type  2   force =     0.00000000    0.00000000   -0.62135829
     atom    3 type  2   force =     0.00000000    0.00000000    0.53238643
     atom    4 type  3   force =     0.00000000    0.00000000   -0.14618035
     The ionic contribution  to forces
     atom    1 type  1   force =    -0.00000000   -0.00000000    4.41529015
     atom    2 type  2   force =     0.00000000   -0.00000000   19.78998412
     atom    3 type  2   force =    -0.00000000    0.00000000  -17.53069309
     atom    4 type  3   force =     0.00000000   -0.00000000   -6.67458118
     The local contribution  to forces
     atom    1 type  1   force =    -0.00000000   -0.00000000   -4.32625465
     atom    2 type  2   force =     0.00000001   -0.00000001  -19.13820752
     atom    3 type  2   force =    -0.00000001    0.00000001   16.97126578
     atom    4 type  3   force =    -0.00000000   -0.00000000    6.78828620
     The core correction contribution to forces
     atom    1 type  1   force =    -0.00000000   -0.00000000    0.00007196
     atom    2 type  2   force =    -0.00000000    0.00000000    0.00523716
     atom    3 type  2   force =     0.00000000   -0.00000000   -0.00466616
     atom    4 type  3   force =    -0.00000000    0.00000000    0.00009319
     The Hubbard contrib.    to forces
     atom    1 type  1   force =     0.00000000    0.00000000    0.00000000
     atom    2 type  2   force =     0.00000000    0.00000000    0.00000000
     atom    3 type  2   force =     0.00000000    0.00000000    0.00000000
     atom    4 type  3   force =     0.00000000    0.00000000    0.00000000
     The SCF correction term to forces
     atom    1 type  1   force =     0.00000000   -0.00000000   -0.00011975
     atom    2 type  2   force =     0.00000000   -0.00000000    0.00003664
     atom    3 type  2   force =    -0.00000000    0.00000000   -0.00003343
     atom    4 type  3   force =     0.00000000   -0.00000000    0.00004295

     Total force =     0.064307     Total SCF correction =     0.000137

     Writing all to output data dir ./out/pw.save/ :
     XML data file, charge density, pseudopotentials, collected wavefunctions
 
     init_run     :     10.48s CPU      2.61s WALL (       1 calls)
     electrons    :     98.97s CPU     25.91s WALL (       1 calls)
     forces       :      0.61s CPU      0.57s WALL (       1 calls)

     Called by init_run:
     wfcinit      :      0.34s CPU      0.39s WALL (       1 calls)
     wfcinit:atom :      0.04s CPU      0.04s WALL (      50 calls)
     wfcinit:wfcr :      0.24s CPU      0.28s WALL (      50 calls)
     potinit      :      9.56s CPU      1.59s WALL (       1 calls)
     hinit0       :      0.50s CPU      0.50s WALL (       1 calls)

     Called by electrons:
     c_bands      :     11.89s CPU     12.04s WALL (      20 calls)
     sum_band     :      2.11s CPU      2.14s WALL (      20 calls)
     v_of_rho     :      0.29s CPU      0.17s WALL (      21 calls)
     v_h          :      0.20s CPU      0.02s WALL (      21 calls)
     v_xc         :      0.09s CPU      0.15s WALL (      22 calls)
     newd         :      0.50s CPU      0.39s WALL (      21 calls)
                                        0.39s GPU  (      21 calls)
     PAW_pot      :     87.84s CPU     11.26s WALL (      21 calls)
     mix_rho      :      0.51s CPU      0.51s WALL (      20 calls)

     Called by c_bands:
     init_us_2    :      0.84s CPU      0.84s WALL (    2100 calls)
     cegterg      :     10.45s CPU     10.60s WALL (    1000 calls)

     Called by sum_band:
     sum_band:wei :      0.03s CPU      0.03s WALL (      20 calls)
                                        0.03s GPU  (      20 calls)
     sum_band:loo :      1.31s CPU      1.34s WALL (      20 calls)
                                        1.34s GPU  (      20 calls)
     sum_band:buf :      0.12s CPU      0.15s WALL (    1000 calls)
                                        0.14s GPU  (    1000 calls)
     sum_band:ini :      0.39s CPU      0.41s WALL (    1000 calls)
                                        0.40s GPU  (    1000 calls)
     sum_band:cal :      0.04s CPU      0.06s WALL (    1000 calls)
                                        0.05s GPU  (    1000 calls)
     sum_band:bec :      0.22s CPU      0.25s WALL (    1000 calls)
                                        0.23s GPU  (    1000 calls)
     addusdens    :      0.66s CPU      0.67s WALL (      20 calls)
                                        0.67s GPU  (      20 calls)
     addusd:skk   :      0.00s CPU      0.00s WALL (      60 calls)
                                        0.00s GPU  (      60 calls)

     Called by *egterg:
     cdiaghg      :      3.80s CPU      3.93s WALL (    4318 calls)
                                        3.88s GPU  (    4318 calls)
     cegterg:over :      0.62s CPU      0.65s WALL (    3318 calls)
     cegterg:upda :      0.64s CPU      0.65s WALL (    3318 calls)
     cegterg:last :      0.10s CPU      0.10s WALL (    1795 calls)
     h_psi        :      3.70s CPU      3.82s WALL (    4368 calls)
                                        3.76s GPU  (    4368 calls)
     s_psi        :      0.68s CPU      0.71s WALL (    4368 calls)
     g_psi        :      0.02s CPU      0.08s WALL (    3318 calls)
                                        0.04s GPU  (    3318 calls)

     Called by h_psi:
     h_psi:calbec :      0.13s CPU      0.23s WALL (    4368 calls)
                                        0.18s GPU  (    4368 calls)
     vloc_psi     :      2.50s CPU      2.56s WALL (    4368 calls)
                                        2.50s GPU  (    4368 calls)
     add_vuspsi   :      0.61s CPU      0.72s WALL (    4368 calls)
                                        0.66s GPU  (    4368 calls)

     General routines
     calbec       :      0.14s CPU      0.17s WALL (    5568 calls)
     fft          :      3.22s CPU      0.67s WALL (     538 calls)
                                        0.08s GPU  (     496 calls)
     ffts         :      2.06s CPU      0.37s WALL (     679 calls)
                                        0.02s GPU  (     637 calls)
     fftw         :      0.34s CPU      0.89s WALL (   14854 calls)
                                        0.72s GPU  (   14854 calls)
     interpolate  :      5.30s CPU      0.94s WALL (      42 calls)
 
     Parallel routines

     PAW routines
     PAW_pot      :     87.84s CPU     11.26s WALL (      21 calls)
     PAW_symme    :      0.02s CPU      0.00s WALL (      41 calls)
 
     PWSCF        :   1m50.92s CPU     29.60s WALL

 
   This run was terminated on:   3:16:10  12Jul2026            

=------------------------------------------------------------------------------=
   JOB DONE.
=------------------------------------------------------------------------------=
Warning: ieee_divide_by_zero is signaling
Warning: ieee_inexact is signaling
FORTRAN STOP
