
     Program PWSCF v.7.3.1 starts on 12Jul2026 at  5:35:47 

     This program is part of the open-source Quantum ESPRESSO suite
     for quantum simulation of materials; please cite
         "P. Giannozzi et al., J. Phys.:Condens. Matter 21 395502 (2009);
         "P. Giannozzi et al., J. Phys.:Condens. Matter 29 465901 (2017);
         "P. Giannozzi et al., J. Chem. Phys. 152 154105 (2020);
          URL http://www.quantum-espresso.org", 
     in publications or presentations arising from this work. More details at
     http://www.quantum-espresso.org/quote

     Parallel version (MPI & OpenMP), running on      14 processor cores
     Number of MPI processes:                 1
     Threads/MPI process:                    14

     MPI processes distributed on     1 nodes
     1358862 MiB available memory on the printing compute node when the environment starts
 
     Reading input from pw.in

     Current dimensions of program PWSCF are:
     Max number of different atomic species (ntypx) = 10
     Max number of k-points (npk) =  40000
     Max angular momentum in pseudopotentials (lmaxx) =  4
     file Co.pbe-spn-kjpaw_psl.0.3.1.UPF: wavefunction(s)  3P 3D renormalized
     file O.pbe-n-kjpaw_psl.1.0.0.UPF: wavefunction(s)  2S 2P renormalized
     file K.pbe-spn-kjpaw_psl.1.0.0.UPF: wavefunction(s)  3S renormalized
 
     Subspace diagonalization in iterative solution of the eigenvalue problem:
     a serial algorithm will be used

 
     G-vector sticks info
     --------------------
     sticks:   dense  smooth     PW     G-vecs:    dense   smooth      PW
     Sum        1003     499    151                47935    16953    2771
 
     Using Slab Decomposition
 


     bravais-lattice index     =            4
     lattice parameter (alat)  =       5.4802  a.u.
     unit-cell volume          =     270.3248 (a.u.)^3
     number of atoms/cell      =            4
     number of atomic types    =            3
     number of electrons       =        38.00
     number of Kohn-Sham states=           27
     kinetic-energy cutoff     =      60.0000  Ry
     charge density cutoff     =     480.0000  Ry
     scf convergence threshold =      1.0E-07
     mixing beta               =       0.3000
     number of iterations used =            8  local-TF  mixing
     Exchange-correlation= SLA  PW   PBX  PBC
                           (   1   4   3   4   0   0   0)

     GPU acceleration is ACTIVE.  1 visible GPUs per MPI rank
     GPU-aware MPI enabled


     GPU used by master process:

        Device Number: 0
        Device name: NVIDIA A100-SXM4-80GB
        Compute capability : 80
        Ratio of single to double precision performance  : 2
        Memory Clock Rate (KHz): 1593000
        Memory Bus Width (bits): 5120
        Peak Memory Bandwidth (GB/s): ******

     celldm(1)=   5.480206  celldm(2)=   0.000000  celldm(3)=   1.896552
     celldm(4)=   0.000000  celldm(5)=   0.000000  celldm(6)=   0.000000

     crystal axes: (cart. coord. in units of alat)
               a(1) = (   1.000000   0.000000   0.000000 )  
               a(2) = (  -0.500000   0.866025   0.000000 )  
               a(3) = (   0.000000   0.000000   1.896552 )  

     reciprocal axes: (cart. coord. in units 2 pi/alat)
               b(1) = (  1.000000  0.577350 -0.000000 )  
               b(2) = (  0.000000  1.154701  0.000000 )  
               b(3) = (  0.000000 -0.000000  0.527273 )  


     PseudoPot. # 1 for Co read from file:
     ../../pseudo/Co.pbe-spn-kjpaw_psl.0.3.1.UPF
     MD5 check sum: 3c0a43779828c046024e4f3be63f8e67
     Pseudo is Projector augmented-wave + core cor, Zval = 17.0
     Generated using &quot;atomic&quot; code by A. Dal Corso  v.6.2.2
     Shape of augmentation charge: PSQ
     Using radial grid of 1193 points,  6 beta functions with: 
                l(1) =   0
                l(2) =   0
                l(3) =   1
                l(4) =   1
                l(5) =   2
                l(6) =   2
     Q(r) pseudized with 0 coefficients 


     PseudoPot. # 2 for O  read from file:
     ../../pseudo/O.pbe-n-kjpaw_psl.1.0.0.UPF
     MD5 check sum: e99d9cef9b487d1ca56f5b95ecd0fd7a
     Pseudo is Projector augmented-wave + core cor, Zval =  6.0
     Generated using &quot;atomic&quot; code by A. Dal Corso  v.6.3
     Shape of augmentation charge: PSQ
     Using radial grid of 1095 points,  4 beta functions with: 
                l(1) =   0
                l(2) =   0
                l(3) =   1
                l(4) =   1
     Q(r) pseudized with 0 coefficients 


     PseudoPot. # 3 for K  read from file:
     ../../pseudo/K.pbe-spn-kjpaw_psl.1.0.0.UPF
     MD5 check sum: 34cc42130a09071ebe376fd42eb21491
     Pseudo is Projector augmented-wave + core cor, Zval =  9.0
     Generated using &quot;atomic&quot; code by A. Dal Corso  v.6.2.2
     Shape of augmentation charge: PSQ
     Using radial grid of 1165 points,  6 beta functions with: 
                l(1) =   0
                l(2) =   0
                l(3) =   1
                l(4) =   1
                l(5) =   2
                l(6) =   2
     Q(r) pseudized with 0 coefficients 


     atomic species   valence    mass     pseudopotential
     Co               17.00    58.93300     Co( 1.00)
     O                 6.00    15.99900     O ( 1.00)
     K                 9.00    39.09830     K ( 1.00)

     Starting magnetic structure 
     atomic species   magnetization
     Co              0.300
     O               0.000
     K               0.000

      6 Sym. Ops. (no inversion) found


                                    s                        frac. trans.

      isym =  1     identity                                     

 cryst.   s( 1) = (     1          0          0      )
                  (     0          1          0      )
                  (     0          0          1      )

 cart.    s( 1) = (  1.0000000  0.0000000  0.0000000 )
                  (  0.0000000  1.0000000  0.0000000 )
                  (  0.0000000  0.0000000  1.0000000 )


      isym =  2     120 deg rotation - cryst. axis [0,0,1]       

 cryst.   s( 2) = (     0          1          0      )
                  (    -1         -1          0      )
                  (     0          0          1      )

 cart.    s( 2) = ( -0.5000000 -0.8660254  0.0000000 )
                  (  0.8660254 -0.5000000  0.0000000 )
                  (  0.0000000  0.0000000  1.0000000 )


      isym =  3     120 deg rotation - cryst. axis [0,0,-1]      

 cryst.   s( 3) = (    -1         -1          0      )
                  (     1          0          0      )
                  (     0          0          1      )

 cart.    s( 3) = ( -0.5000000  0.8660254  0.0000000 )
                  ( -0.8660254 -0.5000000  0.0000000 )
                  (  0.0000000  0.0000000  1.0000000 )


      isym =  4     inv. 180 deg rotation - cart. axis [1,0,0]   

 cryst.   s( 4) = (    -1          0          0      )
                  (     1          1          0      )
                  (     0          0          1      )

 cart.    s( 4) = ( -1.0000000  0.0000000  0.0000000 )
                  (  0.0000000  1.0000000  0.0000000 )
                  (  0.0000000  0.0000000  1.0000000 )


      isym =  5     inv. 180 deg rotation - cryst. axis [0,1,0]  

 cryst.   s( 5) = (     1          1          0      )
                  (     0         -1          0      )
                  (     0          0          1      )

 cart.    s( 5) = (  0.5000000  0.8660254  0.0000000 )
                  (  0.8660254 -0.5000000  0.0000000 )
                  (  0.0000000  0.0000000  1.0000000 )


      isym =  6     inv. 180 deg rotation - cryst. axis [1,1,0]  

 cryst.   s( 6) = (     0         -1          0      )
                  (    -1          0          0      )
                  (     0          0          1      )

 cart.    s( 6) = (  0.5000000 -0.8660254  0.0000000 )
                  ( -0.8660254 -0.5000000  0.0000000 )
                  (  0.0000000  0.0000000  1.0000000 )


     point group C_3v (3m)  
     there are  3 classes
     the character table:

       E     2C3   3s_v 
A_1    1.00  1.00  1.00
A_2    1.00  1.00 -1.00
E      2.00 -1.00  0.00

     the symmetry operations in each class and the name of the first element:

     E        1
          identity                                               
     2C3      2    3
          120 deg rotation - cryst. axis [0,0,1]                 
     3s_v     4    5    6
          inv. 180 deg rotation - cart. axis [1,0,0]             

   Cartesian axes

     site n.     atom                  positions (alat units)
         1        Co     tau(   1) = (   0.0000000   0.0000000   0.0000000  )
         2        O      tau(   2) = (  -0.0000000   0.5773503   0.3310345  )
         3        O      tau(   3) = (   0.5000000   0.2886751   1.5655172  )
         4        K      tau(   4) = (   0.0000000   0.0000000   1.1206897  )

   Crystallographic axes

     site n.     atom                  positions (cryst. coord.)
         1        Co     tau(   1) = (  0.0000000  0.0000000  0.0000000  )
         2        O      tau(   2) = (  0.3333333  0.6666667  0.1745455  )
         3        O      tau(   3) = (  0.6666667  0.3333333  0.8254545  )
         4        K      tau(   4) = (  0.0000000  0.0000000  0.5909091  )

     number of k points=    25  Marzari-Vanderbilt smearing, width (Ry)=  0.0200
                       cart. coord. in units 2pi/alat
        k(    1) = (   0.0000000   0.0000000   0.0000000), wk =   0.0052083
        k(    2) = (   0.0000000   0.0000000   0.1757576), wk =   0.0104167
        k(    3) = (   0.0000000   0.1443376   0.0000000), wk =   0.0312500
        k(    4) = (   0.0000000   0.1443376   0.1757576), wk =   0.0312500
        k(    5) = (   0.0000000   0.2886751   0.0000000), wk =   0.0312500
        k(    6) = (   0.0000000   0.2886751   0.1757576), wk =   0.0312500
        k(    7) = (   0.0000000   0.4330127   0.0000000), wk =   0.0312500
        k(    8) = (   0.0000000   0.4330127   0.1757576), wk =   0.0312500
        k(    9) = (   0.0000000  -0.5773503   0.0000000), wk =   0.0156250
        k(   10) = (   0.0000000  -0.5773503   0.1757576), wk =   0.0312500
        k(   11) = (   0.1250000   0.2165064   0.0000000), wk =   0.0312500
        k(   12) = (   0.1250000   0.2165064   0.1757576), wk =   0.0625000
        k(   13) = (   0.1250000   0.3608439   0.0000000), wk =   0.0625000
        k(   14) = (   0.1250000   0.3608439   0.1757576), wk =   0.0625000
        k(   15) = (   0.1250000   0.5051815   0.0000000), wk =   0.0625000
        k(   16) = (   0.1250000   0.5051815   0.1757576), wk =   0.0625000
        k(   17) = (   0.2500000   0.4330127   0.0000000), wk =   0.0312500
        k(   18) = (   0.2500000   0.4330127   0.1757576), wk =   0.0625000
        k(   19) = (   0.2500000   0.5773503   0.0000000), wk =   0.0312500
        k(   20) = (   0.2500000   0.5773503   0.1757576), wk =   0.0625000
        k(   21) = (   0.0000000  -0.1443376   0.1757576), wk =   0.0312500
        k(   22) = (   0.0000000  -0.2886751   0.1757576), wk =   0.0312500
        k(   23) = (   0.0000000  -0.4330127   0.1757576), wk =   0.0312500
        k(   24) = (  -0.1250000  -0.3608439   0.1757576), wk =   0.0625000
        k(   25) = (  -0.1250000  -0.5051815   0.1757576), wk =   0.0625000

                       cryst. coord.
        k(    1) = (   0.0000000   0.0000000   0.0000000), wk =   0.0052083
        k(    2) = (   0.0000000   0.0000000   0.3333333), wk =   0.0104167
        k(    3) = (   0.0000000   0.1250000   0.0000000), wk =   0.0312500
        k(    4) = (   0.0000000   0.1250000   0.3333333), wk =   0.0312500
        k(    5) = (   0.0000000   0.2500000   0.0000000), wk =   0.0312500
        k(    6) = (   0.0000000   0.2500000   0.3333333), wk =   0.0312500
        k(    7) = (   0.0000000   0.3750000   0.0000000), wk =   0.0312500
        k(    8) = (   0.0000000   0.3750000   0.3333333), wk =   0.0312500
        k(    9) = (   0.0000000  -0.5000000   0.0000000), wk =   0.0156250
        k(   10) = (   0.0000000  -0.5000000   0.3333333), wk =   0.0312500
        k(   11) = (   0.1250000   0.1250000   0.0000000), wk =   0.0312500
        k(   12) = (   0.1250000   0.1250000   0.3333333), wk =   0.0625000
        k(   13) = (   0.1250000   0.2500000   0.0000000), wk =   0.0625000
        k(   14) = (   0.1250000   0.2500000   0.3333333), wk =   0.0625000
        k(   15) = (   0.1250000   0.3750000   0.0000000), wk =   0.0625000
        k(   16) = (   0.1250000   0.3750000   0.3333333), wk =   0.0625000
        k(   17) = (   0.2500000   0.2500000   0.0000000), wk =   0.0312500
        k(   18) = (   0.2500000   0.2500000   0.3333333), wk =   0.0625000
        k(   19) = (   0.2500000   0.3750000   0.0000000), wk =   0.0312500
        k(   20) = (   0.2500000   0.3750000   0.3333333), wk =   0.0625000
        k(   21) = (   0.0000000  -0.1250000   0.3333333), wk =   0.0312500
        k(   22) = (   0.0000000  -0.2500000   0.3333333), wk =   0.0312500
        k(   23) = (   0.0000000  -0.3750000   0.3333333), wk =   0.0312500
        k(   24) = (  -0.1250000  -0.2500000   0.3333333), wk =   0.0625000
        k(   25) = (  -0.1250000  -0.3750000   0.3333333), wk =   0.0625000

     Dense  grid:    47935 G-vectors     FFT dimensions: (  40,  40,  75)

     Smooth grid:    16953 G-vectors     FFT dimensions: (  27,  27,  54)

     Dynamical RAM for                 wfc:       0.87 MB

     Dynamical RAM for     wfc (w. buffer):      44.59 MB

     Dynamical RAM for           str. fact:       2.19 MB

     Dynamical RAM for           local pot:       0.00 MB

     Dynamical RAM for          nlocal pot:       1.68 MB

     Dynamical RAM for                qrad:       5.27 MB

     Dynamical RAM for          rho,v,vnew:       9.88 MB

     Dynamical RAM for               rhoin:       3.29 MB

     Dynamical RAM for            rho*nmix:      23.41 MB

     Dynamical RAM for           G-vectors:       2.87 MB

     Dynamical RAM for          h,s,v(r/c):       0.13 MB

     Dynamical RAM for          <psi|beta>:       0.02 MB

     Dynamical RAM for                 psi:       1.75 MB

     Dynamical RAM for                hpsi:       1.75 MB

     Dynamical RAM for                spsi:       1.75 MB

     Dynamical RAM for      wfcinit/wfcrot:       1.77 MB

     Dynamical RAM for           addusdens:     138.24 MB

     Dynamical RAM for          addusforce:     139.72 MB

     Estimated static dynamical RAM per process >      78.20 MB

     Estimated max dynamical RAM per process >     241.33 MB

     Check: negative core charge=   -0.000009
     Generating pointlists ...
     new r_m :   0.2745 (alat units)  1.5045 (a.u.) for type    1
     new r_m :   0.2745 (alat units)  1.5045 (a.u.) for type    2
     new r_m :   0.3006 (alat units)  1.6476 (a.u.) for type    3

     Initial potential from superposition of free atoms

     starting charge      37.9809, renormalised to      38.0000
     Starting wfcs are   26 randomized atomic wfcs +    1 random wfcs
     Checking if some PAW data can be deallocated... 

     total cpu time spent up to now is        3.4 secs

     Self-consistent Calculation
[tb_dev] Currently allocated     6.58E-01 Mbytes, locked:    0 /   6
[tb_pin] Currently allocated     0.00E+00 Mbytes, locked:    0 /   0

     iteration #  1     ecut=    60.00 Ry     beta= 0.30
     Davidson diagonalization with overlap

---- Real-time Memory Report at c_bands before calling an iterative solver
           671 MiB given to the printing process from OS
             0 MiB allocation reported by mallinfo(arena+hblkhd)
       1354022 MiB available memory on the node where the printing process lives
     GPU memory used/free/total (MiB): 926 / 80224 / 81151
------------------
     ethr =  1.00E-02,  avg # of iterations =  9.0

     total cpu time spent up to now is        5.6 secs

     total energy              =    -572.68535428 Ry
     estimated scf accuracy    <       1.56308183 Ry

     total magnetization       =     4.00 Bohr mag/cell
     absolute magnetization    =     4.00 Bohr mag/cell
[tb_dev] Currently allocated     3.05E-05 Mbytes, locked:    0 /   2
[tb_pin] Currently allocated     0.00E+00 Mbytes, locked:    0 /   0

     iteration #  2     ecut=    60.00 Ry     beta= 0.30
     Davidson diagonalization with overlap

---- Real-time Memory Report at c_bands before calling an iterative solver
           714 MiB given to the printing process from OS
             0 MiB allocation reported by mallinfo(arena+hblkhd)
       1351222 MiB available memory on the node where the printing process lives
     GPU memory used/free/total (MiB): 938 / 80212 / 81151
------------------
     ethr =  4.11E-03,  avg # of iterations =  1.9

     total cpu time spent up to now is        7.0 secs

     total energy              =    -572.62085072 Ry
     estimated scf accuracy    <       0.51593625 Ry

     total magnetization       =     4.07 Bohr mag/cell
     absolute magnetization    =     4.07 Bohr mag/cell
[tb_dev] Currently allocated     3.05E-05 Mbytes, locked:    0 /   2
[tb_pin] Currently allocated     0.00E+00 Mbytes, locked:    0 /   0

     iteration #  3     ecut=    60.00 Ry     beta= 0.30
     Davidson diagonalization with overlap

---- Real-time Memory Report at c_bands before calling an iterative solver
           715 MiB given to the printing process from OS
             0 MiB allocation reported by mallinfo(arena+hblkhd)
       1349067 MiB available memory on the node where the printing process lives
     GPU memory used/free/total (MiB): 938 / 80212 / 81151
------------------
     ethr =  1.36E-03,  avg # of iterations =  2.5

     total cpu time spent up to now is        8.4 secs

     total energy              =    -572.87319258 Ry
     estimated scf accuracy    <       1.24814711 Ry

     total magnetization       =     1.24 Bohr mag/cell
     absolute magnetization    =     1.52 Bohr mag/cell
[tb_dev] Currently allocated     3.05E-05 Mbytes, locked:    0 /   2
[tb_pin] Currently allocated     0.00E+00 Mbytes, locked:    0 /   0

     iteration #  4     ecut=    60.00 Ry     beta= 0.30
     Davidson diagonalization with overlap

---- Real-time Memory Report at c_bands before calling an iterative solver
           716 MiB given to the printing process from OS
             0 MiB allocation reported by mallinfo(arena+hblkhd)
       1346498 MiB available memory on the node where the printing process lives
     GPU memory used/free/total (MiB): 938 / 80212 / 81151
------------------
     ethr =  1.36E-03,  avg # of iterations =  1.4

     total cpu time spent up to now is        9.7 secs

     total energy              =    -572.92763319 Ry
     estimated scf accuracy    <       1.85987013 Ry

     total magnetization       =     0.96 Bohr mag/cell
     absolute magnetization    =     1.34 Bohr mag/cell
[tb_dev] Currently allocated     3.05E-05 Mbytes, locked:    0 /   2
[tb_pin] Currently allocated     0.00E+00 Mbytes, locked:    0 /   0

     iteration #  5     ecut=    60.00 Ry     beta= 0.30
     Davidson diagonalization with overlap

---- Real-time Memory Report at c_bands before calling an iterative solver
           717 MiB given to the printing process from OS
             0 MiB allocation reported by mallinfo(arena+hblkhd)
       1344490 MiB available memory on the node where the printing process lives
     GPU memory used/free/total (MiB): 938 / 80212 / 81151
------------------
     ethr =  1.36E-03,  avg # of iterations =  1.4

     total cpu time spent up to now is       11.0 secs

     total energy              =    -572.88203896 Ry
     estimated scf accuracy    <       1.80230590 Ry

     total magnetization       =     0.49 Bohr mag/cell
     absolute magnetization    =     1.13 Bohr mag/cell
[tb_dev] Currently allocated     3.05E-05 Mbytes, locked:    0 /   2
[tb_pin] Currently allocated     0.00E+00 Mbytes, locked:    0 /   0

     iteration #  6     ecut=    60.00 Ry     beta= 0.30
     Davidson diagonalization with overlap

---- Real-time Memory Report at c_bands before calling an iterative solver
           720 MiB given to the printing process from OS
             0 MiB allocation reported by mallinfo(arena+hblkhd)
       1342292 MiB available memory on the node where the printing process lives
     GPU memory used/free/total (MiB): 938 / 80212 / 81151
------------------
     ethr =  1.36E-03,  avg # of iterations =  1.2

     total cpu time spent up to now is       12.2 secs

     total energy              =    -572.86595331 Ry
     estimated scf accuracy    <       1.11215470 Ry

     total magnetization       =     0.53 Bohr mag/cell
     absolute magnetization    =     1.14 Bohr mag/cell
[tb_dev] Currently allocated     3.05E-05 Mbytes, locked:    0 /   2
[tb_pin] Currently allocated     0.00E+00 Mbytes, locked:    0 /   0

     iteration #  7     ecut=    60.00 Ry     beta= 0.30
     Davidson diagonalization with overlap

---- Real-time Memory Report at c_bands before calling an iterative solver
           722 MiB given to the printing process from OS
             0 MiB allocation reported by mallinfo(arena+hblkhd)
       1360555 MiB available memory on the node where the printing process lives
     GPU memory used/free/total (MiB): 938 / 80212 / 81151
------------------
     ethr =  1.36E-03,  avg # of iterations =  1.4

     total cpu time spent up to now is       13.5 secs

     total energy              =    -572.93392972 Ry
     estimated scf accuracy    <       0.64200856 Ry

     total magnetization       =     0.31 Bohr mag/cell
     absolute magnetization    =     1.03 Bohr mag/cell
[tb_dev] Currently allocated     3.05E-05 Mbytes, locked:    0 /   2
[tb_pin] Currently allocated     0.00E+00 Mbytes, locked:    0 /   0

     iteration #  8     ecut=    60.00 Ry     beta= 0.30
     Davidson diagonalization with overlap

---- Real-time Memory Report at c_bands before calling an iterative solver
           723 MiB given to the printing process from OS
             0 MiB allocation reported by mallinfo(arena+hblkhd)
       1360181 MiB available memory on the node where the printing process lives
     GPU memory used/free/total (MiB): 938 / 80212 / 81151
------------------
     ethr =  1.36E-03,  avg # of iterations =  1.4
     Minimization algorithm failed to find Fermi energy: reverting to bisection
     Possible cause: smearing is larger than the electronic band-gap.

     total cpu time spent up to now is       14.8 secs

     total energy              =    -572.85545265 Ry
     estimated scf accuracy    <       0.57574085 Ry

     total magnetization       =     0.01 Bohr mag/cell
     absolute magnetization    =     0.62 Bohr mag/cell
[tb_dev] Currently allocated     3.05E-05 Mbytes, locked:    0 /   2
[tb_pin] Currently allocated     0.00E+00 Mbytes, locked:    0 /   0

     iteration #  9     ecut=    60.00 Ry     beta= 0.30
     Davidson diagonalization with overlap

---- Real-time Memory Report at c_bands before calling an iterative solver
           723 MiB given to the printing process from OS
             0 MiB allocation reported by mallinfo(arena+hblkhd)
       1359097 MiB available memory on the node where the printing process lives
     GPU memory used/free/total (MiB): 938 / 80212 / 81151
------------------
     ethr =  1.36E-03,  avg # of iterations =  2.1

     total cpu time spent up to now is       16.1 secs

     total energy              =    -572.90281175 Ry
     estimated scf accuracy    <       0.01532781 Ry

     total magnetization       =    -0.00 Bohr mag/cell
     absolute magnetization    =     0.34 Bohr mag/cell
[tb_dev] Currently allocated     3.05E-05 Mbytes, locked:    0 /   2
[tb_pin] Currently allocated     0.00E+00 Mbytes, locked:    0 /   0

     iteration # 10     ecut=    60.00 Ry     beta= 0.30
     Davidson diagonalization with overlap

---- Real-time Memory Report at c_bands before calling an iterative solver
           724 MiB given to the printing process from OS
             0 MiB allocation reported by mallinfo(arena+hblkhd)
       1357960 MiB available memory on the node where the printing process lives
     GPU memory used/free/total (MiB): 938 / 80212 / 81151
------------------
     c_bands:  1 eigenvalues not converged
     c_bands:  1 eigenvalues not converged
     c_bands:  1 eigenvalues not converged
     ethr =  4.03E-05,  avg # of iterations = 11.0

     total cpu time spent up to now is       18.5 secs

     total energy              =    -572.90846477 Ry
     estimated scf accuracy    <       0.00570553 Ry

     total magnetization       =     0.00 Bohr mag/cell
     absolute magnetization    =     0.26 Bohr mag/cell
[tb_dev] Currently allocated     3.05E-05 Mbytes, locked:    0 /   2
[tb_pin] Currently allocated     0.00E+00 Mbytes, locked:    0 /   0

     iteration # 11     ecut=    60.00 Ry     beta= 0.30
     Davidson diagonalization with overlap

---- Real-time Memory Report at c_bands before calling an iterative solver
           726 MiB given to the printing process from OS
             0 MiB allocation reported by mallinfo(arena+hblkhd)
       1355605 MiB available memory on the node where the printing process lives
     GPU memory used/free/total (MiB): 938 / 80212 / 81151
------------------
     ethr =  1.50E-05,  avg # of iterations =  2.7

     total cpu time spent up to now is       19.9 secs

     total energy              =    -572.90955158 Ry
     estimated scf accuracy    <       0.00806282 Ry

     total magnetization       =     0.00 Bohr mag/cell
     absolute magnetization    =     0.25 Bohr mag/cell
[tb_dev] Currently allocated     3.05E-05 Mbytes, locked:    0 /   2
[tb_pin] Currently allocated     0.00E+00 Mbytes, locked:    0 /   0

     iteration # 12     ecut=    60.00 Ry     beta= 0.30
     Davidson diagonalization with overlap

---- Real-time Memory Report at c_bands before calling an iterative solver
           726 MiB given to the printing process from OS
             0 MiB allocation reported by mallinfo(arena+hblkhd)
       1354576 MiB available memory on the node where the printing process lives
     GPU memory used/free/total (MiB): 938 / 80212 / 81151
------------------
     ethr =  1.50E-05,  avg # of iterations =  1.7

     total cpu time spent up to now is       21.2 secs

     total energy              =    -572.91160736 Ry
     estimated scf accuracy    <       0.00677983 Ry

     total magnetization       =     0.00 Bohr mag/cell
     absolute magnetization    =     0.04 Bohr mag/cell
[tb_dev] Currently allocated     3.05E-05 Mbytes, locked:    0 /   2
[tb_pin] Currently allocated     0.00E+00 Mbytes, locked:    0 /   0

     iteration # 13     ecut=    60.00 Ry     beta= 0.30
     Davidson diagonalization with overlap

---- Real-time Memory Report at c_bands before calling an iterative solver
           726 MiB given to the printing process from OS
             0 MiB allocation reported by mallinfo(arena+hblkhd)
       1353152 MiB available memory on the node where the printing process lives
     GPU memory used/free/total (MiB): 938 / 80212 / 81151
------------------
     ethr =  1.50E-05,  avg # of iterations =  1.2

     total cpu time spent up to now is       22.4 secs

     total energy              =    -572.91154867 Ry
     estimated scf accuracy    <       0.00268596 Ry

     total magnetization       =     0.00 Bohr mag/cell
     absolute magnetization    =     0.03 Bohr mag/cell
[tb_dev] Currently allocated     3.05E-05 Mbytes, locked:    0 /   2
[tb_pin] Currently allocated     0.00E+00 Mbytes, locked:    0 /   0

     iteration # 14     ecut=    60.00 Ry     beta= 0.30
     Davidson diagonalization with overlap

---- Real-time Memory Report at c_bands before calling an iterative solver
           726 MiB given to the printing process from OS
             0 MiB allocation reported by mallinfo(arena+hblkhd)
       1351311 MiB available memory on the node where the printing process lives
     GPU memory used/free/total (MiB): 938 / 80212 / 81151
------------------
     ethr =  7.07E-06,  avg # of iterations =  1.5

     total cpu time spent up to now is       23.7 secs

     total energy              =    -572.91173403 Ry
     estimated scf accuracy    <       0.00063788 Ry

     total magnetization       =     0.00 Bohr mag/cell
     absolute magnetization    =     0.03 Bohr mag/cell
[tb_dev] Currently allocated     3.05E-05 Mbytes, locked:    0 /   2
[tb_pin] Currently allocated     0.00E+00 Mbytes, locked:    0 /   0

     iteration # 15     ecut=    60.00 Ry     beta= 0.30
     Davidson diagonalization with overlap

---- Real-time Memory Report at c_bands before calling an iterative solver
           726 MiB given to the printing process from OS
             0 MiB allocation reported by mallinfo(arena+hblkhd)
       1349274 MiB available memory on the node where the printing process lives
     GPU memory used/free/total (MiB): 938 / 80212 / 81151
------------------
     c_bands:  1 eigenvalues not converged
     c_bands:  1 eigenvalues not converged
     ethr =  1.68E-06,  avg # of iterations =  4.1

     total cpu time spent up to now is       25.2 secs

     total energy              =    -572.91172203 Ry
     estimated scf accuracy    <       0.00049616 Ry

     total magnetization       =     0.00 Bohr mag/cell
     absolute magnetization    =     0.02 Bohr mag/cell
[tb_dev] Currently allocated     3.05E-05 Mbytes, locked:    0 /   2
[tb_pin] Currently allocated     0.00E+00 Mbytes, locked:    0 /   0

     iteration # 16     ecut=    60.00 Ry     beta= 0.30
     Davidson diagonalization with overlap

---- Real-time Memory Report at c_bands before calling an iterative solver
           726 MiB given to the printing process from OS
             0 MiB allocation reported by mallinfo(arena+hblkhd)
       1346682 MiB available memory on the node where the printing process lives
     GPU memory used/free/total (MiB): 938 / 80212 / 81151
------------------
     c_bands:  1 eigenvalues not converged
     ethr =  1.31E-06,  avg # of iterations =  1.9

     total cpu time spent up to now is       26.5 secs

     total energy              =    -572.91174462 Ry
     estimated scf accuracy    <       0.00010337 Ry

     total magnetization       =     0.00 Bohr mag/cell
     absolute magnetization    =     0.01 Bohr mag/cell
[tb_dev] Currently allocated     3.05E-05 Mbytes, locked:    0 /   2
[tb_pin] Currently allocated     0.00E+00 Mbytes, locked:    0 /   0

     iteration # 17     ecut=    60.00 Ry     beta= 0.30
     Davidson diagonalization with overlap

---- Real-time Memory Report at c_bands before calling an iterative solver
           726 MiB given to the printing process from OS
             0 MiB allocation reported by mallinfo(arena+hblkhd)
       1344000 MiB available memory on the node where the printing process lives
     GPU memory used/free/total (MiB): 938 / 80212 / 81151
------------------
     ethr =  2.72E-07,  avg # of iterations =  3.9

     total cpu time spent up to now is       28.1 secs

     total energy              =    -572.91176421 Ry
     estimated scf accuracy    <       0.00001416 Ry

     total magnetization       =     0.00 Bohr mag/cell
     absolute magnetization    =     0.01 Bohr mag/cell
[tb_dev] Currently allocated     3.05E-05 Mbytes, locked:    0 /   2
[tb_pin] Currently allocated     0.00E+00 Mbytes, locked:    0 /   0

     iteration # 18     ecut=    60.00 Ry     beta= 0.30
     Davidson diagonalization with overlap

---- Real-time Memory Report at c_bands before calling an iterative solver
           726 MiB given to the printing process from OS
             0 MiB allocation reported by mallinfo(arena+hblkhd)
       1360324 MiB available memory on the node where the printing process lives
     GPU memory used/free/total (MiB): 938 / 80212 / 81151
------------------
     ethr =  3.73E-08,  avg # of iterations =  6.0

     total cpu time spent up to now is       29.9 secs

     total energy              =    -572.91177169 Ry
     estimated scf accuracy    <       0.00000239 Ry

     total magnetization       =     0.00 Bohr mag/cell
     absolute magnetization    =     0.00 Bohr mag/cell
[tb_dev] Currently allocated     3.05E-05 Mbytes, locked:    0 /   2
[tb_pin] Currently allocated     0.00E+00 Mbytes, locked:    0 /   0

     iteration # 19     ecut=    60.00 Ry     beta= 0.30
     Davidson diagonalization with overlap

---- Real-time Memory Report at c_bands before calling an iterative solver
           726 MiB given to the printing process from OS
             0 MiB allocation reported by mallinfo(arena+hblkhd)
       1359412 MiB available memory on the node where the printing process lives
     GPU memory used/free/total (MiB): 938 / 80212 / 81151
------------------
     ethr =  6.29E-09,  avg # of iterations =  4.0

     total cpu time spent up to now is       31.4 secs

     total energy              =    -572.91177190 Ry
     estimated scf accuracy    <       0.00000118 Ry

     total magnetization       =     0.00 Bohr mag/cell
     absolute magnetization    =     0.00 Bohr mag/cell
[tb_dev] Currently allocated     3.05E-05 Mbytes, locked:    0 /   2
[tb_pin] Currently allocated     0.00E+00 Mbytes, locked:    0 /   0

     iteration # 20     ecut=    60.00 Ry     beta= 0.30
     Davidson diagonalization with overlap

---- Real-time Memory Report at c_bands before calling an iterative solver
           726 MiB given to the printing process from OS
             0 MiB allocation reported by mallinfo(arena+hblkhd)
       1358126 MiB available memory on the node where the printing process lives
     GPU memory used/free/total (MiB): 938 / 80212 / 81151
------------------
     ethr =  3.11E-09,  avg # of iterations =  2.7

     total cpu time spent up to now is       32.8 secs

     total energy              =    -572.91177212 Ry
     estimated scf accuracy    <       0.00000034 Ry

     total magnetization       =     0.00 Bohr mag/cell
     absolute magnetization    =     0.00 Bohr mag/cell
[tb_dev] Currently allocated     3.05E-05 Mbytes, locked:    0 /   2
[tb_pin] Currently allocated     0.00E+00 Mbytes, locked:    0 /   0

     iteration # 21     ecut=    60.00 Ry     beta= 0.30
     Davidson diagonalization with overlap

---- Real-time Memory Report at c_bands before calling an iterative solver
           726 MiB given to the printing process from OS
             0 MiB allocation reported by mallinfo(arena+hblkhd)
       1357154 MiB available memory on the node where the printing process lives
     GPU memory used/free/total (MiB): 938 / 80212 / 81151
------------------
     ethr =  8.97E-10,  avg # of iterations =  4.1
 
     Magnetic moment per site  (integrated on atomic sphere of radius R)
     atom   1 (R=0.275)  charge= 14.2151  magn=  0.0004
     atom   2 (R=0.275)  charge=  5.2787  magn= -0.0005
     atom   3 (R=0.275)  charge=  5.4550  magn= -0.0000
     atom   4 (R=0.301)  charge=  6.5390  magn= -0.0000

     total cpu time spent up to now is       34.4 secs

     End of self-consistent calculation

 ------ SPIN UP ------------


          k = 0.0000 0.0000 0.0000 (  2125 PWs)   bands (ev):

   -82.3871 -45.6964 -45.6964 -45.5602 -17.5776  -7.3753  -5.7186   0.2153
     0.6331   0.6331   6.8168   7.1797   7.1797  10.2595  10.4013  10.4013
    11.4574  11.4574  12.5065  14.7215  14.7215  18.0242  19.7182  21.5055
    21.5055  21.9381  24.2067

     occupation numbers 
     1.0000   1.0000   1.0000   1.0000   1.0000   1.0000   1.0000   1.0000
     1.0000   1.0000   1.0000   1.0000   1.0000   1.0000   1.0000   1.0000
     1.0000   1.0000   1.0001   0.0000   0.0000   0.0000   0.0000   0.0000
     0.0000   0.0000   0.0000

          k = 0.0000 0.0000 0.1758 (  2120 PWs)   bands (ev):

   -82.3871 -45.6965 -45.6965 -45.5599 -17.5738  -7.5692  -5.4020  -0.0558
     0.6307   0.6307   7.2144   7.2144   7.2587  10.0140  10.3183  10.3183
    11.4723  11.4723  12.3634  14.7855  14.7855  18.4590  19.5398  21.4222
    21.4222  21.5630  24.1686

     occupation numbers 
     1.0000   1.0000   1.0000   1.0000   1.0000   1.0000   1.0000   1.0000
     1.0000   1.0000   1.0000   1.0000   1.0000   1.0000   1.0000   1.0000
     1.0000   1.0000   1.0000   0.0000   0.0000   0.0000   0.0000   0.0000
     0.0000   0.0000   0.0000

          k = 0.0000 0.1443 0.0000 (  2127 PWs)   bands (ev):

   -82.3864 -45.7047 -45.6985 -45.5588 -17.4664  -7.2822  -5.6578  -0.2362
     0.5065   0.5118   6.9725   7.2927   7.3267   9.3585   9.9953  10.4993
    11.7326  11.8278  12.4811  14.4891  14.6613  18.6024  19.8989  20.7348
    21.8966  22.9479  23.6817

     occupation numbers 
     1.0000   1.0000   1.0000   1.0000   1.0000   1.0000   1.0000   1.0000
     1.0000   1.0000   1.0000   1.0000   1.0000   1.0000   1.0000   1.0000
     1.0000   1.0000   1.0000   0.0000   0.0000   0.0000   0.0000   0.0000
     0.0000   0.0000   0.0000

          k = 0.0000 0.1443 0.1758 (  2112 PWs)   bands (ev):

   -82.3864 -45.7047 -45.6985 -45.5586 -17.4628  -7.4452  -5.4062  -0.3339
     0.4271   0.5091   6.9462   7.3384   7.5038   9.5472   9.9207  10.3821
    11.7162  11.8234  12.4201  14.4144  14.7051  18.8242  19.8520  20.7166
    21.8816  22.0305  24.0372

     occupation numbers 
     1.0000   1.0000   1.0000   1.0000   1.0000   1.0000   1.0000   1.0000
     1.0000   1.0000   1.0000   1.0000   1.0000   1.0000   1.0000   1.0000
     1.0000   1.0000   1.0000   0.0000   0.0000   0.0000   0.0000   0.0000
     0.0000   0.0000   0.0000

          k = 0.0000 0.2887 0.0000 (  2124 PWs)   bands (ev):

   -82.3846 -45.7247 -45.7033 -45.5557 -17.1825  -7.0972  -5.5055  -1.0463
     0.1194   0.2354   7.0400   7.4699   7.5451   8.5275   9.4812  10.2661
    11.8223  12.1682  12.4936  14.2415  14.5930  18.6542  20.1908  21.0855
    22.9898  23.4121  24.9631

     occupation numbers 
     1.0000   1.0000   1.0000   1.0000   1.0000   1.0000   1.0000   1.0000
     1.0000   1.0000   1.0000   1.0000   1.0000   1.0000   1.0000   1.0000
     1.0000   1.0000   1.0001   0.0000   0.0000   0.0000   0.0000   0.0000
     0.0000   0.0000   0.0000

          k = 0.0000 0.2887 0.1758 (  2109 PWs)   bands (ev):

   -82.3846 -45.7246 -45.7032 -45.5556 -17.1797  -7.1804  -5.3999  -1.0214
     0.0496   0.2329   6.8984   7.4090   7.6072   8.8858   9.4007  10.3098
    11.8810  12.1509  12.4752  14.0434  14.6332  18.6224  20.0564  21.2916
    22.7818  23.0351  24.5636

     occupation numbers 
     1.0000   1.0000   1.0000   1.0000   1.0000   1.0000   1.0000   1.0000
     1.0000   1.0000   1.0000   1.0000   1.0000   1.0000   1.0000   1.0000
     1.0000   1.0000   1.0000   0.0003   0.0000   0.0000   0.0000   0.0000
     0.0000   0.0000   0.0000

          k = 0.0000 0.4330 0.0000 (  2116 PWs)   bands (ev):

   -82.3829 -45.7445 -45.7081 -45.5524 -16.8730  -7.0124  -5.3341  -1.5393
    -0.3398  -0.0211   6.3205   7.5994   7.7270   8.5848   9.2675  10.1058
    11.7093  12.1160  12.3977  14.1758  14.6553  17.8204  20.7168  22.1537
    23.8666  23.9313  25.4746

     occupation numbers 
     1.0000   1.0000   1.0000   1.0000   1.0000   1.0000   1.0000   1.0000
     1.0000   1.0000   1.0000   1.0000   1.0000   1.0000   1.0000   1.0000
     1.0000   1.0000   1.0000   0.0000   0.0000   0.0000   0.0000   0.0000
     0.0000   0.0000   0.0000

          k = 0.0000 0.4330 0.1758 (  2127 PWs)   bands (ev):

   -82.3829 -45.7446 -45.7081 -45.5526 -16.8710  -7.0306  -5.3189  -1.5571
    -0.3546  -0.0235   6.6854   7.2354   7.8182   8.8754   9.1449   9.7838
    11.8572  12.1098  12.3770  14.1561  14.7178  17.8776  20.6412  21.8341
    23.7391  23.9026  25.2614

     occupation numbers 
     1.0000   1.0000   1.0000   1.0000   1.0000   1.0000   1.0000   1.0000
     1.0000   1.0000   1.0000   1.0000   1.0000   1.0000   1.0000   1.0000
     1.0000   1.0000   1.0000   0.0000   0.0000   0.0000   0.0000   0.0000
     0.0000   0.0000   0.0000

          k = 0.0000-0.5774 0.0000 (  2126 PWs)   bands (ev):

   -82.3822 -45.7529 -45.7100 -45.5511 -16.7359  -7.0225  -5.2538  -1.6228
    -0.5788  -0.1223   5.9275   7.7593   7.7633   8.5081   9.2678  10.1880
    11.6456  12.0072  12.2814  14.1686  14.7121  17.5046  20.8618  22.6176
    23.8994  24.1020  26.3531

     occupation numbers 
     1.0000   1.0000   1.0000   1.0000   1.0000   1.0000   1.0000   1.0000
     1.0000   1.0000   1.0000   1.0000   1.0000   1.0000   1.0000   1.0000
     1.0000   1.0000   1.0000   0.0000   0.0000   0.0000   0.0000   0.0000
     0.0000   0.0000   0.0000

          k = 0.0000-0.5774 0.1758 (  2130 PWs)   bands (ev):

   -82.3822 -45.7528 -45.7101 -45.5514 -16.7341  -7.0194  -5.2650  -1.6746
    -0.5581  -0.1244   6.2894   7.3666   7.8476   8.8919   9.1482   9.6877
    11.8152  12.0101  12.2926  14.3098  14.7820  17.5847  20.7137  21.8178
    23.9850  24.2851  25.5791

     occupation numbers 
     1.0000   1.0000   1.0000   1.0000   1.0000   1.0000   1.0000   1.0000
     1.0000   1.0000   1.0000   1.0000   1.0000   1.0000   1.0000   1.0000
     1.0000   1.0000   1.0000   0.0000   0.0000   0.0000   0.0000   0.0000
     0.0000   0.0000   0.0000

          k = 0.1250 0.2165 0.0000 (  2125 PWs)   bands (ev):

   -82.3851 -45.7180 -45.7028 -45.5566 -17.2682  -7.1427  -5.5507  -0.7877
     0.0703   0.4146   7.0635   7.4271   7.6024   8.6920   9.3794  10.4171
    11.8613  12.1892  12.4461  14.3394  14.5188  19.2388  19.6588  20.7605
    22.4311  23.6826  24.4911

     occupation numbers 
     1.0000   1.0000   1.0000   1.0000   1.0000   1.0000   1.0000   1.0000
     1.0000   1.0000   1.0000   1.0000   1.0000   1.0000   1.0000   1.0000
     1.0000   1.0000   1.0000   0.0000   0.0000   0.0000   0.0000   0.0000
     0.0000   0.0000   0.0000

          k = 0.1250 0.2165 0.1758 (  2124 PWs)   bands (ev):

   -82.3851 -45.7180 -45.7028 -45.5566 -17.2652  -7.2458  -5.4149  -0.7728
     0.0565   0.3645   6.8429   7.4087   7.5242   9.1701   9.3882  10.5253
    11.8628  12.1534  12.4352  14.1644  14.5160  19.1903  19.7056  20.6915
    22.2602  23.1227  24.2484

     occupation numbers 
     1.0000   1.0000   1.0000   1.0000   1.0000   1.0000   1.0000   1.0000
     1.0000   1.0000   1.0000   1.0000   1.0000   1.0000   1.0000   1.0000
     1.0000   1.0000   1.0000   0.0000   0.0000   0.0000   0.0000   0.0000
     0.0000   0.0000   0.0000

          k = 0.1250 0.3608 0.0000 (  2112 PWs)   bands (ev):

   -82.3834 -45.7357 -45.7095 -45.5534 -16.9678  -7.0120  -5.3842  -1.3161
    -0.4371   0.1172   6.7919   7.2520   7.8822   8.6489   9.0026  10.1305
    11.8630  12.2089  12.4618  14.2562  14.4971  18.6079  20.1926  21.6373
    22.9268  24.0538  25.3141

     occupation numbers 
     1.0000   1.0000   1.0000   1.0000   1.0000   1.0000   1.0000   1.0000
     1.0000   1.0000   1.0000   1.0000   1.0000   1.0000   1.0000   1.0000
     1.0000   1.0000   1.0000   0.0000   0.0000   0.0000   0.0000   0.0000
     0.0000   0.0000   0.0000

          k = 0.1250 0.3608 0.1758 (  2117 PWs)   bands (ev):

   -82.3834 -45.7358 -45.7096 -45.5535 -16.9655  -7.0427  -5.3606  -1.2946
    -0.4399   0.0875   6.9351   7.1778   7.6970   8.7480   9.1366  10.1671
    11.9134  12.2210  12.4371  14.1187  14.4622  18.6238  20.1791  21.5206
    22.8097  23.8593  25.0366

     occupation numbers 
     1.0000   1.0000   1.0000   1.0000   1.0000   1.0000   1.0000   1.0000
     1.0000   1.0000   1.0000   1.0000   1.0000   1.0000   1.0000   1.0000
     1.0000   1.0000   1.0000   0.0001   0.0000   0.0000   0.0000   0.0000
     0.0000   0.0000   0.0000

          k = 0.1250 0.5052 0.0000 (  2125 PWs)   bands (ev):

   -82.3822 -45.7483 -45.7146 -45.5512 -16.7384  -6.9922  -5.2507  -1.5505
    -0.6872  -0.1946   6.1869   7.1625   8.2799   8.6092   8.9379  10.0865
    11.7527  12.0951  12.3780  14.2360  14.5679  18.0518  20.7054  22.3193
    23.3957  24.2357  25.8804

     occupation numbers 
     1.0000   1.0000   1.0000   1.0000   1.0000   1.0000   1.0000   1.0000
     1.0000   1.0000   1.0000   1.0000   1.0000   1.0000   1.0000   1.0000
     1.0000   1.0000   1.0000   0.0000   0.0000   0.0000   0.0000   0.0000
     0.0000   0.0000   0.0000

          k = 0.1250 0.5052 0.1758 (  2124 PWs)   bands (ev):

   -82.3822 -45.7483 -45.7145 -45.5513 -16.7366  -6.9944  -5.2500  -1.5971
    -0.6857  -0.2043   6.5753   7.1589   8.0143   8.7922   8.9779   9.6869
    11.8872  12.0838  12.3942  14.2536  14.5415  18.1130  20.7877  21.8493
    23.2229  24.3128  25.3396

     occupation numbers 
     1.0000   1.0000   1.0000   1.0000   1.0000   1.0000   1.0000   1.0000
     1.0000   1.0000   1.0000   1.0000   1.0000   1.0000   1.0000   1.0000
     1.0000   1.0000   1.0000   0.0000   0.0000   0.0000   0.0000   0.0000
     0.0000   0.0000   0.0000

          k = 0.2500 0.4330 0.0000 (  2117 PWs)   bands (ev):

   -82.3821 -45.7421 -45.7207 -45.5512 -16.7409  -6.9618  -5.2470  -1.4042
    -0.9357  -0.1966   6.5806   6.9002   7.9586   8.8572   8.8854   9.9651
    11.8570  12.1398  12.4868  14.3078  14.4190  19.0392  20.1224  21.7977
    23.0412  24.1835  26.3749

     occupation numbers 
     1.0000   1.0000   1.0000   1.0000   1.0000   1.0000   1.0000   1.0000
     1.0000   1.0000   1.0000   1.0000   1.0000   1.0000   1.0000   1.0000
     1.0000   1.0000   1.0000   0.0000   0.0000   0.0000   0.0000   0.0000
     0.0000   0.0000   0.0000

          k = 0.2500 0.4330 0.1758 (  2126 PWs)   bands (ev):

   -82.3822 -45.7421 -45.7207 -45.5514 -16.7391  -6.9608  -5.2582  -1.4053
    -0.9548  -0.2149   6.7460   7.0699   7.9440   8.6174   8.9355   9.9451
    11.9241  12.1251  12.5334  14.1332  14.3578  19.1064  20.1499  21.7282
    22.6559  24.3643  25.6460

     occupation numbers 
     1.0000   1.0000   1.0000   1.0000   1.0000   1.0000   1.0000   1.0000
     1.0000   1.0000   1.0000   1.0000   1.0000   1.0000   1.0000   1.0000
     1.0000   1.0000   1.0001   0.0000   0.0000   0.0000   0.0000   0.0000
     0.0000   0.0000   0.0000

          k = 0.2500 0.5774 0.0000 (  2121 PWs)   bands (ev):

   -82.3816 -45.7426 -45.7274 -45.5504 -16.6429  -6.9502  -5.1876  -1.5529
    -0.8662  -0.4671   6.4053   6.8744   7.7740   8.8810   9.0944   9.8857
    11.7528  12.2753  12.4229  14.3207  14.3929  19.1357  20.3734  22.0095
    22.7018  24.6730  26.4819

     occupation numbers 
     1.0000   1.0000   1.0000   1.0000   1.0000   1.0000   1.0000   1.0000
     1.0000   1.0000   1.0000   1.0000   1.0000   1.0000   1.0000   1.0000
     1.0000   1.0000   1.0000   0.0000   0.0000   0.0000   0.0000   0.0000
     0.0000   0.0000   0.0000

          k = 0.2500 0.5774 0.1758 (  2132 PWs)   bands (ev):

   -82.3817 -45.7426 -45.7275 -45.5505 -16.6413  -6.9478  -5.1848  -1.5831
    -0.9070  -0.4822   6.6419   7.0707   8.0303   8.6794   8.9541   9.5781
    11.8584  12.2652  12.4836  14.1667  14.2960  19.1828  20.5298  21.9059
    22.3716  24.8026  25.7429

     occupation numbers 
     1.0000   1.0000   1.0000   1.0000   1.0000   1.0000   1.0000   1.0000
     1.0000   1.0000   1.0000   1.0000   1.0000   1.0000   1.0000   1.0000
     1.0000   1.0000   1.0000   0.0000   0.0000   0.0000   0.0000   0.0000
     0.0000   0.0000   0.0000

          k = 0.0000-0.1443 0.1758 (  2112 PWs)   bands (ev):

   -82.3863 -45.7048 -45.6985 -45.5586 -17.4628  -7.4437  -5.4103  -0.3344
     0.4408   0.5102   6.9020   7.3103   7.4987   9.5452   9.9784  10.4436
    11.7056  11.8029  12.4123  14.4249  14.7087  18.8261  19.8408  20.6903
    21.8123  22.0543  24.1303

     occupation numbers 
     1.0000   1.0000   1.0000   1.0000   1.0000   1.0000   1.0000   1.0000
     1.0000   1.0000   1.0000   1.0000   1.0000   1.0000   1.0000   1.0000
     1.0000   1.0000   1.0000   0.0000   0.0000   0.0000   0.0000   0.0000
     0.0000   0.0000   0.0000

          k = 0.0000-0.2887 0.1758 (  2109 PWs)   bands (ev):

   -82.3846 -45.7246 -45.7032 -45.5556 -17.1797  -7.1690  -5.4299  -0.9945
     0.0887   0.2342   6.6718   7.2928   7.5516   9.0618   9.4894  10.5745
    11.8158  12.1354  12.4541  14.0855  14.6226  18.7771  19.8531  20.8979
    22.9604  23.1375  24.5592

     occupation numbers 
     1.0000   1.0000   1.0000   1.0000   1.0000   1.0000   1.0000   1.0000
     1.0000   1.0000   1.0000   1.0000   1.0000   1.0000   1.0000   1.0000
     1.0000   1.0000   1.0000   0.0001   0.0000   0.0000   0.0000   0.0000
     0.0000   0.0000   0.0000

          k = 0.0000-0.4330 0.1758 (  2127 PWs)   bands (ev):

   -82.3829 -45.7446 -45.7081 -45.5526 -16.8710  -7.0111  -5.3703  -1.5005
    -0.3252  -0.0226   6.3554   7.2316   7.7627   8.8904   9.2254  10.2156
    11.7823  12.0977  12.3757  14.2047  14.7054  17.9401  20.3077  21.5619
    23.8677  24.3085  24.9807

     occupation numbers 
     1.0000   1.0000   1.0000   1.0000   1.0000   1.0000   1.0000   1.0000
     1.0000   1.0000   1.0000   1.0000   1.0000   1.0000   1.0000   1.0000
     1.0000   1.0000   1.0000   0.0000   0.0000   0.0000   0.0000   0.0000
     0.0000   0.0000   0.0000

          k =-0.1250-0.3608 0.1758 (  2117 PWs)   bands (ev):

   -82.3834 -45.7358 -45.7095 -45.5535 -16.9655  -7.0320  -5.3883  -1.2595
    -0.4374   0.0995   6.6669   7.2040   7.6839   8.9472   9.0568  10.3854
    11.8680  12.2052  12.4510  14.1224  14.4717  18.7013  20.0107  21.2785
    22.9033  24.0034  25.1328

     occupation numbers 
     1.0000   1.0000   1.0000   1.0000   1.0000   1.0000   1.0000   1.0000
     1.0000   1.0000   1.0000   1.0000   1.0000   1.0000   1.0000   1.0000
     1.0000   1.0000   1.0000   0.0000   0.0000   0.0000   0.0000   0.0000
     0.0000   0.0000   0.0000

          k =-0.1250-0.5052 0.1758 (  2124 PWs)   bands (ev):

   -82.3822 -45.7483 -45.7145 -45.5513 -16.7366  -6.9857  -5.2744  -1.5612
    -0.6933  -0.1945   6.4083   7.1790   8.0487   8.7896   8.9152   9.9149
    11.8554  12.0829  12.4065  14.2343  14.5729  18.1180  20.6325  21.7543
    23.2560  24.5414  25.2747

     occupation numbers 
     1.0000   1.0000   1.0000   1.0000   1.0000   1.0000   1.0000   1.0000
     1.0000   1.0000   1.0000   1.0000   1.0000   1.0000   1.0000   1.0000
     1.0000   1.0000   1.0000   0.0000   0.0000   0.0000   0.0000   0.0000
     0.0000   0.0000   0.0000

 ------ SPIN DOWN ----------


          k = 0.0000 0.0000 0.0000 (  2125 PWs)   bands (ev):

   -82.3864 -45.6959 -45.6959 -45.5588 -17.5776  -7.3756  -5.7201   0.2152
     0.6331   0.6331   6.8164   7.1798   7.1798  10.2588  10.4002  10.4002
    11.4581  11.4581  12.5060  14.7216  14.7216  18.0242  19.7181  21.5055
    21.5055  21.9384  24.2067

     occupation numbers 
     1.0000   1.0000   1.0000   1.0000   1.0000   1.0000   1.0000   1.0000
     1.0000   1.0000   1.0000   1.0000   1.0000   1.0000   1.0000   1.0000
     1.0000   1.0000   1.0001   0.0000   0.0000   0.0000   0.0000   0.0000
     0.0000   0.0000   0.0000

          k = 0.0000 0.0000 0.1758 (  2120 PWs)   bands (ev):

   -82.3863 -45.6960 -45.6960 -45.5585 -17.5738  -7.5696  -5.4034  -0.0559
     0.6307   0.6307   7.2146   7.2146   7.2583  10.0132  10.3172  10.3172
    11.4730  11.4730  12.3631  14.7856  14.7856  18.4590  19.5398  21.4222
    21.4222  21.5629  24.1686

     occupation numbers 
     1.0000   1.0000   1.0000   1.0000   1.0000   1.0000   1.0000   1.0000
     1.0000   1.0000   1.0000   1.0000   1.0000   1.0000   1.0000   1.0000
     1.0000   1.0000   1.0000   0.0000   0.0000   0.0000   0.0000   0.0000
     0.0000   0.0000   0.0000

          k = 0.0000 0.1443 0.0000 (  2127 PWs)   bands (ev):

   -82.3856 -45.7042 -45.6980 -45.5574 -17.4664  -7.2825  -5.6593  -0.2363
     0.5064   0.5118   6.9722   7.2929   7.3266   9.3579   9.9946  10.4984
    11.7329  11.8281  12.4808  14.4895  14.6616  18.6023  19.8987  20.7348
    21.8966  22.9480  23.6818

     occupation numbers 
     1.0000   1.0000   1.0000   1.0000   1.0000   1.0000   1.0000   1.0000
     1.0000   1.0000   1.0000   1.0000   1.0000   1.0000   1.0000   1.0000
     1.0000   1.0000   1.0000   0.0000   0.0000   0.0000   0.0000   0.0000
     0.0000   0.0000   0.0000

          k = 0.0000 0.1443 0.1758 (  2112 PWs)   bands (ev):

   -82.3856 -45.7042 -45.6980 -45.5572 -17.4628  -7.4455  -5.4076  -0.3339
     0.4271   0.5091   6.9461   7.3386   7.5036   9.5466   9.9199  10.3812
    11.7165  11.8238  12.4198  14.4148  14.7054  18.8242  19.8519  20.7166
    21.8817  22.0303  24.0371

     occupation numbers 
     1.0000   1.0000   1.0000   1.0000   1.0000   1.0000   1.0000   1.0000
     1.0000   1.0000   1.0000   1.0000   1.0000   1.0000   1.0000   1.0000
     1.0000   1.0000   1.0000   0.0000   0.0000   0.0000   0.0000   0.0000
     0.0000   0.0000   0.0000

          k = 0.0000 0.2887 0.0000 (  2124 PWs)   bands (ev):

   -82.3839 -45.7242 -45.7028 -45.5543 -17.1825  -7.0974  -5.5071  -1.0463
     0.1193   0.2354   7.0398   7.4695   7.5453   8.5272   9.4805  10.2652
    11.8225  12.1681  12.4935  14.2420  14.5936  18.6542  20.1908  21.0853
    22.9902  23.4119  24.9636

     occupation numbers 
     1.0000   1.0000   1.0000   1.0000   1.0000   1.0000   1.0000   1.0000
     1.0000   1.0000   1.0000   1.0000   1.0000   1.0000   1.0000   1.0000
     1.0000   1.0000   1.0001   0.0000   0.0000   0.0000   0.0000   0.0000
     0.0000   0.0000   0.0000

          k = 0.0000 0.2887 0.1758 (  2109 PWs)   bands (ev):

   -82.3838 -45.7241 -45.7027 -45.5542 -17.1797  -7.1806  -5.4015  -1.0214
     0.0496   0.2329   6.8983   7.4086   7.6074   8.8855   9.4000  10.3088
    11.8813  12.1508  12.4750  14.0441  14.6338  18.6224  20.0563  21.2914
    22.7817  23.0351  24.5635

     occupation numbers 
     1.0000   1.0000   1.0000   1.0000   1.0000   1.0000   1.0000   1.0000
     1.0000   1.0000   1.0000   1.0000   1.0000   1.0000   1.0000   1.0000
     1.0000   1.0000   1.0000   0.0003   0.0000   0.0000   0.0000   0.0000
     0.0000   0.0000   0.0000

          k = 0.0000 0.4330 0.0000 (  2116 PWs)   bands (ev):

   -82.3821 -45.7440 -45.7076 -45.5510 -16.8730  -7.0125  -5.3359  -1.5393
    -0.3398  -0.0211   6.3202   7.5990   7.7274   8.5845   9.2666  10.1049
    11.7096  12.1159  12.3976  14.1765  14.6561  17.8205  20.7168  22.1535
    23.8666  23.9313  25.4748

     occupation numbers 
     1.0000   1.0000   1.0000   1.0000   1.0000   1.0000   1.0000   1.0000
     1.0000   1.0000   1.0000   1.0000   1.0000   1.0000   1.0000   1.0000
     1.0000   1.0000   1.0000   0.0000   0.0000   0.0000   0.0000   0.0000
     0.0000   0.0000   0.0000

          k = 0.0000 0.4330 0.1758 (  2127 PWs)   bands (ev):

   -82.3821 -45.7441 -45.7076 -45.5512 -16.8710  -7.0307  -5.3206  -1.5571
    -0.3547  -0.0235   6.6851   7.2350   7.8186   8.8751   9.1439   9.7829
    11.8574  12.1098  12.3770  14.1568  14.7186  17.8776  20.6411  21.8341
    23.7390  23.9025  25.2612

     occupation numbers 
     1.0000   1.0000   1.0000   1.0000   1.0000   1.0000   1.0000   1.0000
     1.0000   1.0000   1.0000   1.0000   1.0000   1.0000   1.0000   1.0000
     1.0000   1.0000   1.0000   0.0000   0.0000   0.0000   0.0000   0.0000
     0.0000   0.0000   0.0000

          k = 0.0000-0.5774 0.0000 (  2126 PWs)   bands (ev):

   -82.3814 -45.7524 -45.7095 -45.5497 -16.7359  -7.0226  -5.2556  -1.6229
    -0.5788  -0.1223   5.9272   7.7588   7.7637   8.5078   9.2668  10.1872
    11.6459  12.0072  12.2814  14.1695  14.7129  17.5046  20.8618  22.6174
    23.8994  24.1019  26.3534

     occupation numbers 
     1.0000   1.0000   1.0000   1.0000   1.0000   1.0000   1.0000   1.0000
     1.0000   1.0000   1.0000   1.0000   1.0000   1.0000   1.0000   1.0000
     1.0000   1.0000   1.0000   0.0000   0.0000   0.0000   0.0000   0.0000
     0.0000   0.0000   0.0000

          k = 0.0000-0.5774 0.1758 (  2130 PWs)   bands (ev):

   -82.3814 -45.7523 -45.7096 -45.5499 -16.7341  -7.0195  -5.2668  -1.6746
    -0.5581  -0.1244   6.2891   7.3661   7.8481   8.8917   9.1472   9.6869
    11.8154  12.0101  12.2926  14.3106  14.7828  17.5847  20.7136  21.8178
    23.9850  24.2853  25.5792

     occupation numbers 
     1.0000   1.0000   1.0000   1.0000   1.0000   1.0000   1.0000   1.0000
     1.0000   1.0000   1.0000   1.0000   1.0000   1.0000   1.0000   1.0000
     1.0000   1.0000   1.0000   0.0000   0.0000   0.0000   0.0000   0.0000
     0.0000   0.0000   0.0000

          k = 0.1250 0.2165 0.0000 (  2125 PWs)   bands (ev):

   -82.3844 -45.7174 -45.7023 -45.5551 -17.2682  -7.1429  -5.5522  -0.7877
     0.0703   0.4146   7.0634   7.4271   7.6022   8.6916   9.3789  10.4162
    11.8614  12.1892  12.4460  14.3400  14.5193  19.2388  19.6587  20.7603
    22.4312  23.6815  24.4910

     occupation numbers 
     1.0000   1.0000   1.0000   1.0000   1.0000   1.0000   1.0000   1.0000
     1.0000   1.0000   1.0000   1.0000   1.0000   1.0000   1.0000   1.0000
     1.0000   1.0000   1.0000   0.0000   0.0000   0.0000   0.0000   0.0000
     0.0000   0.0000   0.0000

          k = 0.1250 0.2165 0.1758 (  2124 PWs)   bands (ev):

   -82.3844 -45.7175 -45.7023 -45.5551 -17.2652  -7.2461  -5.4165  -0.7728
     0.0565   0.3645   6.8427   7.4086   7.5240   9.1697   9.3877  10.5243
    11.8629  12.1535  12.4349  14.1651  14.5166  19.1903  19.7056  20.6914
    22.2602  23.1226  24.2477

     occupation numbers 
     1.0000   1.0000   1.0000   1.0000   1.0000   1.0000   1.0000   1.0000
     1.0000   1.0000   1.0000   1.0000   1.0000   1.0000   1.0000   1.0000
     1.0000   1.0000   1.0000   0.0000   0.0000   0.0000   0.0000   0.0000
     0.0000   0.0000   0.0000

          k = 0.1250 0.3608 0.0000 (  2112 PWs)   bands (ev):

   -82.3826 -45.7352 -45.7090 -45.5520 -16.9678  -7.0121  -5.3859  -1.3161
    -0.4371   0.1172   6.7917   7.2517   7.8822   8.6487   9.0021  10.1295
    11.8631  12.2088  12.4617  14.2570  14.4979  18.6079  20.1925  21.6372
    22.9267  24.0538  25.3143

     occupation numbers 
     1.0000   1.0000   1.0000   1.0000   1.0000   1.0000   1.0000   1.0000
     1.0000   1.0000   1.0000   1.0000   1.0000   1.0000   1.0000   1.0000
     1.0000   1.0000   1.0000   0.0000   0.0000   0.0000   0.0000   0.0000
     0.0000   0.0000   0.0000

          k = 0.1250 0.3608 0.1758 (  2117 PWs)   bands (ev):

   -82.3826 -45.7352 -45.7090 -45.5521 -16.9655  -7.0428  -5.3624  -1.2946
    -0.4399   0.0875   6.9350   7.1772   7.6971   8.7478   9.1360  10.1661
    11.9135  12.2208  12.4371  14.1196  14.4629  18.6238  20.1791  21.5205
    22.8097  23.8592  25.0369

     occupation numbers 
     1.0000   1.0000   1.0000   1.0000   1.0000   1.0000   1.0000   1.0000
     1.0000   1.0000   1.0000   1.0000   1.0000   1.0000   1.0000   1.0000
     1.0000   1.0000   1.0000   0.0000   0.0000   0.0000   0.0000   0.0000
     0.0000   0.0000   0.0000

          k = 0.1250 0.5052 0.0000 (  2125 PWs)   bands (ev):

   -82.3814 -45.7478 -45.7140 -45.5498 -16.7384  -6.9923  -5.2525  -1.5505
    -0.6872  -0.1946   6.1866   7.1624   8.2798   8.6087   8.9375  10.0856
    11.7528  12.0950  12.3779  14.2369  14.5688  18.0517  20.7053  22.3191
    23.3956  24.2356  25.8805

     occupation numbers 
     1.0000   1.0000   1.0000   1.0000   1.0000   1.0000   1.0000   1.0000
     1.0000   1.0000   1.0000   1.0000   1.0000   1.0000   1.0000   1.0000
     1.0000   1.0000   1.0000   0.0000   0.0000   0.0000   0.0000   0.0000
     0.0000   0.0000   0.0000

          k = 0.1250 0.5052 0.1758 (  2124 PWs)   bands (ev):

   -82.3814 -45.7478 -45.7139 -45.5499 -16.7366  -6.9945  -5.2518  -1.5971
    -0.6857  -0.2043   6.5750   7.1587   8.0144   8.7917   8.9773   9.6861
    11.8872  12.0838  12.3942  14.2545  14.5423  18.1130  20.7876  21.8493
    23.2229  24.3128  25.3394

     occupation numbers 
     1.0000   1.0000   1.0000   1.0000   1.0000   1.0000   1.0000   1.0000
     1.0000   1.0000   1.0000   1.0000   1.0000   1.0000   1.0000   1.0000
     1.0000   1.0000   1.0000   0.0000   0.0000   0.0000   0.0000   0.0000
     0.0000   0.0000   0.0000

          k = 0.2500 0.4330 0.0000 (  2117 PWs)   bands (ev):

   -82.3814 -45.7416 -45.7201 -45.5498 -16.7409  -6.9619  -5.2488  -1.4042
    -0.9357  -0.1966   6.5807   6.8996   7.9581   8.8569   8.8854   9.9643
    11.8570  12.1398  12.4867  14.3088  14.4199  19.0392  20.1224  21.7976
    23.0410  24.1835  26.3743

     occupation numbers 
     1.0000   1.0000   1.0000   1.0000   1.0000   1.0000   1.0000   1.0000
     1.0000   1.0000   1.0000   1.0000   1.0000   1.0000   1.0000   1.0000
     1.0000   1.0000   1.0000   0.0000   0.0000   0.0000   0.0000   0.0000
     0.0000   0.0000   0.0000

          k = 0.2500 0.4330 0.1758 (  2126 PWs)   bands (ev):

   -82.3814 -45.7416 -45.7201 -45.5499 -16.7391  -6.9608  -5.2600  -1.4053
    -0.9548  -0.2150   6.7461   7.0694   7.9437   8.6170   8.9352   9.9444
    11.9240  12.1250  12.5333  14.1343  14.3586  19.1064  20.1499  21.7281
    22.6559  24.3642  25.6459

     occupation numbers 
     1.0000   1.0000   1.0000   1.0000   1.0000   1.0000   1.0000   1.0000
     1.0000   1.0000   1.0000   1.0000   1.0000   1.0000   1.0000   1.0000
     1.0000   1.0000   1.0001   0.0000   0.0000   0.0000   0.0000   0.0000
     0.0000   0.0000   0.0000

          k = 0.2500 0.5774 0.0000 (  2121 PWs)   bands (ev):

   -82.3809 -45.7421 -45.7268 -45.5489 -16.6429  -6.9503  -5.1895  -1.5529
    -0.8662  -0.4671   6.4053   6.8740   7.7734   8.8811   9.0941   9.8850
    11.7527  12.2752  12.4228  14.3216  14.3938  19.1356  20.3734  22.0095
    22.7016  24.6730  26.4818

     occupation numbers 
     1.0000   1.0000   1.0000   1.0000   1.0000   1.0000   1.0000   1.0000
     1.0000   1.0000   1.0000   1.0000   1.0000   1.0000   1.0000   1.0000
     1.0000   1.0000   1.0000   0.0000   0.0000   0.0000   0.0000   0.0000
     0.0000   0.0000   0.0000

          k = 0.2500 0.5774 0.1758 (  2132 PWs)   bands (ev):

   -82.3809 -45.7421 -45.7269 -45.5490 -16.6413  -6.9478  -5.1867  -1.5831
    -0.9070  -0.4823   6.6420   7.0703   8.0296   8.6792   8.9538   9.5775
    11.8584  12.2650  12.4835  14.1678  14.2969  19.1827  20.5297  21.9058
    22.3716  24.8026  25.7429

     occupation numbers 
     1.0000   1.0000   1.0000   1.0000   1.0000   1.0000   1.0000   1.0000
     1.0000   1.0000   1.0000   1.0000   1.0000   1.0000   1.0000   1.0000
     1.0000   1.0000   1.0000   0.0000   0.0000   0.0000   0.0000   0.0000
     0.0000   0.0000   0.0000

          k = 0.0000-0.1443 0.1758 (  2112 PWs)   bands (ev):

   -82.3856 -45.7042 -45.6980 -45.5572 -17.4628  -7.4441  -5.4118  -0.3344
     0.4407   0.5102   6.9019   7.3105   7.4985   9.5446   9.9777  10.4427
    11.7060  11.8032  12.4120  14.4253  14.7090  18.8260  19.8406  20.6903
    21.8124  22.0542  24.1304

     occupation numbers 
     1.0000   1.0000   1.0000   1.0000   1.0000   1.0000   1.0000   1.0000
     1.0000   1.0000   1.0000   1.0000   1.0000   1.0000   1.0000   1.0000
     1.0000   1.0000   1.0000   0.0000   0.0000   0.0000   0.0000   0.0000
     0.0000   0.0000   0.0000

          k = 0.0000-0.2887 0.1758 (  2109 PWs)   bands (ev):

   -82.3838 -45.7241 -45.7027 -45.5542 -17.1797  -7.1692  -5.4314  -0.9945
     0.0887   0.2342   6.6716   7.2924   7.5518   9.0615   9.4887  10.5736
    11.8160  12.1354  12.4539  14.0862  14.6232  18.7771  19.8530  20.8977
    22.9604  23.1375  24.5592

     occupation numbers 
     1.0000   1.0000   1.0000   1.0000   1.0000   1.0000   1.0000   1.0000
     1.0000   1.0000   1.0000   1.0000   1.0000   1.0000   1.0000   1.0000
     1.0000   1.0000   1.0000   0.0001   0.0000   0.0000   0.0000   0.0000
     0.0000   0.0000   0.0000

          k = 0.0000-0.4330 0.1758 (  2127 PWs)   bands (ev):

   -82.3821 -45.7441 -45.7076 -45.5512 -16.8710  -7.0112  -5.3721  -1.5005
    -0.3252  -0.0226   6.3551   7.2311   7.7630   8.8902   9.2245  10.2147
    11.7825  12.0976  12.3756  14.2054  14.7061  17.9401  20.3077  21.5618
    23.8677  24.3086  24.9807

     occupation numbers 
     1.0000   1.0000   1.0000   1.0000   1.0000   1.0000   1.0000   1.0000
     1.0000   1.0000   1.0000   1.0000   1.0000   1.0000   1.0000   1.0000
     1.0000   1.0000   1.0000   0.0000   0.0000   0.0000   0.0000   0.0000
     0.0000   0.0000   0.0000

          k =-0.1250-0.3608 0.1758 (  2117 PWs)   bands (ev):

   -82.3826 -45.7352 -45.7090 -45.5521 -16.9655  -7.0321  -5.3900  -1.2595
    -0.4374   0.0995   6.6667   7.2036   7.6840   8.9469   9.0563  10.3845
    11.8680  12.2050  12.4508  14.1233  14.4724  18.7013  20.0107  21.2784
    22.9033  24.0033  25.1322

     occupation numbers 
     1.0000   1.0000   1.0000   1.0000   1.0000   1.0000   1.0000   1.0000
     1.0000   1.0000   1.0000   1.0000   1.0000   1.0000   1.0000   1.0000
     1.0000   1.0000   1.0000   0.0000   0.0000   0.0000   0.0000   0.0000
     0.0000   0.0000   0.0000

          k =-0.1250-0.5052 0.1758 (  2124 PWs)   bands (ev):

   -82.3814 -45.7478 -45.7139 -45.5499 -16.7366  -6.9857  -5.2762  -1.5612
    -0.6933  -0.1945   6.4080   7.1788   8.0488   8.7887   8.9150   9.9141
    11.8554  12.0828  12.4064  14.2352  14.5737  18.1180  20.6325  21.7543
    23.2560  24.5414  25.2748

     occupation numbers 
     1.0000   1.0000   1.0000   1.0000   1.0000   1.0000   1.0000   1.0000
     1.0000   1.0000   1.0000   1.0000   1.0000   1.0000   1.0000   1.0000
     1.0000   1.0000   1.0000   0.0000   0.0000   0.0000   0.0000   0.0000
     0.0000   0.0000   0.0000

     the Fermi energy is    13.4873 ev

     WARNING: integrated charge=    38.00009712, expected=    38.00000000

!    total energy              =    -572.91177233 Ry
     total all-electron energy =     -4292.022609 Ry
     estimated scf accuracy    <       0.00000005 Ry
     smearing contrib. (-TS)   =       0.00000145 Ry
     internal energy E=F+TS    =    -572.91177378 Ry

     The total energy is F=E-TS. E is the sum of the following terms:
     one-electron contribution =    -270.46528755 Ry
     hartree contribution      =     160.25231776 Ry
     xc contribution           =     -57.32152067 Ry
     ewald contribution        =    -243.19108326 Ry
     one-center paw contrib.   =    -162.18620005 Ry
      -> PAW hartree energy AE =     316.19144335 Ry
      -> PAW hartree energy PS =    -314.81445294 Ry
      -> PAW xc energy AE      =    -217.77664441 Ry
      -> PAW xc energy PS      =      54.21345395 Ry
      -> total E_H with PAW    =     161.62930817 Ry
      -> total E_XC with PAW   =    -220.88471114 Ry

     total magnetization       =     0.00 Bohr mag/cell
     absolute magnetization    =     0.00 Bohr mag/cell

     convergence has been achieved in  21 iterations

     Forces acting on atoms (cartesian axes, Ry/au):

     atom    1 type  1   force =     0.00000000    0.00000000    0.16378261
     atom    2 type  2   force =     0.00000000    0.00000000   -0.00516939
     atom    3 type  2   force =     0.00000000    0.00000000    0.18385432
     atom    4 type  3   force =    -0.00000000   -0.00000000   -0.34246754
     The non-local contrib.  to forces
     atom    1 type  1   force =     0.00000000    0.00000000   -0.38739035
     atom    2 type  2   force =     0.00000000    0.00000000   -0.92765529
     atom    3 type  2   force =     0.00000000    0.00000000    0.86797907
     atom    4 type  3   force =     0.00000000    0.00000000   -0.18130509
     The ionic contribution  to forces
     atom    1 type  1   force =    -0.00000000   -0.00000000   14.93465358
     atom    2 type  2   force =     0.00000000   -0.00000000   22.51813858
     atom    3 type  2   force =    -0.00000000    0.00000000  -15.46962059
     atom    4 type  3   force =     0.00000000   -0.00000000  -21.98317157
     The local contribution  to forces
     atom    1 type  1   force =     0.00000000   -0.00000000  -14.38315418
     atom    2 type  2   force =     0.00000001   -0.00000001  -21.60393164
     atom    3 type  2   force =    -0.00000001    0.00000001   14.79517926
     atom    4 type  3   force =     0.00000000   -0.00000000   21.81674892
     The core correction contribution to forces
     atom    1 type  1   force =     0.00000000   -0.00000000    0.00053564
     atom    2 type  2   force =    -0.00000000    0.00000000    0.00835084
     atom    3 type  2   force =     0.00000000   -0.00000000   -0.00962472
     atom    4 type  3   force =    -0.00000000    0.00000000    0.00484462
     The Hubbard contrib.    to forces
     atom    1 type  1   force =     0.00000000    0.00000000    0.00000000
     atom    2 type  2   force =     0.00000000    0.00000000    0.00000000
     atom    3 type  2   force =     0.00000000    0.00000000    0.00000000
     atom    4 type  3   force =     0.00000000    0.00000000    0.00000000
     The SCF correction term to forces
     atom    1 type  1   force =    -0.00000000    0.00000000   -0.00092554
     atom    2 type  2   force =     0.00000000   -0.00000000   -0.00013534
     atom    3 type  2   force =    -0.00000000    0.00000000   -0.00012216
     atom    4 type  3   force =    -0.00000000    0.00000000    0.00035212

     Total force =     0.421827     Total SCF correction =     0.001007

     Writing all to output data dir ./out/pw.save/ :
     XML data file, charge density, pseudopotentials, collected wavefunctions
 
     init_run     :     11.18s CPU      2.88s WALL (       1 calls)
     electrons    :    123.10s CPU     30.95s WALL (       1 calls)
     forces       :      0.58s CPU      0.57s WALL (       1 calls)

     Called by init_run:
     wfcinit      :      0.34s CPU      0.44s WALL (       1 calls)
     wfcinit:atom :      0.05s CPU      0.05s WALL (      50 calls)
     wfcinit:wfcr :      0.24s CPU      0.31s WALL (      50 calls)
     potinit      :     10.15s CPU      1.73s WALL (       1 calls)
     hinit0       :      0.58s CPU      0.58s WALL (       1 calls)

     Called by electrons:
     c_bands      :     11.94s CPU     12.05s WALL (      21 calls)
     sum_band     :      2.57s CPU      2.58s WALL (      21 calls)
     v_of_rho     :      0.31s CPU      0.15s WALL (      22 calls)
     v_h          :      0.23s CPU      0.03s WALL (      22 calls)
     v_xc         :      0.09s CPU      0.13s WALL (      23 calls)
     newd         :      0.69s CPU      0.56s WALL (      22 calls)
                                        0.56s GPU  (      22 calls)
     PAW_pot      :    112.06s CPU     15.84s WALL (      22 calls)
     mix_rho      :      0.52s CPU      0.52s WALL (      21 calls)

     Called by c_bands:
     init_us_2    :      0.87s CPU      0.86s WALL (    2200 calls)
     cegterg      :     10.45s CPU     10.55s WALL (    1050 calls)

     Called by sum_band:
     sum_band:wei :      0.03s CPU      0.03s WALL (      21 calls)
                                        0.03s GPU  (      21 calls)
     sum_band:loo :      1.35s CPU      1.35s WALL (      21 calls)
                                        1.35s GPU  (      21 calls)
     sum_band:buf :      0.12s CPU      0.15s WALL (    1050 calls)
                                        0.13s GPU  (    1050 calls)
     sum_band:ini :      0.40s CPU      0.42s WALL (    1050 calls)
                                        0.41s GPU  (    1050 calls)
     sum_band:cal :      0.04s CPU      0.06s WALL (    1050 calls)
                                        0.05s GPU  (    1050 calls)
     sum_band:bec :      0.22s CPU      0.25s WALL (    1050 calls)
                                        0.23s GPU  (    1050 calls)
     addusdens    :      1.08s CPU      1.09s WALL (      21 calls)
                                        1.09s GPU  (      21 calls)
     addusd:skk   :      0.00s CPU      0.00s WALL (      63 calls)
                                        0.00s GPU  (      63 calls)

     Called by *egterg:
     cdiaghg      :      3.74s CPU      3.87s WALL (    4393 calls)
                                        3.82s GPU  (    4393 calls)
     cegterg:over :      0.63s CPU      0.64s WALL (    3343 calls)
     cegterg:upda :      0.62s CPU      0.63s WALL (    3343 calls)
     cegterg:last :      0.10s CPU      0.11s WALL (    1848 calls)
     h_psi        :      3.75s CPU      3.87s WALL (    4443 calls)
                                        3.82s GPU  (    4443 calls)
     s_psi        :      0.68s CPU      0.71s WALL (    4443 calls)
     g_psi        :      0.02s CPU      0.08s WALL (    3343 calls)
                                        0.04s GPU  (    3343 calls)

     Called by h_psi:
     h_psi:calbec :      0.13s CPU      0.23s WALL (    4443 calls)
                                        0.18s GPU  (    4443 calls)
     vloc_psi     :      2.55s CPU      2.60s WALL (    4443 calls)
                                        2.55s GPU  (    4443 calls)
     add_vuspsi   :      0.62s CPU      0.72s WALL (    4443 calls)
                                        0.67s GPU  (    4443 calls)

     General routines
     calbec       :      0.15s CPU      0.17s WALL (    5693 calls)
     fft          :      3.13s CPU      0.67s WALL (     563 calls)
                                        0.09s GPU  (     519 calls)
     ffts         :      1.93s CPU      0.36s WALL (     712 calls)
                                        0.02s GPU  (     668 calls)
     fftw         :      0.35s CPU      0.92s WALL (   15286 calls)
                                        0.75s GPU  (   15286 calls)
     interpolate  :      5.09s CPU      0.93s WALL (      44 calls)
 
     Parallel routines

     PAW routines
     PAW_pot      :    112.06s CPU     15.84s WALL (      22 calls)
     PAW_symme    :      0.01s CPU      0.01s WALL (      43 calls)
 
     PWSCF        :   2m15.76s CPU     35.01s WALL

 
   This run was terminated on:   5:36:22  12Jul2026            

=------------------------------------------------------------------------------=
   JOB DONE.
=------------------------------------------------------------------------------=
Warning: ieee_divide_by_zero is signaling
Warning: ieee_inexact is signaling
FORTRAN STOP
