
     Program PWSCF v.7.3.1 starts on 12Jul2026 at  2:23:41 

     This program is part of the open-source Quantum ESPRESSO suite
     for quantum simulation of materials; please cite
         "P. Giannozzi et al., J. Phys.:Condens. Matter 21 395502 (2009);
         "P. Giannozzi et al., J. Phys.:Condens. Matter 29 465901 (2017);
         "P. Giannozzi et al., J. Chem. Phys. 152 154105 (2020);
          URL http://www.quantum-espresso.org", 
     in publications or presentations arising from this work. More details at
     http://www.quantum-espresso.org/quote

     Parallel version (MPI & OpenMP), running on      14 processor cores
     Number of MPI processes:                 1
     Threads/MPI process:                    14

     MPI processes distributed on     1 nodes
     846868 MiB available memory on the printing compute node when the environment starts
 
     Reading input from pw.in

     Current dimensions of program PWSCF are:
     Max number of different atomic species (ntypx) = 10
     Max number of k-points (npk) =  40000
     Max angular momentum in pseudopotentials (lmaxx) =  4
     file Co.pbe-spn-kjpaw_psl.0.3.1.UPF: wavefunction(s)  3P 3D renormalized
     file O.pbe-n-kjpaw_psl.1.0.0.UPF: wavefunction(s)  2S 2P renormalized
     file Na.pbe-spn-kjpaw_psl.1.0.0.UPF: wavefunction(s)  2P renormalized
 
     Subspace diagonalization in iterative solution of the eigenvalue problem:
     a serial algorithm will be used

 
     G-vector sticks info
     --------------------
     sticks:   dense  smooth     PW     G-vecs:    dense   smooth      PW
     Sum        2941    1483    421               256907    90927   13609
 
     Using Slab Decomposition
 


     bravais-lattice index     =            4
     lattice parameter (alat)  =       9.4527  a.u.
     unit-cell volume          =    1447.6983 (a.u.)^3
     number of atoms/cell      =           10
     number of atomic types    =            3
     number of electrons       =        96.00
     number of Kohn-Sham states=           64
     kinetic-energy cutoff     =      60.0000  Ry
     charge density cutoff     =     480.0000  Ry
     scf convergence threshold =      1.0E-08
     mixing beta               =       0.3000
     number of iterations used =            8  plain     mixing
     Exchange-correlation= SLA  PW   PBX  PBC
                           (   1   4   3   4   0   0   0)

     GPU acceleration is ACTIVE.  1 visible GPUs per MPI rank
     GPU-aware MPI enabled


     GPU used by master process:

        Device Number: 0
        Device name: NVIDIA A100-SXM4-80GB
        Compute capability : 80
        Ratio of single to double precision performance  : 2
        Memory Clock Rate (KHz): 1593000
        Memory Bus Width (bits): 5120
        Peak Memory Bandwidth (GB/s): ******

     celldm(1)=   9.452718  celldm(2)=   0.000000  celldm(3)=   1.979144
     celldm(4)=   0.000000  celldm(5)=   0.000000  celldm(6)=   0.000000

     crystal axes: (cart. coord. in units of alat)
               a(1) = (   1.000000   0.000000   0.000000 )  
               a(2) = (  -0.500000   0.866025   0.000000 )  
               a(3) = (   0.000000   0.000000   1.979144 )  

     reciprocal axes: (cart. coord. in units 2 pi/alat)
               b(1) = (  1.000000  0.577350 -0.000000 )  
               b(2) = (  0.000000  1.154701  0.000000 )  
               b(3) = (  0.000000 -0.000000  0.505269 )  


     PseudoPot. # 1 for Co read from file:
     ../../pseudo/Co.pbe-spn-kjpaw_psl.0.3.1.UPF
     MD5 check sum: 3c0a43779828c046024e4f3be63f8e67
     Pseudo is Projector augmented-wave + core cor, Zval = 17.0
     Generated using &quot;atomic&quot; code by A. Dal Corso  v.6.2.2
     Shape of augmentation charge: PSQ
     Using radial grid of 1193 points,  6 beta functions with: 
                l(1) =   0
                l(2) =   0
                l(3) =   1
                l(4) =   1
                l(5) =   2
                l(6) =   2
     Q(r) pseudized with 0 coefficients 


     PseudoPot. # 2 for O  read from file:
     ../../pseudo/O.pbe-n-kjpaw_psl.1.0.0.UPF
     MD5 check sum: e99d9cef9b487d1ca56f5b95ecd0fd7a
     Pseudo is Projector augmented-wave + core cor, Zval =  6.0
     Generated using &quot;atomic&quot; code by A. Dal Corso  v.6.3
     Shape of augmentation charge: PSQ
     Using radial grid of 1095 points,  4 beta functions with: 
                l(1) =   0
                l(2) =   0
                l(3) =   1
                l(4) =   1
     Q(r) pseudized with 0 coefficients 


     PseudoPot. # 3 for Na read from file:
     ../../pseudo/Na.pbe-spn-kjpaw_psl.1.0.0.UPF
     MD5 check sum: 05b4deb74e3932c23ab016979dc8b5d4
     Pseudo is Projector augmented-wave + core cor, Zval =  9.0
     Generated using &quot;atomic&quot; code by A. Dal Corso  v.6.3
     Shape of augmentation charge: PSQ
     Using radial grid of 1121 points,  4 beta functions with: 
                l(1) =   0
                l(2) =   0
                l(3) =   1
                l(4) =   1
     Q(r) pseudized with 0 coefficients 


     atomic species   valence    mass     pseudopotential
     Co               17.00    58.93300     Co( 1.00)
     O                 6.00    15.99900     O ( 1.00)
     Na                9.00    22.98977     Na( 1.00)

     Starting magnetic structure 
     atomic species   magnetization
     Co              0.300
     O               0.000
     Na              0.000

      6 Sym. Ops. (no inversion) found ( 4 have fractional translation)


                                    s                        frac. trans.

      isym =  1     identity                                     

 cryst.   s( 1) = (     1          0          0      )
                  (     0          1          0      )
                  (     0          0          1      )

 cart.    s( 1) = (  1.0000000  0.0000000  0.0000000 )
                  (  0.0000000  1.0000000  0.0000000 )
                  (  0.0000000  0.0000000  1.0000000 )


      isym =  2     120 deg rotation - cryst. axis [0,0,1]       

 cryst.   s( 2) = (     0          1          0      )    f =(  0.3333333 )
                  (    -1         -1          0      )       ( -0.3333333 )
                  (     0          0          1      )       (  0.0000000 )

 cart.    s( 2) = ( -0.5000000 -0.8660254  0.0000000 )    f =(  0.5000000 )
                  (  0.8660254 -0.5000000  0.0000000 )       ( -0.2886751 )
                  (  0.0000000  0.0000000  1.0000000 )       (  0.0000000 )


      isym =  3     120 deg rotation - cryst. axis [0,0,-1]      

 cryst.   s( 3) = (    -1         -1          0      )    f =( -0.3333333 )
                  (     1          0          0      )       (  0.3333333 )
                  (     0          0          1      )       (  0.0000000 )

 cart.    s( 3) = ( -0.5000000  0.8660254  0.0000000 )    f =( -0.5000000 )
                  ( -0.8660254 -0.5000000  0.0000000 )       (  0.2886751 )
                  (  0.0000000  0.0000000  1.0000000 )       (  0.0000000 )


      isym =  4     inv. 180 deg rotation - cart. axis [0,1,0]   

 cryst.   s( 4) = (     1          0          0      )    f =( -0.3333333 )
                  (    -1         -1          0      )       (  0.3333333 )
                  (     0          0          1      )       (  0.0000000 )

 cart.    s( 4) = (  1.0000000  0.0000000  0.0000000 )    f =( -0.5000000 )
                  (  0.0000000 -1.0000000  0.0000000 )       (  0.2886751 )
                  (  0.0000000  0.0000000  1.0000000 )       (  0.0000000 )


      isym =  5     inv. 180 deg rotation - cryst. axis [1,-1,0] 

 cryst.   s( 5) = (     0          1          0      )
                  (     1          0          0      )
                  (     0          0          1      )

 cart.    s( 5) = ( -0.5000000  0.8660254  0.0000000 )
                  (  0.8660254  0.5000000  0.0000000 )
                  (  0.0000000  0.0000000  1.0000000 )


      isym =  6     inv. 180 deg rotation - cryst. axis [2,1,0]  

 cryst.   s( 6) = (    -1         -1          0      )    f =(  0.3333333 )
                  (     0          1          0      )       ( -0.3333333 )
                  (     0          0          1      )       (  0.0000000 )

 cart.    s( 6) = ( -0.5000000 -0.8660254  0.0000000 )    f =(  0.5000000 )
                  ( -0.8660254  0.5000000  0.0000000 )       ( -0.2886751 )
                  (  0.0000000  0.0000000  1.0000000 )       (  0.0000000 )


     point group C_3v (3m)  
     there are  3 classes
     the character table:

       E     2C3   3s_v 
A_1    1.00  1.00  1.00
A_2    1.00  1.00 -1.00
E      2.00 -1.00  0.00

     the symmetry operations in each class and the name of the first element:

     E        1
          identity                                               
     2C3      2    3
          120 deg rotation - cryst. axis [0,0,1]                 
     3s_v     4    6    5
          inv. 180 deg rotation - cart. axis [0,1,0]             

   Cartesian axes

     site n.     atom                  positions (alat units)
         1        Co     tau(   1) = (   0.0000000   0.0000000   0.0000000  )
         2        Co     tau(   2) = (  -0.0000000   0.5773503   0.0000000  )
         3        Co     tau(   3) = (   0.5000000   0.2886751   0.0000000  )
         4        O      tau(   4) = (   0.1666667   0.2886751   0.1919170  )
         5        O      tau(   5) = (   0.6666667   0.0000000   0.1919170  )
         6        O      tau(   6) = (  -0.3333333   0.5773503   0.1919170  )
         7        O      tau(   7) = (   0.3333333   0.0000000   1.7872269  )
         8        O      tau(   8) = (   0.3333333   0.5773503   1.7872269  )
         9        O      tau(   9) = (  -0.1666667   0.2886751   1.7872269  )
        10        Na     tau(  10) = (   0.1666667   0.2886751   0.9895720  )

   Crystallographic axes

     site n.     atom                  positions (cryst. coord.)
         1        Co     tau(   1) = (  0.0000000  0.0000000  0.0000000  )
         2        Co     tau(   2) = (  0.3333333  0.6666667  0.0000000  )
         3        Co     tau(   3) = (  0.6666667  0.3333333  0.0000000  )
         4        O      tau(   4) = (  0.3333333  0.3333333  0.0969697  )
         5        O      tau(   5) = (  0.6666667  0.0000000  0.0969697  )
         6        O      tau(   6) = (  0.0000000  0.6666667  0.0969697  )
         7        O      tau(   7) = (  0.3333333  0.0000000  0.9030303  )
         8        O      tau(   8) = (  0.6666667  0.6666667  0.9030303  )
         9        O      tau(   9) = ( -0.0000000  0.3333333  0.9030303  )
        10        Na     tau(  10) = (  0.3333333  0.3333333  0.5000000  )

     number of k points=    17  Marzari-Vanderbilt smearing, width (Ry)=  0.0200
                       cart. coord. in units 2pi/alat
        k(    1) = (   0.0000000   0.0000000   0.0000000), wk =   0.0092593
        k(    2) = (   0.0000000   0.0000000   0.1684230), wk =   0.0185185
        k(    3) = (   0.0000000   0.1924501   0.0000000), wk =   0.0555556
        k(    4) = (   0.0000000   0.1924501   0.1684230), wk =   0.1111111
        k(    5) = (   0.0000000   0.3849002   0.0000000), wk =   0.0555556
        k(    6) = (   0.0000000   0.3849002   0.1684230), wk =   0.1111111
        k(    7) = (   0.0000000  -0.5773503   0.0000000), wk =   0.0277778
        k(    8) = (   0.0000000  -0.5773503   0.1684230), wk =   0.0555556
        k(    9) = (   0.1666667   0.2886751   0.0000000), wk =   0.0555556
        k(   10) = (   0.1666667   0.2886751   0.1684230), wk =   0.0555556
        k(   11) = (   0.1666667   0.4811252   0.0000000), wk =   0.1111111
        k(   12) = (   0.1666667   0.4811252   0.1684230), wk =   0.1111111
        k(   13) = (   0.3333333   0.5773503   0.0000000), wk =   0.0185185
        k(   14) = (   0.3333333   0.5773503   0.1684230), wk =   0.0185185
        k(   15) = (  -0.1666667  -0.2886751   0.1684230), wk =   0.0555556
        k(   16) = (  -0.1666667  -0.4811252   0.1684230), wk =   0.1111111
        k(   17) = (  -0.3333333  -0.5773503   0.1684230), wk =   0.0185185

                       cryst. coord.
        k(    1) = (   0.0000000   0.0000000   0.0000000), wk =   0.0092593
        k(    2) = (   0.0000000   0.0000000   0.3333333), wk =   0.0185185
        k(    3) = (   0.0000000   0.1666667   0.0000000), wk =   0.0555556
        k(    4) = (   0.0000000   0.1666667   0.3333333), wk =   0.1111111
        k(    5) = (   0.0000000   0.3333333   0.0000000), wk =   0.0555556
        k(    6) = (   0.0000000   0.3333333   0.3333333), wk =   0.1111111
        k(    7) = (   0.0000000  -0.5000000   0.0000000), wk =   0.0277778
        k(    8) = (   0.0000000  -0.5000000   0.3333333), wk =   0.0555556
        k(    9) = (   0.1666667   0.1666667   0.0000000), wk =   0.0555556
        k(   10) = (   0.1666667   0.1666667   0.3333333), wk =   0.0555556
        k(   11) = (   0.1666667   0.3333333   0.0000000), wk =   0.1111111
        k(   12) = (   0.1666667   0.3333333   0.3333333), wk =   0.1111111
        k(   13) = (   0.3333333   0.3333333   0.0000000), wk =   0.0185185
        k(   14) = (   0.3333333   0.3333333   0.3333333), wk =   0.0185185
        k(   15) = (  -0.1666667  -0.1666667   0.3333333), wk =   0.0555556
        k(   16) = (  -0.1666667  -0.3333333   0.3333333), wk =   0.1111111
        k(   17) = (  -0.3333333  -0.3333333   0.3333333), wk =   0.0185185

     Dense  grid:   256907 G-vectors     FFT dimensions: (  72,  72, 135)

     Smooth grid:    90927 G-vectors     FFT dimensions: (  48,  48,  96)

     Dynamical RAM for                 wfc:      11.10 MB

     Dynamical RAM for     wfc (w. buffer):     388.35 MB

     Dynamical RAM for           str. fact:      11.76 MB

     Dynamical RAM for           local pot:       0.00 MB

     Dynamical RAM for          nlocal pot:      19.07 MB

     Dynamical RAM for                qrad:       5.27 MB

     Dynamical RAM for          rho,v,vnew:      55.56 MB

     Dynamical RAM for               rhoin:      18.52 MB

     Dynamical RAM for            rho*nmix:     125.44 MB

     Dynamical RAM for           G-vectors:      15.39 MB

     Dynamical RAM for          h,s,v(r/c):       0.75 MB

     Dynamical RAM for          <psi|beta>:       0.11 MB

     Dynamical RAM for                 psi:      22.19 MB

     Dynamical RAM for                hpsi:      22.19 MB

     Dynamical RAM for                spsi:      22.19 MB

     Dynamical RAM for      wfcinit/wfcrot:      22.29 MB

     Dynamical RAM for           addusdens:     756.58 MB

     Dynamical RAM for          addusforce:     795.83 MB

     Estimated static dynamical RAM per process >     561.64 MB

     Estimated max dynamical RAM per process >       1.45 GB

     Check: negative core charge=   -0.000006
     Generating pointlists ...
     new r_m :   0.1587 (alat units)  1.4998 (a.u.) for type    1
     new r_m :   0.1587 (alat units)  1.4998 (a.u.) for type    2
     new r_m :   0.3290 (alat units)  3.1103 (a.u.) for type    3

     Initial potential from superposition of free atoms

     starting charge      95.9928, renormalised to      96.0000
     Starting wfcs are   59 randomized atomic wfcs +    5 random wfcs
     Checking if some PAW data can be deallocated... 

     total cpu time spent up to now is        5.5 secs

     Self-consistent Calculation
[tb_dev] Currently allocated     9.94E-01 Mbytes, locked:    0 /   6
[tb_pin] Currently allocated     0.00E+00 Mbytes, locked:    0 /   0

     iteration #  1     ecut=    60.00 Ry     beta= 0.30
     Davidson diagonalization with overlap

---- Real-time Memory Report at c_bands before calling an iterative solver
          1138 MiB given to the printing process from OS
             0 MiB allocation reported by mallinfo(arena+hblkhd)
        846088 MiB available memory on the node where the printing process lives
     GPU memory used/free/total (MiB): 1984 / 79166 / 81151
------------------
     ethr =  1.00E-02,  avg # of iterations = 10.5

     total cpu time spent up to now is        9.5 secs

     total energy              =   -1486.59147817 Ry
     estimated scf accuracy    <       6.36045874 Ry

     total magnetization       =    14.00 Bohr mag/cell
     absolute magnetization    =    14.00 Bohr mag/cell
[tb_dev] Currently allocated     7.63E-05 Mbytes, locked:    0 /   2
[tb_pin] Currently allocated     0.00E+00 Mbytes, locked:    0 /   0

     iteration #  2     ecut=    60.00 Ry     beta= 0.30
     Davidson diagonalization with overlap

---- Real-time Memory Report at c_bands before calling an iterative solver
          1202 MiB given to the printing process from OS
             0 MiB allocation reported by mallinfo(arena+hblkhd)
        846045 MiB available memory on the node where the printing process lives
     GPU memory used/free/total (MiB): 2070 / 79080 / 81151
------------------
     ethr =  6.63E-03,  avg # of iterations =  2.1

     total cpu time spent up to now is       12.3 secs

     total energy              =   -1487.32327422 Ry
     estimated scf accuracy    <      17.26518669 Ry

     total magnetization       =     1.69 Bohr mag/cell
     absolute magnetization    =     1.92 Bohr mag/cell
[tb_dev] Currently allocated     7.63E-05 Mbytes, locked:    0 /   2
[tb_pin] Currently allocated     0.00E+00 Mbytes, locked:    0 /   0

     iteration #  3     ecut=    60.00 Ry     beta= 0.30
     Davidson diagonalization with overlap

---- Real-time Memory Report at c_bands before calling an iterative solver
          1214 MiB given to the printing process from OS
             0 MiB allocation reported by mallinfo(arena+hblkhd)
        846052 MiB available memory on the node where the printing process lives
     GPU memory used/free/total (MiB): 2070 / 79080 / 81151
------------------
     ethr =  6.63E-03,  avg # of iterations =  1.4

     total cpu time spent up to now is       14.9 secs

     total energy              =   -1488.64767280 Ry
     estimated scf accuracy    <       0.46286494 Ry

     total magnetization       =     8.27 Bohr mag/cell
     absolute magnetization    =     8.28 Bohr mag/cell
[tb_dev] Currently allocated     7.63E-05 Mbytes, locked:    0 /   2
[tb_pin] Currently allocated     0.00E+00 Mbytes, locked:    0 /   0

     iteration #  4     ecut=    60.00 Ry     beta= 0.30
     Davidson diagonalization with overlap

---- Real-time Memory Report at c_bands before calling an iterative solver
          1225 MiB given to the printing process from OS
             0 MiB allocation reported by mallinfo(arena+hblkhd)
        846042 MiB available memory on the node where the printing process lives
     GPU memory used/free/total (MiB): 2070 / 79080 / 81151
------------------
     c_bands:  1 eigenvalues not converged
     ethr =  4.82E-04,  avg # of iterations = 12.4

     total cpu time spent up to now is       19.2 secs

     total energy              =   -1488.78246490 Ry
     estimated scf accuracy    <       0.99491836 Ry

     total magnetization       =     4.66 Bohr mag/cell
     absolute magnetization    =     5.58 Bohr mag/cell
[tb_dev] Currently allocated     7.63E-05 Mbytes, locked:    0 /   2
[tb_pin] Currently allocated     0.00E+00 Mbytes, locked:    0 /   0

     iteration #  5     ecut=    60.00 Ry     beta= 0.30
     Davidson diagonalization with overlap

---- Real-time Memory Report at c_bands before calling an iterative solver
          1235 MiB given to the printing process from OS
             0 MiB allocation reported by mallinfo(arena+hblkhd)
        846042 MiB available memory on the node where the printing process lives
     GPU memory used/free/total (MiB): 2070 / 79080 / 81151
------------------
     ethr =  4.82E-04,  avg # of iterations =  2.0

     total cpu time spent up to now is       21.9 secs

     total energy              =   -1488.92310539 Ry
     estimated scf accuracy    <       0.91640547 Ry

     total magnetization       =     4.38 Bohr mag/cell
     absolute magnetization    =     5.18 Bohr mag/cell
[tb_dev] Currently allocated     7.63E-05 Mbytes, locked:    0 /   2
[tb_pin] Currently allocated     0.00E+00 Mbytes, locked:    0 /   0

     iteration #  6     ecut=    60.00 Ry     beta= 0.30
     Davidson diagonalization with overlap

---- Real-time Memory Report at c_bands before calling an iterative solver
          1242 MiB given to the printing process from OS
             0 MiB allocation reported by mallinfo(arena+hblkhd)
        846037 MiB available memory on the node where the printing process lives
     GPU memory used/free/total (MiB): 2070 / 79080 / 81151
------------------
     ethr =  4.82E-04,  avg # of iterations =  2.0

     total cpu time spent up to now is       24.6 secs

     total energy              =   -1489.00841862 Ry
     estimated scf accuracy    <       0.34424131 Ry

     total magnetization       =     3.58 Bohr mag/cell
     absolute magnetization    =     4.73 Bohr mag/cell
[tb_dev] Currently allocated     7.63E-05 Mbytes, locked:    0 /   2
[tb_pin] Currently allocated     0.00E+00 Mbytes, locked:    0 /   0

     iteration #  7     ecut=    60.00 Ry     beta= 0.30
     Davidson diagonalization with overlap

---- Real-time Memory Report at c_bands before calling an iterative solver
          1255 MiB given to the printing process from OS
             0 MiB allocation reported by mallinfo(arena+hblkhd)
        846005 MiB available memory on the node where the printing process lives
     GPU memory used/free/total (MiB): 2070 / 79080 / 81151
------------------
     ethr =  3.59E-04,  avg # of iterations =  2.5

     total cpu time spent up to now is       27.5 secs

     total energy              =   -1489.11491492 Ry
     estimated scf accuracy    <       0.12254722 Ry

     total magnetization       =     2.78 Bohr mag/cell
     absolute magnetization    =     3.14 Bohr mag/cell
[tb_dev] Currently allocated     7.63E-05 Mbytes, locked:    0 /   2
[tb_pin] Currently allocated     0.00E+00 Mbytes, locked:    0 /   0

     iteration #  8     ecut=    60.00 Ry     beta= 0.30
     Davidson diagonalization with overlap

---- Real-time Memory Report at c_bands before calling an iterative solver
          1263 MiB given to the printing process from OS
             0 MiB allocation reported by mallinfo(arena+hblkhd)
        846031 MiB available memory on the node where the printing process lives
     GPU memory used/free/total (MiB): 2070 / 79080 / 81151
------------------
     ethr =  1.28E-04,  avg # of iterations =  4.7

     total cpu time spent up to now is       30.6 secs

     total energy              =   -1489.12509705 Ry
     estimated scf accuracy    <       0.13801921 Ry

     total magnetization       =     2.83 Bohr mag/cell
     absolute magnetization    =     3.22 Bohr mag/cell
[tb_dev] Currently allocated     7.63E-05 Mbytes, locked:    0 /   2
[tb_pin] Currently allocated     0.00E+00 Mbytes, locked:    0 /   0

     iteration #  9     ecut=    60.00 Ry     beta= 0.30
     Davidson diagonalization with overlap

---- Real-time Memory Report at c_bands before calling an iterative solver
          1272 MiB given to the printing process from OS
             0 MiB allocation reported by mallinfo(arena+hblkhd)
        846030 MiB available memory on the node where the printing process lives
     GPU memory used/free/total (MiB): 2070 / 79080 / 81151
------------------
     ethr =  1.28E-04,  avg # of iterations =  1.3

     total cpu time spent up to now is       33.3 secs

     total energy              =   -1489.12935503 Ry
     estimated scf accuracy    <       0.08219877 Ry

     total magnetization       =     2.71 Bohr mag/cell
     absolute magnetization    =     3.10 Bohr mag/cell
[tb_dev] Currently allocated     7.63E-05 Mbytes, locked:    0 /   2
[tb_pin] Currently allocated     0.00E+00 Mbytes, locked:    0 /   0

     iteration # 10     ecut=    60.00 Ry     beta= 0.30
     Davidson diagonalization with overlap

---- Real-time Memory Report at c_bands before calling an iterative solver
          1284 MiB given to the printing process from OS
             0 MiB allocation reported by mallinfo(arena+hblkhd)
        845938 MiB available memory on the node where the printing process lives
     GPU memory used/free/total (MiB): 2070 / 79080 / 81151
------------------
     ethr =  8.56E-05,  avg # of iterations =  2.1

     total cpu time spent up to now is       36.0 secs

     total energy              =   -1489.13652359 Ry
     estimated scf accuracy    <       0.01118439 Ry

     total magnetization       =     2.59 Bohr mag/cell
     absolute magnetization    =     2.74 Bohr mag/cell
[tb_dev] Currently allocated     7.63E-05 Mbytes, locked:    0 /   2
[tb_pin] Currently allocated     0.00E+00 Mbytes, locked:    0 /   0

     iteration # 11     ecut=    60.00 Ry     beta= 0.30
     Davidson diagonalization with overlap

---- Real-time Memory Report at c_bands before calling an iterative solver
          1284 MiB given to the printing process from OS
             0 MiB allocation reported by mallinfo(arena+hblkhd)
        845902 MiB available memory on the node where the printing process lives
     GPU memory used/free/total (MiB): 2070 / 79080 / 81151
------------------
     ethr =  1.17E-05,  avg # of iterations = 11.1

     total cpu time spent up to now is       40.1 secs

     total energy              =   -1489.13807155 Ry
     estimated scf accuracy    <       0.00842922 Ry

     total magnetization       =     2.44 Bohr mag/cell
     absolute magnetization    =     2.59 Bohr mag/cell
[tb_dev] Currently allocated     7.63E-05 Mbytes, locked:    0 /   2
[tb_pin] Currently allocated     0.00E+00 Mbytes, locked:    0 /   0

     iteration # 12     ecut=    60.00 Ry     beta= 0.30
     Davidson diagonalization with overlap

---- Real-time Memory Report at c_bands before calling an iterative solver
          1284 MiB given to the printing process from OS
             0 MiB allocation reported by mallinfo(arena+hblkhd)
        845924 MiB available memory on the node where the printing process lives
     GPU memory used/free/total (MiB): 2070 / 79080 / 81151
------------------
     ethr =  8.78E-06,  avg # of iterations =  2.0

     total cpu time spent up to now is       42.8 secs

     total energy              =   -1489.13894005 Ry
     estimated scf accuracy    <       0.00112830 Ry

     total magnetization       =     2.58 Bohr mag/cell
     absolute magnetization    =     2.69 Bohr mag/cell
[tb_dev] Currently allocated     7.63E-05 Mbytes, locked:    0 /   2
[tb_pin] Currently allocated     0.00E+00 Mbytes, locked:    0 /   0

     iteration # 13     ecut=    60.00 Ry     beta= 0.30
     Davidson diagonalization with overlap

---- Real-time Memory Report at c_bands before calling an iterative solver
          1286 MiB given to the printing process from OS
             0 MiB allocation reported by mallinfo(arena+hblkhd)
        846604 MiB available memory on the node where the printing process lives
     GPU memory used/free/total (MiB): 2070 / 79080 / 81151
------------------
     c_bands:  1 eigenvalues not converged
     c_bands:  1 eigenvalues not converged
     ethr =  1.18E-06,  avg # of iterations =  9.9

     total cpu time spent up to now is       46.9 secs

     total energy              =   -1489.14029466 Ry
     estimated scf accuracy    <       0.00070088 Ry

     total magnetization       =     2.58 Bohr mag/cell
     absolute magnetization    =     2.68 Bohr mag/cell
[tb_dev] Currently allocated     7.63E-05 Mbytes, locked:    0 /   2
[tb_pin] Currently allocated     0.00E+00 Mbytes, locked:    0 /   0

     iteration # 14     ecut=    60.00 Ry     beta= 0.30
     Davidson diagonalization with overlap

---- Real-time Memory Report at c_bands before calling an iterative solver
          1287 MiB given to the printing process from OS
             0 MiB allocation reported by mallinfo(arena+hblkhd)
        846152 MiB available memory on the node where the printing process lives
     GPU memory used/free/total (MiB): 2070 / 79080 / 81151
------------------
     ethr =  7.30E-07,  avg # of iterations =  2.6

     total cpu time spent up to now is       49.6 secs

     total energy              =   -1489.14034644 Ry
     estimated scf accuracy    <       0.00028607 Ry

     total magnetization       =     2.51 Bohr mag/cell
     absolute magnetization    =     2.62 Bohr mag/cell
[tb_dev] Currently allocated     7.63E-05 Mbytes, locked:    0 /   2
[tb_pin] Currently allocated     0.00E+00 Mbytes, locked:    0 /   0

     iteration # 15     ecut=    60.00 Ry     beta= 0.30
     Davidson diagonalization with overlap

---- Real-time Memory Report at c_bands before calling an iterative solver
          1287 MiB given to the printing process from OS
             0 MiB allocation reported by mallinfo(arena+hblkhd)
        845590 MiB available memory on the node where the printing process lives
     GPU memory used/free/total (MiB): 2070 / 79080 / 81151
------------------
     ethr =  2.98E-07,  avg # of iterations =  2.1

     total cpu time spent up to now is       52.3 secs

     total energy              =   -1489.14039950 Ry
     estimated scf accuracy    <       0.00004990 Ry

     total magnetization       =     2.53 Bohr mag/cell
     absolute magnetization    =     2.65 Bohr mag/cell
[tb_dev] Currently allocated     7.63E-05 Mbytes, locked:    0 /   2
[tb_pin] Currently allocated     0.00E+00 Mbytes, locked:    0 /   0

     iteration # 16     ecut=    60.00 Ry     beta= 0.30
     Davidson diagonalization with overlap

---- Real-time Memory Report at c_bands before calling an iterative solver
          1287 MiB given to the printing process from OS
             0 MiB allocation reported by mallinfo(arena+hblkhd)
        845520 MiB available memory on the node where the printing process lives
     GPU memory used/free/total (MiB): 2070 / 79080 / 81151
------------------
     ethr =  5.20E-08,  avg # of iterations = 10.0

     total cpu time spent up to now is       56.5 secs

     total energy              =   -1489.14044647 Ry
     estimated scf accuracy    <       0.00002361 Ry

     total magnetization       =     2.53 Bohr mag/cell
     absolute magnetization    =     2.65 Bohr mag/cell
[tb_dev] Currently allocated     7.63E-05 Mbytes, locked:    0 /   2
[tb_pin] Currently allocated     0.00E+00 Mbytes, locked:    0 /   0

     iteration # 17     ecut=    60.00 Ry     beta= 0.30
     Davidson diagonalization with overlap

---- Real-time Memory Report at c_bands before calling an iterative solver
          1287 MiB given to the printing process from OS
             0 MiB allocation reported by mallinfo(arena+hblkhd)
        846321 MiB available memory on the node where the printing process lives
     GPU memory used/free/total (MiB): 2070 / 79080 / 81151
------------------
     ethr =  2.46E-08,  avg # of iterations =  3.1

     total cpu time spent up to now is       59.4 secs

     total energy              =   -1489.14045027 Ry
     estimated scf accuracy    <       0.00000343 Ry

     total magnetization       =     2.53 Bohr mag/cell
     absolute magnetization    =     2.64 Bohr mag/cell
[tb_dev] Currently allocated     7.63E-05 Mbytes, locked:    0 /   2
[tb_pin] Currently allocated     0.00E+00 Mbytes, locked:    0 /   0

     iteration # 18     ecut=    60.00 Ry     beta= 0.30
     Davidson diagonalization with overlap

---- Real-time Memory Report at c_bands before calling an iterative solver
          1287 MiB given to the printing process from OS
             0 MiB allocation reported by mallinfo(arena+hblkhd)
        846342 MiB available memory on the node where the printing process lives
     GPU memory used/free/total (MiB): 2070 / 79080 / 81151
------------------
     ethr =  3.57E-09,  avg # of iterations =  9.9

     total cpu time spent up to now is       63.4 secs

     total energy              =   -1489.14045329 Ry
     estimated scf accuracy    <       0.00000172 Ry

     total magnetization       =     2.53 Bohr mag/cell
     absolute magnetization    =     2.65 Bohr mag/cell
[tb_dev] Currently allocated     7.63E-05 Mbytes, locked:    0 /   2
[tb_pin] Currently allocated     0.00E+00 Mbytes, locked:    0 /   0

     iteration # 19     ecut=    60.00 Ry     beta= 0.30
     Davidson diagonalization with overlap

---- Real-time Memory Report at c_bands before calling an iterative solver
          1287 MiB given to the printing process from OS
             0 MiB allocation reported by mallinfo(arena+hblkhd)
        846334 MiB available memory on the node where the printing process lives
     GPU memory used/free/total (MiB): 2070 / 79080 / 81151
------------------
     ethr =  1.80E-09,  avg # of iterations =  2.4

     total cpu time spent up to now is       66.2 secs

     total energy              =   -1489.14045369 Ry
     estimated scf accuracy    <       0.00000038 Ry

     total magnetization       =     2.52 Bohr mag/cell
     absolute magnetization    =     2.65 Bohr mag/cell
[tb_dev] Currently allocated     7.63E-05 Mbytes, locked:    0 /   2
[tb_pin] Currently allocated     0.00E+00 Mbytes, locked:    0 /   0

     iteration # 20     ecut=    60.00 Ry     beta= 0.30
     Davidson diagonalization with overlap

---- Real-time Memory Report at c_bands before calling an iterative solver
          1287 MiB given to the printing process from OS
             0 MiB allocation reported by mallinfo(arena+hblkhd)
        846352 MiB available memory on the node where the printing process lives
     GPU memory used/free/total (MiB): 2070 / 79080 / 81151
------------------
     ethr =  3.94E-10,  avg # of iterations =  8.6

     total cpu time spent up to now is       70.1 secs

     total energy              =   -1489.14045410 Ry
     estimated scf accuracy    <       0.00000013 Ry

     total magnetization       =     2.52 Bohr mag/cell
     absolute magnetization    =     2.65 Bohr mag/cell
[tb_dev] Currently allocated     7.63E-05 Mbytes, locked:    0 /   2
[tb_pin] Currently allocated     0.00E+00 Mbytes, locked:    0 /   0

     iteration # 21     ecut=    60.00 Ry     beta= 0.30
     Davidson diagonalization with overlap

---- Real-time Memory Report at c_bands before calling an iterative solver
          1287 MiB given to the printing process from OS
             0 MiB allocation reported by mallinfo(arena+hblkhd)
        846306 MiB available memory on the node where the printing process lives
     GPU memory used/free/total (MiB): 2070 / 79080 / 81151
------------------
     ethr =  1.40E-10,  avg # of iterations =  5.4

     total cpu time spent up to now is       73.4 secs

     total energy              =   -1489.14045420 Ry
     estimated scf accuracy    <       0.00000004 Ry

     total magnetization       =     2.52 Bohr mag/cell
     absolute magnetization    =     2.65 Bohr mag/cell
[tb_dev] Currently allocated     7.63E-05 Mbytes, locked:    0 /   2
[tb_pin] Currently allocated     0.00E+00 Mbytes, locked:    0 /   0

     iteration # 22     ecut=    60.00 Ry     beta= 0.30
     Davidson diagonalization with overlap

---- Real-time Memory Report at c_bands before calling an iterative solver
          1287 MiB given to the printing process from OS
             0 MiB allocation reported by mallinfo(arena+hblkhd)
        846300 MiB available memory on the node where the printing process lives
     GPU memory used/free/total (MiB): 2070 / 79080 / 81151
------------------
     ethr =  3.96E-11,  avg # of iterations =  6.8

     total cpu time spent up to now is       76.9 secs

     total energy              =   -1489.14045424 Ry
     estimated scf accuracy    <       0.00000001 Ry

     total magnetization       =     2.52 Bohr mag/cell
     absolute magnetization    =     2.65 Bohr mag/cell
[tb_dev] Currently allocated     7.63E-05 Mbytes, locked:    0 /   2
[tb_pin] Currently allocated     0.00E+00 Mbytes, locked:    0 /   0

     iteration # 23     ecut=    60.00 Ry     beta= 0.30
     Davidson diagonalization with overlap

---- Real-time Memory Report at c_bands before calling an iterative solver
          1287 MiB given to the printing process from OS
             0 MiB allocation reported by mallinfo(arena+hblkhd)
        846334 MiB available memory on the node where the printing process lives
     GPU memory used/free/total (MiB): 2070 / 79080 / 81151
------------------
     ethr =  1.42E-11,  avg # of iterations =  6.0
 
     Magnetic moment per site  (integrated on atomic sphere of radius R)
     atom   1 (R=0.159)  charge= 14.0886  magn=  0.6522
     atom   2 (R=0.159)  charge= 14.0886  magn=  0.6522
     atom   3 (R=0.159)  charge= 14.0886  magn=  0.6522
     atom   4 (R=0.159)  charge=  5.2132  magn=  0.0656
     atom   5 (R=0.159)  charge=  5.2111  magn=  0.0719
     atom   6 (R=0.159)  charge=  5.2111  magn=  0.0719
     atom   7 (R=0.159)  charge=  5.2118  magn=  0.0698
     atom   8 (R=0.159)  charge=  5.2118  magn=  0.0698
     atom   9 (R=0.159)  charge=  5.2118  magn=  0.0698
     atom  10 (R=0.329)  charge=  8.1525  magn= -0.0179

     total cpu time spent up to now is       80.3 secs

     End of self-consistent calculation

 ------ SPIN UP ------------


          k = 0.0000 0.0000 0.0000 ( 11393 PWs)   bands (ev):

   -93.5217 -93.5162 -93.5162 -56.7701 -56.7684 -56.7684 -56.7665 -56.7299
   -56.7299 -56.7220 -56.7129 -56.7129 -52.2214 -24.1388 -24.1388 -24.0987
   -16.8426 -15.1722 -15.1676 -15.1676 -15.1632 -14.9186  -3.0575  -2.9229
    -2.9195  -2.9195  -2.9165  -2.7115  -2.7115  -2.4804  -2.4804  -0.9191
    -0.9100  -0.9100  -0.9020  -0.4920  -0.4920   0.4789   0.7067   0.7067
     0.7265   0.7265   1.0508   1.0508   1.7943   1.7958   1.7958   1.7963
     1.8517   2.2467   3.9510   3.9550   3.9550   3.9587   4.6931   4.6931
     5.9563   8.4835   9.1741   9.1741   9.9589   9.9589  10.5513  10.8370

     occupation numbers 
     1.0000   1.0000   1.0000   1.0000   1.0000   1.0000   1.0000   1.0000
     1.0000   1.0000   1.0000   1.0000   1.0000   1.0000   1.0000   1.0000
     1.0000   1.0000   1.0000   1.0000   1.0000   1.0000   1.0000   1.0000
     1.0000   1.0000   1.0000   1.0000   1.0000   1.0000   1.0000   1.0000
     1.0000   1.0000   1.0000   1.0000   1.0000   1.0000   1.0000   1.0000
     1.0000   1.0000   1.0000   1.0000   1.0143   1.0146   1.0146   1.0147
     1.0262   0.9164   0.0000   0.0000   0.0000   0.0000   0.0000   0.0000
     0.0000   0.0000   0.0000   0.0000   0.0000   0.0000   0.0000   0.0000

          k = 0.0000 0.0000 0.1684 ( 11332 PWs)   bands (ev):

   -93.5217 -93.5161 -93.5161 -56.7700 -56.7683 -56.7683 -56.7664 -56.7299
   -56.7299 -56.7219 -56.7128 -56.7128 -52.2214 -24.1387 -24.1387 -24.0985
   -16.8426 -15.1722 -15.1676 -15.1676 -15.1632 -14.9186  -3.0557  -2.9228
    -2.9195  -2.9195  -2.9164  -2.7115  -2.7115  -2.4803  -2.4803  -0.9190
    -0.9099  -0.9099  -0.9019  -0.4919  -0.4919   0.4404   0.7067   0.7067
     0.7265   0.7265   1.0507   1.0507   1.7947   1.7958   1.7958   1.7963
     1.9739   2.1943   3.9510   3.9553   3.9553   3.9590   4.6931   4.6931
     5.7722   9.0448   9.1715   9.1715   9.9556   9.9556  10.4504  10.8285

     occupation numbers 
     1.0000   1.0000   1.0000   1.0000   1.0000   1.0000   1.0000   1.0000
     1.0000   1.0000   1.0000   1.0000   1.0000   1.0000   1.0000   1.0000
     1.0000   1.0000   1.0000   1.0000   1.0000   1.0000   1.0000   1.0000
     1.0000   1.0000   1.0000   1.0000   1.0000   1.0000   1.0000   1.0000
     1.0000   1.0000   1.0000   1.0000   1.0000   1.0000   1.0000   1.0000
     1.0000   1.0000   1.0000   1.0000   1.0144   1.0146   1.0146   1.0147
     1.0651   1.0038   0.0000   0.0000   0.0000   0.0000   0.0000   0.0000
     0.0000   0.0000   0.0000   0.0000   0.0000   0.0000   0.0000   0.0000

          k = 0.0000 0.1925 0.0000 ( 11360 PWs)   bands (ev):

   -93.5213 -93.5164 -93.5163 -56.7773 -56.7743 -56.7589 -56.7568 -56.7347
   -56.7311 -56.7212 -56.7133 -56.7131 -52.2214 -24.1389 -24.1388 -24.0986
   -16.7396 -15.3187 -15.2310 -15.1569 -15.0955 -14.9230  -3.3389  -3.0789
    -2.9394  -2.9296  -2.8092  -2.8038  -2.6421  -2.1209  -1.9283  -1.2277
    -1.1697  -1.0354  -0.9635  -0.1916  -0.1267   0.1431   0.2215   0.7166
     0.8079   0.8748   1.1689   1.4006   1.5330   1.5460   1.8936   1.9642
     1.9674   2.4113   3.9497   3.9719   3.9938   4.0541   4.4100   4.6221
     6.1629   7.4895   8.4795   8.7964   9.2075  10.8413  11.0645  11.6920

     occupation numbers 
     1.0000   1.0000   1.0000   1.0000   1.0000   1.0000   1.0000   1.0000
     1.0000   1.0000   1.0000   1.0000   1.0000   1.0000   1.0000   1.0000
     1.0000   1.0000   1.0000   1.0000   1.0000   1.0000   1.0000   1.0000
     1.0000   1.0000   1.0000   1.0000   1.0000   1.0000   1.0000   1.0000
     1.0000   1.0000   1.0000   1.0000   1.0000   1.0000   1.0000   1.0000
     1.0000   1.0000   1.0000   1.0000   1.0003   1.0003   1.0381   1.0619
     1.0630   0.4958   0.0000   0.0000   0.0000   0.0000   0.0000   0.0000
     0.0000   0.0000   0.0000   0.0000   0.0000   0.0000   0.0000   0.0000

          k = 0.0000 0.1925 0.1684 ( 11375 PWs)   bands (ev):

   -93.5213 -93.5164 -93.5163 -56.7772 -56.7743 -56.7589 -56.7568 -56.7348
   -56.7311 -56.7213 -56.7133 -56.7132 -52.2214 -24.1389 -24.1388 -24.0987
   -16.7396 -15.3187 -15.2309 -15.1569 -15.0955 -14.9231  -3.3389  -3.0789
    -2.9380  -2.9296  -2.8093  -2.8038  -2.6421  -2.1209  -1.9283  -1.2277
    -1.1698  -1.0352  -0.9635  -0.1916  -0.1267   0.1432   0.2199   0.6847
     0.8079   0.8748   1.1689   1.3990   1.5330   1.5461   1.8935   1.9666
     2.0534   2.3807   3.9505   3.9720   3.9935   4.0545   4.4205   4.6205
     6.0006   7.4833   8.4747   9.0990   9.4176  10.7788  11.0604  11.0880

     occupation numbers 
     1.0000   1.0000   1.0000   1.0000   1.0000   1.0000   1.0000   1.0000
     1.0000   1.0000   1.0000   1.0000   1.0000   1.0000   1.0000   1.0000
     1.0000   1.0000   1.0000   1.0000   1.0000   1.0000   1.0000   1.0000
     1.0000   1.0000   1.0000   1.0000   1.0000   1.0000   1.0000   1.0000
     1.0000   1.0000   1.0000   1.0000   1.0000   1.0000   1.0000   1.0000
     1.0000   1.0000   1.0000   1.0000   1.0003   1.0003   1.0381   1.0627
     1.0830   0.5799   0.0000   0.0000   0.0000   0.0000   0.0000   0.0000
     0.0000   0.0000   0.0000   0.0000   0.0000   0.0000   0.0000   0.0000

          k = 0.0000 0.3849 0.0000 ( 11350 PWs)   bands (ev):

   -93.5201 -93.5173 -93.5166 -56.7830 -56.7722 -56.7494 -56.7480 -56.7457
   -56.7347 -56.7193 -56.7147 -56.7137 -52.2214 -24.1391 -24.1389 -24.0986
   -16.4532 -15.6341 -15.2744 -15.2026 -15.0274 -14.9394  -3.7539  -2.9684
    -2.9629  -2.9163  -2.6254  -2.5363  -2.4752  -1.9442  -1.6744  -1.3337
    -1.3223  -1.2454  -0.8084  -0.8000  -0.3834   0.1095   0.4466   0.9075
     1.0426   1.2114   1.2581   1.2643   1.3515   1.7389   1.7451   2.0274
     2.0342   2.9708   3.9167   3.9260   3.9773   3.9920   4.3744   4.4171
     5.6207   6.7339   7.8928   8.5059   9.1405   9.6856  11.3757  11.8076

     occupation numbers 
     1.0000   1.0000   1.0000   1.0000   1.0000   1.0000   1.0000   1.0000
     1.0000   1.0000   1.0000   1.0000   1.0000   1.0000   1.0000   1.0000
     1.0000   1.0000   1.0000   1.0000   1.0000   1.0000   1.0000   1.0000
     1.0000   1.0000   1.0000   1.0000   1.0000   1.0000   1.0000   1.0000
     1.0000   1.0000   1.0000   1.0000   1.0000   1.0000   1.0000   1.0000
     1.0000   1.0000   1.0000   1.0000   1.0000   1.0072   1.0079   1.0797
     1.0809   0.0005   0.0000   0.0000   0.0000   0.0000   0.0000   0.0000
     0.0000   0.0000   0.0000   0.0000   0.0000   0.0000   0.0000   0.0000

          k = 0.0000 0.3849 0.1684 ( 11369 PWs)   bands (ev):

   -93.5201 -93.5173 -93.5166 -56.7830 -56.7721 -56.7495 -56.7480 -56.7458
   -56.7347 -56.7193 -56.7148 -56.7137 -52.2214 -24.1391 -24.1389 -24.0987
   -16.4532 -15.6341 -15.2744 -15.2026 -15.0274 -14.9394  -3.7538  -2.9687
    -2.9630  -2.9163  -2.6244  -2.5362  -2.4752  -1.9442  -1.6744  -1.3333
    -1.3223  -1.2455  -0.8084  -0.7997  -0.3834   0.1098   0.4464   0.9075
     1.0275   1.2114   1.2582   1.2643   1.3519   1.7338   1.7449   2.0331
     2.0489   2.9679   3.9202   3.9521   3.9774   3.9968   4.3746   4.4068
     5.6187   6.6323   7.8863   8.5023   9.1479  10.0494  11.4463  11.7064

     occupation numbers 
     1.0000   1.0000   1.0000   1.0000   1.0000   1.0000   1.0000   1.0000
     1.0000   1.0000   1.0000   1.0000   1.0000   1.0000   1.0000   1.0000
     1.0000   1.0000   1.0000   1.0000   1.0000   1.0000   1.0000   1.0000
     1.0000   1.0000   1.0000   1.0000   1.0000   1.0000   1.0000   1.0000
     1.0000   1.0000   1.0000   1.0000   1.0000   1.0000   1.0000   1.0000
     1.0000   1.0000   1.0000   1.0000   1.0000   1.0068   1.0078   1.0807
     1.0827   0.0005   0.0000   0.0000   0.0000   0.0000   0.0000   0.0000
     0.0000   0.0000   0.0000   0.0000   0.0000   0.0000   0.0000   0.0000

          k = 0.0000-0.5774 0.0000 ( 11352 PWs)   bands (ev):

   -93.5186 -93.5186 -93.5168 -56.7851 -56.7627 -56.7607 -56.7439 -56.7409
   -56.7399 -56.7169 -56.7168 -56.7139 -52.2214 -24.1393 -24.1390 -24.0985
   -16.0523 -16.0475 -15.2898 -15.2278 -14.9762 -14.9709  -3.9054  -3.0223
    -3.0185  -2.5252  -2.5246  -2.2112  -2.1879  -2.1791  -2.0564  -1.4361
    -1.4325  -1.2807  -0.9285  -0.9269  -0.4226   0.2316   0.9168   0.9584
     0.9630   1.1100   1.2232   1.2260   1.5897   1.7794   1.7872   1.9482
     1.9543   3.7701   3.7766   3.7786   3.9756   4.0826   4.2162   4.3900
     4.5706   7.4123   7.6934   8.0737   8.2884  10.7512  10.9472  11.1574

     occupation numbers 
     1.0000   1.0000   1.0000   1.0000   1.0000   1.0000   1.0000   1.0000
     1.0000   1.0000   1.0000   1.0000   1.0000   1.0000   1.0000   1.0000
     1.0000   1.0000   1.0000   1.0000   1.0000   1.0000   1.0000   1.0000
     1.0000   1.0000   1.0000   1.0000   1.0000   1.0000   1.0000   1.0000
     1.0000   1.0000   1.0000   1.0000   1.0000   1.0000   1.0000   1.0000
     1.0000   1.0000   1.0000   1.0000   1.0007   1.0120   1.0132   1.0564
     1.0585   0.0000   0.0000   0.0000   0.0000   0.0000   0.0000   0.0000
     0.0000   0.0000   0.0000   0.0000   0.0000   0.0000   0.0000   0.0000

          k = 0.0000-0.5774 0.1684 ( 11376 PWs)   bands (ev):

   -93.5186 -93.5186 -93.5168 -56.7851 -56.7627 -56.7608 -56.7439 -56.7409
   -56.7399 -56.7170 -56.7169 -56.7139 -52.2214 -24.1393 -24.1390 -24.0986
   -16.0523 -16.0475 -15.2898 -15.2278 -14.9762 -14.9709  -3.9054  -3.0226
    -3.0187  -2.5251  -2.5246  -2.2111  -2.1875  -2.1789  -2.0564  -1.4354
    -1.4321  -1.2808  -0.9285  -0.9269  -0.4224   0.2321   0.9167   0.9562
     0.9617   1.1100   1.2233   1.2262   1.5896   1.7830   1.7892   1.9432
     1.9515   3.6350   3.7439   3.9620   3.9814   4.1372   4.1731   4.3802
     4.5706   7.3761   7.6863   8.0311   8.2850  10.9073  11.1269  11.2377

     occupation numbers 
     1.0000   1.0000   1.0000   1.0000   1.0000   1.0000   1.0000   1.0000
     1.0000   1.0000   1.0000   1.0000   1.0000   1.0000   1.0000   1.0000
     1.0000   1.0000   1.0000   1.0000   1.0000   1.0000   1.0000   1.0000
     1.0000   1.0000   1.0000   1.0000   1.0000   1.0000   1.0000   1.0000
     1.0000   1.0000   1.0000   1.0000   1.0000   1.0000   1.0000   1.0000
     1.0000   1.0000   1.0000   1.0000   1.0007   1.0126   1.0135   1.0547
     1.0575   0.0000   0.0000   0.0000   0.0000   0.0000   0.0000   0.0000
     0.0000   0.0000   0.0000   0.0000   0.0000   0.0000   0.0000   0.0000

          k = 0.1667 0.2887 0.0000 ( 11373 PWs)   bands (ev):

   -93.5205 -93.5168 -93.5168 -56.7788 -56.7771 -56.7512 -56.7496 -56.7434
   -56.7331 -56.7199 -56.7139 -56.7139 -52.2214 -24.1391 -24.1390 -24.0986
   -16.5449 -15.4342 -15.4296 -15.0885 -15.0838 -14.9337  -3.4189  -3.4160
    -2.9438  -2.7220  -2.7192  -2.7176  -2.5122  -1.7952  -1.7934  -1.2590
    -1.2543  -1.1049  -1.0990  -0.6637  -0.0581   0.1452   0.1517   0.8946
     1.0407   1.0411   1.2803   1.3452   1.3457   1.6121   1.9170   1.9179
     2.0435   2.7720   3.9205   3.9261   3.9813   4.1748   4.1790   4.5448
     6.5325   6.5488   6.8341   9.3905   9.8700  10.2868  10.4541  10.8010

     occupation numbers 
     1.0000   1.0000   1.0000   1.0000   1.0000   1.0000   1.0000   1.0000
     1.0000   1.0000   1.0000   1.0000   1.0000   1.0000   1.0000   1.0000
     1.0000   1.0000   1.0000   1.0000   1.0000   1.0000   1.0000   1.0000
     1.0000   1.0000   1.0000   1.0000   1.0000   1.0000   1.0000   1.0000
     1.0000   1.0000   1.0000   1.0000   1.0000   1.0000   1.0000   1.0000
     1.0000   1.0000   1.0000   1.0000   1.0000   1.0011   1.0457   1.0460
     1.0822   0.0145   0.0000   0.0000   0.0000   0.0000   0.0000   0.0000
     0.0000   0.0000   0.0000   0.0000   0.0000   0.0000   0.0000   0.0000

          k = 0.1667 0.2887 0.1684 ( 11359 PWs)   bands (ev):

   -93.5205 -93.5168 -93.5168 -56.7788 -56.7770 -56.7511 -56.7495 -56.7434
   -56.7332 -56.7199 -56.7139 -56.7139 -52.2214 -24.1390 -24.1389 -24.0986
   -16.5449 -15.4342 -15.4296 -15.0885 -15.0838 -14.9337  -3.4189  -3.4160
    -2.9441  -2.7220  -2.7192  -2.7164  -2.5123  -1.7953  -1.7935  -1.2588
    -1.2542  -1.1049  -1.0990  -0.6632  -0.0581   0.1454   0.1518   0.8797
     1.0407   1.0411   1.2708   1.3453   1.3458   1.6121   1.9168   1.9178
     2.0812   2.7585   3.9195   3.9252   4.0157   4.1758   4.1799   4.5447
     6.4083   6.5324   6.8331   9.7969   9.8980  10.2816  10.4637  10.8123

     occupation numbers 
     1.0000   1.0000   1.0000   1.0000   1.0000   1.0000   1.0000   1.0000
     1.0000   1.0000   1.0000   1.0000   1.0000   1.0000   1.0000   1.0000
     1.0000   1.0000   1.0000   1.0000   1.0000   1.0000   1.0000   1.0000
     1.0000   1.0000   1.0000   1.0000   1.0000   1.0000   1.0000   1.0000
     1.0000   1.0000   1.0000   1.0000   1.0000   1.0000   1.0000   1.0000
     1.0000   1.0000   1.0000   1.0000   1.0000   1.0011   1.0456   1.0460
     1.0821   0.0175   0.0000   0.0000   0.0000   0.0000   0.0000   0.0000
     0.0000   0.0000   0.0000   0.0000   0.0000   0.0000   0.0000   0.0000

          k = 0.1667 0.4811 0.0000 ( 11356 PWs)   bands (ev):

   -93.5191 -93.5178 -93.5170 -56.7810 -56.7709 -56.7578 -56.7443 -56.7421
   -56.7370 -56.7178 -56.7156 -56.7144 -52.2214 -24.1392 -24.1390 -24.0986
   -16.2005 -15.7926 -15.5048 -15.0959 -15.0111 -14.9607  -3.6867  -3.2072
    -3.0684  -2.6128  -2.4352  -2.4341  -2.3080  -2.0227  -1.9826  -1.4813
    -1.4568  -1.2966  -0.8783  -0.6047  -0.4897   0.2859   0.6378   0.9490
     1.0987   1.2311   1.2518   1.3350   1.4912   1.6881   1.7355   1.9073
     1.9374   3.5039   3.7275   3.7544   3.8846   4.2803   4.4254   4.4909
     4.9915   6.2833   7.2545   8.5826   9.8250  10.0534  10.4123  11.6265

     occupation numbers 
     1.0000   1.0000   1.0000   1.0000   1.0000   1.0000   1.0000   1.0000
     1.0000   1.0000   1.0000   1.0000   1.0000   1.0000   1.0000   1.0000
     1.0000   1.0000   1.0000   1.0000   1.0000   1.0000   1.0000   1.0000
     1.0000   1.0000   1.0000   1.0000   1.0000   1.0000   1.0000   1.0000
     1.0000   1.0000   1.0000   1.0000   1.0000   1.0000   1.0000   1.0000
     1.0000   1.0000   1.0000   1.0000   1.0001   1.0036   1.0069   1.0425
     1.0527   0.0000   0.0000   0.0000   0.0000   0.0000   0.0000   0.0000
     0.0000   0.0000   0.0000   0.0000   0.0000   0.0000   0.0000   0.0000

          k = 0.1667 0.4811 0.1684 ( 11345 PWs)   bands (ev):

   -93.5191 -93.5178 -93.5170 -56.7810 -56.7710 -56.7578 -56.7443 -56.7421
   -56.7369 -56.7178 -56.7155 -56.7144 -52.2214 -24.1392 -24.1389 -24.0986
   -16.2005 -15.7926 -15.5048 -15.0959 -15.0111 -14.9607  -3.6867  -3.2073
    -3.0687  -2.6128  -2.4349  -2.4340  -2.3078  -2.0227  -1.9826  -1.4808
    -1.4563  -1.2965  -0.8783  -0.6047  -0.4897   0.2862   0.6378   0.9471
     1.0987   1.2311   1.2518   1.3318   1.4916   1.6881   1.7335   1.9070
     1.9448   3.4038   3.7296   3.8611   3.8894   4.2868   4.4196   4.4912
     5.0069   6.2900   7.1699   8.5429   9.8061  10.0587  10.7012  11.7660

     occupation numbers 
     1.0000   1.0000   1.0000   1.0000   1.0000   1.0000   1.0000   1.0000
     1.0000   1.0000   1.0000   1.0000   1.0000   1.0000   1.0000   1.0000
     1.0000   1.0000   1.0000   1.0000   1.0000   1.0000   1.0000   1.0000
     1.0000   1.0000   1.0000   1.0000   1.0000   1.0000   1.0000   1.0000
     1.0000   1.0000   1.0000   1.0000   1.0000   1.0000   1.0000   1.0000
     1.0000   1.0000   1.0000   1.0000   1.0001   1.0036   1.0067   1.0424
     1.0552   0.0000   0.0000   0.0000   0.0000   0.0000   0.0000   0.0000
     0.0000   0.0000   0.0000   0.0000   0.0000   0.0000   0.0000   0.0000

          k = 0.3333 0.5774 0.0000 ( 11370 PWs)   bands (ev):

   -93.5180 -93.5180 -93.5180 -56.7721 -56.7721 -56.7694 -56.7417 -56.7390
   -56.7390 -56.7159 -56.7159 -56.7159 -52.2214 -24.1392 -24.1392 -24.0987
   -15.8572 -15.8501 -15.8501 -15.0139 -15.0062 -15.0062  -3.3230  -3.3170
    -3.3170  -2.4426  -2.4406  -2.4406  -2.1515  -2.1515  -2.1488  -1.5647
    -1.5502  -1.5502  -0.5279  -0.5279  -0.5257   0.6363   0.6433   0.6433
     1.2978   1.3011   1.3011   1.4990   1.5005   1.5005   1.7584   1.7667
     1.7667   3.6396   3.6703   3.6703   4.3536   4.4959   4.4959   4.4993
     4.9520   4.9520   7.7470   8.6575   8.6575  11.1542  11.5070  11.5071

     occupation numbers 
     1.0000   1.0000   1.0000   1.0000   1.0000   1.0000   1.0000   1.0000
     1.0000   1.0000   1.0000   1.0000   1.0000   1.0000   1.0000   1.0000
     1.0000   1.0000   1.0000   1.0000   1.0000   1.0000   1.0000   1.0000
     1.0000   1.0000   1.0000   1.0000   1.0000   1.0000   1.0000   1.0000
     1.0000   1.0000   1.0000   1.0000   1.0000   1.0000   1.0000   1.0000
     1.0000   1.0000   1.0000   1.0001   1.0001   1.0001   1.0093   1.0103
     1.0103   0.0000   0.0000   0.0000   0.0000   0.0000   0.0000   0.0000
     0.0000   0.0000   0.0000   0.0000   0.0000   0.0000   0.0000   0.0000

          k = 0.3333 0.5774 0.1684 ( 11352 PWs)   bands (ev):

   -93.5180 -93.5180 -93.5180 -56.7721 -56.7721 -56.7694 -56.7416 -56.7389
   -56.7389 -56.7159 -56.7159 -56.7159 -52.2214 -24.1391 -24.1391 -24.0986
   -15.8572 -15.8501 -15.8501 -15.0139 -15.0062 -15.0062  -3.3232  -3.3171
    -3.3171  -2.4427  -2.4406  -2.4406  -2.1515  -2.1515  -2.1487  -1.5639
    -1.5498  -1.5498  -0.5279  -0.5279  -0.5257   0.6364   0.6433   0.6433
     1.2970   1.3007   1.3007   1.4990   1.5005   1.5005   1.7602   1.7676
     1.7676   3.5972   3.6551   3.6551   4.4136   4.4960   4.4960   4.4994
     4.9803   4.9803   7.6930   8.5970   8.5970  11.3266  11.7290  11.7292

     occupation numbers 
     1.0000   1.0000   1.0000   1.0000   1.0000   1.0000   1.0000   1.0000
     1.0000   1.0000   1.0000   1.0000   1.0000   1.0000   1.0000   1.0000
     1.0000   1.0000   1.0000   1.0000   1.0000   1.0000   1.0000   1.0000
     1.0000   1.0000   1.0000   1.0000   1.0000   1.0000   1.0000   1.0000
     1.0000   1.0000   1.0000   1.0000   1.0000   1.0000   1.0000   1.0000
     1.0000   1.0000   1.0000   1.0001   1.0001   1.0001   1.0095   1.0104
     1.0104   0.0000   0.0000   0.0000   0.0000   0.0000   0.0000   0.0000
     0.0000   0.0000   0.0000   0.0000   0.0000   0.0000   0.0000   0.0000

          k =-0.1667-0.2887 0.1684 ( 11359 PWs)   bands (ev):

   -93.5205 -93.5168 -93.5168 -56.7788 -56.7770 -56.7511 -56.7495 -56.7434
   -56.7332 -56.7199 -56.7139 -56.7139 -52.2214 -24.1390 -24.1389 -24.0986
   -16.5449 -15.4342 -15.4296 -15.0885 -15.0838 -14.9337  -3.4189  -3.4160
    -2.9440  -2.7220  -2.7192  -2.7166  -2.5123  -1.7952  -1.7934  -1.2588
    -1.2543  -1.1047  -1.0989  -0.6634  -0.0581   0.1453   0.1517   0.8796
     1.0408   1.0411   1.2716   1.3453   1.3458   1.6121   1.9165   1.9177
     2.0734   2.7821   3.9214   3.9270   3.9846   4.1749   4.1791   4.5447
     6.4440   6.5239   6.8252   9.7435   9.9248  10.2867  10.5208  10.8160

     occupation numbers 
     1.0000   1.0000   1.0000   1.0000   1.0000   1.0000   1.0000   1.0000
     1.0000   1.0000   1.0000   1.0000   1.0000   1.0000   1.0000   1.0000
     1.0000   1.0000   1.0000   1.0000   1.0000   1.0000   1.0000   1.0000
     1.0000   1.0000   1.0000   1.0000   1.0000   1.0000   1.0000   1.0000
     1.0000   1.0000   1.0000   1.0000   1.0000   1.0000   1.0000   1.0000
     1.0000   1.0000   1.0000   1.0000   1.0000   1.0011   1.0455   1.0459
     1.0829   0.0125   0.0000   0.0000   0.0000   0.0000   0.0000   0.0000
     0.0000   0.0000   0.0000   0.0000   0.0000   0.0000   0.0000   0.0000

          k =-0.1667-0.4811 0.1684 ( 11345 PWs)   bands (ev):

   -93.5191 -93.5178 -93.5170 -56.7810 -56.7710 -56.7578 -56.7443 -56.7421
   -56.7369 -56.7178 -56.7155 -56.7144 -52.2214 -24.1392 -24.1389 -24.0986
   -16.2005 -15.7926 -15.5048 -15.0959 -15.0111 -14.9607  -3.6867  -3.2073
    -3.0686  -2.6129  -2.4350  -2.4341  -2.3079  -2.0228  -1.9826  -1.4806
    -1.4562  -1.2964  -0.8783  -0.6047  -0.4897   0.2860   0.6374   0.9461
     1.0989   1.2311   1.2519   1.3326   1.4918   1.6878   1.7349   1.9055
     1.9386   3.5098   3.7356   3.7557   3.8855   4.2811   4.4234   4.4910
     4.9870   6.2727   7.2219   8.5982   9.8977  10.0638  10.5719  11.6078

     occupation numbers 
     1.0000   1.0000   1.0000   1.0000   1.0000   1.0000   1.0000   1.0000
     1.0000   1.0000   1.0000   1.0000   1.0000   1.0000   1.0000   1.0000
     1.0000   1.0000   1.0000   1.0000   1.0000   1.0000   1.0000   1.0000
     1.0000   1.0000   1.0000   1.0000   1.0000   1.0000   1.0000   1.0000
     1.0000   1.0000   1.0000   1.0000   1.0000   1.0000   1.0000   1.0000
     1.0000   1.0000   1.0000   1.0000   1.0001   1.0036   1.0069   1.0419
     1.0531   0.0000   0.0000   0.0000   0.0000   0.0000   0.0000   0.0000
     0.0000   0.0000   0.0000   0.0000   0.0000   0.0000   0.0000   0.0000

          k =-0.3333-0.5774 0.1684 ( 11352 PWs)   bands (ev):

   -93.5180 -93.5180 -93.5180 -56.7721 -56.7721 -56.7694 -56.7416 -56.7389
   -56.7389 -56.7159 -56.7159 -56.7159 -52.2214 -24.1391 -24.1391 -24.0986
   -15.8572 -15.8501 -15.8501 -15.0139 -15.0062 -15.0062  -3.3232  -3.3171
    -3.3171  -2.4428  -2.4407  -2.4407  -2.1515  -2.1515  -2.1488  -1.5637
    -1.5497  -1.5497  -0.5279  -0.5279  -0.5257   0.6355   0.6429   0.6429
     1.2978   1.3011   1.3011   1.4990   1.5005   1.5005   1.7569   1.7660
     1.7660   3.6459   3.6725   3.6725   4.3452   4.4960   4.4960   4.4994
     4.9469   4.9469   7.7666   8.6857   8.6857  11.1262  11.4672  11.4674

     occupation numbers 
     1.0000   1.0000   1.0000   1.0000   1.0000   1.0000   1.0000   1.0000
     1.0000   1.0000   1.0000   1.0000   1.0000   1.0000   1.0000   1.0000
     1.0000   1.0000   1.0000   1.0000   1.0000   1.0000   1.0000   1.0000
     1.0000   1.0000   1.0000   1.0000   1.0000   1.0000   1.0000   1.0000
     1.0000   1.0000   1.0000   1.0000   1.0000   1.0000   1.0000   1.0000
     1.0000   1.0000   1.0000   1.0001   1.0001   1.0001   1.0091   1.0102
     1.0102   0.0000   0.0000   0.0000   0.0000   0.0000   0.0000   0.0000
     0.0000   0.0000   0.0000   0.0000   0.0000   0.0000   0.0000   0.0000

 ------ SPIN DOWN ----------


          k = 0.0000 0.0000 0.0000 ( 11393 PWs)   bands (ev):

   -92.7221 -92.7163 -92.7163 -56.0425 -56.0420 -56.0420 -56.0416 -56.0021
   -56.0021 -55.8390 -55.8294 -55.8294 -52.2247 -24.1432 -24.1432 -24.1020
   -16.7283 -15.0504 -15.0420 -15.0420 -15.0342 -14.7947  -2.7432  -2.7384
    -2.7384  -2.7339  -2.7047  -2.4550  -2.4550  -2.3761  -2.3761  -0.6177
    -0.6042  -0.6042  -0.5922  -0.4051  -0.4051   0.6626   1.1379   1.1379
     1.3990   1.3990   1.7789   1.7789   1.9367   2.4621   2.4656   2.4656
     2.4688   2.9757   4.3000   4.3049   4.3049   4.3095   5.0339   5.0339
     5.9576   8.5521   9.1391   9.1391   9.8556   9.8556  10.5026  10.6977

     occupation numbers 
     1.0000   1.0000   1.0000   1.0000   1.0000   1.0000   1.0000   1.0000
     1.0000   1.0000   1.0000   1.0000   1.0000   1.0000   1.0000   1.0000
     1.0000   1.0000   1.0000   1.0000   1.0000   1.0000   1.0000   1.0000
     1.0000   1.0000   1.0000   1.0000   1.0000   1.0000   1.0000   1.0000
     1.0000   1.0000   1.0000   1.0000   1.0000   1.0000   1.0000   1.0000
     1.0000   1.0000   1.0120   1.0120   1.0524   0.3650   0.3566   0.3566
     0.3490   0.0005   0.0000   0.0000   0.0000   0.0000   0.0000   0.0000
     0.0000   0.0000   0.0000   0.0000   0.0000   0.0000   0.0000   0.0000

          k = 0.0000 0.0000 0.1684 ( 11332 PWs)   bands (ev):

   -92.7221 -92.7163 -92.7163 -56.0424 -56.0419 -56.0419 -56.0415 -56.0021
   -56.0021 -55.8389 -55.8293 -55.8293 -52.2247 -24.1431 -24.1431 -24.1018
   -16.7283 -15.0503 -15.0420 -15.0420 -15.0342 -14.7947  -2.7431  -2.7383
    -2.7383  -2.7338  -2.7024  -2.4550  -2.4550  -2.3760  -2.3760  -0.6176
    -0.6042  -0.6042  -0.5922  -0.4051  -0.4051   0.6117   1.1379   1.1379
     1.3990   1.3990   1.7789   1.7789   2.0562   2.4621   2.4656   2.4656
     2.4688   2.9366   4.3000   4.3053   4.3053   4.3098   5.0339   5.0339
     5.7774   9.1060   9.1363   9.1363   9.8521   9.8521  10.4485  10.6894

     occupation numbers 
     1.0000   1.0000   1.0000   1.0000   1.0000   1.0000   1.0000   1.0000
     1.0000   1.0000   1.0000   1.0000   1.0000   1.0000   1.0000   1.0000
     1.0000   1.0000   1.0000   1.0000   1.0000   1.0000   1.0000   1.0000
     1.0000   1.0000   1.0000   1.0000   1.0000   1.0000   1.0000   1.0000
     1.0000   1.0000   1.0000   1.0000   1.0000   1.0000   1.0000   1.0000
     1.0000   1.0000   1.0120   1.0120   1.0832   0.3650   0.3566   0.3566
     0.3490   0.0010   0.0000   0.0000   0.0000   0.0000   0.0000   0.0000
     0.0000   0.0000   0.0000   0.0000   0.0000   0.0000   0.0000   0.0000

          k = 0.0000 0.1925 0.0000 ( 11360 PWs)   bands (ev):

   -92.7216 -92.7166 -92.7165 -56.0510 -56.0485 -56.0318 -56.0305 -56.0071
   -56.0034 -55.8381 -55.8298 -55.8296 -52.2247 -24.1433 -24.1432 -24.1018
   -16.6249 -15.1954 -15.1071 -15.0303 -14.9685 -14.7987  -3.1689  -2.9220
    -2.7321  -2.6358  -2.5874  -2.5603  -2.3905  -1.9944  -1.7892  -1.0207
    -0.9563  -0.7111  -0.6501  -0.0028   0.0635   0.4264   0.5662   0.9110
     1.7131   1.8270   1.8324   1.8846   2.1517   2.2339   2.2427   2.5324
     2.5965   3.0071   4.2967   4.3410   4.3502   4.3926   4.7490   4.9580
     6.1698   7.4206   8.4202   8.8359   9.1436  10.8412  10.9876  11.6466

     occupation numbers 
     1.0000   1.0000   1.0000   1.0000   1.0000   1.0000   1.0000   1.0000
     1.0000   1.0000   1.0000   1.0000   1.0000   1.0000   1.0000   1.0000
     1.0000   1.0000   1.0000   1.0000   1.0000   1.0000   1.0000   1.0000
     1.0000   1.0000   1.0000   1.0000   1.0000   1.0000   1.0000   1.0000
     1.0000   1.0000   1.0000   1.0000   1.0000   1.0000   1.0000   1.0000
     1.0051   1.0205   1.0217   1.0354   1.0499   0.9407   0.9240   0.2163
     0.1209   0.0002   0.0000   0.0000   0.0000   0.0000   0.0000   0.0000
     0.0000   0.0000   0.0000   0.0000   0.0000   0.0000   0.0000   0.0000

          k = 0.0000 0.1925 0.1684 ( 11375 PWs)   bands (ev):

   -92.7217 -92.7166 -92.7165 -56.0510 -56.0485 -56.0318 -56.0305 -56.0072
   -56.0034 -55.8382 -55.8298 -55.8296 -52.2247 -24.1433 -24.1432 -24.1019
   -16.6249 -15.1954 -15.1070 -15.0303 -14.9685 -14.7987  -3.1689  -2.9220
    -2.7321  -2.6358  -2.5855  -2.5606  -2.3905  -1.9944  -1.7892  -1.0208
    -0.9564  -0.7109  -0.6502  -0.0027   0.0636   0.4270   0.5609   0.8731
     1.7135   1.8207   1.8323   1.8846   2.2331   2.2423   2.2699   2.5323
     2.5963   2.9604   4.2978   4.3411   4.3499   4.3930   4.7628   4.9560
     6.0067   7.4143   8.4151   9.0175   9.4758  10.8116  10.9837  11.1294

     occupation numbers 
     1.0000   1.0000   1.0000   1.0000   1.0000   1.0000   1.0000   1.0000
     1.0000   1.0000   1.0000   1.0000   1.0000   1.0000   1.0000   1.0000
     1.0000   1.0000   1.0000   1.0000   1.0000   1.0000   1.0000   1.0000
     1.0000   1.0000   1.0000   1.0000   1.0000   1.0000   1.0000   1.0000
     1.0000   1.0000   1.0000   1.0000   1.0000   1.0000   1.0000   1.0000
     1.0051   1.0192   1.0217   1.0354   0.9422   0.9249   0.8675   0.2164
     0.1211   0.0006   0.0000   0.0000   0.0000   0.0000   0.0000   0.0000
     0.0000   0.0000   0.0000   0.0000   0.0000   0.0000   0.0000   0.0000

          k = 0.0000 0.3849 0.0000 ( 11350 PWs)   bands (ev):

   -92.7204 -92.7175 -92.7168 -56.0572 -56.0460 -56.0218 -56.0203 -56.0197
   -56.0072 -55.8361 -55.8312 -55.8302 -52.2247 -24.1435 -24.1433 -24.1018
   -16.3371 -15.5133 -15.1519 -15.0755 -14.9002 -14.8138  -3.5799  -2.7531
    -2.7521  -2.7342  -2.3810  -2.2892  -2.2336  -1.7728  -1.4866  -1.0426
    -1.0318  -0.9932  -0.6251  -0.5705  -0.0819   0.3086   0.6607   1.2215
     1.8659   1.8740   2.0006   2.0236   2.2308   2.2377   2.3889   2.6145
     2.7067   3.0610   4.2634   4.2820   4.3286   4.3808   4.6961   4.7440
     5.5467   6.7424   7.8290   8.4077   9.1395   9.7580  11.3697  11.8220

     occupation numbers 
     1.0000   1.0000   1.0000   1.0000   1.0000   1.0000   1.0000   1.0000
     1.0000   1.0000   1.0000   1.0000   1.0000   1.0000   1.0000   1.0000
     1.0000   1.0000   1.0000   1.0000   1.0000   1.0000   1.0000   1.0000
     1.0000   1.0000   1.0000   1.0000   1.0000   1.0000   1.0000   1.0000
     1.0000   1.0000   1.0000   1.0000   1.0000   1.0000   1.0000   1.0000
     1.0300   1.0322   1.0733   1.0790   0.9463   0.9336   0.5570   0.1008
     0.0349   0.0001   0.0000   0.0000   0.0000   0.0000   0.0000   0.0000
     0.0000   0.0000   0.0000   0.0000   0.0000   0.0000   0.0000   0.0000

          k = 0.0000 0.3849 0.1684 ( 11369 PWs)   bands (ev):

   -92.7204 -92.7175 -92.7168 -56.0572 -56.0460 -56.0219 -56.0203 -56.0198
   -56.0072 -55.8362 -55.8313 -55.8302 -52.2247 -24.1435 -24.1433 -24.1019
   -16.3371 -15.5133 -15.1519 -15.0755 -14.9002 -14.8138  -3.5798  -2.7532
    -2.7521  -2.7346  -2.3809  -2.2881  -2.2334  -1.7728  -1.4866  -1.0426
    -1.0319  -0.9927  -0.6252  -0.5698  -0.0820   0.3088   0.6605   1.2022
     1.8658   1.8740   2.0006   2.0236   2.2203   2.2379   2.3888   2.6129
     2.8128   2.9867   4.2731   4.2980   4.3370   4.3808   4.6964   4.7329
     5.5455   6.6373   7.8223   8.4044   9.1464  10.1257  11.4403  11.7529

     occupation numbers 
     1.0000   1.0000   1.0000   1.0000   1.0000   1.0000   1.0000   1.0000
     1.0000   1.0000   1.0000   1.0000   1.0000   1.0000   1.0000   1.0000
     1.0000   1.0000   1.0000   1.0000   1.0000   1.0000   1.0000   1.0000
     1.0000   1.0000   1.0000   1.0000   1.0000   1.0000   1.0000   1.0000
     1.0000   1.0000   1.0000   1.0000   1.0000   1.0000   1.0000   1.0000
     1.0300   1.0322   1.0733   1.0790   0.9646   0.9334   0.5575   0.1025
     0.0079   0.0004   0.0000   0.0000   0.0000   0.0000   0.0000   0.0000
     0.0000   0.0000   0.0000   0.0000   0.0000   0.0000   0.0000   0.0000

          k = 0.0000-0.5774 0.0000 ( 11352 PWs)   bands (ev):

   -92.7189 -92.7189 -92.7170 -56.0594 -56.0354 -56.0349 -56.0159 -56.0136
   -56.0132 -55.8336 -55.8336 -55.8304 -52.2247 -24.1437 -24.1433 -24.1018
   -15.9358 -15.9277 -15.1679 -15.1005 -14.8512 -14.8425  -3.7294  -2.8027
    -2.7983  -2.3211  -2.3201  -2.1082  -1.9151  -1.9038  -1.8234  -1.1713
    -1.1644  -0.9177  -0.6787  -0.6745  -0.3376   0.4075   1.1534   1.1623
     1.8066   1.8940   1.9407   1.9418   2.2951   2.4879   2.4957   2.6370
     2.6466   3.7559   4.1213   4.1319   4.1529   4.3950   4.5200   4.5485
     4.8846   7.4217   7.6286   8.0720   8.1900  10.8178  11.0198  11.1518

     occupation numbers 
     1.0000   1.0000   1.0000   1.0000   1.0000   1.0000   1.0000   1.0000
     1.0000   1.0000   1.0000   1.0000   1.0000   1.0000   1.0000   1.0000
     1.0000   1.0000   1.0000   1.0000   1.0000   1.0000   1.0000   1.0000
     1.0000   1.0000   1.0000   1.0000   1.0000   1.0000   1.0000   1.0000
     1.0000   1.0000   1.0000   1.0000   1.0000   1.0000   1.0000   1.0000
     1.0165   1.0382   1.0538   1.0542   0.8086   0.3055   0.2884   0.0794
     0.0714   0.0000   0.0000   0.0000   0.0000   0.0000   0.0000   0.0000
     0.0000   0.0000   0.0000   0.0000   0.0000   0.0000   0.0000   0.0000

          k = 0.0000-0.5774 0.1684 ( 11376 PWs)   bands (ev):

   -92.7189 -92.7189 -92.7170 -56.0594 -56.0355 -56.0350 -56.0159 -56.0136
   -56.0132 -55.8336 -55.8336 -55.8304 -52.2247 -24.1437 -24.1433 -24.1019
   -15.9358 -15.9278 -15.1679 -15.1005 -14.8512 -14.8425  -3.7295  -2.8031
    -2.7985  -2.3211  -2.3201  -2.1081  -1.9147  -1.9036  -1.8234  -1.1702
    -1.1637  -0.9177  -0.6787  -0.6745  -0.3375   0.4079   1.1501   1.1604
     1.8065   1.8940   1.9407   1.9418   2.2950   2.4804   2.4918   2.6435
     2.6499   3.7140   4.0076   4.2098   4.3286   4.3949   4.4887   4.5089
     4.8847   7.3819   7.6215   8.0267   8.1873  10.9760  11.2025  11.2318

     occupation numbers 
     1.0000   1.0000   1.0000   1.0000   1.0000   1.0000   1.0000   1.0000
     1.0000   1.0000   1.0000   1.0000   1.0000   1.0000   1.0000   1.0000
     1.0000   1.0000   1.0000   1.0000   1.0000   1.0000   1.0000   1.0000
     1.0000   1.0000   1.0000   1.0000   1.0000   1.0000   1.0000   1.0000
     1.0000   1.0000   1.0000   1.0000   1.0000   1.0000   1.0000   1.0000
     1.0164   1.0382   1.0538   1.0542   0.8088   0.3221   0.2968   0.0739
     0.0688   0.0000   0.0000   0.0000   0.0000   0.0000   0.0000   0.0000
     0.0000   0.0000   0.0000   0.0000   0.0000   0.0000   0.0000   0.0000

          k = 0.1667 0.2887 0.0000 ( 11373 PWs)   bands (ev):

   -92.7208 -92.7170 -92.7170 -56.0522 -56.0518 -56.0234 -56.0230 -56.0164
   -56.0055 -55.8368 -55.8304 -55.8304 -52.2247 -24.1435 -24.1433 -24.1018
   -16.4293 -15.3136 -15.3055 -14.9634 -14.9550 -14.8085  -3.2417  -3.2378
    -2.7052  -2.5525  -2.5487  -2.3744  -2.2692  -1.6186  -1.6160  -1.0479
    -1.0441  -0.8091  -0.7975  -0.4238   0.2660   0.3538   0.3645   1.1041
     1.8578   1.9930   1.9946   2.0668   2.0691   2.1060   2.5303   2.5334
     2.5542   3.0280   4.3005   4.3080   4.3335   4.5043   4.5095   4.8695
     6.4745   6.5563   6.7386   9.4566   9.8704  10.2177  10.4508  10.7219

     occupation numbers 
     1.0000   1.0000   1.0000   1.0000   1.0000   1.0000   1.0000   1.0000
     1.0000   1.0000   1.0000   1.0000   1.0000   1.0000   1.0000   1.0000
     1.0000   1.0000   1.0000   1.0000   1.0000   1.0000   1.0000   1.0000
     1.0000   1.0000   1.0000   1.0000   1.0000   1.0000   1.0000   1.0000
     1.0000   1.0000   1.0000   1.0000   1.0000   1.0000   1.0000   1.0000
     1.0278   1.0711   1.0716   1.0833   1.0832   1.0763   0.2201   0.2145
     0.1795   0.0002   0.0000   0.0000   0.0000   0.0000   0.0000   0.0000
     0.0000   0.0000   0.0000   0.0000   0.0000   0.0000   0.0000   0.0000

          k = 0.1667 0.2887 0.1684 ( 11359 PWs)   bands (ev):

   -92.7208 -92.7170 -92.7170 -56.0522 -56.0517 -56.0234 -56.0229 -56.0164
   -56.0056 -55.8368 -55.8304 -55.8304 -52.2247 -24.1434 -24.1432 -24.1019
   -16.4293 -15.3136 -15.3055 -14.9634 -14.9550 -14.8085  -3.2417  -3.2378
    -2.7057  -2.5525  -2.5486  -2.3728  -2.2692  -1.6187  -1.6160  -1.0479
    -1.0440  -0.8090  -0.7974  -0.4229   0.2660   0.3540   0.3646   1.0797
     1.8490   1.9930   1.9946   2.0669   2.0692   2.1061   2.5302   2.5332
     2.6666   2.9499   4.2993   4.3067   4.3702   4.5057   4.5106   4.8695
     6.4109   6.4743   6.7380   9.8342   9.9258  10.2127  10.4606  10.7428

     occupation numbers 
     1.0000   1.0000   1.0000   1.0000   1.0000   1.0000   1.0000   1.0000
     1.0000   1.0000   1.0000   1.0000   1.0000   1.0000   1.0000   1.0000
     1.0000   1.0000   1.0000   1.0000   1.0000   1.0000   1.0000   1.0000
     1.0000   1.0000   1.0000   1.0000   1.0000   1.0000   1.0000   1.0000
     1.0000   1.0000   1.0000   1.0000   1.0000   1.0000   1.0000   1.0000
     1.0256   1.0711   1.0716   1.0833   1.0832   1.0763   0.2202   0.2148
     0.0569   0.0007   0.0000   0.0000   0.0000   0.0000   0.0000   0.0000
     0.0000   0.0000   0.0000   0.0000   0.0000   0.0000   0.0000   0.0000

          k = 0.1667 0.4811 0.0000 ( 11356 PWs)   bands (ev):

   -92.7194 -92.7180 -92.7173 -56.0551 -56.0447 -56.0311 -56.0161 -56.0156
   -56.0096 -55.8346 -55.8322 -55.8309 -52.2247 -24.1436 -24.1434 -24.1019
   -16.0832 -15.6729 -15.3829 -14.9694 -14.8842 -14.8342  -3.5036  -3.0005
    -2.8430  -2.4422  -2.2893  -2.1809  -2.0492  -1.8102  -1.7703  -1.2013
    -1.1384  -0.9437  -0.6673  -0.4634  -0.2152   0.4931   0.8520   1.1911
     1.9136   1.9476   1.9677   1.9970   2.2943   2.3025   2.3820   2.5471
     2.7554   3.5079   4.0554   4.1280   4.2957   4.5855   4.7386   4.8047
     4.9279   6.1998   7.2625   8.5820   9.8209   9.9847  10.4733  11.6899

     occupation numbers 
     1.0000   1.0000   1.0000   1.0000   1.0000   1.0000   1.0000   1.0000
     1.0000   1.0000   1.0000   1.0000   1.0000   1.0000   1.0000   1.0000
     1.0000   1.0000   1.0000   1.0000   1.0000   1.0000   1.0000   1.0000
     1.0000   1.0000   1.0000   1.0000   1.0000   1.0000   1.0000   1.0000
     1.0000   1.0000   1.0000   1.0000   1.0000   1.0000   1.0000   1.0000
     1.0446   1.0562   1.0631   1.0723   0.8105   0.7902   0.5761   0.1910
     0.0183   0.0000   0.0000   0.0000   0.0000   0.0000   0.0000   0.0000
     0.0000   0.0000   0.0000   0.0000   0.0000   0.0000   0.0000   0.0000

          k = 0.1667 0.4811 0.1684 ( 11345 PWs)   bands (ev):

   -92.7194 -92.7180 -92.7173 -56.0551 -56.0448 -56.0311 -56.0161 -56.0155
   -56.0096 -55.8345 -55.8322 -55.8309 -52.2247 -24.1436 -24.1433 -24.1018
   -16.0832 -15.6729 -15.3829 -14.9694 -14.8842 -14.8342  -3.5036  -3.0006
    -2.8433  -2.4423  -2.2894  -2.1807  -2.0489  -1.8102  -1.7703  -1.2004
    -1.1377  -0.9435  -0.6673  -0.4634  -0.2151   0.4935   0.8519   1.1865
     1.9134   1.9451   1.9676   1.9970   2.2916   2.3021   2.3821   2.5475
     2.7737   3.4433   4.0963   4.1487   4.2916   4.6043   4.7334   4.8051
     4.9461   6.2086   7.1721   8.5401   9.8032   9.9837  10.7726  11.8304

     occupation numbers 
     1.0000   1.0000   1.0000   1.0000   1.0000   1.0000   1.0000   1.0000
     1.0000   1.0000   1.0000   1.0000   1.0000   1.0000   1.0000   1.0000
     1.0000   1.0000   1.0000   1.0000   1.0000   1.0000   1.0000   1.0000
     1.0000   1.0000   1.0000   1.0000   1.0000   1.0000   1.0000   1.0000
     1.0000   1.0000   1.0000   1.0000   1.0000   1.0000   1.0000   1.0000
     1.0445   1.0553   1.0630   1.0723   0.8171   0.7913   0.5760   0.1903
     0.0141   0.0000   0.0000   0.0000   0.0000   0.0000   0.0000   0.0000
     0.0000   0.0000   0.0000   0.0000   0.0000   0.0000   0.0000   0.0000

          k = 0.3333 0.5774 0.0000 ( 11370 PWs)   bands (ev):

   -92.7182 -92.7182 -92.7182 -56.0453 -56.0453 -56.0446 -56.0129 -56.0122
   -56.0122 -55.8326 -55.8326 -55.8326 -52.2247 -24.1436 -24.1436 -24.1019
   -15.7411 -15.7291 -15.7291 -14.8906 -14.8776 -14.8776  -3.1153  -3.1075
    -3.1075  -2.2839  -2.2813  -2.2813  -1.9278  -1.9278  -1.9240  -1.2180
    -1.1967  -1.1967  -0.3095  -0.3095  -0.3040   0.8599   0.8742   0.8742
     1.9634   1.9705   1.9705   2.1532   2.1532   2.1547   2.5536   2.5612
     2.5612   4.0075   4.0728   4.0728   4.3605   4.8041   4.8041   4.8082
     4.8579   4.8579   7.7566   8.6550   8.6550  11.1991  11.5783  11.5784

     occupation numbers 
     1.0000   1.0000   1.0000   1.0000   1.0000   1.0000   1.0000   1.0000
     1.0000   1.0000   1.0000   1.0000   1.0000   1.0000   1.0000   1.0000
     1.0000   1.0000   1.0000   1.0000   1.0000   1.0000   1.0000   1.0000
     1.0000   1.0000   1.0000   1.0000   1.0000   1.0000   1.0000   1.0000
     1.0000   1.0000   1.0000   1.0000   1.0000   1.0000   1.0000   1.0000
     1.0616   1.0640   1.0640   1.0487   1.0487   1.0474   0.1805   0.1686
     0.1686   0.0000   0.0000   0.0000   0.0000   0.0000   0.0000   0.0000
     0.0000   0.0000   0.0000   0.0000   0.0000   0.0000   0.0000   0.0000

          k = 0.3333 0.5774 0.1684 ( 11352 PWs)   bands (ev):

   -92.7182 -92.7182 -92.7182 -56.0453 -56.0453 -56.0446 -56.0129 -56.0122
   -56.0122 -55.8325 -55.8325 -55.8325 -52.2247 -24.1435 -24.1435 -24.1018
   -15.7411 -15.7291 -15.7291 -14.8906 -14.8776 -14.8776  -3.1154  -3.1075
    -3.1075  -2.2840  -2.2814  -2.2814  -1.9277  -1.9277  -1.9239  -1.2169
    -1.1961  -1.1961  -0.3095  -0.3095  -0.3040   0.8598   0.8741   0.8741
     1.9621   1.9699   1.9699   2.1532   2.1532   2.1547   2.5564   2.5625
     2.5625   3.9196   4.0425   4.0425   4.4690   4.8041   4.8041   4.8082
     4.9031   4.9031   7.6974   8.5916   8.5916  11.3712  11.8045  11.8057

     occupation numbers 
     1.0000   1.0000   1.0000   1.0000   1.0000   1.0000   1.0000   1.0000
     1.0000   1.0000   1.0000   1.0000   1.0000   1.0000   1.0000   1.0000
     1.0000   1.0000   1.0000   1.0000   1.0000   1.0000   1.0000   1.0000
     1.0000   1.0000   1.0000   1.0000   1.0000   1.0000   1.0000   1.0000
     1.0000   1.0000   1.0000   1.0000   1.0000   1.0000   1.0000   1.0000
     1.0612   1.0638   1.0638   1.0486   1.0486   1.0474   0.1760   0.1666
     0.1666   0.0000   0.0000   0.0000   0.0000   0.0000   0.0000   0.0000
     0.0000   0.0000   0.0000   0.0000   0.0000   0.0000   0.0000   0.0000

          k =-0.1667-0.2887 0.1684 ( 11359 PWs)   bands (ev):

   -92.7208 -92.7169 -92.7169 -56.0522 -56.0517 -56.0234 -56.0229 -56.0164
   -56.0056 -55.8368 -55.8304 -55.8304 -52.2247 -24.1434 -24.1432 -24.1019
   -16.4293 -15.3136 -15.3055 -14.9634 -14.9550 -14.8085  -3.2417  -3.2378
    -2.7055  -2.5525  -2.5486  -2.3730  -2.2692  -1.6186  -1.6160  -1.0479
    -1.0440  -0.8088  -0.7973  -0.4233   0.2660   0.3538   0.3645   1.0809
     1.8463   1.9930   1.9946   2.0670   2.0692   2.1060   2.5295   2.5331
     2.6589   2.9736   4.3018   4.3093   4.3383   4.5042   4.5095   4.8695
     6.4499   6.4659   6.7298   9.8017   9.9298  10.2173  10.5162  10.7438

     occupation numbers 
     1.0000   1.0000   1.0000   1.0000   1.0000   1.0000   1.0000   1.0000
     1.0000   1.0000   1.0000   1.0000   1.0000   1.0000   1.0000   1.0000
     1.0000   1.0000   1.0000   1.0000   1.0000   1.0000   1.0000   1.0000
     1.0000   1.0000   1.0000   1.0000   1.0000   1.0000   1.0000   1.0000
     1.0000   1.0000   1.0000   1.0000   1.0000   1.0000   1.0000   1.0000
     1.0249   1.0711   1.0716   1.0833   1.0832   1.0763   0.2214   0.2151
     0.0622   0.0005   0.0000   0.0000   0.0000   0.0000   0.0000   0.0000
     0.0000   0.0000   0.0000   0.0000   0.0000   0.0000   0.0000   0.0000

          k =-0.1667-0.4811 0.1684 ( 11345 PWs)   bands (ev):

   -92.7194 -92.7180 -92.7173 -56.0551 -56.0448 -56.0311 -56.0161 -56.0155
   -56.0096 -55.8345 -55.8322 -55.8309 -52.2247 -24.1436 -24.1433 -24.1018
   -16.0832 -15.6729 -15.3829 -14.9694 -14.8842 -14.8342  -3.5037  -3.0006
    -2.8432  -2.4423  -2.2894  -2.1807  -2.0490  -1.8102  -1.7703  -1.2002
    -1.1375  -0.9433  -0.6673  -0.4634  -0.2152   0.4931   0.8513   1.1854
     1.9135   1.9451   1.9677   1.9970   2.2918   2.3026   2.3817   2.5451
     2.7615   3.5188   4.0592   4.1301   4.2972   4.5877   4.7368   4.8047
     4.9227   6.1892   7.2271   8.5958   9.8898   9.9927  10.6377  11.6703

     occupation numbers 
     1.0000   1.0000   1.0000   1.0000   1.0000   1.0000   1.0000   1.0000
     1.0000   1.0000   1.0000   1.0000   1.0000   1.0000   1.0000   1.0000
     1.0000   1.0000   1.0000   1.0000   1.0000   1.0000   1.0000   1.0000
     1.0000   1.0000   1.0000   1.0000   1.0000   1.0000   1.0000   1.0000
     1.0000   1.0000   1.0000   1.0000   1.0000   1.0000   1.0000   1.0000
     1.0445   1.0553   1.0631   1.0723   0.8165   0.7900   0.5771   0.1943
     0.0168   0.0000   0.0000   0.0000   0.0000   0.0000   0.0000   0.0000
     0.0000   0.0000   0.0000   0.0000   0.0000   0.0000   0.0000   0.0000

          k =-0.3333-0.5774 0.1684 ( 11352 PWs)   bands (ev):

   -92.7182 -92.7182 -92.7182 -56.0453 -56.0453 -56.0446 -56.0129 -56.0122
   -56.0122 -55.8325 -55.8325 -55.8325 -52.2247 -24.1435 -24.1435 -24.1018
   -15.7411 -15.7291 -15.7291 -14.8906 -14.8776 -14.8776  -3.1154  -3.1076
    -3.1076  -2.2841  -2.2815  -2.2815  -1.9277  -1.9277  -1.9239  -1.2166
    -1.1959  -1.1959  -0.3095  -0.3095  -0.3040   0.8585   0.8735   0.8735
     1.9624   1.9700   1.9700   2.1532   2.1532   2.1547   2.5522   2.5605
     2.5605   4.0228   4.0768   4.0768   4.3452   4.8041   4.8041   4.8082
     4.8523   4.8523   7.7741   8.6808   8.6808  11.1711  11.5345  11.5346

     occupation numbers 
     1.0000   1.0000   1.0000   1.0000   1.0000   1.0000   1.0000   1.0000
     1.0000   1.0000   1.0000   1.0000   1.0000   1.0000   1.0000   1.0000
     1.0000   1.0000   1.0000   1.0000   1.0000   1.0000   1.0000   1.0000
     1.0000   1.0000   1.0000   1.0000   1.0000   1.0000   1.0000   1.0000
     1.0000   1.0000   1.0000   1.0000   1.0000   1.0000   1.0000   1.0000
     1.0613   1.0638   1.0638   1.0487   1.0487   1.0474   0.1827   0.1697
     0.1697   0.0000   0.0000   0.0000   0.0000   0.0000   0.0000   0.0000
     0.0000   0.0000   0.0000   0.0000   0.0000   0.0000   0.0000   0.0000

     the Fermi energy is     2.4477 ev

!    total energy              =   -1489.14045426 Ry
     total all-electron energy =     -9588.375262 Ry
     estimated scf accuracy    <          1.9E-09 Ry
     smearing contrib. (-TS)   =       0.00900094 Ry
     internal energy E=F+TS    =   -1489.14945519 Ry

     The total energy is F=E-TS. E is the sum of the following terms:
     one-electron contribution =   -2421.33151952 Ry
     hartree contribution      =    1237.34620725 Ry
     xc contribution           =    -150.33921986 Ry
     ewald contribution        =     180.70090131 Ry
     one-center paw contrib.   =    -335.52582437 Ry
      -> PAW hartree energy AE =     882.77216260 Ry
      -> PAW hartree energy PS =    -880.50061428 Ry
      -> PAW xc energy AE      =    -480.12814979 Ry
      -> PAW xc energy PS      =     142.33077710 Ry
      -> total E_H with PAW    =    1239.61775557 Ry
      -> total E_XC with PAW   =    -488.13659254 Ry

     total magnetization       =     2.52 Bohr mag/cell
     absolute magnetization    =     2.65 Bohr mag/cell

     convergence has been achieved in  23 iterations

     Forces acting on atoms (cartesian axes, Ry/au):

     atom    1 type  1   force =    -0.00061299   -0.00106174    0.00000782
     atom    2 type  1   force =    -0.00061299    0.00106174    0.00000782
     atom    3 type  1   force =     0.00122599    0.00000000    0.00000782
     atom    4 type  2   force =     0.00000000    0.00000000   -0.02080451
     atom    5 type  2   force =     0.00000000   -0.00000000   -0.02474685
     atom    6 type  2   force =    -0.00000000   -0.00000000   -0.02474685
     atom    7 type  2   force =    -0.00035351    0.00061229    0.02350111
     atom    8 type  2   force =    -0.00035351   -0.00061229    0.02350111
     atom    9 type  2   force =     0.00070702    0.00000000    0.02350111
     atom   10 type  3   force =     0.00000000    0.00000000   -0.00022861
     The non-local contrib.  to forces
     atom    1 type  1   force =    -0.00044060   -0.00076315   -0.00005013
     atom    2 type  1   force =    -0.00044060    0.00076315   -0.00005013
     atom    3 type  1   force =     0.00088121    0.00000000   -0.00005013
     atom    4 type  2   force =     0.00000000    0.00000000   -1.15346251
     atom    5 type  2   force =     0.00000000    0.00000000   -1.18409189
     atom    6 type  2   force =     0.00000000    0.00000000   -1.18409189
     atom    7 type  2   force =    -0.00239498    0.00414822    1.17442928
     atom    8 type  2   force =    -0.00239498   -0.00414822    1.17442928
     atom    9 type  2   force =     0.00478995    0.00000000    1.17442928
     atom   10 type  3   force =     0.00000000    0.00000000    0.00212061
     The ionic contribution  to forces
     atom    1 type  1   force =    -0.05675602   -0.09830431    0.00000000
     atom    2 type  1   force =    -0.05675600    0.09830430   -0.00000000
     atom    3 type  1   force =     0.11351202    0.00000001   -0.00000000
     atom    4 type  2   force =     0.00000000    0.00000001   38.26369557
     atom    5 type  2   force =    -0.00000000   -0.00000000   38.49156143
     atom    6 type  2   force =    -0.00000000   -0.00000000   38.49156143
     atom    7 type  2   force =     0.04270444   -0.07396626  -38.41907759
     atom    8 type  2   force =     0.04270444    0.07396626  -38.41907758
     atom    9 type  2   force =    -0.08540888    0.00000000  -38.41907759
     atom   10 type  3   force =     0.00000000    0.00000000    0.01041432
     The local contribution  to forces
     atom    1 type  1   force =     0.05661946    0.09806771    0.00004512
     atom    2 type  1   force =     0.05661967   -0.09806771    0.00004512
     atom    3 type  1   force =    -0.11323890    0.00000018    0.00004512
     atom    4 type  2   force =     0.00000001    0.00000001  -37.14119014
     atom    5 type  2   force =    -0.00000001    0.00000000  -37.34265566
     atom    6 type  2   force =     0.00000001   -0.00000000  -37.34265566
     atom    7 type  2   force =    -0.04069432    0.07048466   37.27849171
     atom    8 type  2   force =    -0.04069433   -0.07048466   37.27849171
     atom    9 type  2   force =     0.08138867    0.00000001   37.27849171
     atom   10 type  3   force =     0.00000006    0.00000010   -0.01275412
     The core correction contribution to forces
     atom    1 type  1   force =     0.00000746    0.00001293   -0.00000067
     atom    2 type  1   force =     0.00000746   -0.00001293   -0.00000067
     atom    3 type  1   force =    -0.00001493    0.00000000   -0.00000067
     atom    4 type  2   force =     0.00000000   -0.00000000    0.01012623
     atom    5 type  2   force =     0.00000000   -0.00000000    0.01043872
     atom    6 type  2   force =     0.00000000    0.00000000    0.01043872
     atom    7 type  2   force =     0.00002099   -0.00003636   -0.01034174
     atom    8 type  2   force =     0.00002099    0.00003636   -0.01034174
     atom    9 type  2   force =    -0.00004198   -0.00000000   -0.01034174
     atom   10 type  3   force =     0.00000000    0.00000000   -0.00000124
     The Hubbard contrib.    to forces
     atom    1 type  1   force =     0.00000000    0.00000000    0.00000000
     atom    2 type  1   force =     0.00000000    0.00000000    0.00000000
     atom    3 type  1   force =     0.00000000    0.00000000    0.00000000
     atom    4 type  2   force =     0.00000000    0.00000000    0.00000000
     atom    5 type  2   force =     0.00000000    0.00000000    0.00000000
     atom    6 type  2   force =     0.00000000    0.00000000    0.00000000
     atom    7 type  2   force =     0.00000000    0.00000000    0.00000000
     atom    8 type  2   force =     0.00000000    0.00000000    0.00000000
     atom    9 type  2   force =     0.00000000    0.00000000    0.00000000
     atom   10 type  3   force =     0.00000000    0.00000000    0.00000000
     The SCF correction term to forces
     atom    1 type  1   force =    -0.00004329   -0.00007499    0.00001535
     atom    2 type  1   force =    -0.00004329    0.00007499    0.00001535
     atom    3 type  1   force =     0.00008659   -0.00000000    0.00001535
     atom    4 type  2   force =    -0.00000000   -0.00000000    0.00002818
     atom    5 type  2   force =     0.00000000    0.00000000    0.00000238
     atom    6 type  2   force =     0.00000000    0.00000000    0.00000238
     atom    7 type  2   force =     0.00001037   -0.00001796    0.00000128
     atom    8 type  2   force =     0.00001037    0.00001796    0.00000128
     atom    9 type  2   force =    -0.00002074   -0.00000000    0.00000128
     atom   10 type  3   force =    -0.00000000   -0.00000000   -0.00000635

     Total force =     0.057625     Total SCF correction =     0.000159

     Writing all to output data dir ./out/pw.save/ :
     XML data file, charge density, pseudopotentials, collected wavefunctions
 
     init_run     :     21.89s CPU      5.08s WALL (       1 calls)
     electrons    :    293.20s CPU     74.81s WALL (       1 calls)
     forces       :      0.96s CPU      0.92s WALL (       1 calls)

     Called by init_run:
     wfcinit      :      0.59s CPU      0.75s WALL (       1 calls)
     wfcinit:atom :      0.06s CPU      0.06s WALL (      34 calls)
     wfcinit:wfcr :      0.35s CPU      0.39s WALL (      34 calls)
     potinit      :     20.58s CPU      3.52s WALL (       1 calls)
     hinit0       :      0.56s CPU      0.55s WALL (       1 calls)

     Called by electrons:
     c_bands      :     33.98s CPU     34.22s WALL (      23 calls)
     sum_band     :      5.64s CPU      5.64s WALL (      23 calls)
     v_of_rho     :      0.61s CPU      0.42s WALL (      24 calls)
     v_h          :      0.35s CPU      0.10s WALL (      24 calls)
     v_xc         :      0.26s CPU      0.33s WALL (      25 calls)
     newd         :      0.60s CPU      0.53s WALL (      24 calls)
                                        0.53s GPU  (      24 calls)
     PAW_pot      :    261.19s CPU     34.17s WALL (      24 calls)
     mix_rho      :      0.81s CPU      0.84s WALL (      23 calls)

     Called by c_bands:
     init_us_2    :      1.03s CPU      1.02s WALL (    1632 calls)
     cegterg      :     27.77s CPU     28.00s WALL (     782 calls)

     Called by sum_band:
     sum_band:wei :      0.05s CPU      0.05s WALL (      23 calls)
                                        0.05s GPU  (      23 calls)
     sum_band:loo :      3.96s CPU      3.94s WALL (      23 calls)
                                        3.94s GPU  (      23 calls)
     sum_band:buf :      1.32s CPU      1.35s WALL (     782 calls)
                                        1.34s GPU  (     782 calls)
     sum_band:ini :      0.50s CPU      0.51s WALL (     782 calls)
                                        0.50s GPU  (     782 calls)
     sum_band:cal :      0.10s CPU      0.14s WALL (     782 calls)
                                        0.09s GPU  (     782 calls)
     sum_band:bec :      0.39s CPU      0.40s WALL (     782 calls)
                                        0.39s GPU  (     782 calls)
     addusdens    :      0.93s CPU      0.93s WALL (      23 calls)
                                        0.93s GPU  (      23 calls)
     addusd:skk   :      0.01s CPU      0.01s WALL (      69 calls)
                                        0.01s GPU  (      69 calls)

     Called by *egterg:
     cdiaghg      :     11.23s CPU     11.36s WALL (    4887 calls)
                                       11.30s GPU  (    4887 calls)
     cegterg:over :      1.32s CPU      1.34s WALL (    4105 calls)
     cegterg:upda :      1.48s CPU      1.49s WALL (    4105 calls)
     cegterg:last :      0.30s CPU      0.30s WALL (    1761 calls)
     h_psi        :     10.68s CPU     10.91s WALL (    4921 calls)
                                       10.85s GPU  (    4921 calls)
     s_psi        :      1.55s CPU      1.60s WALL (    4921 calls)
     g_psi        :      0.02s CPU      0.18s WALL (    4105 calls)
                                        0.13s GPU  (    4105 calls)

     Called by h_psi:
     h_psi:calbec :      0.20s CPU      0.46s WALL (    4921 calls)
                                        0.40s GPU  (    4921 calls)
     vloc_psi     :      8.22s CPU      8.33s WALL (    4921 calls)
                                        8.27s GPU  (    4921 calls)
     add_vuspsi   :      1.48s CPU      1.74s WALL (    4921 calls)
                                        1.68s GPU  (    4921 calls)

     General routines
     calbec       :      0.24s CPU      0.27s WALL (    5839 calls)
     fft          :      6.88s CPU      1.18s WALL (     613 calls)
                                        0.04s GPU  (     565 calls)
     ffts         :      3.29s CPU      0.87s WALL (      94 calls)
                                        0.00s GPU  (      46 calls)
     fftw         :      0.39s CPU      5.27s WALL (   24118 calls)
                                        5.00s GPU  (   24118 calls)
     interpolate  :     10.52s CPU      2.12s WALL (      48 calls)
 
     Parallel routines

     PAW routines
     PAW_pot      :    261.19s CPU     34.17s WALL (      24 calls)
     PAW_symme    :      0.04s CPU      0.01s WALL (      47 calls)
 
     PWSCF        :   5m16.96s CPU   1m21.55s WALL

 
   This run was terminated on:   2:25: 2  12Jul2026            

=------------------------------------------------------------------------------=
   JOB DONE.
=------------------------------------------------------------------------------=
Warning: ieee_invalid is signaling
Warning: ieee_divide_by_zero is signaling
Warning: ieee_inexact is signaling
FORTRAN STOP
