
     Program PWSCF v.7.3.1 starts on 12Jul2026 at  2:41: 1 

     This program is part of the open-source Quantum ESPRESSO suite
     for quantum simulation of materials; please cite
         "P. Giannozzi et al., J. Phys.:Condens. Matter 21 395502 (2009);
         "P. Giannozzi et al., J. Phys.:Condens. Matter 29 465901 (2017);
         "P. Giannozzi et al., J. Chem. Phys. 152 154105 (2020);
          URL http://www.quantum-espresso.org", 
     in publications or presentations arising from this work. More details at
     http://www.quantum-espresso.org/quote

     Parallel version (MPI & OpenMP), running on      14 processor cores
     Number of MPI processes:                 1
     Threads/MPI process:                    14

     MPI processes distributed on     1 nodes
     849612 MiB available memory on the printing compute node when the environment starts
 
     Reading input from pw.in

     Current dimensions of program PWSCF are:
     Max number of different atomic species (ntypx) = 10
     Max number of k-points (npk) =  40000
     Max angular momentum in pseudopotentials (lmaxx) =  4
     file Co.pbe-spn-kjpaw_psl.0.3.1.UPF: wavefunction(s)  3P 3D renormalized
     file O.pbe-n-kjpaw_psl.1.0.0.UPF: wavefunction(s)  2S 2P renormalized
 
     Subspace diagonalization in iterative solution of the eigenvalue problem:
     a serial algorithm will be used

 
     G-vector sticks info
     --------------------
     sticks:   dense  smooth     PW     G-vecs:    dense   smooth      PW
     Sum         931     475    151                45403    15993    2651
 
     Using Slab Decomposition
 


     bravais-lattice index     =            4
     lattice parameter (alat)  =       5.3290  a.u.
     unit-cell volume          =     255.6161 (a.u.)^3
     number of atoms/cell      =            4
     number of atomic types    =            3
     number of electrons       =        32.00
     number of Kohn-Sham states=           24
     kinetic-energy cutoff     =      60.0000  Ry
     charge density cutoff     =     480.0000  Ry
     scf convergence threshold =      1.0E-07
     mixing beta               =       0.3000
     number of iterations used =            8  local-TF  mixing
     Exchange-correlation= SLA  PW   PBX  PBC
                           (   1   4   3   4   0   0   0)

     GPU acceleration is ACTIVE.  1 visible GPUs per MPI rank
     GPU-aware MPI enabled


     GPU used by master process:

        Device Number: 0
        Device name: NVIDIA A100-SXM4-80GB
        Compute capability : 80
        Ratio of single to double precision performance  : 2
        Memory Clock Rate (KHz): 1593000
        Memory Bus Width (bits): 5120
        Peak Memory Bandwidth (GB/s): ******

     celldm(1)=   5.329028  celldm(2)=   0.000000  celldm(3)=   1.950355
     celldm(4)=   0.000000  celldm(5)=   0.000000  celldm(6)=   0.000000

     crystal axes: (cart. coord. in units of alat)
               a(1) = (   1.000000   0.000000   0.000000 )  
               a(2) = (  -0.500000   0.866025   0.000000 )  
               a(3) = (   0.000000   0.000000   1.950355 )  

     reciprocal axes: (cart. coord. in units 2 pi/alat)
               b(1) = (  1.000000  0.577350 -0.000000 )  
               b(2) = (  0.000000  1.154701  0.000000 )  
               b(3) = (  0.000000 -0.000000  0.512727 )  


     PseudoPot. # 1 for Co read from file:
     ../../pseudo/Co.pbe-spn-kjpaw_psl.0.3.1.UPF
     MD5 check sum: 3c0a43779828c046024e4f3be63f8e67
     Pseudo is Projector augmented-wave + core cor, Zval = 17.0
     Generated using &quot;atomic&quot; code by A. Dal Corso  v.6.2.2
     Shape of augmentation charge: PSQ
     Using radial grid of 1193 points,  6 beta functions with: 
                l(1) =   0
                l(2) =   0
                l(3) =   1
                l(4) =   1
                l(5) =   2
                l(6) =   2
     Q(r) pseudized with 0 coefficients 


     PseudoPot. # 2 for O  read from file:
     ../../pseudo/O.pbe-n-kjpaw_psl.1.0.0.UPF
     MD5 check sum: e99d9cef9b487d1ca56f5b95ecd0fd7a
     Pseudo is Projector augmented-wave + core cor, Zval =  6.0
     Generated using &quot;atomic&quot; code by A. Dal Corso  v.6.3
     Shape of augmentation charge: PSQ
     Using radial grid of 1095 points,  4 beta functions with: 
                l(1) =   0
                l(2) =   0
                l(3) =   1
                l(4) =   1
     Q(r) pseudized with 0 coefficients 


     PseudoPot. # 3 for Li read from file:
     ../../pseudo/Li.pbe-s-kjpaw_psl.1.0.0.UPF
     MD5 check sum: 3974953fb0fea6c4f83fb01d64ffc134
     Pseudo is Projector augmented-wave, Zval =  3.0
     Generated using &quot;atomic&quot; code by A. Dal Corso  v.6.3
     Shape of augmentation charge: PSQ
     Using radial grid of 1017 points,  4 beta functions with: 
                l(1) =   0
                l(2) =   0
                l(3) =   1
                l(4) =   1
     Q(r) pseudized with 0 coefficients 


     atomic species   valence    mass     pseudopotential
     Co               17.00    58.93300     Co( 1.00)
     O                 6.00    15.99900     O ( 1.00)
     Li                3.00     6.94100     Li( 1.00)

     Starting magnetic structure 
     atomic species   magnetization
     Co              0.300
     O               0.000
     Li              0.000

      6 Sym. Ops. (no inversion) found


                                    s                        frac. trans.

      isym =  1     identity                                     

 cryst.   s( 1) = (     1          0          0      )
                  (     0          1          0      )
                  (     0          0          1      )

 cart.    s( 1) = (  1.0000000  0.0000000  0.0000000 )
                  (  0.0000000  1.0000000  0.0000000 )
                  (  0.0000000  0.0000000  1.0000000 )


      isym =  2     120 deg rotation - cryst. axis [0,0,1]       

 cryst.   s( 2) = (     0          1          0      )
                  (    -1         -1          0      )
                  (     0          0          1      )

 cart.    s( 2) = ( -0.5000000 -0.8660254  0.0000000 )
                  (  0.8660254 -0.5000000  0.0000000 )
                  (  0.0000000  0.0000000  1.0000000 )


      isym =  3     120 deg rotation - cryst. axis [0,0,-1]      

 cryst.   s( 3) = (    -1         -1          0      )
                  (     1          0          0      )
                  (     0          0          1      )

 cart.    s( 3) = ( -0.5000000  0.8660254  0.0000000 )
                  ( -0.8660254 -0.5000000  0.0000000 )
                  (  0.0000000  0.0000000  1.0000000 )


      isym =  4     inv. 180 deg rotation - cart. axis [1,0,0]   

 cryst.   s( 4) = (    -1          0          0      )
                  (     1          1          0      )
                  (     0          0          1      )

 cart.    s( 4) = ( -1.0000000  0.0000000  0.0000000 )
                  (  0.0000000  1.0000000  0.0000000 )
                  (  0.0000000  0.0000000  1.0000000 )


      isym =  5     inv. 180 deg rotation - cryst. axis [0,1,0]  

 cryst.   s( 5) = (     1          1          0      )
                  (     0         -1          0      )
                  (     0          0          1      )

 cart.    s( 5) = (  0.5000000  0.8660254  0.0000000 )
                  (  0.8660254 -0.5000000  0.0000000 )
                  (  0.0000000  0.0000000  1.0000000 )


      isym =  6     inv. 180 deg rotation - cryst. axis [1,1,0]  

 cryst.   s( 6) = (     0         -1          0      )
                  (    -1          0          0      )
                  (     0          0          1      )

 cart.    s( 6) = (  0.5000000 -0.8660254  0.0000000 )
                  ( -0.8660254 -0.5000000  0.0000000 )
                  (  0.0000000  0.0000000  1.0000000 )


     point group C_3v (3m)  
     there are  3 classes
     the character table:

       E     2C3   3s_v 
A_1    1.00  1.00  1.00
A_2    1.00  1.00 -1.00
E      2.00 -1.00  0.00

     the symmetry operations in each class and the name of the first element:

     E        1
          identity                                               
     2C3      2    3
          120 deg rotation - cryst. axis [0,0,1]                 
     3s_v     4    5    6
          inv. 180 deg rotation - cart. axis [1,0,0]             

   Cartesian axes

     site n.     atom                  positions (alat units)
         1        Co     tau(   1) = (   0.0000000   0.0000000   0.0000000  )
         2        O      tau(   2) = (  -0.0000000   0.5773503   0.3404255  )
         3        O      tau(   3) = (   0.5000000   0.2886751   1.6099291  )
         4        Li     tau(   4) = (   0.0000000   0.0000000   1.0815603  )

   Crystallographic axes

     site n.     atom                  positions (cryst. coord.)
         1        Co     tau(   1) = (  0.0000000  0.0000000  0.0000000  )
         2        O      tau(   2) = (  0.3333333  0.6666667  0.1745455  )
         3        O      tau(   3) = (  0.6666667  0.3333333  0.8254545  )
         4        Li     tau(   4) = (  0.0000000  0.0000000  0.5545455  )

     number of k points=    25  Marzari-Vanderbilt smearing, width (Ry)=  0.0200
                       cart. coord. in units 2pi/alat
        k(    1) = (   0.0000000   0.0000000   0.0000000), wk =   0.0052083
        k(    2) = (   0.0000000   0.0000000   0.1709091), wk =   0.0104167
        k(    3) = (   0.0000000   0.1443376   0.0000000), wk =   0.0312500
        k(    4) = (   0.0000000   0.1443376   0.1709091), wk =   0.0312500
        k(    5) = (   0.0000000   0.2886751   0.0000000), wk =   0.0312500
        k(    6) = (   0.0000000   0.2886751   0.1709091), wk =   0.0312500
        k(    7) = (   0.0000000   0.4330127   0.0000000), wk =   0.0312500
        k(    8) = (   0.0000000   0.4330127   0.1709091), wk =   0.0312500
        k(    9) = (   0.0000000  -0.5773503   0.0000000), wk =   0.0156250
        k(   10) = (   0.0000000  -0.5773503   0.1709091), wk =   0.0312500
        k(   11) = (   0.1250000   0.2165064   0.0000000), wk =   0.0312500
        k(   12) = (   0.1250000   0.2165064   0.1709091), wk =   0.0625000
        k(   13) = (   0.1250000   0.3608439   0.0000000), wk =   0.0625000
        k(   14) = (   0.1250000   0.3608439   0.1709091), wk =   0.0625000
        k(   15) = (   0.1250000   0.5051815   0.0000000), wk =   0.0625000
        k(   16) = (   0.1250000   0.5051815   0.1709091), wk =   0.0625000
        k(   17) = (   0.2500000   0.4330127   0.0000000), wk =   0.0312500
        k(   18) = (   0.2500000   0.4330127   0.1709091), wk =   0.0625000
        k(   19) = (   0.2500000   0.5773503   0.0000000), wk =   0.0312500
        k(   20) = (   0.2500000   0.5773503   0.1709091), wk =   0.0625000
        k(   21) = (   0.0000000  -0.1443376   0.1709091), wk =   0.0312500
        k(   22) = (   0.0000000  -0.2886751   0.1709091), wk =   0.0312500
        k(   23) = (   0.0000000  -0.4330127   0.1709091), wk =   0.0312500
        k(   24) = (  -0.1250000  -0.3608439   0.1709091), wk =   0.0625000
        k(   25) = (  -0.1250000  -0.5051815   0.1709091), wk =   0.0625000

                       cryst. coord.
        k(    1) = (   0.0000000   0.0000000   0.0000000), wk =   0.0052083
        k(    2) = (   0.0000000   0.0000000   0.3333333), wk =   0.0104167
        k(    3) = (   0.0000000   0.1250000   0.0000000), wk =   0.0312500
        k(    4) = (   0.0000000   0.1250000   0.3333333), wk =   0.0312500
        k(    5) = (   0.0000000   0.2500000   0.0000000), wk =   0.0312500
        k(    6) = (   0.0000000   0.2500000   0.3333333), wk =   0.0312500
        k(    7) = (   0.0000000   0.3750000   0.0000000), wk =   0.0312500
        k(    8) = (   0.0000000   0.3750000   0.3333333), wk =   0.0312500
        k(    9) = (   0.0000000  -0.5000000   0.0000000), wk =   0.0156250
        k(   10) = (   0.0000000  -0.5000000   0.3333333), wk =   0.0312500
        k(   11) = (   0.1250000   0.1250000   0.0000000), wk =   0.0312500
        k(   12) = (   0.1250000   0.1250000   0.3333333), wk =   0.0625000
        k(   13) = (   0.1250000   0.2500000   0.0000000), wk =   0.0625000
        k(   14) = (   0.1250000   0.2500000   0.3333333), wk =   0.0625000
        k(   15) = (   0.1250000   0.3750000   0.0000000), wk =   0.0625000
        k(   16) = (   0.1250000   0.3750000   0.3333333), wk =   0.0625000
        k(   17) = (   0.2500000   0.2500000   0.0000000), wk =   0.0312500
        k(   18) = (   0.2500000   0.2500000   0.3333333), wk =   0.0625000
        k(   19) = (   0.2500000   0.3750000   0.0000000), wk =   0.0312500
        k(   20) = (   0.2500000   0.3750000   0.3333333), wk =   0.0625000
        k(   21) = (   0.0000000  -0.1250000   0.3333333), wk =   0.0312500
        k(   22) = (   0.0000000  -0.2500000   0.3333333), wk =   0.0312500
        k(   23) = (   0.0000000  -0.3750000   0.3333333), wk =   0.0312500
        k(   24) = (  -0.1250000  -0.2500000   0.3333333), wk =   0.0625000
        k(   25) = (  -0.1250000  -0.3750000   0.3333333), wk =   0.0625000

     Dense  grid:    45403 G-vectors     FFT dimensions: (  40,  40,  75)

     Smooth grid:    15993 G-vectors     FFT dimensions: (  27,  27,  54)

     Dynamical RAM for                 wfc:       0.73 MB

     Dynamical RAM for     wfc (w. buffer):      37.47 MB

     Dynamical RAM for           str. fact:       2.08 MB

     Dynamical RAM for           local pot:       0.00 MB

     Dynamical RAM for          nlocal pot:       1.29 MB

     Dynamical RAM for                qrad:       5.27 MB

     Dynamical RAM for          rho,v,vnew:       9.65 MB

     Dynamical RAM for               rhoin:       3.22 MB

     Dynamical RAM for            rho*nmix:      22.17 MB

     Dynamical RAM for           G-vectors:       2.72 MB

     Dynamical RAM for          h,s,v(r/c):       0.11 MB

     Dynamical RAM for          <psi|beta>:       0.02 MB

     Dynamical RAM for                 psi:       1.47 MB

     Dynamical RAM for                hpsi:       1.47 MB

     Dynamical RAM for                spsi:       1.47 MB

     Dynamical RAM for      wfcinit/wfcrot:       1.48 MB

     Dynamical RAM for           addusdens:     130.94 MB

     Dynamical RAM for          addusforce:     132.34 MB

     Estimated static dynamical RAM per process >      69.95 MB

     Estimated max dynamical RAM per process >     224.46 MB

     Check: negative core charge=   -0.000009
     Generating pointlists ...
     new r_m :   0.2765 (alat units)  1.4733 (a.u.) for type    1
     new r_m :   0.2765 (alat units)  1.4733 (a.u.) for type    2
     new r_m :   0.3228 (alat units)  1.7204 (a.u.) for type    3

     Initial potential from superposition of free atoms

     starting charge      31.9951, renormalised to      32.0000
     Starting wfcs are   23 randomized atomic wfcs +    1 random wfcs
     Checking if some PAW data can be deallocated... 

     total cpu time spent up to now is        2.8 secs

     Self-consistent Calculation
[tb_dev] Currently allocated     6.36E-01 Mbytes, locked:    0 /   6
[tb_pin] Currently allocated     0.00E+00 Mbytes, locked:    0 /   0

     iteration #  1     ecut=    60.00 Ry     beta= 0.30
     Davidson diagonalization with overlap

---- Real-time Memory Report at c_bands before calling an iterative solver
           646 MiB given to the printing process from OS
             0 MiB allocation reported by mallinfo(arena+hblkhd)
        849630 MiB available memory on the node where the printing process lives
     GPU memory used/free/total (MiB): 916 / 80234 / 81151
------------------
     ethr =  1.00E-02,  avg # of iterations =  8.1

     total cpu time spent up to now is        4.7 secs

     total energy              =    -474.94837491 Ry
     estimated scf accuracy    <       1.24882619 Ry

     total magnetization       =     4.00 Bohr mag/cell
     absolute magnetization    =     4.00 Bohr mag/cell
[tb_dev] Currently allocated     3.05E-05 Mbytes, locked:    0 /   2
[tb_pin] Currently allocated     0.00E+00 Mbytes, locked:    0 /   0

     iteration #  2     ecut=    60.00 Ry     beta= 0.30
     Davidson diagonalization with overlap

---- Real-time Memory Report at c_bands before calling an iterative solver
           691 MiB given to the printing process from OS
             0 MiB allocation reported by mallinfo(arena+hblkhd)
        849498 MiB available memory on the node where the printing process lives
     GPU memory used/free/total (MiB): 928 / 80222 / 81151
------------------
     ethr =  3.90E-03,  avg # of iterations =  1.8

     total cpu time spent up to now is        5.8 secs

     total energy              =    -474.93187223 Ry
     estimated scf accuracy    <       0.37640307 Ry

     total magnetization       =     3.92 Bohr mag/cell
     absolute magnetization    =     3.92 Bohr mag/cell
[tb_dev] Currently allocated     3.05E-05 Mbytes, locked:    0 /   2
[tb_pin] Currently allocated     0.00E+00 Mbytes, locked:    0 /   0

     iteration #  3     ecut=    60.00 Ry     beta= 0.30
     Davidson diagonalization with overlap

---- Real-time Memory Report at c_bands before calling an iterative solver
           693 MiB given to the printing process from OS
             0 MiB allocation reported by mallinfo(arena+hblkhd)
        849344 MiB available memory on the node where the printing process lives
     GPU memory used/free/total (MiB): 928 / 80222 / 81151
------------------
     ethr =  1.18E-03,  avg # of iterations =  2.2

     total cpu time spent up to now is        6.9 secs

     total energy              =    -475.10377082 Ry
     estimated scf accuracy    <       0.62665851 Ry

     total magnetization       =     1.76 Bohr mag/cell
     absolute magnetization    =     1.86 Bohr mag/cell
[tb_dev] Currently allocated     3.05E-05 Mbytes, locked:    0 /   2
[tb_pin] Currently allocated     0.00E+00 Mbytes, locked:    0 /   0

     iteration #  4     ecut=    60.00 Ry     beta= 0.30
     Davidson diagonalization with overlap

---- Real-time Memory Report at c_bands before calling an iterative solver
           694 MiB given to the printing process from OS
             0 MiB allocation reported by mallinfo(arena+hblkhd)
        849314 MiB available memory on the node where the printing process lives
     GPU memory used/free/total (MiB): 928 / 80222 / 81151
------------------
     ethr =  1.18E-03,  avg # of iterations =  1.1

     total cpu time spent up to now is        8.0 secs

     total energy              =    -475.13200411 Ry
     estimated scf accuracy    <       0.99804929 Ry

     total magnetization       =     1.50 Bohr mag/cell
     absolute magnetization    =     1.66 Bohr mag/cell
[tb_dev] Currently allocated     3.05E-05 Mbytes, locked:    0 /   2
[tb_pin] Currently allocated     0.00E+00 Mbytes, locked:    0 /   0

     iteration #  5     ecut=    60.00 Ry     beta= 0.30
     Davidson diagonalization with overlap

---- Real-time Memory Report at c_bands before calling an iterative solver
           695 MiB given to the printing process from OS
             0 MiB allocation reported by mallinfo(arena+hblkhd)
        849310 MiB available memory on the node where the printing process lives
     GPU memory used/free/total (MiB): 928 / 80222 / 81151
------------------
     ethr =  1.18E-03,  avg # of iterations =  1.1

     total cpu time spent up to now is        9.0 secs

     total energy              =    -475.11921824 Ry
     estimated scf accuracy    <       0.88575792 Ry

     total magnetization       =     1.05 Bohr mag/cell
     absolute magnetization    =     1.33 Bohr mag/cell
[tb_dev] Currently allocated     3.05E-05 Mbytes, locked:    0 /   2
[tb_pin] Currently allocated     0.00E+00 Mbytes, locked:    0 /   0

     iteration #  6     ecut=    60.00 Ry     beta= 0.30
     Davidson diagonalization with overlap

---- Real-time Memory Report at c_bands before calling an iterative solver
           696 MiB given to the printing process from OS
             0 MiB allocation reported by mallinfo(arena+hblkhd)
        849307 MiB available memory on the node where the printing process lives
     GPU memory used/free/total (MiB): 928 / 80222 / 81151
------------------
     ethr =  1.18E-03,  avg # of iterations =  1.1

     total cpu time spent up to now is       10.0 secs

     total energy              =    -475.14476629 Ry
     estimated scf accuracy    <       0.43660128 Ry

     total magnetization       =     0.57 Bohr mag/cell
     absolute magnetization    =     1.01 Bohr mag/cell
[tb_dev] Currently allocated     3.05E-05 Mbytes, locked:    0 /   2
[tb_pin] Currently allocated     0.00E+00 Mbytes, locked:    0 /   0

     iteration #  7     ecut=    60.00 Ry     beta= 0.30
     Davidson diagonalization with overlap

---- Real-time Memory Report at c_bands before calling an iterative solver
           697 MiB given to the printing process from OS
             0 MiB allocation reported by mallinfo(arena+hblkhd)
        849320 MiB available memory on the node where the printing process lives
     GPU memory used/free/total (MiB): 928 / 80222 / 81151
------------------
     ethr =  1.18E-03,  avg # of iterations =  1.0

     total cpu time spent up to now is       11.1 secs

     total energy              =    -475.17404640 Ry
     estimated scf accuracy    <       0.33109886 Ry

     total magnetization       =     0.25 Bohr mag/cell
     absolute magnetization    =     0.79 Bohr mag/cell
[tb_dev] Currently allocated     3.05E-05 Mbytes, locked:    0 /   2
[tb_pin] Currently allocated     0.00E+00 Mbytes, locked:    0 /   0

     iteration #  8     ecut=    60.00 Ry     beta= 0.30
     Davidson diagonalization with overlap

---- Real-time Memory Report at c_bands before calling an iterative solver
           698 MiB given to the printing process from OS
             0 MiB allocation reported by mallinfo(arena+hblkhd)
        849318 MiB available memory on the node where the printing process lives
     GPU memory used/free/total (MiB): 928 / 80222 / 81151
------------------
     ethr =  1.03E-03,  avg # of iterations =  1.0
     Minimization algorithm failed to find Fermi energy: reverting to bisection
     Possible cause: smearing is larger than the electronic band-gap.

     total cpu time spent up to now is       12.1 secs

     total energy              =    -475.16549834 Ry
     estimated scf accuracy    <       0.16789447 Ry

     total magnetization       =     0.00 Bohr mag/cell
     absolute magnetization    =     0.41 Bohr mag/cell
[tb_dev] Currently allocated     3.05E-05 Mbytes, locked:    0 /   2
[tb_pin] Currently allocated     0.00E+00 Mbytes, locked:    0 /   0

     iteration #  9     ecut=    60.00 Ry     beta= 0.30
     Davidson diagonalization with overlap

---- Real-time Memory Report at c_bands before calling an iterative solver
           699 MiB given to the printing process from OS
             0 MiB allocation reported by mallinfo(arena+hblkhd)
        849317 MiB available memory on the node where the printing process lives
     GPU memory used/free/total (MiB): 928 / 80222 / 81151
------------------
     ethr =  5.25E-04,  avg # of iterations =  1.6

     total cpu time spent up to now is       13.2 secs

     total energy              =    -475.17429899 Ry
     estimated scf accuracy    <       0.01070757 Ry

     total magnetization       =     0.00 Bohr mag/cell
     absolute magnetization    =     0.17 Bohr mag/cell
[tb_dev] Currently allocated     3.05E-05 Mbytes, locked:    0 /   2
[tb_pin] Currently allocated     0.00E+00 Mbytes, locked:    0 /   0

     iteration # 10     ecut=    60.00 Ry     beta= 0.30
     Davidson diagonalization with overlap

---- Real-time Memory Report at c_bands before calling an iterative solver
           700 MiB given to the printing process from OS
             0 MiB allocation reported by mallinfo(arena+hblkhd)
        849315 MiB available memory on the node where the printing process lives
     GPU memory used/free/total (MiB): 928 / 80222 / 81151
------------------
     ethr =  3.35E-05,  avg # of iterations =  6.0

     total cpu time spent up to now is       14.8 secs

     total energy              =    -475.17807255 Ry
     estimated scf accuracy    <       0.00068915 Ry

     total magnetization       =     0.00 Bohr mag/cell
     absolute magnetization    =     0.07 Bohr mag/cell
[tb_dev] Currently allocated     3.05E-05 Mbytes, locked:    0 /   2
[tb_pin] Currently allocated     0.00E+00 Mbytes, locked:    0 /   0

     iteration # 11     ecut=    60.00 Ry     beta= 0.30
     Davidson diagonalization with overlap

---- Real-time Memory Report at c_bands before calling an iterative solver
           701 MiB given to the printing process from OS
             0 MiB allocation reported by mallinfo(arena+hblkhd)
        849299 MiB available memory on the node where the printing process lives
     GPU memory used/free/total (MiB): 928 / 80222 / 81151
------------------
     c_bands:  1 eigenvalues not converged
     c_bands:  1 eigenvalues not converged
     c_bands:  1 eigenvalues not converged
     c_bands:  1 eigenvalues not converged
     ethr =  2.15E-06,  avg # of iterations =  8.9

     total cpu time spent up to now is       16.8 secs

     total energy              =    -475.17753581 Ry
     estimated scf accuracy    <       0.00168163 Ry

     total magnetization       =     0.00 Bohr mag/cell
     absolute magnetization    =     0.03 Bohr mag/cell
[tb_dev] Currently allocated     3.05E-05 Mbytes, locked:    0 /   2
[tb_pin] Currently allocated     0.00E+00 Mbytes, locked:    0 /   0

     iteration # 12     ecut=    60.00 Ry     beta= 0.30
     Davidson diagonalization with overlap

---- Real-time Memory Report at c_bands before calling an iterative solver
           701 MiB given to the printing process from OS
             0 MiB allocation reported by mallinfo(arena+hblkhd)
        849291 MiB available memory on the node where the printing process lives
     GPU memory used/free/total (MiB): 928 / 80222 / 81151
------------------
     ethr =  2.15E-06,  avg # of iterations =  3.6

     total cpu time spent up to now is       18.1 secs

     total energy              =    -475.17873276 Ry
     estimated scf accuracy    <       0.00118550 Ry

     total magnetization       =     0.00 Bohr mag/cell
     absolute magnetization    =     0.06 Bohr mag/cell
[tb_dev] Currently allocated     3.05E-05 Mbytes, locked:    0 /   2
[tb_pin] Currently allocated     0.00E+00 Mbytes, locked:    0 /   0

     iteration # 13     ecut=    60.00 Ry     beta= 0.30
     Davidson diagonalization with overlap

---- Real-time Memory Report at c_bands before calling an iterative solver
           701 MiB given to the printing process from OS
             0 MiB allocation reported by mallinfo(arena+hblkhd)
        849294 MiB available memory on the node where the printing process lives
     GPU memory used/free/total (MiB): 928 / 80222 / 81151
------------------
     ethr =  2.15E-06,  avg # of iterations =  1.0

     total cpu time spent up to now is       19.2 secs

     total energy              =    -475.17938200 Ry
     estimated scf accuracy    <       0.00023788 Ry

     total magnetization       =     0.00 Bohr mag/cell
     absolute magnetization    =     0.02 Bohr mag/cell
[tb_dev] Currently allocated     3.05E-05 Mbytes, locked:    0 /   2
[tb_pin] Currently allocated     0.00E+00 Mbytes, locked:    0 /   0

     iteration # 14     ecut=    60.00 Ry     beta= 0.30
     Davidson diagonalization with overlap

---- Real-time Memory Report at c_bands before calling an iterative solver
           701 MiB given to the printing process from OS
             0 MiB allocation reported by mallinfo(arena+hblkhd)
        849306 MiB available memory on the node where the printing process lives
     GPU memory used/free/total (MiB): 928 / 80222 / 81151
------------------
     ethr =  7.43E-07,  avg # of iterations =  1.8

     total cpu time spent up to now is       20.3 secs

     total energy              =    -475.17940856 Ry
     estimated scf accuracy    <       0.00001976 Ry

     total magnetization       =     0.00 Bohr mag/cell
     absolute magnetization    =     0.01 Bohr mag/cell
[tb_dev] Currently allocated     3.05E-05 Mbytes, locked:    0 /   2
[tb_pin] Currently allocated     0.00E+00 Mbytes, locked:    0 /   0

     iteration # 15     ecut=    60.00 Ry     beta= 0.30
     Davidson diagonalization with overlap

---- Real-time Memory Report at c_bands before calling an iterative solver
           701 MiB given to the printing process from OS
             0 MiB allocation reported by mallinfo(arena+hblkhd)
        849300 MiB available memory on the node where the printing process lives
     GPU memory used/free/total (MiB): 928 / 80222 / 81151
------------------
     ethr =  6.18E-08,  avg # of iterations =  6.5

     total cpu time spent up to now is       22.0 secs

     total energy              =    -475.17941472 Ry
     estimated scf accuracy    <       0.00001862 Ry

     total magnetization       =     0.00 Bohr mag/cell
     absolute magnetization    =     0.01 Bohr mag/cell
[tb_dev] Currently allocated     3.05E-05 Mbytes, locked:    0 /   2
[tb_pin] Currently allocated     0.00E+00 Mbytes, locked:    0 /   0

     iteration # 16     ecut=    60.00 Ry     beta= 0.30
     Davidson diagonalization with overlap

---- Real-time Memory Report at c_bands before calling an iterative solver
           702 MiB given to the printing process from OS
             0 MiB allocation reported by mallinfo(arena+hblkhd)
        849329 MiB available memory on the node where the printing process lives
     GPU memory used/free/total (MiB): 928 / 80222 / 81151
------------------
     ethr =  5.82E-08,  avg # of iterations =  1.2

     total cpu time spent up to now is       23.0 secs

     total energy              =    -475.17945495 Ry
     estimated scf accuracy    <       0.00000092 Ry

     total magnetization       =     0.00 Bohr mag/cell
     absolute magnetization    =     0.00 Bohr mag/cell
[tb_dev] Currently allocated     3.05E-05 Mbytes, locked:    0 /   2
[tb_pin] Currently allocated     0.00E+00 Mbytes, locked:    0 /   0

     iteration # 17     ecut=    60.00 Ry     beta= 0.30
     Davidson diagonalization with overlap

---- Real-time Memory Report at c_bands before calling an iterative solver
           702 MiB given to the printing process from OS
             0 MiB allocation reported by mallinfo(arena+hblkhd)
        849757 MiB available memory on the node where the printing process lives
     GPU memory used/free/total (MiB): 928 / 80222 / 81151
------------------
     ethr =  2.87E-09,  avg # of iterations =  6.5

     total cpu time spent up to now is       24.7 secs

     total energy              =    -475.17946423 Ry
     estimated scf accuracy    <       0.00000023 Ry

     total magnetization       =     0.00 Bohr mag/cell
     absolute magnetization    =     0.00 Bohr mag/cell
[tb_dev] Currently allocated     3.05E-05 Mbytes, locked:    0 /   2
[tb_pin] Currently allocated     0.00E+00 Mbytes, locked:    0 /   0

     iteration # 18     ecut=    60.00 Ry     beta= 0.30
     Davidson diagonalization with overlap

---- Real-time Memory Report at c_bands before calling an iterative solver
           702 MiB given to the printing process from OS
             0 MiB allocation reported by mallinfo(arena+hblkhd)
        849785 MiB available memory on the node where the printing process lives
     GPU memory used/free/total (MiB): 928 / 80222 / 81151
------------------
     ethr =  7.20E-10,  avg # of iterations =  2.5

     total cpu time spent up to now is       25.9 secs

     total energy              =    -475.17946332 Ry
     estimated scf accuracy    <       0.00000012 Ry

     total magnetization       =     0.00 Bohr mag/cell
     absolute magnetization    =     0.00 Bohr mag/cell
[tb_dev] Currently allocated     3.05E-05 Mbytes, locked:    0 /   2
[tb_pin] Currently allocated     0.00E+00 Mbytes, locked:    0 /   0

     iteration # 19     ecut=    60.00 Ry     beta= 0.30
     Davidson diagonalization with overlap

---- Real-time Memory Report at c_bands before calling an iterative solver
           702 MiB given to the printing process from OS
             0 MiB allocation reported by mallinfo(arena+hblkhd)
        849674 MiB available memory on the node where the printing process lives
     GPU memory used/free/total (MiB): 928 / 80222 / 81151
------------------
     ethr =  3.88E-10,  avg # of iterations =  3.5
 
     Magnetic moment per site  (integrated on atomic sphere of radius R)
     atom   1 (R=0.276)  charge= 14.0933  magn=  0.0000
     atom   2 (R=0.276)  charge=  5.2034  magn= -0.0001
     atom   3 (R=0.276)  charge=  5.2500  magn= -0.0000
     atom   4 (R=0.323)  charge=  2.1523  magn=  0.0000

     total cpu time spent up to now is       27.2 secs

     End of self-consistent calculation

 ------ SPIN UP ------------


          k = 0.0000 0.0000 0.0000 (  2029 PWs)   bands (ev):

   -85.8918 -49.1736 -49.1736 -49.0945 -37.5624 -11.1861  -9.2205   2.2117
     3.6292   3.6292   6.1655   7.0132   7.0132   8.0258   8.0258   8.9264
    11.6523  11.6523  11.9572  16.5070  19.1629  23.0764  24.7247  24.7247

     occupation numbers 
     1.0000   1.0000   1.0000   1.0000   1.0000   1.0000   1.0000   1.0000
     1.0000   1.0000   1.0000   1.0000   1.0000   1.0000   1.0000   1.0000
     0.0000   0.0000   0.0000   0.0000   0.0000   0.0000   0.0000   0.0000

          k = 0.0000 0.0000 0.1709 (  2024 PWs)   bands (ev):

   -85.8918 -49.1736 -49.1736 -49.0945 -37.5623 -11.1762  -9.2413   2.4708
     3.6305   3.6305   5.5220   7.0095   7.0095   8.0244   8.0244   9.1777
    11.6592  11.6592  12.6661  15.7953  18.9399  23.4118  24.8734  24.8734

     occupation numbers 
     1.0000   1.0000   1.0000   1.0000   1.0000   1.0000   1.0000   1.0000
     1.0000   1.0000   1.0000   1.0000   1.0000   1.0000   1.0000   1.0018
     0.0000   0.0000   0.0000   0.0000   0.0000   0.0000   0.0000   0.0000

          k = 0.0000 0.1443 0.0000 (  2019 PWs)   bands (ev):

   -85.8907 -49.1849 -49.1763 -49.0927 -37.5581 -10.9995  -9.2010   2.4290
     3.2924   3.7275   5.9240   6.5041   6.5811   8.2671   8.4478   8.9664
    11.1123  11.5495  12.3628  17.0462  19.5878  23.0755  23.8680  24.2391

     occupation numbers 
     1.0000   1.0000   1.0000   1.0000   1.0000   1.0000   1.0000   1.0000
     1.0000   1.0000   1.0000   1.0000   1.0000   1.0000   1.0000   1.0000
     0.0000   0.0000   0.0000   0.0000   0.0000   0.0000   0.0000   0.0000

          k = 0.0000 0.1443 0.1709 (  2019 PWs)   bands (ev):

   -85.8907 -49.1850 -49.1763 -49.0927 -37.5580 -10.9893  -9.2210   2.6636
     3.2516   3.7263   5.8460   6.1231   6.5073   8.2463   8.4486   9.2390
    11.0270  11.5446  13.0575  16.3585  19.5914  22.9616  24.0298  24.2299

     occupation numbers 
     1.0000   1.0000   1.0000   1.0000   1.0000   1.0000   1.0000   1.0000
     1.0000   1.0000   1.0000   1.0000   1.0000   1.0000   1.0000   1.0046
     0.0000   0.0000   0.0000   0.0000   0.0000   0.0000   0.0000   0.0000

          k = 0.0000 0.2887 0.0000 (  2021 PWs)   bands (ev):

   -85.8880 -49.2126 -49.1828 -49.0885 -37.5478 -10.5127  -9.1617   2.7329
     3.0637   3.9505   4.3278   5.8649   6.7318   8.3359   8.7910   9.0371
    10.5234  11.4309  13.0678  17.7665  20.3160  21.3374  23.1369  23.8638

     occupation numbers 
     1.0000   1.0000   1.0000   1.0000   1.0000   1.0000   1.0000   1.0000
     1.0000   1.0000   1.0000   1.0000   1.0000   1.0000   1.0000   1.0001
     0.0003   0.0000   0.0000   0.0000   0.0000   0.0000   0.0000   0.0000

          k = 0.0000 0.2887 0.1709 (  2008 PWs)   bands (ev):

   -85.8880 -49.2126 -49.1827 -49.0883 -37.5477 -10.5029  -9.1771   2.6187
     3.2587   3.9442   4.3606   5.8772   6.5579   8.2567   8.7968   9.2277
    10.2728  11.4084  13.6034  17.3958  20.4721  21.0324  23.1640  23.4861

     occupation numbers 
     1.0000   1.0000   1.0000   1.0000   1.0000   1.0000   1.0000   1.0000
     1.0000   1.0000   1.0000   1.0000   1.0000   1.0000   1.0000   1.0039
     0.0229   0.0000   0.0000   0.0000   0.0000   0.0000   0.0000   0.0000

          k = 0.0000 0.4330 0.0000 (  2014 PWs)   bands (ev):

   -85.8854 -49.2404 -49.1893 -49.0840 -37.5374  -9.9498  -9.1461   2.1765
     3.1826   4.1073   4.1145   5.5559   5.9419   8.2475   8.7321   8.9978
    10.8248  11.4847  13.6652  17.5316  19.4773  21.0465  22.2243  23.2507

     occupation numbers 
     1.0000   1.0000   1.0000   1.0000   1.0000   1.0000   1.0000   1.0000
     1.0000   1.0000   1.0000   1.0000   1.0000   1.0000   1.0000   1.0001
     0.0000   0.0000   0.0000   0.0000   0.0000   0.0000   0.0000   0.0000

          k = 0.0000 0.4330 0.1709 (  1996 PWs)   bands (ev):

   -85.8853 -49.2403 -49.1891 -49.0840 -37.5372  -9.9454  -9.1507   2.0648
     3.1478   4.0929   4.2432   5.5816   6.1649   8.1447   8.7349   9.0313
    10.5445  11.4501  13.9022  17.5803  19.1202  21.4416  22.3491  22.7831

     occupation numbers 
     1.0000   1.0000   1.0000   1.0000   1.0000   1.0000   1.0000   1.0000
     1.0000   1.0000   1.0000   1.0000   1.0000   1.0000   1.0000   1.0001
     0.0002   0.0000   0.0000   0.0000   0.0000   0.0000   0.0000   0.0000

          k = 0.0000-0.5774 0.0000 (  1982 PWs)   bands (ev):

   -85.8842 -49.2516 -49.1919 -49.0821 -37.5329  -9.6723  -9.1634   1.7424
     3.2455   4.1310   4.5644   5.3019   5.5187   8.1409   8.6303   8.9515
    11.1350  11.5435  13.9163  17.0675  19.1049  20.9827  21.8896  23.1153

     occupation numbers 
     1.0000   1.0000   1.0000   1.0000   1.0000   1.0000   1.0000   1.0000
     1.0000   1.0000   1.0000   1.0000   1.0000   1.0000   1.0000   1.0000
     0.0000   0.0000   0.0000   0.0000   0.0000   0.0000   0.0000   0.0000

          k = 0.0000-0.5774 0.1709 (  2004 PWs)   bands (ev):

   -85.8843 -49.2518 -49.1919 -49.0822 -37.5330  -9.6716  -9.1630   1.6590
     3.2030   4.1164   4.5094   5.5448   5.6824   8.0591   8.6299   8.9247
    11.0185  11.5095  13.8949  16.9982  19.5877  20.7151  22.0553  23.1719

     occupation numbers 
     1.0000   1.0000   1.0000   1.0000   1.0000   1.0000   1.0000   1.0000
     1.0000   1.0000   1.0000   1.0000   1.0000   1.0000   1.0000   1.0000
     0.0000   0.0000   0.0000   0.0000   0.0000   0.0000   0.0000   0.0000

          k = 0.1250 0.2165 0.0000 (  2017 PWs)   bands (ev):

   -85.8888 -49.2032 -49.1822 -49.0896 -37.5508 -10.6624  -9.1709   2.7784
     3.0057   3.8227   4.8889   5.7665   6.8375   8.4132   8.7524   9.0157
    10.8081  11.0998  12.9771  17.6781  20.2067  22.1796  22.5847  24.0452

     occupation numbers 
     1.0000   1.0000   1.0000   1.0000   1.0000   1.0000   1.0000   1.0000
     1.0000   1.0000   1.0000   1.0000   1.0000   1.0000   1.0000   1.0001
     0.0000   0.0000   0.0000   0.0000   0.0000   0.0000   0.0000   0.0000

          k = 0.1250 0.2165 0.1709 (  2012 PWs)   bands (ev):

   -85.8888 -49.2032 -49.1821 -49.0896 -37.5507 -10.6513  -9.1897   2.7779
     3.1551   3.8260   4.8797   5.7574   6.4851   8.4287   8.6979   9.2111
    10.6458  11.2481  13.3684  17.3087  20.3297  21.7524  22.7847  23.7872

     occupation numbers 
     1.0000   1.0000   1.0000   1.0000   1.0000   1.0000   1.0000   1.0000
     1.0000   1.0000   1.0000   1.0000   1.0000   1.0000   1.0000   1.0030
     0.0000   0.0000   0.0000   0.0000   0.0000   0.0000   0.0000   0.0000

          k = 0.1250 0.3608 0.0000 (  2004 PWs)   bands (ev):

   -85.8861 -49.2281 -49.1914 -49.0852 -37.5404 -10.1350  -9.1379   2.6161
     3.1800   3.8244   4.1695   5.2188   6.4194   8.4117   8.8739   9.0171
    10.6569  11.0853  13.6825  17.9166  19.8117  20.9487  22.2524  23.9280

     occupation numbers 
     1.0000   1.0000   1.0000   1.0000   1.0000   1.0000   1.0000   1.0000
     1.0000   1.0000   1.0000   1.0000   1.0000   1.0000   1.0000   1.0001
     0.0000   0.0000   0.0000   0.0000   0.0000   0.0000   0.0000   0.0000

          k = 0.1250 0.3608 0.1709 (  2005 PWs)   bands (ev):

   -85.8861 -49.2281 -49.1915 -49.0853 -37.5403 -10.1263  -9.1493   2.4940
     3.1703   3.9891   4.2069   5.2292   6.4107   8.3822   8.8292   9.0571
    10.4983  11.1656  13.8127  18.0661  19.3540  20.9269  22.5988  23.3879

     occupation numbers 
     1.0000   1.0000   1.0000   1.0000   1.0000   1.0000   1.0000   1.0000
     1.0000   1.0000   1.0000   1.0000   1.0000   1.0000   1.0000   1.0002
     0.0006   0.0000   0.0000   0.0000   0.0000   0.0000   0.0000   0.0000

          k = 0.1250 0.5052 0.0000 (  1995 PWs)   bands (ev):

   -85.8842 -49.2455 -49.1982 -49.0821 -37.5330  -9.7078  -9.1302   2.0457
     3.1293   4.0652   4.4984   5.0033   5.5962   8.3073   8.6980   9.0172
    10.9429  11.1963  14.2383  17.1921  19.0491  20.9190  22.2733  23.3129

     occupation numbers 
     1.0000   1.0000   1.0000   1.0000   1.0000   1.0000   1.0000   1.0000
     1.0000   1.0000   1.0000   1.0000   1.0000   1.0000   1.0000   1.0001
     0.0000   0.0000   0.0000   0.0000   0.0000   0.0000   0.0000   0.0000

          k = 0.1250 0.5052 0.1709 (  1996 PWs)   bands (ev):

   -85.8842 -49.2455 -49.1982 -49.0821 -37.5329  -9.7064  -9.1305   1.9565
     3.0671   4.0714   4.5228   5.0507   5.8502   8.2302   8.7103   8.9779
    10.8681  11.2771  14.0913  17.1051  19.2799  20.7764  22.2131  23.3351

     occupation numbers 
     1.0000   1.0000   1.0000   1.0000   1.0000   1.0000   1.0000   1.0000
     1.0000   1.0000   1.0000   1.0000   1.0000   1.0000   1.0000   1.0000
     0.0000   0.0000   0.0000   0.0000   0.0000   0.0000   0.0000   0.0000

          k = 0.2500 0.4330 0.0000 (  2011 PWs)   bands (ev):

   -85.8843 -49.2369 -49.2071 -49.0821 -37.5330  -9.7395  -9.1008   2.5547
     2.9487   3.8365   4.3123   4.7554   5.8269   8.4182   8.7509   9.1293
    10.5898  11.0368  14.5049  17.2863  18.9524  20.9552  22.7784  23.8324

     occupation numbers 
     1.0000   1.0000   1.0000   1.0000   1.0000   1.0000   1.0000   1.0000
     1.0000   1.0000   1.0000   1.0000   1.0000   1.0000   1.0000   1.0008
     0.0001   0.0000   0.0000   0.0000   0.0000   0.0000   0.0000   0.0000

          k = 0.2500 0.4330 0.1709 (  2010 PWs)   bands (ev):

   -85.8843 -49.2369 -49.2071 -49.0822 -37.5330  -9.7338  -9.1067   2.4914
     2.8451   3.8254   4.5143   4.7897   5.8377   8.4270   8.7604   9.0074
    10.8063  11.0773  14.1805  17.2632  19.1222  20.7433  22.4498  23.8768

     occupation numbers 
     1.0000   1.0000   1.0000   1.0000   1.0000   1.0000   1.0000   1.0000
     1.0000   1.0000   1.0000   1.0000   1.0000   1.0000   1.0000   1.0001
     0.0000   0.0000   0.0000   0.0000   0.0000   0.0000   0.0000   0.0000

          k = 0.2500 0.5774 0.0000 (  1978 PWs)   bands (ev):

   -85.8834 -49.2373 -49.2163 -49.0806 -37.5299  -9.5791  -9.0706   2.4327
     3.0136   3.5694   4.5358   4.9130   5.2943   8.2667   8.8839   9.0946
    10.7082  10.9055  15.0907  16.4857  18.8676  20.9838  23.3251  23.6504

     occupation numbers 
     1.0000   1.0000   1.0000   1.0000   1.0000   1.0000   1.0000   1.0000
     1.0000   1.0000   1.0000   1.0000   1.0000   1.0000   1.0000   1.0004
     0.0000   0.0000   0.0000   0.0000   0.0000   0.0000   0.0000   0.0000

          k = 0.2500 0.5774 0.1709 (  2008 PWs)   bands (ev):

   -85.8835 -49.2374 -49.2164 -49.0810 -37.5300  -9.5782  -9.0705   2.3648
     2.9401   3.5254   4.6433   4.9552   5.4022   8.2479   8.8818   9.0157
    10.8998  11.0650  14.7030  16.2044  19.1207  20.8912  22.6717  23.8783

     occupation numbers 
     1.0000   1.0000   1.0000   1.0000   1.0000   1.0000   1.0000   1.0000
     1.0000   1.0000   1.0000   1.0000   1.0000   1.0000   1.0000   1.0001
     0.0000   0.0000   0.0000   0.0000   0.0000   0.0000   0.0000   0.0000

          k = 0.0000-0.1443 0.1709 (  2019 PWs)   bands (ev):

   -85.8907 -49.1850 -49.1762 -49.0927 -37.5580 -10.9890  -9.2216   2.6763
     3.2495   3.7307   5.7872   6.1623   6.4942   8.2564   8.4486   9.2189
    11.1122  11.5607  12.9391  16.4335  19.5390  23.0376  23.9744  24.3270

     occupation numbers 
     1.0000   1.0000   1.0000   1.0000   1.0000   1.0000   1.0000   1.0000
     1.0000   1.0000   1.0000   1.0000   1.0000   1.0000   1.0000   1.0034
     0.0000   0.0000   0.0000   0.0000   0.0000   0.0000   0.0000   0.0000

          k = 0.0000-0.2887 0.1709 (  2008 PWs)   bands (ev):

   -85.8880 -49.2126 -49.1827 -49.0883 -37.5477 -10.5003  -9.1814   2.6863
     3.2508   3.9539   4.3493   5.8570   6.3840   8.3239   8.7951   9.1277
    10.5967  11.4315  13.2767  17.7685  19.8963  21.8524  23.1883  23.3723

     occupation numbers 
     1.0000   1.0000   1.0000   1.0000   1.0000   1.0000   1.0000   1.0000
     1.0000   1.0000   1.0000   1.0000   1.0000   1.0000   1.0000   1.0008
     0.0001   0.0000   0.0000   0.0000   0.0000   0.0000   0.0000   0.0000

          k = 0.0000-0.4330 0.1709 (  1996 PWs)   bands (ev):

   -85.8853 -49.2403 -49.1891 -49.0839 -37.5372  -9.9385  -9.1601   2.1119
     3.1365   4.1028   4.3588   5.5637   5.8474   8.2265   8.7361   8.9625
    10.8692  11.4647  13.5776  17.8205  19.5617  20.9060  22.3487  23.5200

     occupation numbers 
     1.0000   1.0000   1.0000   1.0000   1.0000   1.0000   1.0000   1.0000
     1.0000   1.0000   1.0000   1.0000   1.0000   1.0000   1.0000   1.0000
     0.0000   0.0000   0.0000   0.0000   0.0000   0.0000   0.0000   0.0000

          k =-0.1250-0.3608 0.1709 (  2005 PWs)   bands (ev):

   -85.8861 -49.2281 -49.1915 -49.0853 -37.5403 -10.1233  -9.1536   2.5394
     3.1580   3.9994   4.2237   5.2224   6.2521   8.4583   8.8417   8.9617
    10.7819  11.0879  13.6359  18.2710  19.4727  20.8917  22.2968  23.7596

     occupation numbers 
     1.0000   1.0000   1.0000   1.0000   1.0000   1.0000   1.0000   1.0000
     1.0000   1.0000   1.0000   1.0000   1.0000   1.0000   1.0000   1.0000
     0.0000   0.0000   0.0000   0.0000   0.0000   0.0000   0.0000   0.0000

          k =-0.1250-0.5052 0.1709 (  1996 PWs)   bands (ev):

   -85.8842 -49.2455 -49.1982 -49.0821 -37.5329  -9.7020  -9.1361   1.9742
     3.0664   4.0690   4.6174   5.0428   5.6750   8.2837   8.7034   8.9410
    11.0593  11.2105  13.9852  17.1238  19.8104  20.3816  21.9500  23.6429

     occupation numbers 
     1.0000   1.0000   1.0000   1.0000   1.0000   1.0000   1.0000   1.0000
     1.0000   1.0000   1.0000   1.0000   1.0000   1.0000   1.0000   1.0000
     0.0000   0.0000   0.0000   0.0000   0.0000   0.0000   0.0000   0.0000

 ------ SPIN DOWN ----------


          k = 0.0000 0.0000 0.0000 (  2029 PWs)   bands (ev):

   -85.8917 -49.1731 -49.1731 -49.0952 -37.5624 -11.1862  -9.2207   2.2116
     3.6293   3.6293   6.1653   7.0131   7.0131   8.0254   8.0254   8.9266
    11.6524  11.6524  11.9572  16.5069  19.1629  23.0764  24.7247  24.7247

     occupation numbers 
     1.0000   1.0000   1.0000   1.0000   1.0000   1.0000   1.0000   1.0000
     1.0000   1.0000   1.0000   1.0000   1.0000   1.0000   1.0000   1.0000
     0.0000   0.0000   0.0000   0.0000   0.0000   0.0000   0.0000   0.0000

          k = 0.0000 0.0000 0.1709 (  2024 PWs)   bands (ev):

   -85.8917 -49.1731 -49.1731 -49.0951 -37.5623 -11.1763  -9.2415   2.4707
     3.6306   3.6306   5.5218   7.0093   7.0093   8.0240   8.0240   9.1778
    11.6594  11.6594  12.6660  15.7953  18.9399  23.4117  24.8734  24.8734

     occupation numbers 
     1.0000   1.0000   1.0000   1.0000   1.0000   1.0000   1.0000   1.0000
     1.0000   1.0000   1.0000   1.0000   1.0000   1.0000   1.0000   1.0018
     0.0000   0.0000   0.0000   0.0000   0.0000   0.0000   0.0000   0.0000

          k = 0.0000 0.1443 0.0000 (  2019 PWs)   bands (ev):

   -85.8906 -49.1845 -49.1759 -49.0934 -37.5581 -10.9997  -9.2011   2.4289
     3.2925   3.7276   5.9238   6.5039   6.5809   8.2668   8.4475   8.9666
    11.1125  11.5497  12.3627  17.0462  19.5877  23.0755  23.8680  24.2391

     occupation numbers 
     1.0000   1.0000   1.0000   1.0000   1.0000   1.0000   1.0000   1.0000
     1.0000   1.0000   1.0000   1.0000   1.0000   1.0000   1.0000   1.0000
     0.0000   0.0000   0.0000   0.0000   0.0000   0.0000   0.0000   0.0000

          k = 0.0000 0.1443 0.1709 (  2019 PWs)   bands (ev):

   -85.8906 -49.1845 -49.1758 -49.0933 -37.5581 -10.9894  -9.2212   2.6635
     3.2517   3.7264   5.8458   6.1229   6.5071   8.2460   8.4483   9.2391
    11.0272  11.5447  13.0575  16.3585  19.5914  22.9615  24.0298  24.2299

     occupation numbers 
     1.0000   1.0000   1.0000   1.0000   1.0000   1.0000   1.0000   1.0000
     1.0000   1.0000   1.0000   1.0000   1.0000   1.0000   1.0000   1.0046
     0.0000   0.0000   0.0000   0.0000   0.0000   0.0000   0.0000   0.0000

          k = 0.0000 0.2887 0.0000 (  2021 PWs)   bands (ev):

   -85.8880 -49.2122 -49.1823 -49.0891 -37.5478 -10.5128  -9.1619   2.7330
     3.0636   3.9505   4.3277   5.8647   6.7316   8.3357   8.7910   9.0372
    10.5235  11.4309  13.0678  17.7664  20.3160  21.3374  23.1368  23.8638

     occupation numbers 
     1.0000   1.0000   1.0000   1.0000   1.0000   1.0000   1.0000   1.0000
     1.0000   1.0000   1.0000   1.0000   1.0000   1.0000   1.0000   1.0001
     0.0003   0.0000   0.0000   0.0000   0.0000   0.0000   0.0000   0.0000

          k = 0.0000 0.2887 0.1709 (  2008 PWs)   bands (ev):

   -85.8880 -49.2122 -49.1822 -49.0890 -37.5477 -10.5031  -9.1773   2.6187
     3.2586   3.9442   4.3605   5.8770   6.5577   8.2565   8.7967   9.2278
    10.2729  11.4084  13.6034  17.3957  20.4721  21.0324  23.1640  23.4861

     occupation numbers 
     1.0000   1.0000   1.0000   1.0000   1.0000   1.0000   1.0000   1.0000
     1.0000   1.0000   1.0000   1.0000   1.0000   1.0000   1.0000   1.0039
     0.0229   0.0000   0.0000   0.0000   0.0000   0.0000   0.0000   0.0000

          k = 0.0000 0.4330 0.0000 (  2014 PWs)   bands (ev):

   -85.8853 -49.2399 -49.1889 -49.0846 -37.5374  -9.9499  -9.1463   2.1765
     3.1826   4.1071   4.1144   5.5557   5.9418   8.2474   8.7323   8.9978
    10.8249  11.4845  13.6652  17.5315  19.4773  21.0464  22.2243  23.2507

     occupation numbers 
     1.0000   1.0000   1.0000   1.0000   1.0000   1.0000   1.0000   1.0000
     1.0000   1.0000   1.0000   1.0000   1.0000   1.0000   1.0000   1.0001
     0.0000   0.0000   0.0000   0.0000   0.0000   0.0000   0.0000   0.0000

          k = 0.0000 0.4330 0.1709 (  1996 PWs)   bands (ev):

   -85.8853 -49.2399 -49.1887 -49.0846 -37.5373  -9.9455  -9.1509   2.0648
     3.1477   4.0927   4.2431   5.5814   6.1648   8.1446   8.7351   9.0315
    10.5445  11.4498  13.9022  17.5802  19.1201  21.4416  22.3490  22.7831

     occupation numbers 
     1.0000   1.0000   1.0000   1.0000   1.0000   1.0000   1.0000   1.0000
     1.0000   1.0000   1.0000   1.0000   1.0000   1.0000   1.0000   1.0001
     0.0002   0.0000   0.0000   0.0000   0.0000   0.0000   0.0000   0.0000

          k = 0.0000-0.5774 0.0000 (  1982 PWs)   bands (ev):

   -85.8841 -49.2511 -49.1914 -49.0827 -37.5329  -9.6725  -9.1636   1.7423
     3.2454   4.1308   4.5643   5.3017   5.5185   8.1408   8.6306   8.9515
    11.1350  11.5432  13.9163  17.0674  19.1049  20.9827  21.8895  23.1153

     occupation numbers 
     1.0000   1.0000   1.0000   1.0000   1.0000   1.0000   1.0000   1.0000
     1.0000   1.0000   1.0000   1.0000   1.0000   1.0000   1.0000   1.0000
     0.0000   0.0000   0.0000   0.0000   0.0000   0.0000   0.0000   0.0000

          k = 0.0000-0.5774 0.1709 (  2004 PWs)   bands (ev):

   -85.8842 -49.2514 -49.1914 -49.0829 -37.5330  -9.6717  -9.1632   1.6589
     3.2029   4.1162   4.5093   5.5447   5.6823   8.0590   8.6303   8.9248
    11.0186  11.5092  13.8949  16.9982  19.5877  20.7151  22.0553  23.1719

     occupation numbers 
     1.0000   1.0000   1.0000   1.0000   1.0000   1.0000   1.0000   1.0000
     1.0000   1.0000   1.0000   1.0000   1.0000   1.0000   1.0000   1.0000
     0.0000   0.0000   0.0000   0.0000   0.0000   0.0000   0.0000   0.0000

          k = 0.1250 0.2165 0.0000 (  2017 PWs)   bands (ev):

   -85.8888 -49.2028 -49.1817 -49.0903 -37.5508 -10.6625  -9.1711   2.7783
     3.0057   3.8227   4.8888   5.7662   6.8373   8.4131   8.7522   9.0158
    10.8082  11.0999  12.9770  17.6780  20.2067  22.1796  22.5846  24.0452

     occupation numbers 
     1.0000   1.0000   1.0000   1.0000   1.0000   1.0000   1.0000   1.0000
     1.0000   1.0000   1.0000   1.0000   1.0000   1.0000   1.0000   1.0001
     0.0000   0.0000   0.0000   0.0000   0.0000   0.0000   0.0000   0.0000

          k = 0.1250 0.2165 0.1709 (  2012 PWs)   bands (ev):

   -85.8887 -49.2027 -49.1817 -49.0903 -37.5507 -10.6514  -9.1899   2.7779
     3.1550   3.8260   4.8796   5.7571   6.4849   8.4286   8.6977   9.2112
    10.6459  11.2481  13.3684  17.3086  20.3296  21.7524  22.7847  23.7872

     occupation numbers 
     1.0000   1.0000   1.0000   1.0000   1.0000   1.0000   1.0000   1.0000
     1.0000   1.0000   1.0000   1.0000   1.0000   1.0000   1.0000   1.0031
     0.0000   0.0000   0.0000   0.0000   0.0000   0.0000   0.0000   0.0000

          k = 0.1250 0.3608 0.0000 (  2004 PWs)   bands (ev):

   -85.8861 -49.2276 -49.1910 -49.0859 -37.5404 -10.1351  -9.1380   2.6161
     3.1798   3.8243   4.1694   5.2185   6.4192   8.4117   8.8740   9.0171
    10.6569  11.0852  13.6825  17.9165  19.8116  20.9487  22.2524  23.9279

     occupation numbers 
     1.0000   1.0000   1.0000   1.0000   1.0000   1.0000   1.0000   1.0000
     1.0000   1.0000   1.0000   1.0000   1.0000   1.0000   1.0000   1.0001
     0.0000   0.0000   0.0000   0.0000   0.0000   0.0000   0.0000   0.0000

          k = 0.1250 0.3608 0.1709 (  2005 PWs)   bands (ev):

   -85.8861 -49.2276 -49.1910 -49.0859 -37.5403 -10.1264  -9.1495   2.4940
     3.1702   3.9890   4.2068   5.2290   6.4106   8.3822   8.8293   9.0572
    10.4983  11.1655  13.8127  18.0660  19.3540  20.9268  22.5987  23.3879

     occupation numbers 
     1.0000   1.0000   1.0000   1.0000   1.0000   1.0000   1.0000   1.0000
     1.0000   1.0000   1.0000   1.0000   1.0000   1.0000   1.0000   1.0002
     0.0006   0.0000   0.0000   0.0000   0.0000   0.0000   0.0000   0.0000

          k = 0.1250 0.5052 0.0000 (  1995 PWs)   bands (ev):

   -85.8842 -49.2450 -49.1978 -49.0827 -37.5330  -9.7079  -9.1304   2.0456
     3.1292   4.0651   4.4983   5.0031   5.5961   8.3073   8.6983   9.0171
    10.9428  11.1962  14.2382  17.1920  19.0491  20.9190  22.2733  23.3129

     occupation numbers 
     1.0000   1.0000   1.0000   1.0000   1.0000   1.0000   1.0000   1.0000
     1.0000   1.0000   1.0000   1.0000   1.0000   1.0000   1.0000   1.0001
     0.0000   0.0000   0.0000   0.0000   0.0000   0.0000   0.0000   0.0000

          k = 0.1250 0.5052 0.1709 (  1996 PWs)   bands (ev):

   -85.8842 -49.2451 -49.1977 -49.0828 -37.5329  -9.7066  -9.1307   1.9564
     3.0670   4.0712   4.5227   5.0506   5.8501   8.2302   8.7106   8.9780
    10.8680  11.2768  14.0913  17.1051  19.2799  20.7764  22.2131  23.3351

     occupation numbers 
     1.0000   1.0000   1.0000   1.0000   1.0000   1.0000   1.0000   1.0000
     1.0000   1.0000   1.0000   1.0000   1.0000   1.0000   1.0000   1.0000
     0.0000   0.0000   0.0000   0.0000   0.0000   0.0000   0.0000   0.0000

          k = 0.2500 0.4330 0.0000 (  2011 PWs)   bands (ev):

   -85.8842 -49.2365 -49.2067 -49.0828 -37.5331  -9.7396  -9.1010   2.5546
     2.9486   3.8363   4.3122   4.7553   5.8268   8.4184   8.7512   9.1293
    10.5896  11.0367  14.5049  17.2862  18.9523  20.9551  22.7784  23.8322

     occupation numbers 
     1.0000   1.0000   1.0000   1.0000   1.0000   1.0000   1.0000   1.0000
     1.0000   1.0000   1.0000   1.0000   1.0000   1.0000   1.0000   1.0008
     0.0001   0.0000   0.0000   0.0000   0.0000   0.0000   0.0000   0.0000

          k = 0.2500 0.4330 0.1709 (  2010 PWs)   bands (ev):

   -85.8842 -49.2364 -49.2066 -49.0829 -37.5330  -9.7339  -9.1069   2.4913
     2.8450   3.8253   4.5142   4.7895   5.8376   8.4271   8.7606   9.0074
    10.8060  11.0772  14.1805  17.2632  19.1221  20.7432  22.4498  23.8768

     occupation numbers 
     1.0000   1.0000   1.0000   1.0000   1.0000   1.0000   1.0000   1.0000
     1.0000   1.0000   1.0000   1.0000   1.0000   1.0000   1.0000   1.0001
     0.0000   0.0000   0.0000   0.0000   0.0000   0.0000   0.0000   0.0000

          k = 0.2500 0.5774 0.0000 (  1978 PWs)   bands (ev):

   -85.8834 -49.2369 -49.2159 -49.0813 -37.5299  -9.5793  -9.0708   2.4325
     3.0134   3.5693   4.5357   4.9129   5.2942   8.2669   8.8841   9.0946
    10.7080  10.9053  15.0907  16.4857  18.8675  20.9838  23.3251  23.6504

     occupation numbers 
     1.0000   1.0000   1.0000   1.0000   1.0000   1.0000   1.0000   1.0000
     1.0000   1.0000   1.0000   1.0000   1.0000   1.0000   1.0000   1.0004
     0.0000   0.0000   0.0000   0.0000   0.0000   0.0000   0.0000   0.0000

          k = 0.2500 0.5774 0.1709 (  2008 PWs)   bands (ev):

   -85.8834 -49.2370 -49.2160 -49.0816 -37.5300  -9.5783  -9.0707   2.3647
     2.9399   3.5253   4.6432   4.9551   5.4021   8.2481   8.8820   9.0157
    10.8996  11.0649  14.7030  16.2044  19.1206  20.8912  22.6717  23.8837

     occupation numbers 
     1.0000   1.0000   1.0000   1.0000   1.0000   1.0000   1.0000   1.0000
     1.0000   1.0000   1.0000   1.0000   1.0000   1.0000   1.0000   1.0001
     0.0000   0.0000   0.0000   0.0000   0.0000   0.0000   0.0000   0.0000

          k = 0.0000-0.1443 0.1709 (  2019 PWs)   bands (ev):

   -85.8906 -49.1845 -49.1758 -49.0933 -37.5581 -10.9891  -9.2218   2.6762
     3.2495   3.7308   5.7870   6.1621   6.4940   8.2561   8.4483   9.2190
    11.1123  11.5608  12.9390  16.4334  19.5390  23.0376  23.9744  24.3270

     occupation numbers 
     1.0000   1.0000   1.0000   1.0000   1.0000   1.0000   1.0000   1.0000
     1.0000   1.0000   1.0000   1.0000   1.0000   1.0000   1.0000   1.0034
     0.0000   0.0000   0.0000   0.0000   0.0000   0.0000   0.0000   0.0000

          k = 0.0000-0.2887 0.1709 (  2008 PWs)   bands (ev):

   -85.8880 -49.2122 -49.1822 -49.0890 -37.5477 -10.5005  -9.1816   2.6864
     3.2507   3.9539   4.3491   5.8568   6.3839   8.3237   8.7950   9.1279
    10.5968  11.4315  13.2766  17.7684  19.8963  21.8524  23.1883  23.3723

     occupation numbers 
     1.0000   1.0000   1.0000   1.0000   1.0000   1.0000   1.0000   1.0000
     1.0000   1.0000   1.0000   1.0000   1.0000   1.0000   1.0000   1.0008
     0.0001   0.0000   0.0000   0.0000   0.0000   0.0000   0.0000   0.0000

          k = 0.0000-0.4330 0.1709 (  1996 PWs)   bands (ev):

   -85.8853 -49.2399 -49.1887 -49.0846 -37.5373  -9.9387  -9.1603   2.1118
     3.1364   4.1026   4.3588   5.5635   5.8472   8.2263   8.7363   8.9627
    10.8692  11.4645  13.5776  17.8204  19.5616  20.9060  22.3487  23.5199

     occupation numbers 
     1.0000   1.0000   1.0000   1.0000   1.0000   1.0000   1.0000   1.0000
     1.0000   1.0000   1.0000   1.0000   1.0000   1.0000   1.0000   1.0000
     0.0000   0.0000   0.0000   0.0000   0.0000   0.0000   0.0000   0.0000

          k =-0.1250-0.3608 0.1709 (  2005 PWs)   bands (ev):

   -85.8861 -49.2276 -49.1910 -49.0859 -37.5403 -10.1235  -9.1538   2.5394
     3.1578   3.9993   4.2236   5.2222   6.2520   8.4583   8.8418   8.9619
    10.7819  11.0878  13.6359  18.2709  19.4726  20.8917  22.2968  23.7597

     occupation numbers 
     1.0000   1.0000   1.0000   1.0000   1.0000   1.0000   1.0000   1.0000
     1.0000   1.0000   1.0000   1.0000   1.0000   1.0000   1.0000   1.0000
     0.0000   0.0000   0.0000   0.0000   0.0000   0.0000   0.0000   0.0000

          k =-0.1250-0.5052 0.1709 (  1996 PWs)   bands (ev):

   -85.8842 -49.2451 -49.1977 -49.0828 -37.5329  -9.7022  -9.1363   1.9742
     3.0663   4.0688   4.6174   5.0426   5.6748   8.2837   8.7037   8.9410
    11.0593  11.2102  13.9852  17.1238  19.8103  20.3815  21.9500  23.6429

     occupation numbers 
     1.0000   1.0000   1.0000   1.0000   1.0000   1.0000   1.0000   1.0000
     1.0000   1.0000   1.0000   1.0000   1.0000   1.0000   1.0000   1.0000
     0.0000   0.0000   0.0000   0.0000   0.0000   0.0000   0.0000   0.0000

     the Fermi energy is     9.9815 ev

     WARNING: integrated charge=    32.00296058, expected=    32.00000000

!    total energy              =    -475.17946476 Ry
     total all-electron energy =     -3103.051602 Ry
     estimated scf accuracy    <       0.00000001 Ry
     smearing contrib. (-TS)   =       0.00004481 Ry
     internal energy E=F+TS    =    -475.17950957 Ry

     The total energy is F=E-TS. E is the sum of the following terms:
     one-electron contribution =    -339.56015377 Ry
     hartree contribution      =     184.82516389 Ry
     xc contribution           =     -49.28825582 Ry
     ewald contribution        =    -164.47621564 Ry
     one-center paw contrib.   =    -106.68004823 Ry
      -> PAW hartree energy AE =     282.11692528 Ry
      -> PAW hartree energy PS =    -280.74745384 Ry
      -> PAW xc energy AE      =    -154.50523811 Ry
      -> PAW xc energy PS      =      46.45571844 Ry
      -> total E_H with PAW    =     186.19463534 Ry
      -> total E_XC with PAW   =    -157.33777549 Ry

     total magnetization       =    -0.00 Bohr mag/cell
     absolute magnetization    =     0.00 Bohr mag/cell

     convergence has been achieved in  19 iterations

     Forces acting on atoms (cartesian axes, Ry/au):

     atom    1 type  1   force =     0.00000000    0.00000000    0.04381171
     atom    2 type  2   force =     0.00000000    0.00000000    0.05458520
     atom    3 type  2   force =    -0.00000000   -0.00000000   -0.09339182
     atom    4 type  3   force =     0.00000000    0.00000000   -0.00500509
     The non-local contrib.  to forces
     atom    1 type  1   force =     0.00000000    0.00000000   -0.06440261
     atom    2 type  2   force =     0.00000000    0.00000000   -0.72522733
     atom    3 type  2   force =     0.00000000    0.00000000    0.40598224
     atom    4 type  3   force =     0.00000000    0.00000000   -0.03422407
     The ionic contribution  to forces
     atom    1 type  1   force =    -0.00000000   -0.00000000    3.07097697
     atom    2 type  2   force =     0.00000000   -0.00000000   26.75414950
     atom    3 type  2   force =    -0.00000000    0.00000000  -25.16698928
     atom    4 type  3   force =     0.00000000   -0.00000000   -4.65813719
     The local contribution  to forces
     atom    1 type  1   force =    -0.00000000   -0.00000000   -2.96248920
     atom    2 type  2   force =     0.00000001   -0.00000001  -25.98012750
     atom    3 type  2   force =    -0.00000001    0.00000001   24.67056594
     atom    4 type  3   force =    -0.00000000   -0.00000000    4.68736449
     The core correction contribution to forces
     atom    1 type  1   force =    -0.00000000    0.00000000   -0.00012154
     atom    2 type  2   force =    -0.00000000    0.00000000    0.00574489
     atom    3 type  2   force =     0.00000000   -0.00000000   -0.00289731
     atom    4 type  3   force =     0.00000000    0.00000000    0.00000000
     The Hubbard contrib.    to forces
     atom    1 type  1   force =     0.00000000    0.00000000    0.00000000
     atom    2 type  2   force =     0.00000000    0.00000000    0.00000000
     atom    3 type  2   force =     0.00000000    0.00000000    0.00000000
     atom    4 type  3   force =     0.00000000    0.00000000    0.00000000
     The SCF correction term to forces
     atom    1 type  1   force =     0.00000000   -0.00000000   -0.00014987
     atom    2 type  2   force =    -0.00000000    0.00000000    0.00004768
     atom    3 type  2   force =     0.00000000   -0.00000000   -0.00005138
     atom    4 type  3   force =     0.00000000   -0.00000000   -0.00000629

     Total force =     0.116816     Total SCF correction =     0.000166

     Writing all to output data dir ./out/pw.save/ :
     XML data file, charge density, pseudopotentials, collected wavefunctions
 
     init_run     :     10.14s CPU      2.40s WALL (       1 calls)
     electrons    :     98.59s CPU     24.34s WALL (       1 calls)
     forces       :      0.58s CPU      0.54s WALL (       1 calls)

     Called by init_run:
     wfcinit      :      0.27s CPU      0.31s WALL (       1 calls)
     wfcinit:atom :      0.04s CPU      0.04s WALL (      50 calls)
     wfcinit:wfcr :      0.17s CPU      0.20s WALL (      50 calls)
     potinit      :      9.39s CPU      1.56s WALL (       1 calls)
     hinit0       :      0.41s CPU      0.40s WALL (       1 calls)

     Called by electrons:
     c_bands      :     10.90s CPU     10.87s WALL (      19 calls)
     sum_band     :      2.09s CPU      2.09s WALL (      19 calls)
     v_of_rho     :      0.29s CPU      0.15s WALL (      20 calls)
     v_h          :      0.20s CPU      0.03s WALL (      20 calls)
     v_xc         :      0.09s CPU      0.12s WALL (      21 calls)
     newd         :      0.46s CPU      0.37s WALL (      20 calls)
                                        0.37s GPU  (      20 calls)
     PAW_pot      :     88.42s CPU     10.95s WALL (      20 calls)
     mix_rho      :      0.49s CPU      0.48s WALL (      19 calls)

     Called by c_bands:
     init_us_2    :      0.82s CPU      0.81s WALL (    2000 calls)
     cegterg      :      9.58s CPU      9.56s WALL (     950 calls)

     Called by sum_band:
     sum_band:wei :      0.03s CPU      0.03s WALL (      19 calls)
                                        0.03s GPU  (      19 calls)
     sum_band:loo :      1.33s CPU      1.33s WALL (      19 calls)
                                        1.33s GPU  (      19 calls)
     sum_band:buf :      0.11s CPU      0.13s WALL (     950 calls)
                                        0.12s GPU  (     950 calls)
     sum_band:ini :      0.38s CPU      0.39s WALL (     950 calls)
                                        0.38s GPU  (     950 calls)
     sum_band:cal :      0.03s CPU      0.13s WALL (     950 calls)
                                        0.12s GPU  (     950 calls)
     sum_band:bec :      0.21s CPU      0.23s WALL (     950 calls)
                                        0.21s GPU  (     950 calls)
     addusdens    :      0.63s CPU      0.63s WALL (      19 calls)
                                        0.63s GPU  (      19 calls)
     addusd:skk   :      0.00s CPU      0.00s WALL (      57 calls)
                                        0.00s GPU  (      57 calls)

     Called by *egterg:
     cdiaghg      :      3.19s CPU      3.31s WALL (    3975 calls)
                                        3.26s GPU  (    3975 calls)
     cegterg:over :      0.55s CPU      0.57s WALL (    3025 calls)
     cegterg:upda :      0.58s CPU      0.58s WALL (    3025 calls)
     cegterg:last :      0.10s CPU      0.10s WALL (    1678 calls)
     h_psi        :      3.63s CPU      3.63s WALL (    4025 calls)
                                        3.59s GPU  (    4025 calls)
     s_psi        :      0.63s CPU      0.65s WALL (    4025 calls)
     g_psi        :      0.02s CPU      0.07s WALL (    3025 calls)
                                        0.03s GPU  (    3025 calls)

     Called by h_psi:
     h_psi:calbec :      0.10s CPU      0.38s WALL (    4025 calls)
                                        0.33s GPU  (    4025 calls)
     vloc_psi     :      2.36s CPU      2.30s WALL (    4025 calls)
                                        2.25s GPU  (    4025 calls)
     add_vuspsi   :      0.57s CPU      0.66s WALL (    4025 calls)
                                        0.61s GPU  (    4025 calls)

     General routines
     calbec       :      0.11s CPU      0.14s WALL (    5175 calls)
     fft          :      3.05s CPU      0.61s WALL (     513 calls)
                                        0.02s GPU  (     473 calls)
     ffts         :      2.10s CPU      0.37s WALL (     638 calls)
                                        0.01s GPU  (     598 calls)
     fftw         :      0.26s CPU      0.73s WALL (   13944 calls)
                                        0.57s GPU  (   13944 calls)
     interpolate  :      5.23s CPU      0.95s WALL (      40 calls)
 
     Parallel routines

     PAW routines
     PAW_pot      :     88.42s CPU     10.95s WALL (      20 calls)
     PAW_symme    :      0.02s CPU      0.00s WALL (      39 calls)
 
     PWSCF        :   1m50.09s CPU     27.77s WALL

 
   This run was terminated on:   2:41:29  12Jul2026            

=------------------------------------------------------------------------------=
   JOB DONE.
=------------------------------------------------------------------------------=
Warning: ieee_divide_by_zero is signaling
Warning: ieee_inexact is signaling
FORTRAN STOP
