
     Program PWSCF v.7.3.1 starts on 12Jul2026 at  5:36:26 

     This program is part of the open-source Quantum ESPRESSO suite
     for quantum simulation of materials; please cite
         "P. Giannozzi et al., J. Phys.:Condens. Matter 21 395502 (2009);
         "P. Giannozzi et al., J. Phys.:Condens. Matter 29 465901 (2017);
         "P. Giannozzi et al., J. Chem. Phys. 152 154105 (2020);
          URL http://www.quantum-espresso.org", 
     in publications or presentations arising from this work. More details at
     http://www.quantum-espresso.org/quote

     Parallel version (MPI & OpenMP), running on      14 processor cores
     Number of MPI processes:                 1
     Threads/MPI process:                    14

     MPI processes distributed on     1 nodes
     1353656 MiB available memory on the printing compute node when the environment starts
 
     Reading input from pw.in

     Current dimensions of program PWSCF are:
     Max number of different atomic species (ntypx) = 10
     Max number of k-points (npk) =  40000
     Max angular momentum in pseudopotentials (lmaxx) =  4
     file Co.pbe-spn-kjpaw_psl.0.3.1.UPF: wavefunction(s)  3P 3D renormalized
     file O.pbe-n-kjpaw_psl.1.0.0.UPF: wavefunction(s)  2S 2P renormalized
     file K.pbe-spn-kjpaw_psl.1.0.0.UPF: wavefunction(s)  3S renormalized
 
     Subspace diagonalization in iterative solution of the eigenvalue problem:
     a serial algorithm will be used

 
     G-vector sticks info
     --------------------
     sticks:   dense  smooth     PW     G-vecs:    dense   smooth      PW
     Sum        1003     499    151                47935    16953    2771
 
     Using Slab Decomposition
 


     bravais-lattice index     =            4
     lattice parameter (alat)  =       5.4802  a.u.
     unit-cell volume          =     270.3248 (a.u.)^3
     number of atoms/cell      =            4
     number of atomic types    =            3
     number of electrons       =        38.00
     number of Kohn-Sham states=           27
     kinetic-energy cutoff     =      60.0000  Ry
     charge density cutoff     =     480.0000  Ry
     scf convergence threshold =      1.0E-07
     mixing beta               =       0.3000
     number of iterations used =            8  local-TF  mixing
     Exchange-correlation= SLA  PW   PBX  PBC
                           (   1   4   3   4   0   0   0)

     GPU acceleration is ACTIVE.  1 visible GPUs per MPI rank
     GPU-aware MPI enabled


     GPU used by master process:

        Device Number: 0
        Device name: NVIDIA A100-SXM4-80GB
        Compute capability : 80
        Ratio of single to double precision performance  : 2
        Memory Clock Rate (KHz): 1593000
        Memory Bus Width (bits): 5120
        Peak Memory Bandwidth (GB/s): ******

     celldm(1)=   5.480206  celldm(2)=   0.000000  celldm(3)=   1.896552
     celldm(4)=   0.000000  celldm(5)=   0.000000  celldm(6)=   0.000000

     crystal axes: (cart. coord. in units of alat)
               a(1) = (   1.000000   0.000000   0.000000 )  
               a(2) = (  -0.500000   0.866025   0.000000 )  
               a(3) = (   0.000000   0.000000   1.896552 )  

     reciprocal axes: (cart. coord. in units 2 pi/alat)
               b(1) = (  1.000000  0.577350 -0.000000 )  
               b(2) = (  0.000000  1.154701  0.000000 )  
               b(3) = (  0.000000 -0.000000  0.527273 )  


     PseudoPot. # 1 for Co read from file:
     ../../pseudo/Co.pbe-spn-kjpaw_psl.0.3.1.UPF
     MD5 check sum: 3c0a43779828c046024e4f3be63f8e67
     Pseudo is Projector augmented-wave + core cor, Zval = 17.0
     Generated using &quot;atomic&quot; code by A. Dal Corso  v.6.2.2
     Shape of augmentation charge: PSQ
     Using radial grid of 1193 points,  6 beta functions with: 
                l(1) =   0
                l(2) =   0
                l(3) =   1
                l(4) =   1
                l(5) =   2
                l(6) =   2
     Q(r) pseudized with 0 coefficients 


     PseudoPot. # 2 for O  read from file:
     ../../pseudo/O.pbe-n-kjpaw_psl.1.0.0.UPF
     MD5 check sum: e99d9cef9b487d1ca56f5b95ecd0fd7a
     Pseudo is Projector augmented-wave + core cor, Zval =  6.0
     Generated using &quot;atomic&quot; code by A. Dal Corso  v.6.3
     Shape of augmentation charge: PSQ
     Using radial grid of 1095 points,  4 beta functions with: 
                l(1) =   0
                l(2) =   0
                l(3) =   1
                l(4) =   1
     Q(r) pseudized with 0 coefficients 


     PseudoPot. # 3 for K  read from file:
     ../../pseudo/K.pbe-spn-kjpaw_psl.1.0.0.UPF
     MD5 check sum: 34cc42130a09071ebe376fd42eb21491
     Pseudo is Projector augmented-wave + core cor, Zval =  9.0
     Generated using &quot;atomic&quot; code by A. Dal Corso  v.6.2.2
     Shape of augmentation charge: PSQ
     Using radial grid of 1165 points,  6 beta functions with: 
                l(1) =   0
                l(2) =   0
                l(3) =   1
                l(4) =   1
                l(5) =   2
                l(6) =   2
     Q(r) pseudized with 0 coefficients 


     atomic species   valence    mass     pseudopotential
     Co               17.00    58.93300     Co( 1.00)
     O                 6.00    15.99900     O ( 1.00)
     K                 9.00    39.09830     K ( 1.00)

     Starting magnetic structure 
     atomic species   magnetization
     Co              0.300
     O               0.000
     K               0.000

      6 Sym. Ops. (no inversion) found


                                    s                        frac. trans.

      isym =  1     identity                                     

 cryst.   s( 1) = (     1          0          0      )
                  (     0          1          0      )
                  (     0          0          1      )

 cart.    s( 1) = (  1.0000000  0.0000000  0.0000000 )
                  (  0.0000000  1.0000000  0.0000000 )
                  (  0.0000000  0.0000000  1.0000000 )


      isym =  2     120 deg rotation - cryst. axis [0,0,1]       

 cryst.   s( 2) = (     0          1          0      )
                  (    -1         -1          0      )
                  (     0          0          1      )

 cart.    s( 2) = ( -0.5000000 -0.8660254  0.0000000 )
                  (  0.8660254 -0.5000000  0.0000000 )
                  (  0.0000000  0.0000000  1.0000000 )


      isym =  3     120 deg rotation - cryst. axis [0,0,-1]      

 cryst.   s( 3) = (    -1         -1          0      )
                  (     1          0          0      )
                  (     0          0          1      )

 cart.    s( 3) = ( -0.5000000  0.8660254  0.0000000 )
                  ( -0.8660254 -0.5000000  0.0000000 )
                  (  0.0000000  0.0000000  1.0000000 )


      isym =  4     inv. 180 deg rotation - cart. axis [1,0,0]   

 cryst.   s( 4) = (    -1          0          0      )
                  (     1          1          0      )
                  (     0          0          1      )

 cart.    s( 4) = ( -1.0000000  0.0000000  0.0000000 )
                  (  0.0000000  1.0000000  0.0000000 )
                  (  0.0000000  0.0000000  1.0000000 )


      isym =  5     inv. 180 deg rotation - cryst. axis [0,1,0]  

 cryst.   s( 5) = (     1          1          0      )
                  (     0         -1          0      )
                  (     0          0          1      )

 cart.    s( 5) = (  0.5000000  0.8660254  0.0000000 )
                  (  0.8660254 -0.5000000  0.0000000 )
                  (  0.0000000  0.0000000  1.0000000 )


      isym =  6     inv. 180 deg rotation - cryst. axis [1,1,0]  

 cryst.   s( 6) = (     0         -1          0      )
                  (    -1          0          0      )
                  (     0          0          1      )

 cart.    s( 6) = (  0.5000000 -0.8660254  0.0000000 )
                  ( -0.8660254 -0.5000000  0.0000000 )
                  (  0.0000000  0.0000000  1.0000000 )


     point group C_3v (3m)  
     there are  3 classes
     the character table:

       E     2C3   3s_v 
A_1    1.00  1.00  1.00
A_2    1.00  1.00 -1.00
E      2.00 -1.00  0.00

     the symmetry operations in each class and the name of the first element:

     E        1
          identity                                               
     2C3      2    3
          120 deg rotation - cryst. axis [0,0,1]                 
     3s_v     4    5    6
          inv. 180 deg rotation - cart. axis [1,0,0]             

   Cartesian axes

     site n.     atom                  positions (alat units)
         1        Co     tau(   1) = (   0.0000000   0.0000000   0.0000000  )
         2        O      tau(   2) = (  -0.0000000   0.5773503   0.3310345  )
         3        O      tau(   3) = (   0.5000000   0.2886751   1.5655172  )
         4        K      tau(   4) = (   0.0000000   0.0000000   1.2931034  )

   Crystallographic axes

     site n.     atom                  positions (cryst. coord.)
         1        Co     tau(   1) = (  0.0000000  0.0000000  0.0000000  )
         2        O      tau(   2) = (  0.3333333  0.6666667  0.1745455  )
         3        O      tau(   3) = (  0.6666667  0.3333333  0.8254545  )
         4        K      tau(   4) = (  0.0000000  0.0000000  0.6818182  )

     number of k points=    25  Marzari-Vanderbilt smearing, width (Ry)=  0.0200
                       cart. coord. in units 2pi/alat
        k(    1) = (   0.0000000   0.0000000   0.0000000), wk =   0.0052083
        k(    2) = (   0.0000000   0.0000000   0.1757576), wk =   0.0104167
        k(    3) = (   0.0000000   0.1443376   0.0000000), wk =   0.0312500
        k(    4) = (   0.0000000   0.1443376   0.1757576), wk =   0.0312500
        k(    5) = (   0.0000000   0.2886751   0.0000000), wk =   0.0312500
        k(    6) = (   0.0000000   0.2886751   0.1757576), wk =   0.0312500
        k(    7) = (   0.0000000   0.4330127   0.0000000), wk =   0.0312500
        k(    8) = (   0.0000000   0.4330127   0.1757576), wk =   0.0312500
        k(    9) = (   0.0000000  -0.5773503   0.0000000), wk =   0.0156250
        k(   10) = (   0.0000000  -0.5773503   0.1757576), wk =   0.0312500
        k(   11) = (   0.1250000   0.2165064   0.0000000), wk =   0.0312500
        k(   12) = (   0.1250000   0.2165064   0.1757576), wk =   0.0625000
        k(   13) = (   0.1250000   0.3608439   0.0000000), wk =   0.0625000
        k(   14) = (   0.1250000   0.3608439   0.1757576), wk =   0.0625000
        k(   15) = (   0.1250000   0.5051815   0.0000000), wk =   0.0625000
        k(   16) = (   0.1250000   0.5051815   0.1757576), wk =   0.0625000
        k(   17) = (   0.2500000   0.4330127   0.0000000), wk =   0.0312500
        k(   18) = (   0.2500000   0.4330127   0.1757576), wk =   0.0625000
        k(   19) = (   0.2500000   0.5773503   0.0000000), wk =   0.0312500
        k(   20) = (   0.2500000   0.5773503   0.1757576), wk =   0.0625000
        k(   21) = (   0.0000000  -0.1443376   0.1757576), wk =   0.0312500
        k(   22) = (   0.0000000  -0.2886751   0.1757576), wk =   0.0312500
        k(   23) = (   0.0000000  -0.4330127   0.1757576), wk =   0.0312500
        k(   24) = (  -0.1250000  -0.3608439   0.1757576), wk =   0.0625000
        k(   25) = (  -0.1250000  -0.5051815   0.1757576), wk =   0.0625000

                       cryst. coord.
        k(    1) = (   0.0000000   0.0000000   0.0000000), wk =   0.0052083
        k(    2) = (   0.0000000   0.0000000   0.3333333), wk =   0.0104167
        k(    3) = (   0.0000000   0.1250000   0.0000000), wk =   0.0312500
        k(    4) = (   0.0000000   0.1250000   0.3333333), wk =   0.0312500
        k(    5) = (   0.0000000   0.2500000   0.0000000), wk =   0.0312500
        k(    6) = (   0.0000000   0.2500000   0.3333333), wk =   0.0312500
        k(    7) = (   0.0000000   0.3750000   0.0000000), wk =   0.0312500
        k(    8) = (   0.0000000   0.3750000   0.3333333), wk =   0.0312500
        k(    9) = (   0.0000000  -0.5000000   0.0000000), wk =   0.0156250
        k(   10) = (   0.0000000  -0.5000000   0.3333333), wk =   0.0312500
        k(   11) = (   0.1250000   0.1250000   0.0000000), wk =   0.0312500
        k(   12) = (   0.1250000   0.1250000   0.3333333), wk =   0.0625000
        k(   13) = (   0.1250000   0.2500000   0.0000000), wk =   0.0625000
        k(   14) = (   0.1250000   0.2500000   0.3333333), wk =   0.0625000
        k(   15) = (   0.1250000   0.3750000   0.0000000), wk =   0.0625000
        k(   16) = (   0.1250000   0.3750000   0.3333333), wk =   0.0625000
        k(   17) = (   0.2500000   0.2500000   0.0000000), wk =   0.0312500
        k(   18) = (   0.2500000   0.2500000   0.3333333), wk =   0.0625000
        k(   19) = (   0.2500000   0.3750000   0.0000000), wk =   0.0312500
        k(   20) = (   0.2500000   0.3750000   0.3333333), wk =   0.0625000
        k(   21) = (   0.0000000  -0.1250000   0.3333333), wk =   0.0312500
        k(   22) = (   0.0000000  -0.2500000   0.3333333), wk =   0.0312500
        k(   23) = (   0.0000000  -0.3750000   0.3333333), wk =   0.0312500
        k(   24) = (  -0.1250000  -0.2500000   0.3333333), wk =   0.0625000
        k(   25) = (  -0.1250000  -0.3750000   0.3333333), wk =   0.0625000

     Dense  grid:    47935 G-vectors     FFT dimensions: (  40,  40,  75)

     Smooth grid:    16953 G-vectors     FFT dimensions: (  27,  27,  54)

     Dynamical RAM for                 wfc:       0.87 MB

     Dynamical RAM for     wfc (w. buffer):      44.59 MB

     Dynamical RAM for           str. fact:       2.19 MB

     Dynamical RAM for           local pot:       0.00 MB

     Dynamical RAM for          nlocal pot:       1.68 MB

     Dynamical RAM for                qrad:       5.27 MB

     Dynamical RAM for          rho,v,vnew:       9.88 MB

     Dynamical RAM for               rhoin:       3.29 MB

     Dynamical RAM for            rho*nmix:      23.41 MB

     Dynamical RAM for           G-vectors:       2.87 MB

     Dynamical RAM for          h,s,v(r/c):       0.13 MB

     Dynamical RAM for          <psi|beta>:       0.02 MB

     Dynamical RAM for                 psi:       1.75 MB

     Dynamical RAM for                hpsi:       1.75 MB

     Dynamical RAM for                spsi:       1.75 MB

     Dynamical RAM for      wfcinit/wfcrot:       1.77 MB

     Dynamical RAM for           addusdens:     138.24 MB

     Dynamical RAM for          addusforce:     139.72 MB

     Estimated static dynamical RAM per process >      78.20 MB

     Estimated max dynamical RAM per process >     241.33 MB

     Check: negative core charge=   -0.000009
     Generating pointlists ...
     new r_m :   0.2489 (alat units)  1.3641 (a.u.) for type    1
     new r_m :   0.2633 (alat units)  1.4431 (a.u.) for type    2
     new r_m :   0.2489 (alat units)  1.3641 (a.u.) for type    3

     Initial potential from superposition of free atoms

     starting charge      37.9809, renormalised to      38.0000
     Starting wfcs are   26 randomized atomic wfcs +    1 random wfcs
     Checking if some PAW data can be deallocated... 

     total cpu time spent up to now is        3.3 secs

     Self-consistent Calculation
[tb_dev] Currently allocated     6.58E-01 Mbytes, locked:    0 /   6
[tb_pin] Currently allocated     0.00E+00 Mbytes, locked:    0 /   0

     iteration #  1     ecut=    60.00 Ry     beta= 0.30
     Davidson diagonalization with overlap

---- Real-time Memory Report at c_bands before calling an iterative solver
           653 MiB given to the printing process from OS
             0 MiB allocation reported by mallinfo(arena+hblkhd)
       1350409 MiB available memory on the node where the printing process lives
     GPU memory used/free/total (MiB): 926 / 80224 / 81151
------------------
     ethr =  1.00E-02,  avg # of iterations =  9.6

     total cpu time spent up to now is        5.6 secs

     total energy              =    -572.07116947 Ry
     estimated scf accuracy    <       1.57763792 Ry

     total magnetization       =     4.00 Bohr mag/cell
     absolute magnetization    =     4.01 Bohr mag/cell
[tb_dev] Currently allocated     3.05E-05 Mbytes, locked:    0 /   2
[tb_pin] Currently allocated     0.00E+00 Mbytes, locked:    0 /   0

     iteration #  2     ecut=    60.00 Ry     beta= 0.30
     Davidson diagonalization with overlap

---- Real-time Memory Report at c_bands before calling an iterative solver
           696 MiB given to the printing process from OS
             0 MiB allocation reported by mallinfo(arena+hblkhd)
       1347524 MiB available memory on the node where the printing process lives
     GPU memory used/free/total (MiB): 938 / 80212 / 81151
------------------
     ethr =  4.15E-03,  avg # of iterations =  1.8

     total cpu time spent up to now is        7.0 secs

     total energy              =    -572.13304079 Ry
     estimated scf accuracy    <       0.58551606 Ry

     total magnetization       =     3.10 Bohr mag/cell
     absolute magnetization    =     3.11 Bohr mag/cell
[tb_dev] Currently allocated     3.05E-05 Mbytes, locked:    0 /   2
[tb_pin] Currently allocated     0.00E+00 Mbytes, locked:    0 /   0

     iteration #  3     ecut=    60.00 Ry     beta= 0.30
     Davidson diagonalization with overlap

---- Real-time Memory Report at c_bands before calling an iterative solver
           698 MiB given to the printing process from OS
             0 MiB allocation reported by mallinfo(arena+hblkhd)
       1344695 MiB available memory on the node where the printing process lives
     GPU memory used/free/total (MiB): 938 / 80212 / 81151
------------------
     ethr =  1.54E-03,  avg # of iterations =  2.3

     total cpu time spent up to now is        8.4 secs

     total energy              =    -572.20398727 Ry
     estimated scf accuracy    <       0.37712118 Ry

     total magnetization       =     1.99 Bohr mag/cell
     absolute magnetization    =     2.27 Bohr mag/cell
[tb_dev] Currently allocated     3.05E-05 Mbytes, locked:    0 /   2
[tb_pin] Currently allocated     0.00E+00 Mbytes, locked:    0 /   0

     iteration #  4     ecut=    60.00 Ry     beta= 0.30
     Davidson diagonalization with overlap

---- Real-time Memory Report at c_bands before calling an iterative solver
           699 MiB given to the printing process from OS
             0 MiB allocation reported by mallinfo(arena+hblkhd)
       1363185 MiB available memory on the node where the printing process lives
     GPU memory used/free/total (MiB): 938 / 80212 / 81151
------------------
     ethr =  9.92E-04,  avg # of iterations =  2.1

     total cpu time spent up to now is        9.8 secs

     total energy              =    -572.23013683 Ry
     estimated scf accuracy    <       0.13705162 Ry

     total magnetization       =     1.86 Bohr mag/cell
     absolute magnetization    =     2.11 Bohr mag/cell
[tb_dev] Currently allocated     3.05E-05 Mbytes, locked:    0 /   2
[tb_pin] Currently allocated     0.00E+00 Mbytes, locked:    0 /   0

     iteration #  5     ecut=    60.00 Ry     beta= 0.30
     Davidson diagonalization with overlap

---- Real-time Memory Report at c_bands before calling an iterative solver
           700 MiB given to the printing process from OS
             0 MiB allocation reported by mallinfo(arena+hblkhd)
       1362890 MiB available memory on the node where the printing process lives
     GPU memory used/free/total (MiB): 938 / 80212 / 81151
------------------
     ethr =  3.61E-04,  avg # of iterations =  4.3

     total cpu time spent up to now is       11.4 secs

     total energy              =    -572.26121175 Ry
     estimated scf accuracy    <       0.05034295 Ry

     total magnetization       =     1.19 Bohr mag/cell
     absolute magnetization    =     1.42 Bohr mag/cell
[tb_dev] Currently allocated     3.05E-05 Mbytes, locked:    0 /   2
[tb_pin] Currently allocated     0.00E+00 Mbytes, locked:    0 /   0

     iteration #  6     ecut=    60.00 Ry     beta= 0.30
     Davidson diagonalization with overlap

---- Real-time Memory Report at c_bands before calling an iterative solver
           701 MiB given to the printing process from OS
             0 MiB allocation reported by mallinfo(arena+hblkhd)
       1361189 MiB available memory on the node where the printing process lives
     GPU memory used/free/total (MiB): 938 / 80212 / 81151
------------------
     ethr =  1.32E-04,  avg # of iterations =  3.1

     total cpu time spent up to now is       12.8 secs

     total energy              =    -572.25831327 Ry
     estimated scf accuracy    <       0.05044402 Ry

     total magnetization       =     1.07 Bohr mag/cell
     absolute magnetization    =     1.32 Bohr mag/cell
[tb_dev] Currently allocated     3.05E-05 Mbytes, locked:    0 /   2
[tb_pin] Currently allocated     0.00E+00 Mbytes, locked:    0 /   0

     iteration #  7     ecut=    60.00 Ry     beta= 0.30
     Davidson diagonalization with overlap

---- Real-time Memory Report at c_bands before calling an iterative solver
           702 MiB given to the printing process from OS
             0 MiB allocation reported by mallinfo(arena+hblkhd)
       1359946 MiB available memory on the node where the printing process lives
     GPU memory used/free/total (MiB): 938 / 80212 / 81151
------------------
     ethr =  1.32E-04,  avg # of iterations =  2.0

     total cpu time spent up to now is       14.2 secs

     total energy              =    -572.26597922 Ry
     estimated scf accuracy    <       0.03211225 Ry

     total magnetization       =     0.45 Bohr mag/cell
     absolute magnetization    =     0.73 Bohr mag/cell
[tb_dev] Currently allocated     3.05E-05 Mbytes, locked:    0 /   2
[tb_pin] Currently allocated     0.00E+00 Mbytes, locked:    0 /   0

     iteration #  8     ecut=    60.00 Ry     beta= 0.30
     Davidson diagonalization with overlap

---- Real-time Memory Report at c_bands before calling an iterative solver
           703 MiB given to the printing process from OS
             0 MiB allocation reported by mallinfo(arena+hblkhd)
       1358894 MiB available memory on the node where the printing process lives
     GPU memory used/free/total (MiB): 938 / 80212 / 81151
------------------
     ethr =  8.45E-05,  avg # of iterations =  2.0

     total cpu time spent up to now is       15.5 secs

     total energy              =    -572.27058866 Ry
     estimated scf accuracy    <       0.04264359 Ry

     total magnetization       =     1.06 Bohr mag/cell
     absolute magnetization    =     1.28 Bohr mag/cell
[tb_dev] Currently allocated     3.05E-05 Mbytes, locked:    0 /   2
[tb_pin] Currently allocated     0.00E+00 Mbytes, locked:    0 /   0

     iteration #  9     ecut=    60.00 Ry     beta= 0.30
     Davidson diagonalization with overlap

---- Real-time Memory Report at c_bands before calling an iterative solver
           704 MiB given to the printing process from OS
             0 MiB allocation reported by mallinfo(arena+hblkhd)
       1357718 MiB available memory on the node where the printing process lives
     GPU memory used/free/total (MiB): 938 / 80212 / 81151
------------------
     ethr =  8.45E-05,  avg # of iterations =  1.2

     total cpu time spent up to now is       16.7 secs

     total energy              =    -572.27217085 Ry
     estimated scf accuracy    <       0.04457683 Ry

     total magnetization       =     1.13 Bohr mag/cell
     absolute magnetization    =     1.34 Bohr mag/cell
[tb_dev] Currently allocated     3.05E-05 Mbytes, locked:    0 /   2
[tb_pin] Currently allocated     0.00E+00 Mbytes, locked:    0 /   0

     iteration # 10     ecut=    60.00 Ry     beta= 0.30
     Davidson diagonalization with overlap

---- Real-time Memory Report at c_bands before calling an iterative solver
           705 MiB given to the printing process from OS
             0 MiB allocation reported by mallinfo(arena+hblkhd)
       1356749 MiB available memory on the node where the printing process lives
     GPU memory used/free/total (MiB): 938 / 80212 / 81151
------------------
     ethr =  8.45E-05,  avg # of iterations =  1.3

     total cpu time spent up to now is       17.9 secs

     total energy              =    -572.26816213 Ry
     estimated scf accuracy    <       0.04967267 Ry

     total magnetization       =     1.08 Bohr mag/cell
     absolute magnetization    =     1.30 Bohr mag/cell
[tb_dev] Currently allocated     3.05E-05 Mbytes, locked:    0 /   2
[tb_pin] Currently allocated     0.00E+00 Mbytes, locked:    0 /   0

     iteration # 11     ecut=    60.00 Ry     beta= 0.30
     Davidson diagonalization with overlap

---- Real-time Memory Report at c_bands before calling an iterative solver
           705 MiB given to the printing process from OS
             0 MiB allocation reported by mallinfo(arena+hblkhd)
       1355835 MiB available memory on the node where the printing process lives
     GPU memory used/free/total (MiB): 938 / 80212 / 81151
------------------
     ethr =  8.45E-05,  avg # of iterations =  1.1

     total cpu time spent up to now is       19.1 secs

     total energy              =    -572.22153005 Ry
     estimated scf accuracy    <       0.02901948 Ry

     total magnetization       =     0.90 Bohr mag/cell
     absolute magnetization    =     1.14 Bohr mag/cell
[tb_dev] Currently allocated     3.05E-05 Mbytes, locked:    0 /   2
[tb_pin] Currently allocated     0.00E+00 Mbytes, locked:    0 /   0

     iteration # 12     ecut=    60.00 Ry     beta= 0.30
     Davidson diagonalization with overlap

---- Real-time Memory Report at c_bands before calling an iterative solver
           705 MiB given to the printing process from OS
             0 MiB allocation reported by mallinfo(arena+hblkhd)
       1354896 MiB available memory on the node where the printing process lives
     GPU memory used/free/total (MiB): 938 / 80212 / 81151
------------------
     ethr =  7.64E-05,  avg # of iterations =  2.1

     negative rho (up, down):  0.000E+00 3.800E-03

     total cpu time spent up to now is       20.5 secs

     total energy              =    -572.16139564 Ry
     estimated scf accuracy    <       0.02046933 Ry

     total magnetization       =     1.95 Bohr mag/cell
     absolute magnetization    =     2.12 Bohr mag/cell
[tb_dev] Currently allocated     3.05E-05 Mbytes, locked:    0 /   2
[tb_pin] Currently allocated     0.00E+00 Mbytes, locked:    0 /   0

     iteration # 13     ecut=    60.00 Ry     beta= 0.30
     Davidson diagonalization with overlap

---- Real-time Memory Report at c_bands before calling an iterative solver
           705 MiB given to the printing process from OS
             0 MiB allocation reported by mallinfo(arena+hblkhd)
       1353753 MiB available memory on the node where the printing process lives
     GPU memory used/free/total (MiB): 938 / 80212 / 81151
------------------
     c_bands:  1 eigenvalues not converged
     ethr =  5.39E-05,  avg # of iterations =  6.4

     total cpu time spent up to now is       22.4 secs

     total energy              =    -572.21996418 Ry
     estimated scf accuracy    <       0.21718118 Ry

     total magnetization       =     1.93 Bohr mag/cell
     absolute magnetization    =     2.36 Bohr mag/cell
[tb_dev] Currently allocated     3.05E-05 Mbytes, locked:    0 /   2
[tb_pin] Currently allocated     0.00E+00 Mbytes, locked:    0 /   0

     iteration # 14     ecut=    60.00 Ry     beta= 0.30
     Davidson diagonalization with overlap

---- Real-time Memory Report at c_bands before calling an iterative solver
           705 MiB given to the printing process from OS
             0 MiB allocation reported by mallinfo(arena+hblkhd)
       1351140 MiB available memory on the node where the printing process lives
     GPU memory used/free/total (MiB): 938 / 80212 / 81151
------------------
     ethr =  5.39E-05,  avg # of iterations =  5.3

     total cpu time spent up to now is       24.2 secs

     total energy              =    -572.26814658 Ry
     estimated scf accuracy    <       0.02283210 Ry

     total magnetization       =     0.94 Bohr mag/cell
     absolute magnetization    =     1.17 Bohr mag/cell
[tb_dev] Currently allocated     3.05E-05 Mbytes, locked:    0 /   2
[tb_pin] Currently allocated     0.00E+00 Mbytes, locked:    0 /   0

     iteration # 15     ecut=    60.00 Ry     beta= 0.30
     Davidson diagonalization with overlap

---- Real-time Memory Report at c_bands before calling an iterative solver
           705 MiB given to the printing process from OS
             0 MiB allocation reported by mallinfo(arena+hblkhd)
       1348018 MiB available memory on the node where the printing process lives
     GPU memory used/free/total (MiB): 938 / 80212 / 81151
------------------
     ethr =  5.39E-05,  avg # of iterations =  1.9

     total cpu time spent up to now is       25.5 secs

     total energy              =    -572.27808697 Ry
     estimated scf accuracy    <       0.01737296 Ry

     total magnetization       =     0.37 Bohr mag/cell
     absolute magnetization    =     0.63 Bohr mag/cell
[tb_dev] Currently allocated     3.05E-05 Mbytes, locked:    0 /   2
[tb_pin] Currently allocated     0.00E+00 Mbytes, locked:    0 /   0

     iteration # 16     ecut=    60.00 Ry     beta= 0.30
     Davidson diagonalization with overlap

---- Real-time Memory Report at c_bands before calling an iterative solver
           705 MiB given to the printing process from OS
             0 MiB allocation reported by mallinfo(arena+hblkhd)
       1345873 MiB available memory on the node where the printing process lives
     GPU memory used/free/total (MiB): 938 / 80212 / 81151
------------------
     ethr =  4.57E-05,  avg # of iterations =  1.8

     total cpu time spent up to now is       26.8 secs

     total energy              =    -572.27898724 Ry
     estimated scf accuracy    <       0.01476467 Ry

     total magnetization       =     0.25 Bohr mag/cell
     absolute magnetization    =     0.49 Bohr mag/cell
[tb_dev] Currently allocated     3.05E-05 Mbytes, locked:    0 /   2
[tb_pin] Currently allocated     0.00E+00 Mbytes, locked:    0 /   0

     iteration # 17     ecut=    60.00 Ry     beta= 0.30
     Davidson diagonalization with overlap

---- Real-time Memory Report at c_bands before calling an iterative solver
           705 MiB given to the printing process from OS
             0 MiB allocation reported by mallinfo(arena+hblkhd)
       1343813 MiB available memory on the node where the printing process lives
     GPU memory used/free/total (MiB): 938 / 80212 / 81151
------------------
     ethr =  3.89E-05,  avg # of iterations =  3.5

     total cpu time spent up to now is       28.5 secs

     total energy              =    -572.28460941 Ry
     estimated scf accuracy    <       0.02838503 Ry

     total magnetization       =    -0.05 Bohr mag/cell
     absolute magnetization    =     0.10 Bohr mag/cell
[tb_dev] Currently allocated     3.05E-05 Mbytes, locked:    0 /   2
[tb_pin] Currently allocated     0.00E+00 Mbytes, locked:    0 /   0

     iteration # 18     ecut=    60.00 Ry     beta= 0.30
     Davidson diagonalization with overlap

---- Real-time Memory Report at c_bands before calling an iterative solver
           705 MiB given to the printing process from OS
             0 MiB allocation reported by mallinfo(arena+hblkhd)
       1361384 MiB available memory on the node where the printing process lives
     GPU memory used/free/total (MiB): 938 / 80212 / 81151
------------------
     ethr =  3.89E-05,  avg # of iterations =  1.3

     total cpu time spent up to now is       29.8 secs

     total energy              =    -572.28866350 Ry
     estimated scf accuracy    <       0.00886199 Ry

     total magnetization       =     0.06 Bohr mag/cell
     absolute magnetization    =     0.21 Bohr mag/cell
[tb_dev] Currently allocated     3.05E-05 Mbytes, locked:    0 /   2
[tb_pin] Currently allocated     0.00E+00 Mbytes, locked:    0 /   0

     iteration # 19     ecut=    60.00 Ry     beta= 0.30
     Davidson diagonalization with overlap

---- Real-time Memory Report at c_bands before calling an iterative solver
           705 MiB given to the printing process from OS
             0 MiB allocation reported by mallinfo(arena+hblkhd)
       1360485 MiB available memory on the node where the printing process lives
     GPU memory used/free/total (MiB): 938 / 80212 / 81151
------------------
     ethr =  2.33E-05,  avg # of iterations =  1.5

     total cpu time spent up to now is       31.1 secs

     total energy              =    -572.28916605 Ry
     estimated scf accuracy    <       0.00526992 Ry

     total magnetization       =     0.06 Bohr mag/cell
     absolute magnetization    =     0.19 Bohr mag/cell
[tb_dev] Currently allocated     3.05E-05 Mbytes, locked:    0 /   2
[tb_pin] Currently allocated     0.00E+00 Mbytes, locked:    0 /   0

     iteration # 20     ecut=    60.00 Ry     beta= 0.30
     Davidson diagonalization with overlap

---- Real-time Memory Report at c_bands before calling an iterative solver
           705 MiB given to the printing process from OS
             0 MiB allocation reported by mallinfo(arena+hblkhd)
       1359199 MiB available memory on the node where the printing process lives
     GPU memory used/free/total (MiB): 938 / 80212 / 81151
------------------
     ethr =  1.39E-05,  avg # of iterations =  1.4

     total cpu time spent up to now is       32.3 secs

     total energy              =    -572.28953883 Ry
     estimated scf accuracy    <       0.00098793 Ry

     total magnetization       =     0.06 Bohr mag/cell
     absolute magnetization    =     0.15 Bohr mag/cell
[tb_dev] Currently allocated     3.05E-05 Mbytes, locked:    0 /   2
[tb_pin] Currently allocated     0.00E+00 Mbytes, locked:    0 /   0

     iteration # 21     ecut=    60.00 Ry     beta= 0.30
     Davidson diagonalization with overlap

---- Real-time Memory Report at c_bands before calling an iterative solver
           705 MiB given to the printing process from OS
             0 MiB allocation reported by mallinfo(arena+hblkhd)
       1358121 MiB available memory on the node where the printing process lives
     GPU memory used/free/total (MiB): 938 / 80212 / 81151
------------------
     c_bands:  1 eigenvalues not converged
     ethr =  2.60E-06,  avg # of iterations =  7.0

     total cpu time spent up to now is       34.2 secs

     total energy              =    -572.29020577 Ry
     estimated scf accuracy    <       0.00103774 Ry

     total magnetization       =    -0.01 Bohr mag/cell
     absolute magnetization    =     0.03 Bohr mag/cell
[tb_dev] Currently allocated     3.05E-05 Mbytes, locked:    0 /   2
[tb_pin] Currently allocated     0.00E+00 Mbytes, locked:    0 /   0

     iteration # 22     ecut=    60.00 Ry     beta= 0.30
     Davidson diagonalization with overlap

---- Real-time Memory Report at c_bands before calling an iterative solver
           705 MiB given to the printing process from OS
             0 MiB allocation reported by mallinfo(arena+hblkhd)
       1356707 MiB available memory on the node where the printing process lives
     GPU memory used/free/total (MiB): 938 / 80212 / 81151
------------------
     ethr =  2.60E-06,  avg # of iterations =  1.1

     total cpu time spent up to now is       35.5 secs

     total energy              =    -572.28935861 Ry
     estimated scf accuracy    <       0.00114217 Ry

     total magnetization       =    -0.00 Bohr mag/cell
     absolute magnetization    =     0.03 Bohr mag/cell
[tb_dev] Currently allocated     3.05E-05 Mbytes, locked:    0 /   2
[tb_pin] Currently allocated     0.00E+00 Mbytes, locked:    0 /   0

     iteration # 23     ecut=    60.00 Ry     beta= 0.30
     Davidson diagonalization with overlap

---- Real-time Memory Report at c_bands before calling an iterative solver
           705 MiB given to the printing process from OS
             0 MiB allocation reported by mallinfo(arena+hblkhd)
       1355546 MiB available memory on the node where the printing process lives
     GPU memory used/free/total (MiB): 938 / 80212 / 81151
------------------
     ethr =  2.60E-06,  avg # of iterations =  1.9
     Minimization algorithm failed to find Fermi energy: reverting to bisection
     Possible cause: smearing is larger than the electronic band-gap.

     total cpu time spent up to now is       36.8 secs

     total energy              =    -572.28988053 Ry
     estimated scf accuracy    <       0.00230331 Ry

     total magnetization       =    -0.05 Bohr mag/cell
     absolute magnetization    =     0.09 Bohr mag/cell
[tb_dev] Currently allocated     3.05E-05 Mbytes, locked:    0 /   2
[tb_pin] Currently allocated     0.00E+00 Mbytes, locked:    0 /   0

     iteration # 24     ecut=    60.00 Ry     beta= 0.30
     Davidson diagonalization with overlap

---- Real-time Memory Report at c_bands before calling an iterative solver
           705 MiB given to the printing process from OS
             0 MiB allocation reported by mallinfo(arena+hblkhd)
       1355153 MiB available memory on the node where the printing process lives
     GPU memory used/free/total (MiB): 938 / 80212 / 81151
------------------
     ethr =  2.60E-06,  avg # of iterations =  1.5

     total cpu time spent up to now is       38.1 secs

     total energy              =    -572.28997735 Ry
     estimated scf accuracy    <       0.00105029 Ry

     total magnetization       =    -0.02 Bohr mag/cell
     absolute magnetization    =     0.04 Bohr mag/cell
[tb_dev] Currently allocated     3.05E-05 Mbytes, locked:    0 /   2
[tb_pin] Currently allocated     0.00E+00 Mbytes, locked:    0 /   0

     iteration # 25     ecut=    60.00 Ry     beta= 0.30
     Davidson diagonalization with overlap

---- Real-time Memory Report at c_bands before calling an iterative solver
           705 MiB given to the printing process from OS
             0 MiB allocation reported by mallinfo(arena+hblkhd)
       1353509 MiB available memory on the node where the printing process lives
     GPU memory used/free/total (MiB): 938 / 80212 / 81151
------------------
     ethr =  2.60E-06,  avg # of iterations =  1.1

     total cpu time spent up to now is       39.3 secs

     total energy              =    -572.29001584 Ry
     estimated scf accuracy    <       0.00019487 Ry

     total magnetization       =     0.01 Bohr mag/cell
     absolute magnetization    =     0.03 Bohr mag/cell
[tb_dev] Currently allocated     3.05E-05 Mbytes, locked:    0 /   2
[tb_pin] Currently allocated     0.00E+00 Mbytes, locked:    0 /   0

     iteration # 26     ecut=    60.00 Ry     beta= 0.30
     Davidson diagonalization with overlap

---- Real-time Memory Report at c_bands before calling an iterative solver
           705 MiB given to the printing process from OS
             0 MiB allocation reported by mallinfo(arena+hblkhd)
       1352645 MiB available memory on the node where the printing process lives
     GPU memory used/free/total (MiB): 938 / 80212 / 81151
------------------
     ethr =  5.13E-07,  avg # of iterations =  2.0

     total cpu time spent up to now is       40.6 secs

     total energy              =    -572.29007703 Ry
     estimated scf accuracy    <       0.00005426 Ry

     total magnetization       =     0.03 Bohr mag/cell
     absolute magnetization    =     0.04 Bohr mag/cell
[tb_dev] Currently allocated     3.05E-05 Mbytes, locked:    0 /   2
[tb_pin] Currently allocated     0.00E+00 Mbytes, locked:    0 /   0

     iteration # 27     ecut=    60.00 Ry     beta= 0.30
     Davidson diagonalization with overlap

---- Real-time Memory Report at c_bands before calling an iterative solver
           705 MiB given to the printing process from OS
             0 MiB allocation reported by mallinfo(arena+hblkhd)
       1351384 MiB available memory on the node where the printing process lives
     GPU memory used/free/total (MiB): 938 / 80212 / 81151
------------------
     ethr =  1.43E-07,  avg # of iterations =  2.6
     Minimization algorithm failed to find Fermi energy: reverting to bisection
     Possible cause: smearing is larger than the electronic band-gap.

     total cpu time spent up to now is       42.0 secs

     total energy              =    -572.29008794 Ry
     estimated scf accuracy    <       0.00002003 Ry

     total magnetization       =     0.02 Bohr mag/cell
     absolute magnetization    =     0.03 Bohr mag/cell
[tb_dev] Currently allocated     3.05E-05 Mbytes, locked:    0 /   2
[tb_pin] Currently allocated     0.00E+00 Mbytes, locked:    0 /   0

     iteration # 28     ecut=    60.00 Ry     beta= 0.30
     Davidson diagonalization with overlap

---- Real-time Memory Report at c_bands before calling an iterative solver
           705 MiB given to the printing process from OS
             0 MiB allocation reported by mallinfo(arena+hblkhd)
       1349111 MiB available memory on the node where the printing process lives
     GPU memory used/free/total (MiB): 938 / 80212 / 81151
------------------
     ethr =  5.27E-08,  avg # of iterations =  5.9
     Minimization algorithm failed to find Fermi energy: reverting to bisection
     Possible cause: smearing is larger than the electronic band-gap.

     total cpu time spent up to now is       43.9 secs

     total energy              =    -572.29009753 Ry
     estimated scf accuracy    <       0.00001749 Ry

     total magnetization       =     0.01 Bohr mag/cell
     absolute magnetization    =     0.02 Bohr mag/cell
[tb_dev] Currently allocated     3.05E-05 Mbytes, locked:    0 /   2
[tb_pin] Currently allocated     0.00E+00 Mbytes, locked:    0 /   0

     iteration # 29     ecut=    60.00 Ry     beta= 0.30
     Davidson diagonalization with overlap

---- Real-time Memory Report at c_bands before calling an iterative solver
           705 MiB given to the printing process from OS
             0 MiB allocation reported by mallinfo(arena+hblkhd)
       1345568 MiB available memory on the node where the printing process lives
     GPU memory used/free/total (MiB): 938 / 80212 / 81151
------------------
     ethr =  4.60E-08,  avg # of iterations =  1.7
     Minimization algorithm failed to find Fermi energy: reverting to bisection
     Possible cause: smearing is larger than the electronic band-gap.

     total cpu time spent up to now is       45.2 secs

     total energy              =    -572.29010303 Ry
     estimated scf accuracy    <       0.00000575 Ry

     total magnetization       =     0.01 Bohr mag/cell
     absolute magnetization    =     0.02 Bohr mag/cell
[tb_dev] Currently allocated     3.05E-05 Mbytes, locked:    0 /   2
[tb_pin] Currently allocated     0.00E+00 Mbytes, locked:    0 /   0

     iteration # 30     ecut=    60.00 Ry     beta= 0.30
     Davidson diagonalization with overlap

---- Real-time Memory Report at c_bands before calling an iterative solver
           705 MiB given to the printing process from OS
             0 MiB allocation reported by mallinfo(arena+hblkhd)
       1342583 MiB available memory on the node where the printing process lives
     GPU memory used/free/total (MiB): 938 / 80212 / 81151
------------------
     ethr =  1.51E-08,  avg # of iterations =  4.0
     Minimization algorithm failed to find Fermi energy: reverting to bisection
     Possible cause: smearing is larger than the electronic band-gap.

     total cpu time spent up to now is       46.8 secs

     total energy              =    -572.29010526 Ry
     estimated scf accuracy    <       0.00000154 Ry

     total magnetization       =     0.01 Bohr mag/cell
     absolute magnetization    =     0.01 Bohr mag/cell
[tb_dev] Currently allocated     3.05E-05 Mbytes, locked:    0 /   2
[tb_pin] Currently allocated     0.00E+00 Mbytes, locked:    0 /   0

     iteration # 31     ecut=    60.00 Ry     beta= 0.30
     Davidson diagonalization with overlap

---- Real-time Memory Report at c_bands before calling an iterative solver
           705 MiB given to the printing process from OS
             0 MiB allocation reported by mallinfo(arena+hblkhd)
       1361318 MiB available memory on the node where the printing process lives
     GPU memory used/free/total (MiB): 938 / 80212 / 81151
------------------
     ethr =  4.07E-09,  avg # of iterations =  3.7
     Minimization algorithm failed to find Fermi energy: reverting to bisection
     Possible cause: smearing is larger than the electronic band-gap.

     total cpu time spent up to now is       48.3 secs

     total energy              =    -572.29010641 Ry
     estimated scf accuracy    <       0.00000040 Ry

     total magnetization       =     0.00 Bohr mag/cell
     absolute magnetization    =     0.01 Bohr mag/cell
[tb_dev] Currently allocated     3.05E-05 Mbytes, locked:    0 /   2
[tb_pin] Currently allocated     0.00E+00 Mbytes, locked:    0 /   0

     iteration # 32     ecut=    60.00 Ry     beta= 0.30
     Davidson diagonalization with overlap

---- Real-time Memory Report at c_bands before calling an iterative solver
           705 MiB given to the printing process from OS
             0 MiB allocation reported by mallinfo(arena+hblkhd)
       1359719 MiB available memory on the node where the printing process lives
     GPU memory used/free/total (MiB): 938 / 80212 / 81151
------------------
     ethr =  1.06E-09,  avg # of iterations =  4.4
     Minimization algorithm failed to find Fermi energy: reverting to bisection
     Possible cause: smearing is larger than the electronic band-gap.

     total cpu time spent up to now is       50.0 secs

     total energy              =    -572.29010693 Ry
     estimated scf accuracy    <       0.00000014 Ry

     total magnetization       =     0.00 Bohr mag/cell
     absolute magnetization    =     0.00 Bohr mag/cell
[tb_dev] Currently allocated     3.05E-05 Mbytes, locked:    0 /   2
[tb_pin] Currently allocated     0.00E+00 Mbytes, locked:    0 /   0

     iteration # 33     ecut=    60.00 Ry     beta= 0.30
     Davidson diagonalization with overlap

---- Real-time Memory Report at c_bands before calling an iterative solver
           705 MiB given to the printing process from OS
             0 MiB allocation reported by mallinfo(arena+hblkhd)
       1358340 MiB available memory on the node where the printing process lives
     GPU memory used/free/total (MiB): 938 / 80212 / 81151
------------------
     ethr =  3.76E-10,  avg # of iterations =  2.2
     Minimization algorithm failed to find Fermi energy: reverting to bisection
     Possible cause: smearing is larger than the electronic band-gap.
 
     Magnetic moment per site  (integrated on atomic sphere of radius R)
     atom   1 (R=0.249)  charge= 13.7390  magn=  0.0010
     atom   2 (R=0.263)  charge=  5.0404  magn=  0.0002
     atom   3 (R=0.263)  charge=  5.3769  magn=  0.0007
     atom   4 (R=0.249)  charge=  5.3418  magn=  0.0004

     total cpu time spent up to now is       51.3 secs

     End of self-consistent calculation

 ------ SPIN UP ------------


          k = 0.0000 0.0000 0.0000 (  2125 PWs)   bands (ev):

   -83.2820 -46.6833 -46.5746 -46.5746 -18.5621  -7.5753  -5.8924  -0.4930
    -0.4071  -0.4071   6.0671   6.2911   6.2911   9.0201   9.4338   9.4338
    10.5113  10.5113  12.7434  13.7681  13.7681  17.5282  21.6276  22.3741
    22.3741  22.8553  24.1061

     occupation numbers 
     1.0000   1.0000   1.0000   1.0000   1.0000   1.0000   1.0000   1.0000
     1.0000   1.0000   1.0000   1.0000   1.0000   1.0000   1.0000   1.0000
     1.0000   1.0000   0.6315   0.0000   0.0000   0.0000   0.0000   0.0000
     0.0000   0.0000   0.0000

          k = 0.0000 0.0000 0.1758 (  2120 PWs)   bands (ev):

   -83.2820 -46.6830 -46.5747 -46.5747 -18.5598  -7.6746  -5.7497  -0.5726
    -0.4084  -0.4084   6.1016   6.3069   6.3069   9.2346   9.4016   9.4016
    10.5179  10.5179  12.3366  13.7883  13.7883  18.2543  20.5921  22.2890
    22.2890  23.1581  23.8795

     occupation numbers 
     1.0000   1.0000   1.0000   1.0000   1.0000   1.0000   1.0000   1.0000
     1.0000   1.0000   1.0000   1.0000   1.0000   1.0000   1.0000   1.0000
     1.0000   1.0000   1.0588   0.0000   0.0000   0.0000   0.0000   0.0000
     0.0000   0.0000   0.0000

          k = 0.0000 0.1443 0.0000 (  2127 PWs)   bands (ev):

   -83.2812 -46.6817 -46.5831 -46.5767 -18.4019  -7.6677  -5.9858  -1.5806
    -0.6157   0.5115   6.0575   6.3857   6.5563   8.8434   9.2419   9.5139
    10.6740  10.7932  12.4733  13.6892  13.7098  18.0710  20.8984  22.3133
    22.3575  23.3227  24.2575

     occupation numbers 
     1.0000   1.0000   1.0000   1.0000   1.0000   1.0000   1.0000   1.0000
     1.0000   1.0000   1.0000   1.0000   1.0000   1.0000   1.0000   1.0000
     1.0000   1.0000   1.0803   0.0000   0.0000   0.0000   0.0000   0.0000
     0.0000   0.0000   0.0000

          k = 0.0000 0.1443 0.1758 (  2112 PWs)   bands (ev):

   -83.2812 -46.6815 -46.5831 -46.5767 -18.3997  -7.7383  -5.8980  -1.5664
    -0.6172   0.4532   6.0639   6.3640   6.5780   8.9362   9.2130   9.6908
    10.6594  10.7906  12.2688  13.5591  13.7182  18.5765  20.6521  21.7536
    22.3399  22.9339  24.5984

     occupation numbers 
     1.0000   1.0000   1.0000   1.0000   1.0000   1.0000   1.0000   1.0000
     1.0000   1.0000   1.0000   1.0000   1.0000   1.0000   1.0000   1.0000
     1.0000   1.0000   1.0362   0.0000   0.0000   0.0000   0.0000   0.0000
     0.0000   0.0000   0.0000

          k = 0.0000 0.2887 0.0000 (  2124 PWs)   bands (ev):

   -83.2794 -46.6781 -46.6036 -46.5816 -17.9761  -8.2090  -6.0225  -2.1596
    -1.0624   0.6851   5.9968   6.7117   7.1494   8.3302   8.9649   9.8771
    10.9398  11.1946  12.0699  13.6351  13.6629  18.9317  19.9692  21.9446
    22.6770  24.2814  25.5733

     occupation numbers 
     1.0000   1.0000   1.0000   1.0000   1.0000   1.0000   1.0000   1.0000
     1.0000   1.0000   1.0000   1.0000   1.0000   1.0000   1.0000   1.0000
     1.0000   1.0000   1.0036   0.0000   0.0000   0.0000   0.0000   0.0000
     0.0000   0.0000   0.0000

          k = 0.0000 0.2887 0.1758 (  2109 PWs)   bands (ev):

   -83.2794 -46.6780 -46.6035 -46.5815 -17.9743  -8.2257  -6.0200  -2.1256
    -1.0638   0.6504   5.9651   6.7465   7.1819   8.3490   8.9334  10.0370
    10.9108  11.1817  12.1243  13.4630  13.6357  18.7060  20.3791  21.9514
    22.7352  23.0574  25.7322

     occupation numbers 
     1.0000   1.0000   1.0000   1.0000   1.0000   1.0000   1.0000   1.0000
     1.0000   1.0000   1.0000   1.0000   1.0000   1.0000   1.0000   1.0000
     1.0000   1.0000   1.0076   0.0000   0.0000   0.0000   0.0000   0.0000
     0.0000   0.0000   0.0000

          k = 0.0000 0.4330 0.0000 (  2116 PWs)   bands (ev):

   -83.2776 -46.6744 -46.6239 -46.5866 -17.4750  -9.0806  -5.8511  -2.1537
    -1.4502   0.3286   6.1025   6.5070   7.6424   8.1676   8.9273  10.1038
    11.1335  11.1861  12.1410  13.5734  13.7452  19.2074  20.1098  21.7495
    23.5716  24.1972  26.0061

     occupation numbers 
     1.0000   1.0000   1.0000   1.0000   1.0000   1.0000   1.0000   1.0000
     1.0000   1.0000   1.0000   1.0000   1.0000   1.0000   1.0000   1.0000
     1.0000   1.0000   1.0095   0.0000   0.0000   0.0000   0.0000   0.0000
     0.0000   0.0000   0.0000

          k = 0.0000 0.4330 0.1758 (  2127 PWs)   bands (ev):

   -83.2777 -46.6746 -46.6240 -46.5866 -17.4736  -9.0819  -5.8595  -2.1561
    -1.4515   0.3090   6.1030   6.6521   7.7026   8.2340   8.8588   9.9040
    11.0912  11.1788  12.3281  13.5013  13.7553  18.9256  20.4422  21.6610
    23.5655  23.6650  25.4383

     occupation numbers 
     1.0000   1.0000   1.0000   1.0000   1.0000   1.0000   1.0000   1.0000
     1.0000   1.0000   1.0000   1.0000   1.0000   1.0000   1.0000   1.0000
     1.0000   1.0000   1.0559   0.0000   0.0000   0.0000   0.0000   0.0000
     0.0000   0.0000   0.0000

          k = 0.0000-0.5774 0.0000 (  2126 PWs)   bands (ev):

   -83.2769 -46.6730 -46.6325 -46.5885 -17.2359  -9.5031  -5.7497  -2.0336
    -1.5978   0.0851   6.0737   6.4203   7.7736   8.1251   9.0585  10.1197
    11.0248  11.1814  12.4784  13.3735  13.8530  19.3267  20.4576  21.6383
    23.6608  24.2962  25.9213

     occupation numbers 
     1.0000   1.0000   1.0000   1.0000   1.0000   1.0000   1.0000   1.0000
     1.0000   1.0000   1.0000   1.0000   1.0000   1.0000   1.0000   1.0000
     1.0000   1.0000   1.0790   0.0003   0.0000   0.0000   0.0000   0.0000
     0.0000   0.0000   0.0000

          k = 0.0000-0.5774 0.1758 (  2130 PWs)   bands (ev):

   -83.2769 -46.6732 -46.6324 -46.5886 -17.2345  -9.5025  -5.7555  -2.0551
    -1.5990   0.0762   6.1505   6.4729   7.8334   8.2566   8.9838   9.8792
    11.0254  11.1006  12.6165  13.4264  13.8693  19.3547  20.4013  21.3641
    23.4116  24.3624  25.6326

     occupation numbers 
     1.0000   1.0000   1.0000   1.0000   1.0000   1.0000   1.0000   1.0000
     1.0000   1.0000   1.0000   1.0000   1.0000   1.0000   1.0000   1.0000
     1.0000   1.0000   0.9383   0.0001   0.0000   0.0000   0.0000   0.0000
     0.0000   0.0000   0.0000

          k = 0.1250 0.2165 0.0000 (  2125 PWs)   bands (ev):

   -83.2800 -46.6791 -46.5967 -46.5811 -18.1077  -8.0001  -6.0374  -2.0292
    -1.1101   0.8369   6.0985   6.5832   7.0476   8.3058   9.0061   9.8151
    10.9604  11.0789  12.1294  13.5873  13.7023  18.7643  20.2101  21.6663
    22.7194  24.1200  25.2606

     occupation numbers 
     1.0000   1.0000   1.0000   1.0000   1.0000   1.0000   1.0000   1.0000
     1.0000   1.0000   1.0000   1.0000   1.0000   1.0000   1.0000   1.0000
     1.0000   1.0000   1.0082   0.0000   0.0000   0.0000   0.0000   0.0000
     0.0000   0.0000   0.0000

          k = 0.1250 0.2165 0.1758 (  2124 PWs)   bands (ev):

   -83.2800 -46.6791 -46.5967 -46.5811 -18.1057  -8.0267  -6.0232  -1.9880
    -1.1115   0.8027   6.0242   6.5797   7.0337   8.4115   9.0118  10.0377
    10.9414  11.0582  12.1226  13.3822  13.6642  18.8778  20.2888  21.7357
    22.4353  23.1575  25.7960

     occupation numbers 
     1.0000   1.0000   1.0000   1.0000   1.0000   1.0000   1.0000   1.0000
     1.0000   1.0000   1.0000   1.0000   1.0000   1.0000   1.0000   1.0000
     1.0000   1.0000   1.0075   0.0003   0.0000   0.0000   0.0000   0.0000
     0.0000   0.0000   0.0000

          k = 0.1250 0.3608 0.0000 (  2112 PWs)   bands (ev):

   -83.2782 -46.6755 -46.6149 -46.5880 -17.6342  -8.7600  -5.9122  -2.1545
    -1.7374   0.7768   6.3382   6.7504   7.4576   7.9538   8.7886   9.9779
    11.0855  11.3014  12.1019  13.5651  13.7149  19.1530  19.9145  21.7336
    22.7889  25.0236  26.0843

     occupation numbers 
     1.0000   1.0000   1.0000   1.0000   1.0000   1.0000   1.0000   1.0000
     1.0000   1.0000   1.0000   1.0000   1.0000   1.0000   1.0000   1.0000
     1.0000   1.0000   1.0057   0.0000   0.0000   0.0000   0.0000   0.0000
     0.0000   0.0000   0.0000

          k = 0.1250 0.3608 0.1758 (  2117 PWs)   bands (ev):

   -83.2782 -46.6756 -46.6149 -46.5880 -17.6326  -8.7633  -5.9245  -2.1452
    -1.7331   0.7612   6.2945   6.8485   7.5054   7.9301   8.7971  10.0036
    11.0673  11.2987  12.2270  13.3968  13.6906  18.9150  20.1717  21.8173
    22.6960  23.9598  26.0343

     occupation numbers 
     1.0000   1.0000   1.0000   1.0000   1.0000   1.0000   1.0000   1.0000
     1.0000   1.0000   1.0000   1.0000   1.0000   1.0000   1.0000   1.0000
     1.0000   1.0000   1.0248   0.0002   0.0000   0.0000   0.0000   0.0000
     0.0000   0.0000   0.0000

          k = 0.1250 0.5052 0.0000 (  2125 PWs)   bands (ev):

   -83.2769 -46.6730 -46.6278 -46.5932 -17.2423  -9.4279  -5.7518  -2.3499
    -1.7886   0.5081   6.3633   6.6727   7.6284   8.2315   8.6139   9.9151
    11.0703  11.3462  12.4415  13.5052  13.7619  19.3780  19.9792  21.7349
    23.2275  24.8065  25.9494

     occupation numbers 
     1.0000   1.0000   1.0000   1.0000   1.0000   1.0000   1.0000   1.0000
     1.0000   1.0000   1.0000   1.0000   1.0000   1.0000   1.0000   1.0000
     1.0000   1.0000   1.0833   0.0000   0.0000   0.0000   0.0000   0.0000
     0.0000   0.0000   0.0000

          k = 0.1250 0.5052 0.1758 (  2124 PWs)   bands (ev):

   -83.2769 -46.6731 -46.6278 -46.5931 -17.2409  -9.4278  -5.7548  -2.3655
    -1.7991   0.4963   6.5215   6.6702   7.7128   8.2598   8.6064   9.7161
    11.0541  11.3003  12.5798  13.4849  13.7244  19.3020  20.1591  21.4929
    22.9877  24.3998  25.7144

     occupation numbers 
     1.0000   1.0000   1.0000   1.0000   1.0000   1.0000   1.0000   1.0000
     1.0000   1.0000   1.0000   1.0000   1.0000   1.0000   1.0000   1.0000
     1.0000   1.0000   0.9980   0.0000   0.0000   0.0000   0.0000   0.0000
     0.0000   0.0000   0.0000

          k = 0.2500 0.4330 0.0000 (  2117 PWs)   bands (ev):

   -83.2769 -46.6730 -46.6215 -46.5994 -17.2487  -9.3497  -5.7532  -2.6971
    -1.8341   0.8135   6.7420   6.9945   7.6422   7.7228   8.6325   9.6062
    11.0952  11.4516  12.4330  13.5930  13.7166  19.2194  19.7640  21.8568
    22.8095  25.4968  25.9926

     occupation numbers 
     1.0000   1.0000   1.0000   1.0000   1.0000   1.0000   1.0000   1.0000
     1.0000   1.0000   1.0000   1.0000   1.0000   1.0000   1.0000   1.0000
     1.0000   1.0000   1.0829   0.0000   0.0000   0.0000   0.0000   0.0000
     0.0000   0.0000   0.0000

          k = 0.2500 0.4330 0.1758 (  2126 PWs)   bands (ev):

   -83.2769 -46.6731 -46.6215 -46.5994 -17.2473  -9.3494  -5.7583  -2.7078
    -1.8439   0.8062   6.8106   7.0753   7.6750   7.7463   8.5531   9.6090
    11.0739  11.4726  12.5240  13.4398  13.6906  19.1831  19.9443  21.5967
    22.5679  24.6669  26.0150

     occupation numbers 
     1.0000   1.0000   1.0000   1.0000   1.0000   1.0000   1.0000   1.0000
     1.0000   1.0000   1.0000   1.0000   1.0000   1.0000   1.0000   1.0000
     1.0000   1.0000   1.0570   0.0001   0.0000   0.0000   0.0000   0.0000
     0.0000   0.0000   0.0000

          k = 0.2500 0.5774 0.0000 (  2121 PWs)   bands (ev):

   -83.2764 -46.6720 -46.6220 -46.6063 -17.0723  -9.6054  -5.6822  -3.0446
    -1.6868   0.7677   6.6899   7.1156   7.7203   7.9840   8.5891   9.2298
    11.1416  11.4908  12.6405  13.5987  13.7187  19.2116  19.7155  21.8894
    22.7739  25.5690  25.9485

     occupation numbers 
     1.0000   1.0000   1.0000   1.0000   1.0000   1.0000   1.0000   1.0000
     1.0000   1.0000   1.0000   1.0000   1.0000   1.0000   1.0000   1.0000
     1.0000   1.0000   0.8907   0.0000   0.0000   0.0000   0.0000   0.0000
     0.0000   0.0000   0.0000

          k = 0.2500 0.5774 0.1758 (  2132 PWs)   bands (ev):

   -83.2764 -46.6721 -46.6220 -46.6064 -17.0711  -9.6050  -5.6785  -3.0591
    -1.7123   0.7538   6.8008   7.2697   7.8059   7.9671   8.4961   9.1332
    11.1138  11.5102  12.7138  13.5149  13.6405  19.3572  19.8299  21.4117
    22.3983  24.9862  26.0075

     occupation numbers 
     1.0000   1.0000   1.0000   1.0000   1.0000   1.0000   1.0000   1.0000
     1.0000   1.0000   1.0000   1.0000   1.0000   1.0000   1.0000   1.0000
     1.0000   1.0000   0.7123   0.0000   0.0000   0.0000   0.0000   0.0000
     0.0000   0.0000   0.0000

          k = 0.0000-0.1443 0.1758 (  2112 PWs)   bands (ev):

   -83.2812 -46.6815 -46.5831 -46.5767 -18.3997  -7.7374  -5.9009  -1.5622
    -0.6166   0.4554   6.0291   6.3795   6.5638   8.9696   9.2411   9.6682
    10.6733  10.7801  12.2578  13.5492  13.7240  18.5831  20.8277  21.5132
    22.2882  22.9970  24.7329

     occupation numbers 
     1.0000   1.0000   1.0000   1.0000   1.0000   1.0000   1.0000   1.0000
     1.0000   1.0000   1.0000   1.0000   1.0000   1.0000   1.0000   1.0000
     1.0000   1.0000   1.0329   0.0000   0.0000   0.0000   0.0000   0.0000
     0.0000   0.0000   0.0000

          k = 0.0000-0.2887 0.1758 (  2109 PWs)   bands (ev):

   -83.2794 -46.6780 -46.6035 -46.5815 -17.9743  -8.2222  -6.0323  -2.1089
    -1.0632   0.6665   5.8958   6.6686   7.1501   8.4168   8.9832  10.1682
    10.9175  11.1715  12.0689  13.4329  13.6377  18.9472  20.1052  21.8820
    22.6693  23.1587  26.1117

     occupation numbers 
     1.0000   1.0000   1.0000   1.0000   1.0000   1.0000   1.0000   1.0000
     1.0000   1.0000   1.0000   1.0000   1.0000   1.0000   1.0000   1.0000
     1.0000   1.0000   1.0035   0.0001   0.0000   0.0000   0.0000   0.0000
     0.0000   0.0000   0.0000

          k = 0.0000-0.4330 0.1758 (  2127 PWs)   bands (ev):

   -83.2777 -46.6746 -46.6240 -46.5866 -17.4735  -9.0799  -5.8720  -2.1370
    -1.4512   0.3267   6.0461   6.5702   7.6635   8.1786   8.9142  10.1798
    11.0863  11.1690  12.2836  13.4792  13.7538  19.1869  20.0529  21.5450
    23.6040  23.8409  25.6661

     occupation numbers 
     1.0000   1.0000   1.0000   1.0000   1.0000   1.0000   1.0000   1.0000
     1.0000   1.0000   1.0000   1.0000   1.0000   1.0000   1.0000   1.0000
     1.0000   1.0000   1.0409   0.0000   0.0000   0.0000   0.0000   0.0000
     0.0000   0.0000   0.0000

          k =-0.1250-0.3608 0.1758 (  2117 PWs)   bands (ev):

   -83.2782 -46.6756 -46.6149 -46.5880 -17.6326  -8.7617  -5.9324  -2.1255
    -1.7418   0.7741   6.2456   6.7611   7.4921   8.0137   8.7664  10.1513
    11.0652  11.3059  12.1872  13.3718  13.7002  19.1121  19.9203  21.6952
    22.8532  23.9208  26.3945

     occupation numbers 
     1.0000   1.0000   1.0000   1.0000   1.0000   1.0000   1.0000   1.0000
     1.0000   1.0000   1.0000   1.0000   1.0000   1.0000   1.0000   1.0000
     1.0000   1.0000   1.0163   0.0003   0.0000   0.0000   0.0000   0.0000
     0.0000   0.0000   0.0000

          k =-0.1250-0.5052 0.1758 (  2124 PWs)   bands (ev):

   -83.2769 -46.6731 -46.6278 -46.5931 -17.2409  -9.4271  -5.7600  -2.3557
    -1.8015   0.5054   6.4490   6.6762   7.7051   8.2812   8.5534   9.8412
    11.0559  11.3170  12.5641  13.4559  13.7447  19.3933  20.0327  21.3697
    23.1665  24.3143  26.0740

     occupation numbers 
     1.0000   1.0000   1.0000   1.0000   1.0000   1.0000   1.0000   1.0000
     1.0000   1.0000   1.0000   1.0000   1.0000   1.0000   1.0000   1.0000
     1.0000   1.0000   1.0184   0.0001   0.0000   0.0000   0.0000   0.0000
     0.0000   0.0000   0.0000

 ------ SPIN DOWN ----------


          k = 0.0000 0.0000 0.0000 (  2125 PWs)   bands (ev):

   -83.2808 -46.6802 -46.5744 -46.5744 -18.5612  -7.5740  -5.8913  -0.4915
    -0.4063  -0.4063   6.0684   6.2918   6.2918   9.0216   9.4346   9.4346
    10.5117  10.5117  12.7491  13.7676  13.7676  17.5286  21.6283  22.3744
    22.3744  22.8562  24.1067

     occupation numbers 
     1.0000   1.0000   1.0000   1.0000   1.0000   1.0000   1.0000   1.0000
     1.0000   1.0000   1.0000   1.0000   1.0000   1.0000   1.0000   1.0000
     1.0000   1.0000   0.6156   0.0000   0.0000   0.0000   0.0000   0.0000
     0.0000   0.0000   0.0000

          k = 0.0000 0.0000 0.1758 (  2120 PWs)   bands (ev):

   -83.2808 -46.6799 -46.5745 -46.5745 -18.5588  -7.6733  -5.7486  -0.5710
    -0.4076  -0.4076   6.1028   6.3076   6.3076   9.2359   9.4024   9.4024
    10.5182  10.5182  12.3425  13.7878  13.7878  18.2550  20.5926  22.2893
    22.2893  23.1591  23.8800

     occupation numbers 
     1.0000   1.0000   1.0000   1.0000   1.0000   1.0000   1.0000   1.0000
     1.0000   1.0000   1.0000   1.0000   1.0000   1.0000   1.0000   1.0000
     1.0000   1.0000   1.0609   0.0000   0.0000   0.0000   0.0000   0.0000
     0.0000   0.0000   0.0000

          k = 0.0000 0.1443 0.0000 (  2127 PWs)   bands (ev):

   -83.2801 -46.6786 -46.5829 -46.5766 -18.4010  -7.6662  -5.9849  -1.5796
    -0.6149   0.5128   6.0583   6.3869   6.5570   8.8445   9.2426   9.5150
    10.6745  10.7939  12.4779  13.6899  13.7092  18.0715  20.8989  22.3141
    22.3578  23.3235  24.2581

     occupation numbers 
     1.0000   1.0000   1.0000   1.0000   1.0000   1.0000   1.0000   1.0000
     1.0000   1.0000   1.0000   1.0000   1.0000   1.0000   1.0000   1.0000
     1.0000   1.0000   1.0792   0.0000   0.0000   0.0000   0.0000   0.0000
     0.0000   0.0000   0.0000

          k = 0.0000 0.1443 0.1758 (  2112 PWs)   bands (ev):

   -83.2801 -46.6784 -46.5830 -46.5765 -18.3987  -7.7370  -5.8970  -1.5654
    -0.6164   0.4544   6.0648   6.3651   6.5786   8.9371   9.2137   9.6920
    10.6599  10.7912  12.2744  13.5589  13.7176  18.5772  20.6526  21.7541
    22.3402  22.9347  24.5990

     occupation numbers 
     1.0000   1.0000   1.0000   1.0000   1.0000   1.0000   1.0000   1.0000
     1.0000   1.0000   1.0000   1.0000   1.0000   1.0000   1.0000   1.0000
     1.0000   1.0000   1.0379   0.0000   0.0000   0.0000   0.0000   0.0000
     0.0000   0.0000   0.0000

          k = 0.0000 0.2887 0.0000 (  2124 PWs)   bands (ev):

   -83.2783 -46.6751 -46.6034 -46.5815 -17.9752  -8.2074  -6.0217  -2.1586
    -1.0616   0.6864   5.9981   6.7125   7.1498   8.3310   8.9657   9.8782
    10.9411  11.1959  12.0735  13.6342  13.6641  18.9323  19.9696  21.9454
    22.6774  24.2822  25.5739

     occupation numbers 
     1.0000   1.0000   1.0000   1.0000   1.0000   1.0000   1.0000   1.0000
     1.0000   1.0000   1.0000   1.0000   1.0000   1.0000   1.0000   1.0000
     1.0000   1.0000   1.0038   0.0000   0.0000   0.0000   0.0000   0.0000
     0.0000   0.0000   0.0000

          k = 0.0000 0.2887 0.1758 (  2109 PWs)   bands (ev):

   -83.2783 -46.6750 -46.6034 -46.5814 -17.9733  -8.2241  -6.0192  -2.1245
    -1.0630   0.6516   5.9663   6.7473   7.1823   8.3497   8.9341  10.0382
    10.9120  11.1829  12.1289  13.4634  13.6348  18.7066  20.3796  21.9521
    22.7355  23.0581  25.7328

     occupation numbers 
     1.0000   1.0000   1.0000   1.0000   1.0000   1.0000   1.0000   1.0000
     1.0000   1.0000   1.0000   1.0000   1.0000   1.0000   1.0000   1.0000
     1.0000   1.0000   1.0081   0.0000   0.0000   0.0000   0.0000   0.0000
     0.0000   0.0000   0.0000

          k = 0.0000 0.4330 0.0000 (  2116 PWs)   bands (ev):

   -83.2765 -46.6714 -46.6238 -46.5864 -17.4741  -9.0790  -5.8504  -2.1527
    -1.4494   0.3297   6.1039   6.5077   7.6422   8.1682   8.9285  10.1057
    11.1349  11.1876  12.1448  13.5740  13.7442  19.2079  20.1103  21.7505
    23.5722  24.1978  26.0066

     occupation numbers 
     1.0000   1.0000   1.0000   1.0000   1.0000   1.0000   1.0000   1.0000
     1.0000   1.0000   1.0000   1.0000   1.0000   1.0000   1.0000   1.0000
     1.0000   1.0000   1.0099   0.0000   0.0000   0.0000   0.0000   0.0000
     0.0000   0.0000   0.0000

          k = 0.0000 0.4330 0.1758 (  2127 PWs)   bands (ev):

   -83.2765 -46.6715 -46.6238 -46.5864 -17.4726  -9.0804  -5.8589  -2.1550
    -1.4507   0.3101   6.1043   6.6529   7.7024   8.2345   8.8600   9.9057
    11.0930  11.1802  12.3322  13.5015  13.7543  18.9262  20.4427  21.6618
    23.5660  23.6655  25.4390

     occupation numbers 
     1.0000   1.0000   1.0000   1.0000   1.0000   1.0000   1.0000   1.0000
     1.0000   1.0000   1.0000   1.0000   1.0000   1.0000   1.0000   1.0000
     1.0000   1.0000   1.0573   0.0000   0.0000   0.0000   0.0000   0.0000
     0.0000   0.0000   0.0000

          k = 0.0000-0.5774 0.0000 (  2126 PWs)   bands (ev):

   -83.2758 -46.6699 -46.6324 -46.5884 -17.2349  -9.5016  -5.7491  -2.0324
    -1.5970   0.0862   6.0750   6.4210   7.7731   8.1256   9.0599  10.1222
    11.0263  11.1830  12.4825  13.3731  13.8520  19.3273  20.4581  21.6394
    23.6613  24.2970  25.9219

     occupation numbers 
     1.0000   1.0000   1.0000   1.0000   1.0000   1.0000   1.0000   1.0000
     1.0000   1.0000   1.0000   1.0000   1.0000   1.0000   1.0000   1.0000
     1.0000   1.0000   1.0779   0.0003   0.0000   0.0000   0.0000   0.0000
     0.0000   0.0000   0.0000

          k = 0.0000-0.5774 0.1758 (  2130 PWs)   bands (ev):

   -83.2758 -46.6701 -46.6323 -46.5885 -17.2336  -9.5009  -5.7548  -2.0540
    -1.5982   0.0772   6.1518   6.4736   7.8329   8.2570   8.9852   9.8813
    11.0269  11.1025  12.6210  13.4259  13.8684  19.3555  20.4017  21.3648
    23.4122  24.3632  25.6335

     occupation numbers 
     1.0000   1.0000   1.0000   1.0000   1.0000   1.0000   1.0000   1.0000
     1.0000   1.0000   1.0000   1.0000   1.0000   1.0000   1.0000   1.0000
     1.0000   1.0000   0.9299   0.0001   0.0000   0.0000   0.0000   0.0000
     0.0000   0.0000   0.0000

          k = 0.1250 0.2165 0.0000 (  2125 PWs)   bands (ev):

   -83.2788 -46.6761 -46.5965 -46.5810 -18.1067  -7.9986  -6.0366  -2.0282
    -1.1093   0.8382   6.0994   6.5844   7.0481   8.3065   9.0069   9.8162
    10.9615  11.0800  12.1331  13.5876  13.7026  18.7649  20.2104  21.6670
    22.7200  24.1208  25.2612

     occupation numbers 
     1.0000   1.0000   1.0000   1.0000   1.0000   1.0000   1.0000   1.0000
     1.0000   1.0000   1.0000   1.0000   1.0000   1.0000   1.0000   1.0000
     1.0000   1.0000   1.0086   0.0000   0.0000   0.0000   0.0000   0.0000
     0.0000   0.0000   0.0000

          k = 0.1250 0.2165 0.1758 (  2124 PWs)   bands (ev):

   -83.2788 -46.6761 -46.5966 -46.5810 -18.1047  -8.0252  -6.0225  -1.9870
    -1.1107   0.8040   6.0253   6.5808   7.0342   8.4122   9.0125  10.0388
    10.9425  11.0593  12.1275  13.3824  13.6636  18.8784  20.2892  21.7363
    22.4359  23.1581  25.7965

     occupation numbers 
     1.0000   1.0000   1.0000   1.0000   1.0000   1.0000   1.0000   1.0000
     1.0000   1.0000   1.0000   1.0000   1.0000   1.0000   1.0000   1.0000
     1.0000   1.0000   1.0080   0.0003   0.0000   0.0000   0.0000   0.0000
     0.0000   0.0000   0.0000

          k = 0.1250 0.3608 0.0000 (  2112 PWs)   bands (ev):

   -83.2770 -46.6725 -46.6147 -46.5879 -17.6332  -8.7585  -5.9115  -2.1535
    -1.7365   0.7779   6.3395   6.7512   7.4578   7.9546   8.7893   9.9793
    11.0869  11.3033  12.1053  13.5654  13.7145  19.1535  19.9150  21.7345
    22.7895  25.0243  26.0850

     occupation numbers 
     1.0000   1.0000   1.0000   1.0000   1.0000   1.0000   1.0000   1.0000
     1.0000   1.0000   1.0000   1.0000   1.0000   1.0000   1.0000   1.0000
     1.0000   1.0000   1.0059   0.0000   0.0000   0.0000   0.0000   0.0000
     0.0000   0.0000   0.0000

          k = 0.1250 0.3608 0.1758 (  2117 PWs)   bands (ev):

   -83.2770 -46.6725 -46.6148 -46.5879 -17.6316  -8.7617  -5.9238  -2.1442
    -1.7322   0.7623   6.2957   6.8494   7.5056   7.9306   8.7978  10.0050
    11.0688  11.3003  12.2313  13.3968  13.6899  18.9155  20.1722  21.8181
    22.6966  23.9604  26.0348

     occupation numbers 
     1.0000   1.0000   1.0000   1.0000   1.0000   1.0000   1.0000   1.0000
     1.0000   1.0000   1.0000   1.0000   1.0000   1.0000   1.0000   1.0000
     1.0000   1.0000   1.0258   0.0002   0.0000   0.0000   0.0000   0.0000
     0.0000   0.0000   0.0000

          k = 0.1250 0.5052 0.0000 (  2125 PWs)   bands (ev):

   -83.2758 -46.6700 -46.6277 -46.5930 -17.2413  -9.4264  -5.7511  -2.3491
    -1.7875   0.5091   6.3644   6.6737   7.6282   8.2321   8.6149   9.9171
    11.0718  11.3479  12.4457  13.5049  13.7609  19.3786  19.9796  21.7360
    23.2283  24.8070  25.9495

     occupation numbers 
     1.0000   1.0000   1.0000   1.0000   1.0000   1.0000   1.0000   1.0000
     1.0000   1.0000   1.0000   1.0000   1.0000   1.0000   1.0000   1.0000
     1.0000   1.0000   1.0833   0.0000   0.0000   0.0000   0.0000   0.0000
     0.0000   0.0000   0.0000

          k = 0.1250 0.5052 0.1758 (  2124 PWs)   bands (ev):

   -83.2758 -46.6701 -46.6277 -46.5929 -17.2400  -9.4263  -5.7541  -2.3646
    -1.7980   0.4973   6.5229   6.6709   7.7126   8.2604   8.6073   9.7180
    11.0556  11.3021  12.5844  13.4844  13.7234  19.3026  20.1596  21.4937
    22.9884  24.4004  25.7148

     occupation numbers 
     1.0000   1.0000   1.0000   1.0000   1.0000   1.0000   1.0000   1.0000
     1.0000   1.0000   1.0000   1.0000   1.0000   1.0000   1.0000   1.0000
     1.0000   1.0000   0.9914   0.0000   0.0000   0.0000   0.0000   0.0000
     0.0000   0.0000   0.0000

          k = 0.2500 0.4330 0.0000 (  2117 PWs)   bands (ev):

   -83.2758 -46.6700 -46.6213 -46.5993 -17.2477  -9.3481  -5.7525  -2.6963
    -1.8329   0.8144   6.7424   6.9960   7.6436   7.7226   8.6331   9.6078
    11.0967  11.4534  12.4375  13.5929  13.7154  19.2198  19.7646  21.8578
    22.8103  25.4973  25.9931

     occupation numbers 
     1.0000   1.0000   1.0000   1.0000   1.0000   1.0000   1.0000   1.0000
     1.0000   1.0000   1.0000   1.0000   1.0000   1.0000   1.0000   1.0000
     1.0000   1.0000   1.0832   0.0000   0.0000   0.0000   0.0000   0.0000
     0.0000   0.0000   0.0000

          k = 0.2500 0.4330 0.1758 (  2126 PWs)   bands (ev):

   -83.2758 -46.6701 -46.6214 -46.5993 -17.2463  -9.3478  -5.7577  -2.7070
    -1.8427   0.8071   6.8111   7.0770   7.6759   7.7464   8.5536   9.6107
    11.0755  11.4742  12.5291  13.4392  13.6896  19.1834  19.9449  21.5975
    22.5688  24.6675  26.0156

     occupation numbers 
     1.0000   1.0000   1.0000   1.0000   1.0000   1.0000   1.0000   1.0000
     1.0000   1.0000   1.0000   1.0000   1.0000   1.0000   1.0000   1.0000
     1.0000   1.0000   1.0531   0.0001   0.0000   0.0000   0.0000   0.0000
     0.0000   0.0000   0.0000

          k = 0.2500 0.5774 0.0000 (  2121 PWs)   bands (ev):

   -83.2752 -46.6689 -46.6219 -46.6062 -17.0714  -9.6038  -5.6815  -3.0439
    -1.6856   0.7685   6.6903   7.1166   7.7214   7.9847   8.5898   9.2315
    11.1430  11.4924  12.6460  13.5977  13.7175  19.2119  19.7161  21.8904
    22.7749  25.5693  25.9490

     occupation numbers 
     1.0000   1.0000   1.0000   1.0000   1.0000   1.0000   1.0000   1.0000
     1.0000   1.0000   1.0000   1.0000   1.0000   1.0000   1.0000   1.0000
     1.0000   1.0000   0.8789   0.0000   0.0000   0.0000   0.0000   0.0000
     0.0000   0.0000   0.0000

          k = 0.2500 0.5774 0.1758 (  2132 PWs)   bands (ev):

   -83.2753 -46.6690 -46.6219 -46.6063 -17.0701  -9.6034  -5.6778  -3.0583
    -1.7111   0.7546   6.8011   7.2709   7.8070   7.9677   8.4964   9.1352
    11.1153  11.5118  12.7195  13.5138  13.6392  19.3575  19.8304  21.4125
    22.3993  24.9868  26.0078

     occupation numbers 
     1.0000   1.0000   1.0000   1.0000   1.0000   1.0000   1.0000   1.0000
     1.0000   1.0000   1.0000   1.0000   1.0000   1.0000   1.0000   1.0000
     1.0000   1.0000   0.6968   0.0000   0.0000   0.0000   0.0000   0.0000
     0.0000   0.0000   0.0000

          k = 0.0000-0.1443 0.1758 (  2112 PWs)   bands (ev):

   -83.2801 -46.6784 -46.5830 -46.5765 -18.3987  -7.7360  -5.8999  -1.5612
    -0.6158   0.4567   6.0300   6.3806   6.5645   8.9705   9.2418   9.6694
    10.6737  10.7808  12.2634  13.5491  13.7234  18.5837  20.8281  21.5137
    22.2885  22.9978  24.7335

     occupation numbers 
     1.0000   1.0000   1.0000   1.0000   1.0000   1.0000   1.0000   1.0000
     1.0000   1.0000   1.0000   1.0000   1.0000   1.0000   1.0000   1.0000
     1.0000   1.0000   1.0346   0.0000   0.0000   0.0000   0.0000   0.0000
     0.0000   0.0000   0.0000

          k = 0.0000-0.2887 0.1758 (  2109 PWs)   bands (ev):

   -83.2783 -46.6750 -46.6034 -46.5814 -17.9733  -8.2206  -6.0316  -2.1078
    -1.0624   0.6677   5.8971   6.6693   7.1504   8.4175   8.9839  10.1695
    10.9184  11.1727  12.0737  13.4334  13.6368  18.9478  20.1055  21.8828
    22.6697  23.1593  26.1108

     occupation numbers 
     1.0000   1.0000   1.0000   1.0000   1.0000   1.0000   1.0000   1.0000
     1.0000   1.0000   1.0000   1.0000   1.0000   1.0000   1.0000   1.0000
     1.0000   1.0000   1.0038   0.0001   0.0000   0.0000   0.0000   0.0000
     0.0000   0.0000   0.0000

          k = 0.0000-0.4330 0.1758 (  2127 PWs)   bands (ev):

   -83.2765 -46.6715 -46.6238 -46.5864 -17.4726  -9.0783  -5.8713  -2.1360
    -1.4504   0.3278   6.0475   6.5709   7.6633   8.1790   8.9153  10.1816
    11.0878  11.1705  12.2880  13.4794  13.7528  19.1875  20.0533  21.5457
    23.6045  23.8416  25.6666

     occupation numbers 
     1.0000   1.0000   1.0000   1.0000   1.0000   1.0000   1.0000   1.0000
     1.0000   1.0000   1.0000   1.0000   1.0000   1.0000   1.0000   1.0000
     1.0000   1.0000   1.0423   0.0000   0.0000   0.0000   0.0000   0.0000
     0.0000   0.0000   0.0000

          k =-0.1250-0.3608 0.1758 (  2117 PWs)   bands (ev):

   -83.2770 -46.6726 -46.6148 -46.5879 -17.6316  -8.7601  -5.9317  -2.1245
    -1.7410   0.7752   6.2470   6.7618   7.4922   8.0144   8.7670  10.1528
    11.0666  11.3075  12.1917  13.3717  13.6995  19.1126  19.9208  21.6959
    22.8539  23.9214  26.3951

     occupation numbers 
     1.0000   1.0000   1.0000   1.0000   1.0000   1.0000   1.0000   1.0000
     1.0000   1.0000   1.0000   1.0000   1.0000   1.0000   1.0000   1.0000
     1.0000   1.0000   1.0172   0.0003   0.0000   0.0000   0.0000   0.0000
     0.0000   0.0000   0.0000

          k =-0.1250-0.5052 0.1758 (  2124 PWs)   bands (ev):

   -83.2758 -46.6701 -46.6277 -46.5929 -17.2400  -9.4256  -5.7593  -2.3549
    -1.8004   0.5064   6.4504   6.6769   7.7048   8.2817   8.5544   9.8432
    11.0575  11.3187  12.5689  13.4554  13.7437  19.3939  20.0331  21.3704
    23.1673  24.3149  26.0747

     occupation numbers 
     1.0000   1.0000   1.0000   1.0000   1.0000   1.0000   1.0000   1.0000
     1.0000   1.0000   1.0000   1.0000   1.0000   1.0000   1.0000   1.0000
     1.0000   1.0000   1.0125   0.0001   0.0000   0.0000   0.0000   0.0000
     0.0000   0.0000   0.0000

     the Fermi energy is    12.8290 ev

!    total energy              =    -572.29010704 Ry
     total all-electron energy =     -4291.400943 Ry
     estimated scf accuracy    <       0.00000008 Ry
     smearing contrib. (-TS)   =       0.00247419 Ry
     internal energy E=F+TS    =    -572.29258123 Ry

     The total energy is F=E-TS. E is the sum of the following terms:
     one-electron contribution =    -329.25729575 Ry
     hartree contribution      =     189.03231869 Ry
     xc contribution           =     -57.79566778 Ry
     ewald contribution        =    -212.08428421 Ry
     one-center paw contrib.   =    -162.18765218 Ry
      -> PAW hartree energy AE =     324.78557850 Ry
      -> PAW hartree energy PS =    -323.38654338 Ry
      -> PAW xc energy AE      =    -218.68290245 Ry
      -> PAW xc energy PS      =      55.09621516 Ry
      -> total E_H with PAW    =     190.43135381 Ry
      -> total E_XC with PAW   =    -221.38235508 Ry

     total magnetization       =     0.00 Bohr mag/cell
     absolute magnetization    =     0.00 Bohr mag/cell

     convergence has been achieved in  33 iterations

     Forces acting on atoms (cartesian axes, Ry/au):

     atom    1 type  1   force =    -0.00000000   -0.00000000    0.67982151
     atom    2 type  2   force =     0.00000000    0.00000000   -0.01909130
     atom    3 type  2   force =     0.00000000    0.00000000    0.41319121
     atom    4 type  3   force =    -0.00000000   -0.00000000   -1.07392142
     The non-local contrib.  to forces
     atom    1 type  1   force =     0.00000000    0.00000000   -0.74345395
     atom    2 type  2   force =     0.00000000    0.00000000   -1.11477533
     atom    3 type  2   force =     0.00000000    0.00000000    0.89933815
     atom    4 type  3   force =     0.00000000    0.00000000   -0.14727714
     The ionic contribution  to forces
     atom    1 type  1   force =    -0.00000000   -0.00000000   32.71430580
     atom    2 type  2   force =     0.00000000   -0.00000000   27.02378816
     atom    3 type  2   force =    -0.00000000    0.00000000  -15.71548637
     atom    4 type  3   force =     0.00000000   -0.00000000  -44.02260760
     The local contribution  to forces
     atom    1 type  1   force =    -0.00000000   -0.00000000  -31.29045797
     atom    2 type  2   force =     0.00000001   -0.00000001  -25.93829969
     atom    3 type  2   force =    -0.00000001    0.00000000   15.23979900
     atom    4 type  3   force =    -0.00000000    0.00000000   43.09700963
     The core correction contribution to forces
     atom    1 type  1   force =     0.00000000   -0.00000000   -0.00047652
     atom    2 type  2   force =    -0.00000000    0.00000000    0.00983553
     atom    3 type  2   force =     0.00000000   -0.00000000   -0.01024516
     atom    4 type  3   force =    -0.00000000    0.00000000   -0.00073996
     The Hubbard contrib.    to forces
     atom    1 type  1   force =     0.00000000    0.00000000    0.00000000
     atom    2 type  2   force =     0.00000000    0.00000000    0.00000000
     atom    3 type  2   force =     0.00000000    0.00000000    0.00000000
     atom    4 type  3   force =     0.00000000    0.00000000    0.00000000
     The SCF correction term to forces
     atom    1 type  1   force =     0.00000000   -0.00000000   -0.00007605
     atom    2 type  2   force =     0.00000000   -0.00000000    0.00037984
     atom    3 type  2   force =    -0.00000000    0.00000000   -0.00019460
     atom    4 type  3   force =     0.00000000   -0.00000000   -0.00028653

     Total force =     1.336621     Total SCF correction =     0.000520

     Writing all to output data dir ./out/pw.save/ :
     XML data file, charge density, pseudopotentials, collected wavefunctions
 
     init_run     :     11.86s CPU      2.76s WALL (       1 calls)
     electrons    :    191.28s CPU     48.03s WALL (       1 calls)
     forces       :      0.78s CPU      0.58s WALL (       1 calls)

     Called by init_run:
     wfcinit      :      0.26s CPU      0.31s WALL (       1 calls)
     wfcinit:atom :      0.05s CPU      0.05s WALL (      50 calls)
     wfcinit:wfcr :      0.16s CPU      0.19s WALL (      50 calls)
     potinit      :     10.98s CPU      1.82s WALL (       1 calls)
     hinit0       :      0.53s CPU      0.51s WALL (       1 calls)

     Called by electrons:
     c_bands      :     18.12s CPU     18.17s WALL (      33 calls)
     sum_band     :      4.18s CPU      4.16s WALL (      33 calls)
     v_of_rho     :      0.48s CPU      0.22s WALL (      34 calls)
     v_h          :      0.34s CPU      0.04s WALL (      34 calls)
     v_xc         :      0.15s CPU      0.18s WALL (      35 calls)
     newd         :      1.04s CPU      0.83s WALL (      34 calls)
                                        0.83s GPU  (      34 calls)
     PAW_pot      :    171.73s CPU     24.47s WALL (      34 calls)
     mix_rho      :      0.94s CPU      0.92s WALL (      33 calls)

     Called by c_bands:
     init_us_2    :      1.38s CPU      1.35s WALL (    3400 calls)
     cegterg      :     15.72s CPU     15.79s WALL (    1650 calls)

     Called by sum_band:
     sum_band:wei :      0.06s CPU      0.06s WALL (      33 calls)
                                        0.06s GPU  (      33 calls)
     sum_band:loo :      2.23s CPU      2.20s WALL (      33 calls)
                                        2.20s GPU  (      33 calls)
     sum_band:buf :      0.22s CPU      0.25s WALL (    1650 calls)
                                        0.23s GPU  (    1650 calls)
     sum_band:ini :      0.66s CPU      0.68s WALL (    1650 calls)
                                        0.66s GPU  (    1650 calls)
     sum_band:cal :      0.06s CPU      0.10s WALL (    1650 calls)
                                        0.08s GPU  (    1650 calls)
     sum_band:bec :      0.36s CPU      0.39s WALL (    1650 calls)
                                        0.37s GPU  (    1650 calls)
     addusdens    :      1.72s CPU      1.72s WALL (      33 calls)
                                        1.72s GPU  (      33 calls)
     addusd:skk   :      0.01s CPU      0.01s WALL (      99 calls)
                                        0.01s GPU  (      99 calls)

     Called by *egterg:
     cdiaghg      :      5.46s CPU      5.65s WALL (    6406 calls)
                                        5.57s GPU  (    6406 calls)
     cegterg:over :      0.86s CPU      0.88s WALL (    4756 calls)
     cegterg:upda :      1.00s CPU      1.02s WALL (    4756 calls)
     cegterg:last :      0.18s CPU      0.18s WALL (    3049 calls)
     h_psi        :      5.65s CPU      5.69s WALL (    6456 calls)
                                        5.61s GPU  (    6456 calls)
     s_psi        :      1.01s CPU      1.05s WALL (    6456 calls)
     g_psi        :      0.02s CPU      0.12s WALL (    4756 calls)
                                        0.05s GPU  (    4756 calls)

     Called by h_psi:
     h_psi:calbec :      0.18s CPU      0.33s WALL (    6456 calls)
                                        0.25s GPU  (    6456 calls)
     vloc_psi     :      3.88s CPU      3.83s WALL (    6456 calls)
                                        3.75s GPU  (    6456 calls)
     add_vuspsi   :      0.91s CPU      1.07s WALL (    6456 calls)
                                        0.98s GPU  (    6456 calls)

     General routines
     calbec       :      0.20s CPU      0.23s WALL (    8306 calls)
     fft          :      3.44s CPU      0.65s WALL (     863 calls)
                                        0.03s GPU  (     795 calls)
     ffts         :      2.12s CPU      0.39s WALL (    1224 calls)
                                        0.03s GPU  (    1156 calls)
     fftw         :      0.40s CPU      1.27s WALL (   23120 calls)
                                        1.00s GPU  (   23120 calls)
     interpolate  :      5.67s CPU      1.00s WALL (      68 calls)
 
     Parallel routines

     PAW routines
     PAW_pot      :    171.73s CPU     24.47s WALL (      34 calls)
     PAW_symme    :      0.01s CPU      0.01s WALL (      67 calls)
 
     PWSCF        :   3m24.82s CPU     51.99s WALL

 
   This run was terminated on:   5:37:18  12Jul2026            

=------------------------------------------------------------------------------=
   JOB DONE.
=------------------------------------------------------------------------------=
Warning: ieee_divide_by_zero is signaling
Warning: ieee_inexact is signaling
FORTRAN STOP
