
     Program PWSCF v.7.3.1 starts on 12Jul2026 at  4:22:47 

     This program is part of the open-source Quantum ESPRESSO suite
     for quantum simulation of materials; please cite
         "P. Giannozzi et al., J. Phys.:Condens. Matter 21 395502 (2009);
         "P. Giannozzi et al., J. Phys.:Condens. Matter 29 465901 (2017);
         "P. Giannozzi et al., J. Chem. Phys. 152 154105 (2020);
          URL http://www.quantum-espresso.org", 
     in publications or presentations arising from this work. More details at
     http://www.quantum-espresso.org/quote

     Parallel version (MPI & OpenMP), running on      14 processor cores
     Number of MPI processes:                 1
     Threads/MPI process:                    14

     MPI processes distributed on     1 nodes
     763266 MiB available memory on the printing compute node when the environment starts
 
     Reading input from pw.in

     Current dimensions of program PWSCF are:
     Max number of different atomic species (ntypx) = 10
     Max number of k-points (npk) =  40000
     Max angular momentum in pseudopotentials (lmaxx) =  4
     file Co.pbe-spn-kjpaw_psl.0.3.1.UPF: wavefunction(s)  3P 3D renormalized
     file O.pbe-n-kjpaw_psl.1.0.0.UPF: wavefunction(s)  2S 2P renormalized
     file Na.pbe-spn-kjpaw_psl.1.0.0.UPF: wavefunction(s)  2P renormalized
 
     Subspace diagonalization in iterative solution of the eigenvalue problem:
     a serial algorithm will be used

 
     G-vector sticks info
     --------------------
     sticks:   dense  smooth     PW     G-vecs:    dense   smooth      PW
     Sum         979     499    151                85601    30351    5001
 
     Using Slab Decomposition
 


     bravais-lattice index     =            4
     lattice parameter (alat)  =       5.4575  a.u.
     unit-cell volume          =     482.5661 (a.u.)^3
     number of atoms/cell      =            4
     number of atomic types    =            3
     number of electrons       =        38.00
     number of Kohn-Sham states=           27
     kinetic-energy cutoff     =      60.0000  Ry
     charge density cutoff     =     480.0000  Ry
     scf convergence threshold =      1.0E-07
     mixing beta               =       0.3000
     number of iterations used =            8  local-TF  mixing
     Exchange-correlation= SLA  PW   PBX  PBC
                           (   1   4   3   4   0   0   0)

     GPU acceleration is ACTIVE.  4 visible GPUs per MPI rank
     GPU-aware MPI enabled


     GPU used by master process:

        Device Number: 0
        Device name: NVIDIA A100-SXM4-80GB
        Compute capability : 80
        Ratio of single to double precision performance  : 2
        Memory Clock Rate (KHz): 1593000
        Memory Bus Width (bits): 5120
        Peak Memory Bandwidth (GB/s): ******

     celldm(1)=   5.457529  celldm(2)=   0.000000  celldm(3)=   3.427978
     celldm(4)=   0.000000  celldm(5)=   0.000000  celldm(6)=   0.000000

     crystal axes: (cart. coord. in units of alat)
               a(1) = (   1.000000   0.000000   0.000000 )  
               a(2) = (  -0.500000   0.866025   0.000000 )  
               a(3) = (   0.000000   0.000000   3.427978 )  

     reciprocal axes: (cart. coord. in units 2 pi/alat)
               b(1) = (  1.000000  0.577350 -0.000000 )  
               b(2) = (  0.000000  1.154701  0.000000 )  
               b(3) = (  0.000000 -0.000000  0.291717 )  


     PseudoPot. # 1 for Co read from file:
     ../../pseudo/Co.pbe-spn-kjpaw_psl.0.3.1.UPF
     MD5 check sum: 3c0a43779828c046024e4f3be63f8e67
     Pseudo is Projector augmented-wave + core cor, Zval = 17.0
     Generated using &quot;atomic&quot; code by A. Dal Corso  v.6.2.2
     Shape of augmentation charge: PSQ
     Using radial grid of 1193 points,  6 beta functions with: 
                l(1) =   0
                l(2) =   0
                l(3) =   1
                l(4) =   1
                l(5) =   2
                l(6) =   2
     Q(r) pseudized with 0 coefficients 


     PseudoPot. # 2 for O  read from file:
     ../../pseudo/O.pbe-n-kjpaw_psl.1.0.0.UPF
     MD5 check sum: e99d9cef9b487d1ca56f5b95ecd0fd7a
     Pseudo is Projector augmented-wave + core cor, Zval =  6.0
     Generated using &quot;atomic&quot; code by A. Dal Corso  v.6.3
     Shape of augmentation charge: PSQ
     Using radial grid of 1095 points,  4 beta functions with: 
                l(1) =   0
                l(2) =   0
                l(3) =   1
                l(4) =   1
     Q(r) pseudized with 0 coefficients 


     PseudoPot. # 3 for Na read from file:
     ../../pseudo/Na.pbe-spn-kjpaw_psl.1.0.0.UPF
     MD5 check sum: 05b4deb74e3932c23ab016979dc8b5d4
     Pseudo is Projector augmented-wave + core cor, Zval =  9.0
     Generated using &quot;atomic&quot; code by A. Dal Corso  v.6.3
     Shape of augmentation charge: PSQ
     Using radial grid of 1121 points,  4 beta functions with: 
                l(1) =   0
                l(2) =   0
                l(3) =   1
                l(4) =   1
     Q(r) pseudized with 0 coefficients 


     atomic species   valence    mass     pseudopotential
     Co               17.00    58.93300     Co( 1.00)
     O                 6.00    15.99900     O ( 1.00)
     Na                9.00    22.98977     Na( 1.00)

     12 Sym. Ops., with inversion, found


                                    s                        frac. trans.

      isym =  1     identity                                     

 cryst.   s( 1) = (     1          0          0      )
                  (     0          1          0      )
                  (     0          0          1      )

 cart.    s( 1) = (  1.0000000  0.0000000  0.0000000 )
                  (  0.0000000  1.0000000  0.0000000 )
                  (  0.0000000  0.0000000  1.0000000 )


      isym =  2     180 deg rotation - cart. axis [1,0,0]        

 cryst.   s( 2) = (     1          0          0      )
                  (    -1         -1          0      )
                  (     0          0         -1      )

 cart.    s( 2) = (  1.0000000  0.0000000  0.0000000 )
                  (  0.0000000 -1.0000000  0.0000000 )
                  (  0.0000000  0.0000000 -1.0000000 )


      isym =  3     120 deg rotation - cryst. axis [0,0,1]       

 cryst.   s( 3) = (     0          1          0      )
                  (    -1         -1          0      )
                  (     0          0          1      )

 cart.    s( 3) = ( -0.5000000 -0.8660254  0.0000000 )
                  (  0.8660254 -0.5000000  0.0000000 )
                  (  0.0000000  0.0000000  1.0000000 )


      isym =  4     120 deg rotation - cryst. axis [0,0,-1]      

 cryst.   s( 4) = (    -1         -1          0      )
                  (     1          0          0      )
                  (     0          0          1      )

 cart.    s( 4) = ( -0.5000000  0.8660254  0.0000000 )
                  ( -0.8660254 -0.5000000  0.0000000 )
                  (  0.0000000  0.0000000  1.0000000 )


      isym =  5     180 deg rotation - cryst. axis [0,1,0]       

 cryst.   s( 5) = (    -1         -1          0      )
                  (     0          1          0      )
                  (     0          0         -1      )

 cart.    s( 5) = ( -0.5000000 -0.8660254  0.0000000 )
                  ( -0.8660254  0.5000000  0.0000000 )
                  (  0.0000000  0.0000000 -1.0000000 )


      isym =  6     180 deg rotation - cryst. axis [1,1,0]       

 cryst.   s( 6) = (     0          1          0      )
                  (     1          0          0      )
                  (     0          0         -1      )

 cart.    s( 6) = ( -0.5000000  0.8660254  0.0000000 )
                  (  0.8660254  0.5000000  0.0000000 )
                  (  0.0000000  0.0000000 -1.0000000 )


      isym =  7     inversion                                    

 cryst.   s( 7) = (    -1          0          0      )
                  (     0         -1          0      )
                  (     0          0         -1      )

 cart.    s( 7) = ( -1.0000000  0.0000000  0.0000000 )
                  (  0.0000000 -1.0000000  0.0000000 )
                  (  0.0000000  0.0000000 -1.0000000 )


      isym =  8     inv. 180 deg rotation - cart. axis [1,0,0]   

 cryst.   s( 8) = (    -1          0          0      )
                  (     1          1          0      )
                  (     0          0          1      )

 cart.    s( 8) = ( -1.0000000  0.0000000  0.0000000 )
                  (  0.0000000  1.0000000  0.0000000 )
                  (  0.0000000  0.0000000  1.0000000 )


      isym =  9     inv. 120 deg rotation - cryst. axis [0,0,1]  

 cryst.   s( 9) = (     0         -1          0      )
                  (     1          1          0      )
                  (     0          0         -1      )

 cart.    s( 9) = (  0.5000000  0.8660254  0.0000000 )
                  ( -0.8660254  0.5000000  0.0000000 )
                  (  0.0000000  0.0000000 -1.0000000 )


      isym = 10     inv. 120 deg rotation - cryst. axis [0,0,-1] 

 cryst.   s(10) = (     1          1          0      )
                  (    -1          0          0      )
                  (     0          0         -1      )

 cart.    s(10) = (  0.5000000 -0.8660254  0.0000000 )
                  (  0.8660254  0.5000000  0.0000000 )
                  (  0.0000000  0.0000000 -1.0000000 )


      isym = 11     inv. 180 deg rotation - cryst. axis [0,1,0]  

 cryst.   s(11) = (     1          1          0      )
                  (     0         -1          0      )
                  (     0          0          1      )

 cart.    s(11) = (  0.5000000  0.8660254  0.0000000 )
                  (  0.8660254 -0.5000000  0.0000000 )
                  (  0.0000000  0.0000000  1.0000000 )


      isym = 12     inv. 180 deg rotation - cryst. axis [1,1,0]  

 cryst.   s(12) = (     0         -1          0      )
                  (    -1          0          0      )
                  (     0          0          1      )

 cart.    s(12) = (  0.5000000 -0.8660254  0.0000000 )
                  ( -0.8660254 -0.5000000  0.0000000 )
                  (  0.0000000  0.0000000  1.0000000 )


     point group D_3d (-3m) 
     there are  6 classes
     the character table:

       E     2C3   3C2'  i     2S6   3s_d 
A_1g   1.00  1.00  1.00  1.00  1.00  1.00
A_2g   1.00  1.00 -1.00  1.00  1.00 -1.00
E_g    2.00 -1.00  0.00  2.00 -1.00  0.00
A_1u   1.00  1.00  1.00 -1.00 -1.00 -1.00
A_2u   1.00  1.00 -1.00 -1.00 -1.00  1.00
E_u    2.00 -1.00  0.00 -2.00  1.00  0.00

     the symmetry operations in each class and the name of the first element:

     E        1
          identity                                               
     2C3      3    4
          120 deg rotation - cryst. axis [0,0,1]                 
     3C2'     2    5    6
          180 deg rotation - cart. axis [1,0,0]                  
     i        7
          inversion                                              
     2S6      9   10
          inv. 120 deg rotation - cryst. axis [0,0,1]            
     3s_d     8   11   12
          inv. 180 deg rotation - cart. axis [1,0,0]             

   Cartesian axes

     site n.     atom                  positions (alat units)
         1        Co     tau(   1) = (   0.0000000   0.0000000   0.0000000  )
         2        O      tau(   2) = (  -0.0000000   0.5773503   0.3324100  )
         3        O      tau(   3) = (   0.5000000   0.2886751   3.0955679  )
         4        Na     tau(   4) = (   0.0000000   0.0000000   1.7139889  )

   Crystallographic axes

     site n.     atom                  positions (cryst. coord.)
         1        Co     tau(   1) = (  0.0000000  0.0000000  0.0000000  )
         2        O      tau(   2) = (  0.3333333  0.6666667  0.0969697  )
         3        O      tau(   3) = (  0.6666667  0.3333333  0.9030303  )
         4        Na     tau(   4) = (  0.0000000  0.0000000  0.5000000  )

     number of k points=    25  Marzari-Vanderbilt smearing, width (Ry)=  0.0200
                       cart. coord. in units 2pi/alat
        k(    1) = (   0.0000000   0.0000000   0.0000000), wk =   0.0104167
        k(    2) = (   0.0000000   0.0000000   0.0972391), wk =   0.0208333
        k(    3) = (   0.0000000   0.1443376   0.0000000), wk =   0.0625000
        k(    4) = (   0.0000000   0.1443376   0.0972391), wk =   0.0625000
        k(    5) = (   0.0000000   0.2886751   0.0000000), wk =   0.0625000
        k(    6) = (   0.0000000   0.2886751   0.0972391), wk =   0.0625000
        k(    7) = (   0.0000000   0.4330127   0.0000000), wk =   0.0625000
        k(    8) = (   0.0000000   0.4330127   0.0972391), wk =   0.0625000
        k(    9) = (   0.0000000  -0.5773503   0.0000000), wk =   0.0312500
        k(   10) = (   0.0000000  -0.5773503   0.0972391), wk =   0.0625000
        k(   11) = (   0.1250000   0.2165064   0.0000000), wk =   0.0625000
        k(   12) = (   0.1250000   0.2165064   0.0972391), wk =   0.1250000
        k(   13) = (   0.1250000   0.3608439   0.0000000), wk =   0.1250000
        k(   14) = (   0.1250000   0.3608439   0.0972391), wk =   0.1250000
        k(   15) = (   0.1250000   0.5051815   0.0000000), wk =   0.1250000
        k(   16) = (   0.1250000   0.5051815   0.0972391), wk =   0.1250000
        k(   17) = (   0.2500000   0.4330127   0.0000000), wk =   0.0625000
        k(   18) = (   0.2500000   0.4330127   0.0972391), wk =   0.1250000
        k(   19) = (   0.2500000   0.5773503   0.0000000), wk =   0.0625000
        k(   20) = (   0.2500000   0.5773503   0.0972391), wk =   0.1250000
        k(   21) = (   0.0000000   0.1443376  -0.0972391), wk =   0.0625000
        k(   22) = (   0.0000000   0.2886751  -0.0972391), wk =   0.0625000
        k(   23) = (   0.0000000   0.4330127  -0.0972391), wk =   0.0625000
        k(   24) = (  -0.1250000   0.3608439  -0.0972391), wk =   0.1250000
        k(   25) = (  -0.1250000   0.5051815  -0.0972391), wk =   0.1250000

                       cryst. coord.
        k(    1) = (   0.0000000   0.0000000   0.0000000), wk =   0.0104167
        k(    2) = (   0.0000000   0.0000000   0.3333333), wk =   0.0208333
        k(    3) = (   0.0000000   0.1250000   0.0000000), wk =   0.0625000
        k(    4) = (   0.0000000   0.1250000   0.3333333), wk =   0.0625000
        k(    5) = (   0.0000000   0.2500000   0.0000000), wk =   0.0625000
        k(    6) = (   0.0000000   0.2500000   0.3333333), wk =   0.0625000
        k(    7) = (   0.0000000   0.3750000   0.0000000), wk =   0.0625000
        k(    8) = (   0.0000000   0.3750000   0.3333333), wk =   0.0625000
        k(    9) = (   0.0000000  -0.5000000   0.0000000), wk =   0.0312500
        k(   10) = (   0.0000000  -0.5000000   0.3333333), wk =   0.0625000
        k(   11) = (   0.1250000   0.1250000   0.0000000), wk =   0.0625000
        k(   12) = (   0.1250000   0.1250000   0.3333333), wk =   0.1250000
        k(   13) = (   0.1250000   0.2500000   0.0000000), wk =   0.1250000
        k(   14) = (   0.1250000   0.2500000   0.3333333), wk =   0.1250000
        k(   15) = (   0.1250000   0.3750000   0.0000000), wk =   0.1250000
        k(   16) = (   0.1250000   0.3750000   0.3333333), wk =   0.1250000
        k(   17) = (   0.2500000   0.2500000   0.0000000), wk =   0.0625000
        k(   18) = (   0.2500000   0.2500000   0.3333333), wk =   0.1250000
        k(   19) = (   0.2500000   0.3750000   0.0000000), wk =   0.0625000
        k(   20) = (   0.2500000   0.3750000   0.3333333), wk =   0.1250000
        k(   21) = (   0.0000000   0.1250000  -0.3333333), wk =   0.0625000
        k(   22) = (   0.0000000   0.2500000  -0.3333333), wk =   0.0625000
        k(   23) = (   0.0000000   0.3750000  -0.3333333), wk =   0.0625000
        k(   24) = (  -0.1250000   0.3750000  -0.3333333), wk =   0.1250000
        k(   25) = (  -0.1250000   0.5000000  -0.3333333), wk =   0.1250000

     Dense  grid:    85601 G-vectors     FFT dimensions: (  40,  40, 135)

     Smooth grid:    30351 G-vectors     FFT dimensions: (  27,  27,  96)

     Dynamical RAM for                 wfc:       1.56 MB

     Dynamical RAM for     wfc (w. buffer):      40.57 MB

     Dynamical RAM for           str. fact:       3.92 MB

     Dynamical RAM for           local pot:       0.00 MB

     Dynamical RAM for          nlocal pot:       2.43 MB

     Dynamical RAM for                qrad:       5.27 MB

     Dynamical RAM for          rho,v,vnew:       8.86 MB

     Dynamical RAM for               rhoin:       2.95 MB

     Dynamical RAM for            rho*nmix:      20.90 MB

     Dynamical RAM for           G-vectors:       5.13 MB

     Dynamical RAM for          h,s,v(r/c):       0.13 MB

     Dynamical RAM for          <psi|beta>:       0.02 MB

     Dynamical RAM for                 psi:       3.12 MB

     Dynamical RAM for                hpsi:       3.12 MB

     Dynamical RAM for                spsi:       3.12 MB

     Dynamical RAM for      wfcinit/wfcrot:       3.14 MB

     Dynamical RAM for           addusdens:     245.56 MB

     Dynamical RAM for          addusforce:     248.83 MB

     Estimated static dynamical RAM per process >      82.59 MB

     Estimated max dynamical RAM per process >     352.33 MB

     Check: negative core charge=   -0.000006

     Initial potential from superposition of free atoms

     starting charge      37.9934, renormalised to      38.0000
     Starting wfcs are   23 randomized atomic wfcs +    4 random wfcs
     Checking if some PAW data can be deallocated... 

     total cpu time spent up to now is        3.1 secs

     Self-consistent Calculation
[tb_dev] Currently allocated     6.54E-01 Mbytes, locked:    0 /   6
[tb_pin] Currently allocated     0.00E+00 Mbytes, locked:    0 /   0

     iteration #  1     ecut=    60.00 Ry     beta= 0.30
     Davidson diagonalization with overlap

---- Real-time Memory Report at c_bands before calling an iterative solver
           657 MiB given to the printing process from OS
             0 MiB allocation reported by mallinfo(arena+hblkhd)
        762976 MiB available memory on the node where the printing process lives
     GPU memory used/free/total (MiB): 1080 / 80070 / 81151
------------------
     ethr =  1.00E-02,  avg # of iterations =  9.7
     Minimization algorithm failed to find Fermi energy: reverting to bisection
     Possible cause: smearing is larger than the electronic band-gap.

     total cpu time spent up to now is        4.3 secs

     total energy              =    -569.20003475 Ry
     estimated scf accuracy    <       1.63199549 Ry
[tb_dev] Currently allocated     3.05E-05 Mbytes, locked:    0 /   2
[tb_pin] Currently allocated     0.00E+00 Mbytes, locked:    0 /   0

     iteration #  2     ecut=    60.00 Ry     beta= 0.30
     Davidson diagonalization with overlap

---- Real-time Memory Report at c_bands before calling an iterative solver
           690 MiB given to the printing process from OS
             0 MiB allocation reported by mallinfo(arena+hblkhd)
        762952 MiB available memory on the node where the printing process lives
     GPU memory used/free/total (MiB): 1106 / 80044 / 81151
------------------
     ethr =  4.29E-03,  avg # of iterations =  1.2

     total cpu time spent up to now is        5.0 secs

     total energy              =    -569.14769950 Ry
     estimated scf accuracy    <       1.17323147 Ry
[tb_dev] Currently allocated     3.05E-05 Mbytes, locked:    0 /   2
[tb_pin] Currently allocated     0.00E+00 Mbytes, locked:    0 /   0

     iteration #  3     ecut=    60.00 Ry     beta= 0.30
     Davidson diagonalization with overlap

---- Real-time Memory Report at c_bands before calling an iterative solver
           693 MiB given to the printing process from OS
             0 MiB allocation reported by mallinfo(arena+hblkhd)
        762951 MiB available memory on the node where the printing process lives
     GPU memory used/free/total (MiB): 1106 / 80044 / 81151
------------------
     ethr =  3.09E-03,  avg # of iterations =  1.2

     total cpu time spent up to now is        5.6 secs

     total energy              =    -569.14224553 Ry
     estimated scf accuracy    <       0.38794471 Ry
[tb_dev] Currently allocated     3.05E-05 Mbytes, locked:    0 /   2
[tb_pin] Currently allocated     0.00E+00 Mbytes, locked:    0 /   0

     iteration #  4     ecut=    60.00 Ry     beta= 0.30
     Davidson diagonalization with overlap

---- Real-time Memory Report at c_bands before calling an iterative solver
           694 MiB given to the printing process from OS
             0 MiB allocation reported by mallinfo(arena+hblkhd)
        762953 MiB available memory on the node where the printing process lives
     GPU memory used/free/total (MiB): 1106 / 80044 / 81151
------------------
     ethr =  1.02E-03,  avg # of iterations =  4.5

     total cpu time spent up to now is        6.5 secs

     total energy              =    -569.16307915 Ry
     estimated scf accuracy    <       0.05783443 Ry
[tb_dev] Currently allocated     3.05E-05 Mbytes, locked:    0 /   2
[tb_pin] Currently allocated     0.00E+00 Mbytes, locked:    0 /   0

     iteration #  5     ecut=    60.00 Ry     beta= 0.30
     Davidson diagonalization with overlap

---- Real-time Memory Report at c_bands before calling an iterative solver
           695 MiB given to the printing process from OS
             0 MiB allocation reported by mallinfo(arena+hblkhd)
        762969 MiB available memory on the node where the printing process lives
     GPU memory used/free/total (MiB): 1106 / 80044 / 81151
------------------
     ethr =  1.52E-04,  avg # of iterations =  8.8

     total cpu time spent up to now is        7.6 secs

     total energy              =    -569.16842837 Ry
     estimated scf accuracy    <       0.00935927 Ry
[tb_dev] Currently allocated     3.05E-05 Mbytes, locked:    0 /   2
[tb_pin] Currently allocated     0.00E+00 Mbytes, locked:    0 /   0

     iteration #  6     ecut=    60.00 Ry     beta= 0.30
     Davidson diagonalization with overlap

---- Real-time Memory Report at c_bands before calling an iterative solver
           696 MiB given to the printing process from OS
             0 MiB allocation reported by mallinfo(arena+hblkhd)
        762972 MiB available memory on the node where the printing process lives
     GPU memory used/free/total (MiB): 1108 / 80042 / 81151
------------------
     ethr =  2.46E-05,  avg # of iterations =  6.1

     total cpu time spent up to now is        8.6 secs

     total energy              =    -569.17214628 Ry
     estimated scf accuracy    <       0.00309531 Ry
[tb_dev] Currently allocated     3.05E-05 Mbytes, locked:    0 /   2
[tb_pin] Currently allocated     0.00E+00 Mbytes, locked:    0 /   0

     iteration #  7     ecut=    60.00 Ry     beta= 0.30
     Davidson diagonalization with overlap

---- Real-time Memory Report at c_bands before calling an iterative solver
           698 MiB given to the printing process from OS
             0 MiB allocation reported by mallinfo(arena+hblkhd)
        762971 MiB available memory on the node where the printing process lives
     GPU memory used/free/total (MiB): 1108 / 80042 / 81151
------------------
     ethr =  8.15E-06,  avg # of iterations =  5.2

     total cpu time spent up to now is        9.5 secs

     total energy              =    -569.17265410 Ry
     estimated scf accuracy    <       0.00178385 Ry
[tb_dev] Currently allocated     3.05E-05 Mbytes, locked:    0 /   2
[tb_pin] Currently allocated     0.00E+00 Mbytes, locked:    0 /   0

     iteration #  8     ecut=    60.00 Ry     beta= 0.30
     Davidson diagonalization with overlap

---- Real-time Memory Report at c_bands before calling an iterative solver
           700 MiB given to the printing process from OS
             0 MiB allocation reported by mallinfo(arena+hblkhd)
        762970 MiB available memory on the node where the printing process lives
     GPU memory used/free/total (MiB): 1108 / 80042 / 81151
------------------
     ethr =  4.69E-06,  avg # of iterations =  1.8

     total cpu time spent up to now is       10.2 secs

     total energy              =    -569.17220886 Ry
     estimated scf accuracy    <       0.00972594 Ry
[tb_dev] Currently allocated     3.05E-05 Mbytes, locked:    0 /   2
[tb_pin] Currently allocated     0.00E+00 Mbytes, locked:    0 /   0

     iteration #  9     ecut=    60.00 Ry     beta= 0.30
     Davidson diagonalization with overlap

---- Real-time Memory Report at c_bands before calling an iterative solver
           701 MiB given to the printing process from OS
             0 MiB allocation reported by mallinfo(arena+hblkhd)
        762971 MiB available memory on the node where the printing process lives
     GPU memory used/free/total (MiB): 1108 / 80042 / 81151
------------------
     ethr =  4.69E-06,  avg # of iterations =  2.5

     total cpu time spent up to now is       11.0 secs

     total energy              =    -569.17299145 Ry
     estimated scf accuracy    <       0.00619161 Ry
[tb_dev] Currently allocated     3.05E-05 Mbytes, locked:    0 /   2
[tb_pin] Currently allocated     0.00E+00 Mbytes, locked:    0 /   0

     iteration # 10     ecut=    60.00 Ry     beta= 0.30
     Davidson diagonalization with overlap

---- Real-time Memory Report at c_bands before calling an iterative solver
           704 MiB given to the printing process from OS
             0 MiB allocation reported by mallinfo(arena+hblkhd)
        762970 MiB available memory on the node where the printing process lives
     GPU memory used/free/total (MiB): 1108 / 80042 / 81151
------------------
     ethr =  4.69E-06,  avg # of iterations =  1.0

     total cpu time spent up to now is       11.6 secs

     total energy              =    -569.17289078 Ry
     estimated scf accuracy    <       0.00230663 Ry
[tb_dev] Currently allocated     3.05E-05 Mbytes, locked:    0 /   2
[tb_pin] Currently allocated     0.00E+00 Mbytes, locked:    0 /   0

     iteration # 11     ecut=    60.00 Ry     beta= 0.30
     Davidson diagonalization with overlap

---- Real-time Memory Report at c_bands before calling an iterative solver
           705 MiB given to the printing process from OS
             0 MiB allocation reported by mallinfo(arena+hblkhd)
        763022 MiB available memory on the node where the printing process lives
     GPU memory used/free/total (MiB): 1108 / 80042 / 81151
------------------
     ethr =  4.69E-06,  avg # of iterations =  1.1

     total cpu time spent up to now is       12.3 secs

     total energy              =    -569.17296675 Ry
     estimated scf accuracy    <       0.00010364 Ry
[tb_dev] Currently allocated     3.05E-05 Mbytes, locked:    0 /   2
[tb_pin] Currently allocated     0.00E+00 Mbytes, locked:    0 /   0

     iteration # 12     ecut=    60.00 Ry     beta= 0.30
     Davidson diagonalization with overlap

---- Real-time Memory Report at c_bands before calling an iterative solver
           705 MiB given to the printing process from OS
             0 MiB allocation reported by mallinfo(arena+hblkhd)
        763023 MiB available memory on the node where the printing process lives
     GPU memory used/free/total (MiB): 1108 / 80042 / 81151
------------------
     ethr =  2.73E-07,  avg # of iterations =  5.2

     total cpu time spent up to now is       13.2 secs

     total energy              =    -569.17298368 Ry
     estimated scf accuracy    <       0.00027315 Ry
[tb_dev] Currently allocated     3.05E-05 Mbytes, locked:    0 /   2
[tb_pin] Currently allocated     0.00E+00 Mbytes, locked:    0 /   0

     iteration # 13     ecut=    60.00 Ry     beta= 0.30
     Davidson diagonalization with overlap

---- Real-time Memory Report at c_bands before calling an iterative solver
           705 MiB given to the printing process from OS
             0 MiB allocation reported by mallinfo(arena+hblkhd)
        763020 MiB available memory on the node where the printing process lives
     GPU memory used/free/total (MiB): 1108 / 80042 / 81151
------------------
     ethr =  2.73E-07,  avg # of iterations =  1.1

     total cpu time spent up to now is       13.8 secs

     total energy              =    -569.17299799 Ry
     estimated scf accuracy    <       0.00006007 Ry
[tb_dev] Currently allocated     3.05E-05 Mbytes, locked:    0 /   2
[tb_pin] Currently allocated     0.00E+00 Mbytes, locked:    0 /   0

     iteration # 14     ecut=    60.00 Ry     beta= 0.30
     Davidson diagonalization with overlap

---- Real-time Memory Report at c_bands before calling an iterative solver
           705 MiB given to the printing process from OS
             0 MiB allocation reported by mallinfo(arena+hblkhd)
        763019 MiB available memory on the node where the printing process lives
     GPU memory used/free/total (MiB): 1108 / 80042 / 81151
------------------
     ethr =  1.58E-07,  avg # of iterations =  1.1

     total cpu time spent up to now is       14.4 secs

     total energy              =    -569.17300172 Ry
     estimated scf accuracy    <       0.00000249 Ry
[tb_dev] Currently allocated     3.05E-05 Mbytes, locked:    0 /   2
[tb_pin] Currently allocated     0.00E+00 Mbytes, locked:    0 /   0

     iteration # 15     ecut=    60.00 Ry     beta= 0.30
     Davidson diagonalization with overlap

---- Real-time Memory Report at c_bands before calling an iterative solver
           705 MiB given to the printing process from OS
             0 MiB allocation reported by mallinfo(arena+hblkhd)
        763022 MiB available memory on the node where the printing process lives
     GPU memory used/free/total (MiB): 1108 / 80042 / 81151
------------------
     ethr =  6.55E-09,  avg # of iterations =  8.4

     total cpu time spent up to now is       15.6 secs

     total energy              =    -569.17300428 Ry
     estimated scf accuracy    <       0.00000016 Ry
[tb_dev] Currently allocated     3.05E-05 Mbytes, locked:    0 /   2
[tb_pin] Currently allocated     0.00E+00 Mbytes, locked:    0 /   0

     iteration # 16     ecut=    60.00 Ry     beta= 0.30
     Davidson diagonalization with overlap

---- Real-time Memory Report at c_bands before calling an iterative solver
           705 MiB given to the printing process from OS
             0 MiB allocation reported by mallinfo(arena+hblkhd)
        763033 MiB available memory on the node where the printing process lives
     GPU memory used/free/total (MiB): 1108 / 80042 / 81151
------------------
     ethr =  4.20E-10,  avg # of iterations =  8.1

     total cpu time spent up to now is       16.6 secs

     total energy              =    -569.17300439 Ry
     estimated scf accuracy    <       0.00000016 Ry
[tb_dev] Currently allocated     3.05E-05 Mbytes, locked:    0 /   2
[tb_pin] Currently allocated     0.00E+00 Mbytes, locked:    0 /   0

     iteration # 17     ecut=    60.00 Ry     beta= 0.30
     Davidson diagonalization with overlap

---- Real-time Memory Report at c_bands before calling an iterative solver
           705 MiB given to the printing process from OS
             0 MiB allocation reported by mallinfo(arena+hblkhd)
        763021 MiB available memory on the node where the printing process lives
     GPU memory used/free/total (MiB): 1108 / 80042 / 81151
------------------
     ethr =  4.08E-10,  avg # of iterations =  2.0

     total cpu time spent up to now is       17.3 secs

     End of self-consistent calculation

          k = 0.0000 0.0000 0.0000 (  3803 PWs)   bands (ev):

   -91.5648 -54.7896 -54.7896 -54.7662 -49.8308 -21.7160 -21.6284 -21.6284
   -15.3132 -13.3995  -1.4365  -1.0674  -1.0674   1.1397   1.9458   2.5577
     2.5577   2.6014   2.6014   3.9889   5.5842   6.3770   6.3770   9.2092
    12.8825  12.9900  15.8747

     occupation numbers 
     1.0000   1.0000   1.0000   1.0000   1.0000   1.0000   1.0000   1.0000
     1.0000   1.0000   1.0000   1.0000   1.0000   1.0000   1.0000   1.0000
     1.0000   1.0000   1.0000   0.1053   0.0000   0.0000   0.0000   0.0000
     0.0000   0.0000   0.0000

          k = 0.0000 0.0000 0.0972 (  3796 PWs)   bands (ev):

   -91.5648 -54.7897 -54.7897 -54.7662 -49.8308 -21.7158 -21.6285 -21.6285
   -15.3132 -13.3995  -1.4288  -1.0674  -1.0674   1.0175   2.1369   2.5576
     2.5576   2.6013   2.6013   3.9390   5.4666   6.3770   6.3770   9.6361
    11.6496  13.9395  15.9636

     occupation numbers 
     1.0000   1.0000   1.0000   1.0000   1.0000   1.0000   1.0000   1.0000
     1.0000   1.0000   1.0000   1.0000   1.0000   1.0000   1.0000   1.0000
     1.0000   1.0000   1.0000   0.1701   0.0000   0.0000   0.0000   0.0000
     0.0000   0.0000   0.0000

          k = 0.0000 0.1443 0.0000 (  3787 PWs)   bands (ev):

   -91.5641 -54.7978 -54.7916 -54.7649 -49.8256 -21.7086 -21.6731 -21.6381
   -15.1417 -13.4059  -1.2506  -1.2223  -0.9567   1.3950   1.5607   1.8376
     2.2742   3.0105   3.2253   4.0298   5.7062   6.1259   6.2746   9.6808
    13.3125  13.5152  16.4089

     occupation numbers 
     1.0000   1.0000   1.0000   1.0000   1.0000   1.0000   1.0000   1.0000
     1.0000   1.0000   1.0000   1.0000   1.0000   1.0000   1.0000   1.0000
     1.0000   1.0015   1.0250   0.0679   0.0000   0.0000   0.0000   0.0000
     0.0000   0.0000   0.0000

          k = 0.0000 0.1443 0.0972 (  3806 PWs)   bands (ev):

   -91.5641 -54.7979 -54.7917 -54.7651 -49.8256 -21.7088 -21.6732 -21.6381
   -15.1417 -13.4060  -1.2497  -1.2184  -0.9567   1.4149   1.4366   1.8376
     2.4276   3.0208   3.2253   3.9795   5.7975   5.9420   6.2746  10.0392
    12.1874  14.5277  16.2940

     occupation numbers 
     1.0000   1.0000   1.0000   1.0000   1.0000   1.0000   1.0000   1.0000
     1.0000   1.0000   1.0000   1.0000   1.0000   1.0000   1.0000   1.0000
     1.0000   1.0018   1.0250   0.1159   0.0000   0.0000   0.0000   0.0000
     0.0000   0.0000   0.0000

          k = 0.0000 0.2887 0.0000 (  3786 PWs)   bands (ev):

   -91.5623 -54.8178 -54.7964 -54.7621 -49.8129 -21.7797 -21.6914 -21.6611
   -14.6912 -13.4356  -1.4739  -0.8214  -0.6936   0.1237   1.2608   2.5012
     2.6869   3.1699   3.4745   3.8887   5.2933   6.1470   6.8786  10.8313
    13.5023  14.1544  14.8290

     occupation numbers 
     1.0000   1.0000   1.0000   1.0000   1.0000   1.0000   1.0000   1.0000
     1.0000   1.0000   1.0000   1.0000   1.0000   1.0000   1.0000   1.0000
     1.0000   1.0138   1.0794   0.2588   0.0000   0.0000   0.0000   0.0000
     0.0000   0.0000   0.0000

          k = 0.0000 0.2887 0.0972 (  3778 PWs)   bands (ev):

   -91.5623 -54.8177 -54.7964 -54.7621 -49.8129 -21.7796 -21.6913 -21.6610
   -14.6912 -13.4356  -1.4750  -0.8192  -0.6936   0.1265   1.2608   2.4146
     2.7503   3.2125   3.4745   3.8531   5.3714   6.1471   6.7638  11.0488
    13.4036  13.5357  15.7072

     occupation numbers 
     1.0000   1.0000   1.0000   1.0000   1.0000   1.0000   1.0000   1.0000
     1.0000   1.0000   1.0000   1.0000   1.0000   1.0000   1.0000   1.0000
     1.0000   1.0220   1.0794   0.3359   0.0000   0.0000   0.0000   0.0000
     0.0000   0.0000   0.0000

          k = 0.0000 0.4330 0.0000 (  3780 PWs)   bands (ev):

   -91.5605 -54.8377 -54.8012 -54.7591 -49.8002 -21.8842 -21.6840 -21.6740
   -14.1465 -13.5193  -1.9424  -0.8846  -0.4837   0.2316   1.0536   2.0073
     3.0837   3.2676   3.5661   4.5160   5.5006   6.1826   8.4176  10.0377
    12.5936  13.7369  15.4146

     occupation numbers 
     1.0000   1.0000   1.0000   1.0000   1.0000   1.0000   1.0000   1.0000
     1.0000   1.0000   1.0000   1.0000   1.0000   1.0000   1.0000   1.0000
     1.0046   1.0366   1.0127   0.0000   0.0000   0.0000   0.0000   0.0000
     0.0000   0.0000   0.0000

          k = 0.0000 0.4330 0.0972 (  3794 PWs)   bands (ev):

   -91.5605 -54.8377 -54.8012 -54.7592 -49.8002 -21.8843 -21.6841 -21.6741
   -14.1465 -13.5193  -1.9426  -0.8849  -0.4837   0.2328   1.0536   2.0084
     3.0824   3.2675   3.5690   4.4810   5.5506   6.1826   8.3813  10.0340
    12.6739  13.8094  14.9383

     occupation numbers 
     1.0000   1.0000   1.0000   1.0000   1.0000   1.0000   1.0000   1.0000
     1.0000   1.0000   1.0000   1.0000   1.0000   1.0000   1.0000   1.0000
     1.0045   1.0366   1.0090   0.0000   0.0000   0.0000   0.0000   0.0000
     0.0000   0.0000   0.0000

          k = 0.0000-0.5774 0.0000 (  3798 PWs)   bands (ev):

   -91.5598 -54.8460 -54.8032 -54.7579 -49.7950 -21.9272 -21.6936 -21.6668
   -13.7621 -13.6976  -2.3327  -0.7003  -0.4378   0.3829   1.0895   1.7555
     2.8805   3.0721   3.4642   5.6893   6.2322   6.3863   7.6978  10.3344
    11.1837  14.4080  14.7089

     occupation numbers 
     1.0000   1.0000   1.0000   1.0000   1.0000   1.0000   1.0000   1.0000
     1.0000   1.0000   1.0000   1.0000   1.0000   1.0000   1.0000   1.0000
     1.0001   1.0039   1.0815   0.0000   0.0000   0.0000   0.0000   0.0000
     0.0000   0.0000   0.0000

          k = 0.0000-0.5774 0.0972 (  3790 PWs)   bands (ev):

   -91.5598 -54.8460 -54.8032 -54.7579 -49.7950 -21.9271 -21.6935 -21.6668
   -13.7621 -13.6976  -2.3327  -0.7003  -0.4378   0.3830   1.0896   1.7564
     2.8803   3.0721   3.4639   5.6817   6.2322   6.3977   7.6865  10.3355
    11.2414  14.0968  14.8809

     occupation numbers 
     1.0000   1.0000   1.0000   1.0000   1.0000   1.0000   1.0000   1.0000
     1.0000   1.0000   1.0000   1.0000   1.0000   1.0000   1.0000   1.0000
     1.0001   1.0039   1.0816   0.0000   0.0000   0.0000   0.0000   0.0000
     0.0000   0.0000   0.0000

          k = 0.1250 0.2165 0.0000 (  3789 PWs)   bands (ev):

   -91.5628 -54.8111 -54.7959 -54.7629 -49.8166 -21.7438 -21.6964 -21.6594
   -14.8306 -13.4231  -1.3839  -0.9202  -0.8006   0.5738   1.1167   2.3099
     2.5887   3.0912   3.5584   3.9465   5.4630   6.0216   6.5931  10.4911
    13.9475  14.4131  14.7575

     occupation numbers 
     1.0000   1.0000   1.0000   1.0000   1.0000   1.0000   1.0000   1.0000
     1.0000   1.0000   1.0000   1.0000   1.0000   1.0000   1.0000   1.0000
     1.0000   1.0051   1.0221   0.1589   0.0000   0.0000   0.0000   0.0000
     0.0000   0.0000   0.0000

          k = 0.1250 0.2165 0.0972 (  3785 PWs)   bands (ev):

   -91.5628 -54.8110 -54.7959 -54.7629 -49.8166 -21.7436 -21.6965 -21.6594
   -14.8306 -13.4231  -1.3850  -0.9173  -0.8002   0.5770   1.1167   2.1843
     2.7313   3.0911   3.5760   3.9140   5.5271   5.9736   6.5265  10.6985
    13.1440  14.7501  15.3904

     occupation numbers 
     1.0000   1.0000   1.0000   1.0000   1.0000   1.0000   1.0000   1.0000
     1.0000   1.0000   1.0000   1.0000   1.0000   1.0000   1.0000   1.0000
     1.0000   1.0051   0.9997   0.2112   0.0000   0.0000   0.0000   0.0000
     0.0000   0.0000   0.0000

          k = 0.1250 0.3608 0.0000 (  3780 PWs)   bands (ev):

   -91.5610 -54.8289 -54.8027 -54.7600 -49.8039 -21.8378 -21.6934 -21.6791
   -14.3341 -13.4718  -1.5189  -1.0427  -0.4453   0.1187   0.6795   2.2979
     3.1458   3.4793   3.7210   3.8562   5.4373   5.9047   7.7960  11.5035
    12.0608  14.7523  15.5267

     occupation numbers 
     1.0000   1.0000   1.0000   1.0000   1.0000   1.0000   1.0000   1.0000
     1.0000   1.0000   1.0000   1.0000   1.0000   1.0000   1.0000   1.0000
     1.0104   1.0781   0.6858   0.3290   0.0000   0.0000   0.0000   0.0000
     0.0000   0.0000   0.0000

          k = 0.1250 0.3608 0.0972 (  3782 PWs)   bands (ev):

   -91.5610 -54.8289 -54.8027 -54.7600 -49.8039 -21.8379 -21.6934 -21.6791
   -14.3341 -13.4718  -1.5193  -1.0428  -0.4450   0.1206   0.6796   2.2958
     3.1450   3.4851   3.6953   3.8631   5.4874   5.8863   7.7615  11.5314
    12.1114  14.4124  15.8235

     occupation numbers 
     1.0000   1.0000   1.0000   1.0000   1.0000   1.0000   1.0000   1.0000
     1.0000   1.0000   1.0000   1.0000   1.0000   1.0000   1.0000   1.0000
     1.0103   1.0762   0.7543   0.3133   0.0000   0.0000   0.0000   0.0000
     0.0000   0.0000   0.0000

          k = 0.1250 0.5052 0.0000 (  3784 PWs)   bands (ev):

   -91.5598 -54.8414 -54.8076 -54.7579 -49.7950 -21.9029 -21.7181 -21.6668
   -13.8724 -13.5877  -2.0438  -1.0400  -0.1773   0.3544   0.6477   1.7160
     2.9899   3.2006   3.6511   5.6093   5.8452   6.0190   8.7825   9.7019
    12.5061  13.4395  15.1866

     occupation numbers 
     1.0000   1.0000   1.0000   1.0000   1.0000   1.0000   1.0000   1.0000
     1.0000   1.0000   1.0000   1.0000   1.0000   1.0000   1.0000   1.0000
     1.0011   1.0194   0.8620   0.0000   0.0000   0.0000   0.0000   0.0000
     0.0000   0.0000   0.0000

          k = 0.1250 0.5052 0.0972 (  3793 PWs)   bands (ev):

   -91.5598 -54.8415 -54.8076 -54.7580 -49.7950 -21.9030 -21.7181 -21.6669
   -13.8724 -13.5877  -2.0439  -1.0402  -0.1774   0.3547   0.6477   1.7166
     2.9898   3.2007   3.6504   5.5754   5.9145   5.9849   8.7771   9.7018
    12.5459  13.4278  15.2410

     occupation numbers 
     1.0000   1.0000   1.0000   1.0000   1.0000   1.0000   1.0000   1.0000
     1.0000   1.0000   1.0000   1.0000   1.0000   1.0000   1.0000   1.0000
     1.0011   1.0195   0.8635   0.0000   0.0000   0.0000   0.0000   0.0000
     0.0000   0.0000   0.0000

          k = 0.2500 0.4330 0.0000 (  3781 PWs)   bands (ev):

   -91.5597 -54.8352 -54.8137 -54.7580 -49.7950 -21.8693 -21.7520 -21.6669
   -13.9289 -13.5316  -1.4902  -1.3479  -0.4254   0.3277   0.4618   1.7197
     3.0552   3.3052   3.8398   5.4353   5.6672   5.7507   9.3985   9.9989
    12.4130  14.5696  14.7893

     occupation numbers 
     1.0000   1.0000   1.0000   1.0000   1.0000   1.0000   1.0000   1.0000
     1.0000   1.0000   1.0000   1.0000   1.0000   1.0000   1.0000   1.0000
     1.0030   1.0489   0.3674   0.0000   0.0000   0.0000   0.0000   0.0000
     0.0000   0.0000   0.0000

          k = 0.2500 0.4330 0.0972 (  3790 PWs)   bands (ev):

   -91.5598 -54.8352 -54.8138 -54.7580 -49.7950 -21.8693 -21.7521 -21.6669
   -13.9289 -13.5316  -1.4902  -1.3480  -0.4254   0.3276   0.4626   1.7196
     3.0553   3.3057   3.8372   5.4631   5.6481   5.7387   9.4188   9.9961
    12.3861  14.5211  14.8546

     occupation numbers 
     1.0000   1.0000   1.0000   1.0000   1.0000   1.0000   1.0000   1.0000
     1.0000   1.0000   1.0000   1.0000   1.0000   1.0000   1.0000   1.0000
     1.0030   1.0491   0.3738   0.0000   0.0000   0.0000   0.0000   0.0000
     0.0000   0.0000   0.0000

          k = 0.2500 0.5774 0.0000 (  3794 PWs)   bands (ev):

   -91.5592 -54.8357 -54.8206 -54.7571 -49.7913 -21.8707 -21.7882 -21.6618
   -13.6877 -13.6209  -1.6413  -1.2766  -0.5812   0.4657   0.6932   1.2606
     2.8069   3.5005   3.7459   5.6575   5.6776   7.2756   8.3000  11.4285
    11.9556  12.1109  14.5799

     occupation numbers 
     1.0000   1.0000   1.0000   1.0000   1.0000   1.0000   1.0000   1.0000
     1.0000   1.0000   1.0000   1.0000   1.0000   1.0000   1.0000   1.0000
     1.0000   1.0697   0.6171   0.0000   0.0000   0.0000   0.0000   0.0000
     0.0000   0.0000   0.0000

          k = 0.2500 0.5774 0.0972 (  3783 PWs)   bands (ev):

   -91.5592 -54.8357 -54.8205 -54.7571 -49.7912 -21.8706 -21.7881 -21.6618
   -13.6877 -13.6209  -1.6412  -1.2765  -0.5811   0.4657   0.6932   1.2607
     2.8069   3.5006   3.7456   5.6583   5.6808   7.2685   8.2944  11.4503
    11.9510  12.1380  14.5960

     occupation numbers 
     1.0000   1.0000   1.0000   1.0000   1.0000   1.0000   1.0000   1.0000
     1.0000   1.0000   1.0000   1.0000   1.0000   1.0000   1.0000   1.0000
     1.0000   1.0697   0.6182   0.0000   0.0000   0.0000   0.0000   0.0000
     0.0000   0.0000   0.0000

          k = 0.0000 0.1443-0.0972 (  3806 PWs)   bands (ev):

   -91.5641 -54.7979 -54.7917 -54.7651 -49.8256 -21.7088 -21.6732 -21.6381
   -15.1417 -13.4060  -1.2466  -1.2214  -0.9567   1.3625   1.4949   1.8376
     2.4189   3.0235   3.2253   3.9845   5.6854   6.0590   6.2746  10.0069
    12.2244  14.5200  16.2839

     occupation numbers 
     1.0000   1.0000   1.0000   1.0000   1.0000   1.0000   1.0000   1.0000
     1.0000   1.0000   1.0000   1.0000   1.0000   1.0000   1.0000   1.0000
     1.0000   1.0018   1.0250   0.1102   0.0000   0.0000   0.0000   0.0000
     0.0000   0.0000   0.0000

          k = 0.0000 0.2887-0.0972 (  3778 PWs)   bands (ev):

   -91.5623 -54.8177 -54.7964 -54.7621 -49.8129 -21.7796 -21.6913 -21.6610
   -14.6912 -13.4356  -1.4746  -0.8200  -0.6936   0.1270   1.2608   2.3973
     2.7722   3.2074   3.4745   3.8791   5.2893   6.1471   6.8515  10.9264
    13.4789  13.6589  15.6710

     occupation numbers 
     1.0000   1.0000   1.0000   1.0000   1.0000   1.0000   1.0000   1.0000
     1.0000   1.0000   1.0000   1.0000   1.0000   1.0000   1.0000   1.0000
     1.0000   1.0209   1.0794   0.2787   0.0000   0.0000   0.0000   0.0000
     0.0000   0.0000   0.0000

          k = 0.0000 0.4330-0.0972 (  3794 PWs)   bands (ev):

   -91.5605 -54.8377 -54.8012 -54.7592 -49.8002 -21.8843 -21.6841 -21.6741
   -14.1465 -13.5193  -1.9426  -0.8849  -0.4837   0.2332   1.0536   2.0063
     3.0837   3.2675   3.5617   4.5226   5.4924   6.1826   8.4451  10.0289
    12.4847  13.8365  15.2033

     occupation numbers 
     1.0000   1.0000   1.0000   1.0000   1.0000   1.0000   1.0000   1.0000
     1.0000   1.0000   1.0000   1.0000   1.0000   1.0000   1.0000   1.0000
     1.0046   1.0366   1.0182   0.0000   0.0000   0.0000   0.0000   0.0000
     0.0000   0.0000   0.0000

          k =-0.1250 0.3608-0.0972 (  3782 PWs)   bands (ev):

   -91.5610 -54.8289 -54.8027 -54.7600 -49.8039 -21.8379 -21.6934 -21.6791
   -14.3341 -13.4718  -1.5193  -1.0429  -0.4452   0.1212   0.6794   2.2931
     3.1470   3.4976   3.6411   3.9231   5.4385   5.9005   7.7980  11.4876
    12.0713  14.6084  15.8767

     occupation numbers 
     1.0000   1.0000   1.0000   1.0000   1.0000   1.0000   1.0000   1.0000
     1.0000   1.0000   1.0000   1.0000   1.0000   1.0000   1.0000   1.0000
     1.0105   1.0711   0.8839   0.1955   0.0000   0.0000   0.0000   0.0000
     0.0000   0.0000   0.0000

          k =-0.1250 0.5052-0.0972 (  3793 PWs)   bands (ev):

   -91.5598 -54.8415 -54.8076 -54.7580 -49.7950 -21.9030 -21.7181 -21.6669
   -13.8724 -13.5877  -2.0439  -1.0401  -0.1774   0.3547   0.6478   1.7162
     2.9899   3.2007   3.6498   5.6286   5.8322   6.0071   8.7777   9.7358
    12.5345  13.3034  15.2762

     occupation numbers 
     1.0000   1.0000   1.0000   1.0000   1.0000   1.0000   1.0000   1.0000
     1.0000   1.0000   1.0000   1.0000   1.0000   1.0000   1.0000   1.0000
     1.0011   1.0194   0.8649   0.0000   0.0000   0.0000   0.0000   0.0000
     0.0000   0.0000   0.0000

     the Fermi energy is     3.8264 ev

!    total energy              =    -569.17300438 Ry
     total all-electron energy =     -3412.663560 Ry
     estimated scf accuracy    <       0.00000006 Ry
     smearing contrib. (-TS)   =       0.00081202 Ry
     internal energy E=F+TS    =    -569.17381640 Ry

     The total energy is F=E-TS. E is the sum of the following terms:
     one-electron contribution =    -676.44516243 Ry
     hartree contribution      =     350.74879729 Ry
     xc contribution           =     -59.95008449 Ry
     ewald contribution        =     -61.57027707 Ry
     one-center paw contrib.   =    -121.95708970 Ry
      -> PAW hartree energy AE =     342.27631917 Ry
      -> PAW hartree energy PS =    -342.28048687 Ry
      -> PAW xc energy AE      =    -178.86951443 Ry
      -> PAW xc energy PS      =      56.91659244 Ry
      -> total E_H with PAW    =     350.74462958 Ry
      -> total E_XC with PAW   =    -181.90300648 Ry

     convergence has been achieved in  17 iterations

     Forces acting on atoms (cartesian axes, Ry/au):

     atom    1 type  1   force =    -0.00000000    0.00000000    0.00000000
     atom    2 type  2   force =     0.00000000    0.00000000   -0.02965120
     atom    3 type  2   force =     0.00000000    0.00000000    0.02965120
     atom    4 type  3   force =    -0.00000000    0.00000000    0.00000000
     The non-local contrib.  to forces
     atom    1 type  1   force =     0.00000000    0.00000000    0.00000000
     atom    2 type  2   force =    -0.00000000   -0.00000000   -1.14003379
     atom    3 type  2   force =     0.00000000    0.00000000    1.14003379
     atom    4 type  3   force =     0.00000000    0.00000000    0.00000000
     The ionic contribution  to forces
     atom    1 type  1   force =    -0.00000000   -0.00000000    0.00000000
     atom    2 type  2   force =     0.00000000   -0.00000000   35.02000483
     atom    3 type  2   force =    -0.00000000    0.00000000  -35.02000483
     atom    4 type  3   force =    -0.00000000   -0.00000000    0.00000000
     The local contribution  to forces
     atom    1 type  1   force =     0.00000000   -0.00000000    0.00000000
     atom    2 type  2   force =     0.00000001   -0.00000001  -33.91964335
     atom    3 type  2   force =    -0.00000001    0.00000001   33.91964335
     atom    4 type  3   force =    -0.00000000   -0.00000000    0.00000000
     The core correction contribution to forces
     atom    1 type  1   force =     0.00000000   -0.00000000    0.00000000
     atom    2 type  2   force =    -0.00000000    0.00000000    0.01002011
     atom    3 type  2   force =     0.00000000   -0.00000000   -0.01002011
     atom    4 type  3   force =     0.00000000   -0.00000000    0.00000000
     The Hubbard contrib.    to forces
     atom    1 type  1   force =     0.00000000    0.00000000    0.00000000
     atom    2 type  2   force =     0.00000000    0.00000000    0.00000000
     atom    3 type  2   force =     0.00000000    0.00000000    0.00000000
     atom    4 type  3   force =     0.00000000    0.00000000    0.00000000
     The SCF correction term to forces
     atom    1 type  1   force =     0.00000000   -0.00000000   -0.00000000
     atom    2 type  2   force =    -0.00000000    0.00000000    0.00000101
     atom    3 type  2   force =     0.00000000   -0.00000000   -0.00000101
     atom    4 type  3   force =    -0.00000000   -0.00000000    0.00000000

     Total force =     0.041933     Total SCF correction =     0.000001

     Writing all to output data dir ./out/pw.save/ :
     XML data file, charge density, pseudopotentials, collected wavefunctions
 
     init_run     :     11.10s CPU      2.62s WALL (       1 calls)
     electrons    :     64.33s CPU     14.22s WALL (       1 calls)
     forces       :      0.32s CPU      0.30s WALL (       1 calls)

     Called by init_run:
     wfcinit      :      0.16s CPU      0.23s WALL (       1 calls)
     wfcinit:atom :      0.02s CPU      0.02s WALL (      25 calls)
     wfcinit:wfcr :      0.10s CPU      0.14s WALL (      25 calls)
     potinit      :     10.42s CPU      1.80s WALL (       1 calls)
     hinit0       :      0.43s CPU      0.42s WALL (       1 calls)

     Called by electrons:
     c_bands      :      6.32s CPU      6.43s WALL (      17 calls)
     sum_band     :      1.05s CPU      1.06s WALL (      17 calls)
     v_of_rho     :      0.28s CPU      0.12s WALL (      18 calls)
     v_h          :      0.22s CPU      0.03s WALL (      18 calls)
     v_xc         :      0.06s CPU      0.09s WALL (      19 calls)
     newd         :      0.42s CPU      0.38s WALL (      18 calls)
                                        0.38s GPU  (      18 calls)
     PAW_pot      :     59.08s CPU      6.30s WALL (      18 calls)
     mix_rho      :      0.40s CPU      0.40s WALL (      17 calls)

     Called by c_bands:
     init_us_2    :      0.37s CPU      0.37s WALL (     900 calls)
     cegterg      :      5.53s CPU      5.64s WALL (     425 calls)

     Called by sum_band:
     sum_band:wei :      0.01s CPU      0.01s WALL (      17 calls)
                                        0.01s GPU  (      17 calls)
     sum_band:loo :      0.65s CPU      0.66s WALL (      17 calls)
                                        0.66s GPU  (      17 calls)
     sum_band:buf :      0.11s CPU      0.12s WALL (     425 calls)
                                        0.12s GPU  (     425 calls)
     sum_band:ini :      0.17s CPU      0.18s WALL (     425 calls)
                                        0.17s GPU  (     425 calls)
     sum_band:cal :      0.02s CPU      0.03s WALL (     425 calls)
                                        0.02s GPU  (     425 calls)
     sum_band:bec :      0.10s CPU      0.11s WALL (     425 calls)
                                        0.11s GPU  (     425 calls)
     addusdens    :      0.30s CPU      0.30s WALL (      17 calls)
                                        0.30s GPU  (      17 calls)
     addusd:skk   :      0.00s CPU      0.00s WALL (      51 calls)
                                        0.00s GPU  (      51 calls)

     Called by *egterg:
     cdiaghg      :      1.92s CPU      2.00s WALL (    2148 calls)
                                        1.97s GPU  (    2148 calls)
     cegterg:over :      0.52s CPU      0.54s WALL (    1723 calls)
     cegterg:upda :      0.34s CPU      0.34s WALL (    1723 calls)
     cegterg:last :      0.06s CPU      0.06s WALL (     827 calls)
     h_psi        :      1.95s CPU      2.05s WALL (    2173 calls)
                                        2.02s GPU  (    2173 calls)
     s_psi        :      0.33s CPU      0.35s WALL (    2173 calls)
     g_psi        :      0.01s CPU      0.04s WALL (    1723 calls)
                                        0.02s GPU  (    1723 calls)

     Called by h_psi:
     h_psi:calbec :      0.08s CPU      0.15s WALL (    2173 calls)
                                        0.12s GPU  (    2173 calls)
     vloc_psi     :      1.34s CPU      1.38s WALL (    2173 calls)
                                        1.35s GPU  (    2173 calls)
     add_vuspsi   :      0.30s CPU      0.36s WALL (    2173 calls)
                                        0.34s GPU  (    2173 calls)

     General routines
     calbec       :      0.08s CPU      0.11s WALL (    2698 calls)
     fft          :      3.08s CPU      0.59s WALL (     243 calls)
                                        0.01s GPU  (     225 calls)
     ffts         :      3.93s CPU      0.79s WALL (     651 calls)
                                        0.02s GPU  (     633 calls)
     fftw         :      0.13s CPU      0.49s WALL (    7000 calls)
                                        0.41s GPU  (    7000 calls)
     interpolate  :      7.07s CPU      1.36s WALL (      18 calls)
 
     Parallel routines

     PAW routines
     PAW_pot      :     59.08s CPU      6.30s WALL (      18 calls)
     PAW_symme    :      0.02s CPU      0.00s WALL (      35 calls)
 
     PWSCF        :   1m16.42s CPU     17.64s WALL

 
   This run was terminated on:   4:23: 5  12Jul2026            

=------------------------------------------------------------------------------=
   JOB DONE.
=------------------------------------------------------------------------------=
Warning: ieee_divide_by_zero is signaling
Warning: ieee_inexact is signaling
FORTRAN STOP
