
     Program PWSCF v.7.3.1 starts on 12Jul2026 at  6:29:16 

     This program is part of the open-source Quantum ESPRESSO suite
     for quantum simulation of materials; please cite
         "P. Giannozzi et al., J. Phys.:Condens. Matter 21 395502 (2009);
         "P. Giannozzi et al., J. Phys.:Condens. Matter 29 465901 (2017);
         "P. Giannozzi et al., J. Chem. Phys. 152 154105 (2020);
          URL http://www.quantum-espresso.org", 
     in publications or presentations arising from this work. More details at
     http://www.quantum-espresso.org/quote

     Parallel version (MPI & OpenMP), running on      14 processor cores
     Number of MPI processes:                 1
     Threads/MPI process:                    14

     MPI processes distributed on     1 nodes
     1355257 MiB available memory on the printing compute node when the environment starts
 
     Reading input from pw.in

     Current dimensions of program PWSCF are:
     Max number of different atomic species (ntypx) = 10
     Max number of k-points (npk) =  40000
     Max angular momentum in pseudopotentials (lmaxx) =  4
     file Co.pbe-spn-kjpaw_psl.0.3.1.UPF: wavefunction(s)  3P 3D renormalized
     file O.pbe-n-kjpaw_psl.1.0.0.UPF: wavefunction(s)  2S 2P renormalized
     file Na.pbe-spn-kjpaw_psl.1.0.0.UPF: wavefunction(s)  2P renormalized
     file H.pbe-kjpaw_psl.1.0.0.UPF: wavefunction(s)  1S renormalized
 
     Subspace diagonalization in iterative solution of the eigenvalue problem:
     a serial algorithm will be used

 
     G-vector sticks info
     --------------------
     sticks:   dense  smooth     PW     G-vecs:    dense   smooth      PW
     Sum        2941    1483    421               256907    90927   13645
 
     Using Slab Decomposition
 


     bravais-lattice index     =            4
     lattice parameter (alat)  =       9.4527  a.u.
     unit-cell volume          =    1447.6983 (a.u.)^3
     number of atoms/cell      =           22
     number of atomic types    =            4
     number of electrons       =       128.00
     number of Kohn-Sham states=           85
     kinetic-energy cutoff     =      60.0000  Ry
     charge density cutoff     =     480.0000  Ry
     scf convergence threshold =      1.0E-07
     mixing beta               =       0.3000
     number of iterations used =            8  local-TF  mixing
     energy convergence thresh.=      1.0E-04
     force convergence thresh. =      1.0E-03
     Exchange-correlation= SLA  PW   PBX  PBC
                           (   1   4   3   4   0   0   0)
     nstep                     =           60


     GPU acceleration is ACTIVE.  1 visible GPUs per MPI rank
     GPU-aware MPI enabled


     GPU used by master process:

        Device Number: 0
        Device name: NVIDIA A100-SXM4-80GB
        Compute capability : 80
        Ratio of single to double precision performance  : 2
        Memory Clock Rate (KHz): 1593000
        Memory Bus Width (bits): 5120
        Peak Memory Bandwidth (GB/s): ******

     celldm(1)=   9.452718  celldm(2)=   0.000000  celldm(3)=   1.979144
     celldm(4)=   0.000000  celldm(5)=   0.000000  celldm(6)=   0.000000

     crystal axes: (cart. coord. in units of alat)
               a(1) = (   1.000000   0.000000   0.000000 )  
               a(2) = (  -0.500000   0.866025   0.000000 )  
               a(3) = (   0.000000   0.000000   1.979144 )  

     reciprocal axes: (cart. coord. in units 2 pi/alat)
               b(1) = (  1.000000  0.577350 -0.000000 )  
               b(2) = (  0.000000  1.154701  0.000000 )  
               b(3) = (  0.000000 -0.000000  0.505269 )  


     PseudoPot. # 1 for Co read from file:
     ../../pseudo/Co.pbe-spn-kjpaw_psl.0.3.1.UPF
     MD5 check sum: 3c0a43779828c046024e4f3be63f8e67
     Pseudo is Projector augmented-wave + core cor, Zval = 17.0
     Generated using &quot;atomic&quot; code by A. Dal Corso  v.6.2.2
     Shape of augmentation charge: PSQ
     Using radial grid of 1193 points,  6 beta functions with: 
                l(1) =   0
                l(2) =   0
                l(3) =   1
                l(4) =   1
                l(5) =   2
                l(6) =   2
     Q(r) pseudized with 0 coefficients 


     PseudoPot. # 2 for O  read from file:
     ../../pseudo/O.pbe-n-kjpaw_psl.1.0.0.UPF
     MD5 check sum: e99d9cef9b487d1ca56f5b95ecd0fd7a
     Pseudo is Projector augmented-wave + core cor, Zval =  6.0
     Generated using &quot;atomic&quot; code by A. Dal Corso  v.6.3
     Shape of augmentation charge: PSQ
     Using radial grid of 1095 points,  4 beta functions with: 
                l(1) =   0
                l(2) =   0
                l(3) =   1
                l(4) =   1
     Q(r) pseudized with 0 coefficients 


     PseudoPot. # 3 for Na read from file:
     ../../pseudo/Na.pbe-spn-kjpaw_psl.1.0.0.UPF
     MD5 check sum: 05b4deb74e3932c23ab016979dc8b5d4
     Pseudo is Projector augmented-wave + core cor, Zval =  9.0
     Generated using &quot;atomic&quot; code by A. Dal Corso  v.6.3
     Shape of augmentation charge: PSQ
     Using radial grid of 1121 points,  4 beta functions with: 
                l(1) =   0
                l(2) =   0
                l(3) =   1
                l(4) =   1
     Q(r) pseudized with 0 coefficients 


     PseudoPot. # 4 for H  read from file:
     ../../pseudo/H.pbe-kjpaw_psl.1.0.0.UPF
     MD5 check sum: d81a744832360e4a8af0b0b5b123bc2a
     Pseudo is Projector augmented-wave, Zval =  1.0
     Generated using &quot;atomic&quot; code by A. Dal Corso  v.6.3MaX
     Shape of augmentation charge: PSQ
     Using radial grid of  929 points,  2 beta functions with: 
                l(1) =   0
                l(2) =   0
     Q(r) pseudized with 0 coefficients 


     atomic species   valence    mass     pseudopotential
     Co               17.00    58.93300     Co( 1.00)
     O                 6.00    15.99900     O ( 1.00)
     Na                9.00    22.98977     Na( 1.00)
     H                 1.00     1.00800     H ( 1.00)

     Starting magnetic structure 
     atomic species   magnetization
     Co              0.300
     O               0.000
     Na              0.000
     H               0.000

     No symmetry found


                                    s                        frac. trans.

      isym =  1     identity                                     

 cryst.   s( 1) = (     1          0          0      )
                  (     0          1          0      )
                  (     0          0          1      )

 cart.    s( 1) = (  1.0000000  0.0000000  0.0000000 )
                  (  0.0000000  1.0000000  0.0000000 )
                  (  0.0000000  0.0000000  1.0000000 )


     point group C_1 (1)    
     there are  1 classes
     the character table:

       E    
A      1.00

     the symmetry operations in each class and the name of the first element:

     E        1
          identity                                               

   Cartesian axes

     site n.     atom                  positions (alat units)
         1        Co     tau(   1) = (   0.0000000   0.0000000   0.0000000  )
         2        Co     tau(   2) = (  -0.0000000   0.5773503   0.0000000  )
         3        Co     tau(   3) = (   0.5000000   0.2886751   0.0000000  )
         4        O      tau(   4) = (   0.1666667   0.2886751   0.1919170  )
         5        O      tau(   5) = (   0.6666667   0.0000000   0.1919170  )
         6        O      tau(   6) = (  -0.3333333   0.5773503   0.1919170  )
         7        O      tau(   7) = (   0.3333333   0.0000000   1.7872269  )
         8        O      tau(   8) = (   0.3333333   0.5773503   1.7872269  )
         9        O      tau(   9) = (  -0.1666667   0.2886751   1.7872269  )
        10        Na     tau(  10) = (   0.0000000   0.0000000   1.0495460  )
        11        O      tau(  11) = (   0.3333333   0.0000000   0.7496757  )
        12        H      tau(  12) = (   0.5188487   0.0262772   0.7885490  )
        13        H      tau(  13) = (  -0.1727349   0.8397482   0.5602285  )
        14        O      tau(  14) = (  -0.1666667   0.2886751   0.7496757  )
        15        H      tau(  15) = (   0.7178189   0.4361976   0.7885490  )
        16        H      tau(  16) = (  -0.1408758   0.2965585   0.5602285  )
        17        O      tau(  17) = (  -0.0000000   0.5773503   1.2294682  )
        18        H      tau(  18) = (  -0.0756623   0.7513118   1.2043644  )
        19        H      tau(  19) = (   0.0756623   0.5828359   1.4051461  )
        20        O      tau(  20) = (   0.5000000   0.2886751   1.2294682  )
        21        H      tau(  21) = (   0.6128239   0.4411814   1.2043644  )
        22        H      tau(  22) = (   0.5425818   0.2258925   1.4051461  )

   Crystallographic axes

     site n.     atom                  positions (cryst. coord.)
         1        Co     tau(   1) = (  0.0000000  0.0000000  0.0000000  )
         2        Co     tau(   2) = (  0.3333333  0.6666667  0.0000000  )
         3        Co     tau(   3) = (  0.6666667  0.3333333  0.0000000  )
         4        O      tau(   4) = (  0.3333333  0.3333333  0.0969697  )
         5        O      tau(   5) = (  0.6666667  0.0000000  0.0969697  )
         6        O      tau(   6) = (  0.0000000  0.6666667  0.0969697  )
         7        O      tau(   7) = (  0.3333333  0.0000000  0.9030303  )
         8        O      tau(   8) = (  0.6666667  0.6666667  0.9030303  )
         9        O      tau(   9) = ( -0.0000000  0.3333333  0.9030303  )
        10        Na     tau(  10) = (  0.0000000  0.0000000  0.5303030  )
        11        O      tau(  11) = (  0.3333333  0.0000000  0.3787879  )
        12        H      tau(  12) = (  0.5340199  0.0303423  0.3984293  )
        13        H      tau(  13) = (  0.3120939  0.9696577  0.2830660  )
        14        O      tau(  14) = ( -0.0000000  0.3333333  0.3787879  )
        15        H      tau(  15) = (  0.9696577  0.5036776  0.3984293  )
        16        H      tau(  16) = (  0.0303423  0.3424362  0.2830660  )
        17        O      tau(  17) = (  0.3333333  0.6666667  0.6212121  )
        18        H      tau(  18) = (  0.3581077  0.8675401  0.6085279  )
        19        H      tau(  19) = (  0.4121628  0.6730009  0.7099767  )
        20        O      tau(  20) = (  0.6666667  0.3333333  0.6212121  )
        21        H      tau(  21) = (  0.8675401  0.5094324  0.6085279  )
        22        H      tau(  22) = (  0.6730009  0.2608382  0.7099767  )

     number of k points=    40  Marzari-Vanderbilt smearing, width (Ry)=  0.0200
                       cart. coord. in units 2pi/alat
        k(    1) = (   0.0000000   0.0000000   0.0000000), wk =   0.0138889
        k(    2) = (   0.0000000   0.0000000  -0.2526345), wk =   0.0138889
        k(    3) = (   0.0000000   0.1924501   0.0000000), wk =   0.0277778
        k(    4) = (   0.0000000   0.1924501  -0.2526345), wk =   0.0277778
        k(    5) = (   0.0000000   0.3849002   0.0000000), wk =   0.0277778
        k(    6) = (   0.0000000   0.3849002  -0.2526345), wk =   0.0277778
        k(    7) = (   0.0000000  -0.5773503   0.0000000), wk =   0.0138889
        k(    8) = (   0.0000000  -0.5773503  -0.2526345), wk =   0.0138889
        k(    9) = (   0.1666667   0.2886751   0.0000000), wk =   0.0277778
        k(   10) = (   0.1666667   0.2886751  -0.2526345), wk =   0.0277778
        k(   11) = (   0.1666667   0.4811252   0.0000000), wk =   0.0277778
        k(   12) = (   0.1666667   0.4811252  -0.2526345), wk =   0.0277778
        k(   13) = (   0.3333333   0.5773503   0.0000000), wk =   0.0277778
        k(   14) = (   0.3333333   0.5773503  -0.2526345), wk =   0.0277778
        k(   15) = (  -0.1666667   0.0962250   0.0000000), wk =   0.0277778
        k(   16) = (   0.1666667   0.0962250   0.0000000), wk =   0.0277778
        k(   17) = (  -0.1666667   0.0962250  -0.2526345), wk =   0.0277778
        k(   18) = (   0.1666667   0.0962250  -0.2526345), wk =   0.0277778
        k(   19) = (  -0.3333333   0.1924501   0.0000000), wk =   0.0277778
        k(   20) = (   0.3333333   0.1924501   0.0000000), wk =   0.0277778
        k(   21) = (  -0.3333333   0.1924501  -0.2526345), wk =   0.0277778
        k(   22) = (   0.3333333   0.1924501  -0.2526345), wk =   0.0277778
        k(   23) = (   0.5000000  -0.2886751   0.0000000), wk =   0.0138889
        k(   24) = (  -0.5000000  -0.2886751   0.0000000), wk =   0.0138889
        k(   25) = (   0.5000000  -0.2886751  -0.2526345), wk =   0.0138889
        k(   26) = (  -0.5000000  -0.2886751  -0.2526345), wk =   0.0138889
        k(   27) = (  -0.1666667   0.2886751   0.0000000), wk =   0.0277778
        k(   28) = (   0.3333333   0.0000000   0.0000000), wk =   0.0277778
        k(   29) = (  -0.1666667   0.2886751   0.2526345), wk =   0.0277778
        k(   30) = (   0.3333333   0.0000000  -0.2526345), wk =   0.0277778
        k(   31) = (  -0.1666667   0.4811252   0.0000000), wk =   0.0277778
        k(   32) = (  -0.3333333   0.3849002   0.0000000), wk =   0.0277778
        k(   33) = (   0.5000000   0.0962250   0.0000000), wk =   0.0277778
        k(   34) = (  -0.3333333  -0.3849002   0.0000000), wk =   0.0277778
        k(   35) = (   0.5000000  -0.0962250   0.0000000), wk =   0.0277778
        k(   36) = (  -0.1666667   0.4811252   0.2526345), wk =   0.0277778
        k(   37) = (  -0.3333333   0.3849002  -0.2526345), wk =   0.0277778
        k(   38) = (   0.5000000   0.0962250  -0.2526345), wk =   0.0277778
        k(   39) = (  -0.3333333  -0.3849002   0.2526345), wk =   0.0277778
        k(   40) = (   0.5000000  -0.0962250   0.2526345), wk =   0.0277778

                       cryst. coord.
        k(    1) = (   0.0000000   0.0000000   0.0000000), wk =   0.0138889
        k(    2) = (   0.0000000   0.0000000  -0.5000000), wk =   0.0138889
        k(    3) = (   0.0000000   0.1666667   0.0000000), wk =   0.0277778
        k(    4) = (   0.0000000   0.1666667  -0.5000000), wk =   0.0277778
        k(    5) = (   0.0000000   0.3333333   0.0000000), wk =   0.0277778
        k(    6) = (   0.0000000   0.3333333  -0.5000000), wk =   0.0277778
        k(    7) = (   0.0000000  -0.5000000   0.0000000), wk =   0.0138889
        k(    8) = (   0.0000000  -0.5000000  -0.5000000), wk =   0.0138889
        k(    9) = (   0.1666667   0.1666667   0.0000000), wk =   0.0277778
        k(   10) = (   0.1666667   0.1666667  -0.5000000), wk =   0.0277778
        k(   11) = (   0.1666667   0.3333333   0.0000000), wk =   0.0277778
        k(   12) = (   0.1666667   0.3333333  -0.5000000), wk =   0.0277778
        k(   13) = (   0.3333333   0.3333333   0.0000000), wk =   0.0277778
        k(   14) = (   0.3333333   0.3333333  -0.5000000), wk =   0.0277778
        k(   15) = (  -0.1666667   0.1666667   0.0000000), wk =   0.0277778
        k(   16) = (   0.1666667  -0.0000000   0.0000000), wk =   0.0277778
        k(   17) = (  -0.1666667   0.1666667  -0.5000000), wk =   0.0277778
        k(   18) = (   0.1666667  -0.0000000  -0.5000000), wk =   0.0277778
        k(   19) = (  -0.3333333   0.3333333   0.0000000), wk =   0.0277778
        k(   20) = (   0.3333333  -0.0000000   0.0000000), wk =   0.0277778
        k(   21) = (  -0.3333333   0.3333333  -0.5000000), wk =   0.0277778
        k(   22) = (   0.3333333  -0.0000000  -0.5000000), wk =   0.0277778
        k(   23) = (   0.5000000  -0.5000000   0.0000000), wk =   0.0138889
        k(   24) = (  -0.5000000   0.0000000   0.0000000), wk =   0.0138889
        k(   25) = (   0.5000000  -0.5000000  -0.5000000), wk =   0.0138889
        k(   26) = (  -0.5000000   0.0000000  -0.5000000), wk =   0.0138889
        k(   27) = (  -0.1666667   0.3333333   0.0000000), wk =   0.0277778
        k(   28) = (   0.3333333  -0.1666667   0.0000000), wk =   0.0277778
        k(   29) = (  -0.1666667   0.3333333   0.5000000), wk =   0.0277778
        k(   30) = (   0.3333333  -0.1666667  -0.5000000), wk =   0.0277778
        k(   31) = (  -0.1666667   0.5000000   0.0000000), wk =   0.0277778
        k(   32) = (  -0.3333333   0.5000000   0.0000000), wk =   0.0277778
        k(   33) = (   0.5000000  -0.1666667   0.0000000), wk =   0.0277778
        k(   34) = (  -0.3333333  -0.1666667   0.0000000), wk =   0.0277778
        k(   35) = (   0.5000000  -0.3333333   0.0000000), wk =   0.0277778
        k(   36) = (  -0.1666667   0.5000000   0.5000000), wk =   0.0277778
        k(   37) = (  -0.3333333   0.5000000  -0.5000000), wk =   0.0277778
        k(   38) = (   0.5000000  -0.1666667  -0.5000000), wk =   0.0277778
        k(   39) = (  -0.3333333  -0.1666667   0.5000000), wk =   0.0277778
        k(   40) = (   0.5000000  -0.3333333   0.5000000), wk =   0.0277778

     Dense  grid:   256907 G-vectors     FFT dimensions: (  72,  72, 135)

     Smooth grid:    90927 G-vectors     FFT dimensions: (  48,  48,  96)

     Dynamical RAM for                 wfc:      14.74 MB

     Dynamical RAM for     wfc (w. buffer):    1193.65 MB

     Dynamical RAM for           str. fact:      15.68 MB

     Dynamical RAM for           local pot:       0.00 MB

     Dynamical RAM for          nlocal pot:      27.39 MB

     Dynamical RAM for                qrad:       7.03 MB

     Dynamical RAM for          rho,v,vnew:      55.56 MB

     Dynamical RAM for               rhoin:      18.52 MB

     Dynamical RAM for            rho*nmix:     125.44 MB

     Dynamical RAM for           G-vectors:      15.39 MB

     Dynamical RAM for          h,s,v(r/c):       1.32 MB

     Dynamical RAM for          <psi|beta>:       0.20 MB

     Dynamical RAM for                 psi:      29.47 MB

     Dynamical RAM for                hpsi:      29.47 MB

     Dynamical RAM for                spsi:      29.47 MB

     Dynamical RAM for      wfcinit/wfcrot:      29.64 MB

     Dynamical RAM for           addusdens:     772.26 MB

     Dynamical RAM for          addusforce:     842.90 MB

     Estimated static dynamical RAM per process >       1.35 GB

     Estimated max dynamical RAM per process >       2.30 GB

     Check: negative core charge=   -0.000006
     Generating pointlists ...
     new r_m :   0.1587 (alat units)  1.4998 (a.u.) for type    1
     new r_m :   0.0789 (alat units)  0.7461 (a.u.) for type    2
     new r_m :   0.1850 (alat units)  1.7483 (a.u.) for type    3
     new r_m :   0.0789 (alat units)  0.7461 (a.u.) for type    4

     Initial potential from superposition of free atoms

     starting charge     127.9928, renormalised to     128.0000
     Starting wfcs are   83 randomized atomic wfcs +    2 random wfcs
     Checking if some PAW data can be deallocated... 

     total cpu time spent up to now is        7.9 secs

     Self-consistent Calculation
[tb_dev] Currently allocated     1.27E+00 Mbytes, locked:    0 /   6
[tb_pin] Currently allocated     0.00E+00 Mbytes, locked:    0 /   0

     iteration #  1     ecut=    60.00 Ry     beta= 0.30
     Davidson diagonalization with overlap

---- Real-time Memory Report at c_bands before calling an iterative solver
          1933 MiB given to the printing process from OS
             0 MiB allocation reported by mallinfo(arena+hblkhd)
       1353292 MiB available memory on the node where the printing process lives
     GPU memory used/free/total (MiB): 2068 / 79082 / 81151
------------------
     ethr =  1.00E-02,  avg # of iterations =  8.5

     total cpu time spent up to now is       16.7 secs

     total energy              =   -1664.56461489 Ry
     estimated scf accuracy    <       7.56936984 Ry

     total magnetization       =    14.00 Bohr mag/cell
     absolute magnetization    =    14.01 Bohr mag/cell
[tb_dev] Currently allocated     1.68E-04 Mbytes, locked:    0 /   2
[tb_pin] Currently allocated     0.00E+00 Mbytes, locked:    0 /   0

     iteration #  2     ecut=    60.00 Ry     beta= 0.30
     Davidson diagonalization with overlap

---- Real-time Memory Report at c_bands before calling an iterative solver
          1998 MiB given to the printing process from OS
             0 MiB allocation reported by mallinfo(arena+hblkhd)
       1352640 MiB available memory on the node where the printing process lives
     GPU memory used/free/total (MiB): 2124 / 79026 / 81151
------------------
     ethr =  5.91E-03,  avg # of iterations =  2.0

     total cpu time spent up to now is       22.5 secs

     total energy              =   -1664.77828689 Ry
     estimated scf accuracy    <       1.68588062 Ry

     total magnetization       =    10.77 Bohr mag/cell
     absolute magnetization    =    10.78 Bohr mag/cell
[tb_dev] Currently allocated     1.68E-04 Mbytes, locked:    0 /   2
[tb_pin] Currently allocated     0.00E+00 Mbytes, locked:    0 /   0

     iteration #  3     ecut=    60.00 Ry     beta= 0.30
     Davidson diagonalization with overlap

---- Real-time Memory Report at c_bands before calling an iterative solver
          2012 MiB given to the printing process from OS
             0 MiB allocation reported by mallinfo(arena+hblkhd)
       1352410 MiB available memory on the node where the printing process lives
     GPU memory used/free/total (MiB): 2124 / 79026 / 81151
------------------
     ethr =  1.32E-03,  avg # of iterations =  2.8

     total cpu time spent up to now is       28.8 secs

     total energy              =   -1665.11921360 Ry
     estimated scf accuracy    <       2.40231127 Ry

     total magnetization       =     4.06 Bohr mag/cell
     absolute magnetization    =     4.81 Bohr mag/cell
[tb_dev] Currently allocated     1.68E-04 Mbytes, locked:    0 /   2
[tb_pin] Currently allocated     0.00E+00 Mbytes, locked:    0 /   0

     iteration #  4     ecut=    60.00 Ry     beta= 0.30
     Davidson diagonalization with overlap

---- Real-time Memory Report at c_bands before calling an iterative solver
          2019 MiB given to the printing process from OS
             0 MiB allocation reported by mallinfo(arena+hblkhd)
       1350819 MiB available memory on the node where the printing process lives
     GPU memory used/free/total (MiB): 2124 / 79026 / 81151
------------------
     ethr =  1.32E-03,  avg # of iterations =  1.2

     total cpu time spent up to now is       34.3 secs

     total energy              =   -1665.27007629 Ry
     estimated scf accuracy    <       0.66847814 Ry

     total magnetization       =     6.29 Bohr mag/cell
     absolute magnetization    =     6.50 Bohr mag/cell
[tb_dev] Currently allocated     1.68E-04 Mbytes, locked:    0 /   2
[tb_pin] Currently allocated     0.00E+00 Mbytes, locked:    0 /   0

     iteration #  5     ecut=    60.00 Ry     beta= 0.30
     Davidson diagonalization with overlap

---- Real-time Memory Report at c_bands before calling an iterative solver
          2028 MiB given to the printing process from OS
             0 MiB allocation reported by mallinfo(arena+hblkhd)
       1350501 MiB available memory on the node where the printing process lives
     GPU memory used/free/total (MiB): 2124 / 79026 / 81151
------------------
     ethr =  5.22E-04,  avg # of iterations =  2.3

     total cpu time spent up to now is       40.2 secs

     total energy              =   -1665.36443208 Ry
     estimated scf accuracy    <       0.80072973 Ry

     total magnetization       =     3.36 Bohr mag/cell
     absolute magnetization    =     4.41 Bohr mag/cell
[tb_dev] Currently allocated     1.68E-04 Mbytes, locked:    0 /   2
[tb_pin] Currently allocated     0.00E+00 Mbytes, locked:    0 /   0

     iteration #  6     ecut=    60.00 Ry     beta= 0.30
     Davidson diagonalization with overlap

---- Real-time Memory Report at c_bands before calling an iterative solver
          2034 MiB given to the printing process from OS
             0 MiB allocation reported by mallinfo(arena+hblkhd)
       1350030 MiB available memory on the node where the printing process lives
     GPU memory used/free/total (MiB): 2124 / 79026 / 81151
------------------
     ethr =  5.22E-04,  avg # of iterations =  1.3

     total cpu time spent up to now is       45.8 secs

     total energy              =   -1665.51834897 Ry
     estimated scf accuracy    <       0.39335334 Ry

     total magnetization       =     2.30 Bohr mag/cell
     absolute magnetization    =     3.73 Bohr mag/cell
[tb_dev] Currently allocated     1.68E-04 Mbytes, locked:    0 /   2
[tb_pin] Currently allocated     0.00E+00 Mbytes, locked:    0 /   0

     iteration #  7     ecut=    60.00 Ry     beta= 0.30
     Davidson diagonalization with overlap

---- Real-time Memory Report at c_bands before calling an iterative solver
          2045 MiB given to the printing process from OS
             0 MiB allocation reported by mallinfo(arena+hblkhd)
       1349766 MiB available memory on the node where the printing process lives
     GPU memory used/free/total (MiB): 2124 / 79026 / 81151
------------------
     ethr =  3.07E-04,  avg # of iterations =  3.1

     total cpu time spent up to now is       52.1 secs

     total energy              =   -1665.50256774 Ry
     estimated scf accuracy    <       1.09682294 Ry

     total magnetization       =     2.32 Bohr mag/cell
     absolute magnetization    =     2.64 Bohr mag/cell
[tb_dev] Currently allocated     1.68E-04 Mbytes, locked:    0 /   2
[tb_pin] Currently allocated     0.00E+00 Mbytes, locked:    0 /   0

     iteration #  8     ecut=    60.00 Ry     beta= 0.30
     Davidson diagonalization with overlap

---- Real-time Memory Report at c_bands before calling an iterative solver
          2050 MiB given to the printing process from OS
             0 MiB allocation reported by mallinfo(arena+hblkhd)
       1347748 MiB available memory on the node where the printing process lives
     GPU memory used/free/total (MiB): 2546 / 78605 / 81151
------------------
     ethr =  3.07E-04,  avg # of iterations =  2.1

     total cpu time spent up to now is       57.8 secs

     total energy              =   -1665.50376766 Ry
     estimated scf accuracy    <       0.36121200 Ry

     total magnetization       =     2.06 Bohr mag/cell
     absolute magnetization    =     2.59 Bohr mag/cell
[tb_dev] Currently allocated     1.68E-04 Mbytes, locked:    0 /   2
[tb_pin] Currently allocated     0.00E+00 Mbytes, locked:    0 /   0

     iteration #  9     ecut=    60.00 Ry     beta= 0.30
     Davidson diagonalization with overlap

---- Real-time Memory Report at c_bands before calling an iterative solver
          2058 MiB given to the printing process from OS
             0 MiB allocation reported by mallinfo(arena+hblkhd)
       1360047 MiB available memory on the node where the printing process lives
     GPU memory used/free/total (MiB): 2124 / 79026 / 81151
------------------
     ethr =  2.82E-04,  avg # of iterations =  1.6

     total cpu time spent up to now is       63.1 secs

     total energy              =   -1665.50744377 Ry
     estimated scf accuracy    <       0.17525489 Ry

     total magnetization       =     2.02 Bohr mag/cell
     absolute magnetization    =     2.55 Bohr mag/cell
[tb_dev] Currently allocated     1.68E-04 Mbytes, locked:    0 /   2
[tb_pin] Currently allocated     0.00E+00 Mbytes, locked:    0 /   0

     iteration # 10     ecut=    60.00 Ry     beta= 0.30
     Davidson diagonalization with overlap

---- Real-time Memory Report at c_bands before calling an iterative solver
          2067 MiB given to the printing process from OS
             0 MiB allocation reported by mallinfo(arena+hblkhd)
       1356098 MiB available memory on the node where the printing process lives
     GPU memory used/free/total (MiB): 2124 / 79026 / 81151
------------------
     c_bands:  1 eigenvalues not converged
     c_bands:  1 eigenvalues not converged
     ethr =  1.37E-04,  avg # of iterations =  6.9

     total cpu time spent up to now is       70.7 secs

     total energy              =   -1665.52078262 Ry
     estimated scf accuracy    <       0.03357149 Ry

     total magnetization       =     2.27 Bohr mag/cell
     absolute magnetization    =     2.36 Bohr mag/cell
[tb_dev] Currently allocated     1.68E-04 Mbytes, locked:    0 /   2
[tb_pin] Currently allocated     0.00E+00 Mbytes, locked:    0 /   0

     iteration # 11     ecut=    60.00 Ry     beta= 0.30
     Davidson diagonalization with overlap

---- Real-time Memory Report at c_bands before calling an iterative solver
          2067 MiB given to the printing process from OS
             0 MiB allocation reported by mallinfo(arena+hblkhd)
       1349394 MiB available memory on the node where the printing process lives
     GPU memory used/free/total (MiB): 2124 / 79026 / 81151
------------------
     c_bands:  1 eigenvalues not converged
     c_bands:  1 eigenvalues not converged
     c_bands:  1 eigenvalues not converged
     c_bands:  1 eigenvalues not converged
     c_bands:  2 eigenvalues not converged
     c_bands:  1 eigenvalues not converged
     c_bands:  2 eigenvalues not converged
     c_bands:  1 eigenvalues not converged
     c_bands:  1 eigenvalues not converged
     c_bands:  1 eigenvalues not converged
     c_bands:  1 eigenvalues not converged
     c_bands:  1 eigenvalues not converged
     c_bands:  1 eigenvalues not converged
     c_bands:  1 eigenvalues not converged
     c_bands:  1 eigenvalues not converged
     c_bands:  1 eigenvalues not converged
     c_bands:  2 eigenvalues not converged
     c_bands:  1 eigenvalues not converged
     c_bands:  1 eigenvalues not converged
     c_bands:  1 eigenvalues not converged
     c_bands:  1 eigenvalues not converged
     c_bands:  1 eigenvalues not converged
     c_bands:  1 eigenvalues not converged
     c_bands:  1 eigenvalues not converged
     c_bands:  1 eigenvalues not converged
     c_bands:  2 eigenvalues not converged
     c_bands:  1 eigenvalues not converged
     ethr =  2.62E-05,  avg # of iterations = 15.8

     total cpu time spent up to now is       82.9 secs

     total energy              =   -1665.51462067 Ry
     estimated scf accuracy    <       0.02644908 Ry

     total magnetization       =     2.31 Bohr mag/cell
     absolute magnetization    =     2.37 Bohr mag/cell
[tb_dev] Currently allocated     1.68E-04 Mbytes, locked:    0 /   2
[tb_pin] Currently allocated     0.00E+00 Mbytes, locked:    0 /   0

     iteration # 12     ecut=    60.00 Ry     beta= 0.30
     Davidson diagonalization with overlap

---- Real-time Memory Report at c_bands before calling an iterative solver
          2067 MiB given to the printing process from OS
             0 MiB allocation reported by mallinfo(arena+hblkhd)
       1352739 MiB available memory on the node where the printing process lives
     GPU memory used/free/total (MiB): 2124 / 79026 / 81151
------------------
     c_bands:  1 eigenvalues not converged
     c_bands:  1 eigenvalues not converged
     c_bands:  1 eigenvalues not converged
     c_bands:  1 eigenvalues not converged
     c_bands:  1 eigenvalues not converged
     ethr =  2.07E-05,  avg # of iterations =  4.6

     total cpu time spent up to now is       89.9 secs

     total energy              =   -1665.51398950 Ry
     estimated scf accuracy    <       0.04389168 Ry

     total magnetization       =     2.20 Bohr mag/cell
     absolute magnetization    =     2.27 Bohr mag/cell
[tb_dev] Currently allocated     1.68E-04 Mbytes, locked:    0 /   2
[tb_pin] Currently allocated     0.00E+00 Mbytes, locked:    0 /   0

     iteration # 13     ecut=    60.00 Ry     beta= 0.30
     Davidson diagonalization with overlap

---- Real-time Memory Report at c_bands before calling an iterative solver
          2070 MiB given to the printing process from OS
             0 MiB allocation reported by mallinfo(arena+hblkhd)
       1346279 MiB available memory on the node where the printing process lives
     GPU memory used/free/total (MiB): 2124 / 79026 / 81151
------------------
     c_bands:  1 eigenvalues not converged
     c_bands:  1 eigenvalues not converged
     c_bands:  1 eigenvalues not converged
     c_bands:  1 eigenvalues not converged
     c_bands:  1 eigenvalues not converged
     c_bands:  1 eigenvalues not converged
     c_bands:  1 eigenvalues not converged
     c_bands:  1 eigenvalues not converged
     c_bands:  1 eigenvalues not converged
     ethr =  2.07E-05,  avg # of iterations =  9.0

     total cpu time spent up to now is       98.9 secs

     total energy              =   -1665.51810092 Ry
     estimated scf accuracy    <       0.01532606 Ry

     total magnetization       =     2.25 Bohr mag/cell
     absolute magnetization    =     2.28 Bohr mag/cell
[tb_dev] Currently allocated     1.68E-04 Mbytes, locked:    0 /   2
[tb_pin] Currently allocated     0.00E+00 Mbytes, locked:    0 /   0

     iteration # 14     ecut=    60.00 Ry     beta= 0.30
     Davidson diagonalization with overlap

---- Real-time Memory Report at c_bands before calling an iterative solver
          2070 MiB given to the printing process from OS
             0 MiB allocation reported by mallinfo(arena+hblkhd)
       1353715 MiB available memory on the node where the printing process lives
     GPU memory used/free/total (MiB): 2124 / 79026 / 81151
------------------
     c_bands:  1 eigenvalues not converged
     c_bands:  1 eigenvalues not converged
     c_bands:  1 eigenvalues not converged
     c_bands:  1 eigenvalues not converged
     c_bands:  1 eigenvalues not converged
     ethr =  1.20E-05,  avg # of iterations =  4.4

     total cpu time spent up to now is      105.6 secs

     total energy              =   -1665.51595202 Ry
     estimated scf accuracy    <       0.01137742 Ry

     total magnetization       =     2.20 Bohr mag/cell
     absolute magnetization    =     2.24 Bohr mag/cell
[tb_dev] Currently allocated     1.68E-04 Mbytes, locked:    0 /   2
[tb_pin] Currently allocated     0.00E+00 Mbytes, locked:    0 /   0

     iteration # 15     ecut=    60.00 Ry     beta= 0.30
     Davidson diagonalization with overlap

---- Real-time Memory Report at c_bands before calling an iterative solver
          2070 MiB given to the printing process from OS
             0 MiB allocation reported by mallinfo(arena+hblkhd)
       1347649 MiB available memory on the node where the printing process lives
     GPU memory used/free/total (MiB): 2124 / 79026 / 81151
------------------
     c_bands:  1 eigenvalues not converged
     c_bands:  1 eigenvalues not converged
     c_bands:  1 eigenvalues not converged
     c_bands:  1 eigenvalues not converged
     c_bands:  1 eigenvalues not converged
     c_bands:  1 eigenvalues not converged
     c_bands:  1 eigenvalues not converged
     c_bands:  1 eigenvalues not converged
     c_bands:  1 eigenvalues not converged
     c_bands:  1 eigenvalues not converged
     c_bands:  2 eigenvalues not converged
     ethr =  8.89E-06,  avg # of iterations = 11.6

     total cpu time spent up to now is      115.5 secs

     total energy              =   -1665.51601068 Ry
     estimated scf accuracy    <       0.00442130 Ry

     total magnetization       =     2.34 Bohr mag/cell
     absolute magnetization    =     2.37 Bohr mag/cell
[tb_dev] Currently allocated     1.68E-04 Mbytes, locked:    0 /   2
[tb_pin] Currently allocated     0.00E+00 Mbytes, locked:    0 /   0

     iteration # 16     ecut=    60.00 Ry     beta= 0.30
     Davidson diagonalization with overlap

---- Real-time Memory Report at c_bands before calling an iterative solver
          2071 MiB given to the printing process from OS
             0 MiB allocation reported by mallinfo(arena+hblkhd)
       1353482 MiB available memory on the node where the printing process lives
     GPU memory used/free/total (MiB): 2124 / 79026 / 81151
------------------
     c_bands:  1 eigenvalues not converged
     c_bands:  1 eigenvalues not converged
     c_bands:  1 eigenvalues not converged
     c_bands:  1 eigenvalues not converged
     c_bands:  1 eigenvalues not converged
     c_bands:  1 eigenvalues not converged
     c_bands:  2 eigenvalues not converged
     c_bands:  1 eigenvalues not converged
     c_bands:  1 eigenvalues not converged
     c_bands:  1 eigenvalues not converged
     c_bands:  1 eigenvalues not converged
     c_bands:  1 eigenvalues not converged
     c_bands:  1 eigenvalues not converged
     c_bands:  1 eigenvalues not converged
     c_bands:  2 eigenvalues not converged
     c_bands:  1 eigenvalues not converged
     c_bands:  1 eigenvalues not converged
     c_bands:  1 eigenvalues not converged
     c_bands:  1 eigenvalues not converged
     c_bands:  1 eigenvalues not converged
     c_bands:  1 eigenvalues not converged
     c_bands:  1 eigenvalues not converged
     c_bands:  1 eigenvalues not converged
     c_bands:  1 eigenvalues not converged
     c_bands:  1 eigenvalues not converged
     c_bands:  2 eigenvalues not converged
     c_bands:  2 eigenvalues not converged
     c_bands:  1 eigenvalues not converged
     c_bands:  1 eigenvalues not converged
     c_bands:  1 eigenvalues not converged
     c_bands:  1 eigenvalues not converged
     c_bands:  1 eigenvalues not converged
     c_bands:  1 eigenvalues not converged
     c_bands:  1 eigenvalues not converged
     c_bands:  1 eigenvalues not converged
     ethr =  3.45E-06,  avg # of iterations = 15.2

     total cpu time spent up to now is      127.2 secs

     total energy              =   -1665.51687950 Ry
     estimated scf accuracy    <       0.00161085 Ry

     total magnetization       =     2.31 Bohr mag/cell
     absolute magnetization    =     2.35 Bohr mag/cell
[tb_dev] Currently allocated     1.68E-04 Mbytes, locked:    0 /   2
[tb_pin] Currently allocated     0.00E+00 Mbytes, locked:    0 /   0

     iteration # 17     ecut=    60.00 Ry     beta= 0.30
     Davidson diagonalization with overlap

---- Real-time Memory Report at c_bands before calling an iterative solver
          2071 MiB given to the printing process from OS
             0 MiB allocation reported by mallinfo(arena+hblkhd)
       1343497 MiB available memory on the node where the printing process lives
     GPU memory used/free/total (MiB): 2124 / 79026 / 81151
------------------
     c_bands:  1 eigenvalues not converged
     c_bands:  1 eigenvalues not converged
     c_bands:  1 eigenvalues not converged
     c_bands:  1 eigenvalues not converged
     ethr =  1.26E-06,  avg # of iterations =  5.3

     total cpu time spent up to now is      134.8 secs

     total energy              =   -1665.51672192 Ry
     estimated scf accuracy    <       0.00127267 Ry

     total magnetization       =     2.31 Bohr mag/cell
     absolute magnetization    =     2.35 Bohr mag/cell
[tb_dev] Currently allocated     1.68E-04 Mbytes, locked:    0 /   2
[tb_pin] Currently allocated     0.00E+00 Mbytes, locked:    0 /   0

     iteration # 18     ecut=    60.00 Ry     beta= 0.30
     Davidson diagonalization with overlap

---- Real-time Memory Report at c_bands before calling an iterative solver
          2071 MiB given to the printing process from OS
             0 MiB allocation reported by mallinfo(arena+hblkhd)
       1351109 MiB available memory on the node where the printing process lives
     GPU memory used/free/total (MiB): 2124 / 79026 / 81151
------------------
     ethr =  9.94E-07,  avg # of iterations =  2.1

     total cpu time spent up to now is      140.4 secs

     total energy              =   -1665.51684463 Ry
     estimated scf accuracy    <       0.00057910 Ry

     total magnetization       =     2.30 Bohr mag/cell
     absolute magnetization    =     2.34 Bohr mag/cell
[tb_dev] Currently allocated     1.68E-04 Mbytes, locked:    0 /   2
[tb_pin] Currently allocated     0.00E+00 Mbytes, locked:    0 /   0

     iteration # 19     ecut=    60.00 Ry     beta= 0.30
     Davidson diagonalization with overlap

---- Real-time Memory Report at c_bands before calling an iterative solver
          2071 MiB given to the printing process from OS
             0 MiB allocation reported by mallinfo(arena+hblkhd)
       1346585 MiB available memory on the node where the printing process lives
     GPU memory used/free/total (MiB): 2124 / 79026 / 81151
------------------
     ethr =  4.52E-07,  avg # of iterations =  5.5

     total cpu time spent up to now is      147.8 secs

     total energy              =   -1665.51700831 Ry
     estimated scf accuracy    <       0.00035057 Ry

     total magnetization       =     2.31 Bohr mag/cell
     absolute magnetization    =     2.35 Bohr mag/cell
[tb_dev] Currently allocated     1.68E-04 Mbytes, locked:    0 /   2
[tb_pin] Currently allocated     0.00E+00 Mbytes, locked:    0 /   0

     iteration # 20     ecut=    60.00 Ry     beta= 0.30
     Davidson diagonalization with overlap

---- Real-time Memory Report at c_bands before calling an iterative solver
          2071 MiB given to the printing process from OS
             0 MiB allocation reported by mallinfo(arena+hblkhd)
       1339044 MiB available memory on the node where the printing process lives
     GPU memory used/free/total (MiB): 2124 / 79026 / 81151
------------------
     c_bands:  1 eigenvalues not converged
     c_bands:  1 eigenvalues not converged
     ethr =  2.74E-07,  avg # of iterations =  6.4

     total cpu time spent up to now is      155.7 secs

     total energy              =   -1665.51699504 Ry
     estimated scf accuracy    <       0.00033704 Ry

     total magnetization       =     2.30 Bohr mag/cell
     absolute magnetization    =     2.35 Bohr mag/cell
[tb_dev] Currently allocated     1.68E-04 Mbytes, locked:    0 /   2
[tb_pin] Currently allocated     0.00E+00 Mbytes, locked:    0 /   0

     iteration # 21     ecut=    60.00 Ry     beta= 0.30
     Davidson diagonalization with overlap

---- Real-time Memory Report at c_bands before calling an iterative solver
          2071 MiB given to the printing process from OS
             0 MiB allocation reported by mallinfo(arena+hblkhd)
       1346960 MiB available memory on the node where the printing process lives
     GPU memory used/free/total (MiB): 2124 / 79026 / 81151
------------------
     ethr =  2.63E-07,  avg # of iterations =  2.1

     total cpu time spent up to now is      161.4 secs

     total energy              =   -1665.51702664 Ry
     estimated scf accuracy    <       0.00007119 Ry

     total magnetization       =     2.30 Bohr mag/cell
     absolute magnetization    =     2.35 Bohr mag/cell
[tb_dev] Currently allocated     1.68E-04 Mbytes, locked:    0 /   2
[tb_pin] Currently allocated     0.00E+00 Mbytes, locked:    0 /   0

     iteration # 22     ecut=    60.00 Ry     beta= 0.30
     Davidson diagonalization with overlap

---- Real-time Memory Report at c_bands before calling an iterative solver
          2071 MiB given to the printing process from OS
             0 MiB allocation reported by mallinfo(arena+hblkhd)
       1342359 MiB available memory on the node where the printing process lives
     GPU memory used/free/total (MiB): 2124 / 79026 / 81151
------------------
     ethr =  5.56E-08,  avg # of iterations =  6.0

     total cpu time spent up to now is      169.6 secs

     total energy              =   -1665.51704134 Ry
     estimated scf accuracy    <       0.00014361 Ry

     total magnetization       =     2.30 Bohr mag/cell
     absolute magnetization    =     2.34 Bohr mag/cell
[tb_dev] Currently allocated     1.68E-04 Mbytes, locked:    0 /   2
[tb_pin] Currently allocated     0.00E+00 Mbytes, locked:    0 /   0

     iteration # 23     ecut=    60.00 Ry     beta= 0.30
     Davidson diagonalization with overlap

---- Real-time Memory Report at c_bands before calling an iterative solver
          2071 MiB given to the printing process from OS
             0 MiB allocation reported by mallinfo(arena+hblkhd)
       1329918 MiB available memory on the node where the printing process lives
     GPU memory used/free/total (MiB): 2124 / 79026 / 81151
------------------
     ethr =  5.56E-08,  avg # of iterations =  2.4

     total cpu time spent up to now is      175.5 secs

     total energy              =   -1665.51704621 Ry
     estimated scf accuracy    <       0.00002860 Ry

     total magnetization       =     2.30 Bohr mag/cell
     absolute magnetization    =     2.34 Bohr mag/cell
[tb_dev] Currently allocated     1.68E-04 Mbytes, locked:    0 /   2
[tb_pin] Currently allocated     0.00E+00 Mbytes, locked:    0 /   0

     iteration # 24     ecut=    60.00 Ry     beta= 0.30
     Davidson diagonalization with overlap

---- Real-time Memory Report at c_bands before calling an iterative solver
          2071 MiB given to the printing process from OS
             0 MiB allocation reported by mallinfo(arena+hblkhd)
       1344819 MiB available memory on the node where the printing process lives
     GPU memory used/free/total (MiB): 2124 / 79026 / 81151
------------------
     ethr =  2.23E-08,  avg # of iterations =  4.1

     total cpu time spent up to now is      182.5 secs

     total energy              =   -1665.51705470 Ry
     estimated scf accuracy    <       0.00001599 Ry

     total magnetization       =     2.30 Bohr mag/cell
     absolute magnetization    =     2.34 Bohr mag/cell
[tb_dev] Currently allocated     1.68E-04 Mbytes, locked:    0 /   2
[tb_pin] Currently allocated     0.00E+00 Mbytes, locked:    0 /   0

     iteration # 25     ecut=    60.00 Ry     beta= 0.30
     Davidson diagonalization with overlap

---- Real-time Memory Report at c_bands before calling an iterative solver
          2071 MiB given to the printing process from OS
             0 MiB allocation reported by mallinfo(arena+hblkhd)
       1340216 MiB available memory on the node where the printing process lives
     GPU memory used/free/total (MiB): 2124 / 79026 / 81151
------------------
     ethr =  1.25E-08,  avg # of iterations =  3.8

     total cpu time spent up to now is      188.9 secs

     total energy              =   -1665.51705688 Ry
     estimated scf accuracy    <       0.00000644 Ry

     total magnetization       =     2.30 Bohr mag/cell
     absolute magnetization    =     2.34 Bohr mag/cell
[tb_dev] Currently allocated     1.68E-04 Mbytes, locked:    0 /   2
[tb_pin] Currently allocated     0.00E+00 Mbytes, locked:    0 /   0

     iteration # 26     ecut=    60.00 Ry     beta= 0.30
     Davidson diagonalization with overlap

---- Real-time Memory Report at c_bands before calling an iterative solver
          2071 MiB given to the printing process from OS
             0 MiB allocation reported by mallinfo(arena+hblkhd)
       1350186 MiB available memory on the node where the printing process lives
     GPU memory used/free/total (MiB): 2124 / 79026 / 81151
------------------
     ethr =  5.03E-09,  avg # of iterations =  4.8

     total cpu time spent up to now is      195.9 secs

     total energy              =   -1665.51705678 Ry
     estimated scf accuracy    <       0.00000871 Ry

     total magnetization       =     2.30 Bohr mag/cell
     absolute magnetization    =     2.34 Bohr mag/cell
[tb_dev] Currently allocated     1.68E-04 Mbytes, locked:    0 /   2
[tb_pin] Currently allocated     0.00E+00 Mbytes, locked:    0 /   0

     iteration # 27     ecut=    60.00 Ry     beta= 0.30
     Davidson diagonalization with overlap

---- Real-time Memory Report at c_bands before calling an iterative solver
          2071 MiB given to the printing process from OS
             0 MiB allocation reported by mallinfo(arena+hblkhd)
       1343641 MiB available memory on the node where the printing process lives
     GPU memory used/free/total (MiB): 2124 / 79026 / 81151
------------------
     ethr =  5.03E-09,  avg # of iterations =  1.9

     total cpu time spent up to now is      201.3 secs

     total energy              =   -1665.51705576 Ry
     estimated scf accuracy    <       0.00000371 Ry

     total magnetization       =     2.30 Bohr mag/cell
     absolute magnetization    =     2.34 Bohr mag/cell
[tb_dev] Currently allocated     1.68E-04 Mbytes, locked:    0 /   2
[tb_pin] Currently allocated     0.00E+00 Mbytes, locked:    0 /   0

     iteration # 28     ecut=    60.00 Ry     beta= 0.30
     Davidson diagonalization with overlap

---- Real-time Memory Report at c_bands before calling an iterative solver
          2071 MiB given to the printing process from OS
             0 MiB allocation reported by mallinfo(arena+hblkhd)
       1338404 MiB available memory on the node where the printing process lives
     GPU memory used/free/total (MiB): 2124 / 79026 / 81151
------------------
     ethr =  2.90E-09,  avg # of iterations =  3.1

     total cpu time spent up to now is      207.5 secs

     total energy              =   -1665.51705660 Ry
     estimated scf accuracy    <       0.00000060 Ry

     total magnetization       =     2.30 Bohr mag/cell
     absolute magnetization    =     2.34 Bohr mag/cell
[tb_dev] Currently allocated     1.68E-04 Mbytes, locked:    0 /   2
[tb_pin] Currently allocated     0.00E+00 Mbytes, locked:    0 /   0

     iteration # 29     ecut=    60.00 Ry     beta= 0.30
     Davidson diagonalization with overlap

---- Real-time Memory Report at c_bands before calling an iterative solver
          2071 MiB given to the printing process from OS
             0 MiB allocation reported by mallinfo(arena+hblkhd)
       1347607 MiB available memory on the node where the printing process lives
     GPU memory used/free/total (MiB): 2124 / 79026 / 81151
------------------
     ethr =  4.72E-10,  avg # of iterations =  7.7

     total cpu time spent up to now is      216.0 secs

     total energy              =   -1665.51705689 Ry
     estimated scf accuracy    <       0.00000036 Ry

     total magnetization       =     2.30 Bohr mag/cell
     absolute magnetization    =     2.34 Bohr mag/cell
[tb_dev] Currently allocated     1.68E-04 Mbytes, locked:    0 /   2
[tb_pin] Currently allocated     0.00E+00 Mbytes, locked:    0 /   0

     iteration # 30     ecut=    60.00 Ry     beta= 0.30
     Davidson diagonalization with overlap

---- Real-time Memory Report at c_bands before calling an iterative solver
          2071 MiB given to the printing process from OS
             0 MiB allocation reported by mallinfo(arena+hblkhd)
       1340559 MiB available memory on the node where the printing process lives
     GPU memory used/free/total (MiB): 2124 / 79026 / 81151
------------------
     ethr =  2.82E-10,  avg # of iterations =  2.1

     total cpu time spent up to now is      221.8 secs

     total energy              =   -1665.51705691 Ry
     estimated scf accuracy    <       0.00000020 Ry

     total magnetization       =     2.30 Bohr mag/cell
     absolute magnetization    =     2.34 Bohr mag/cell
[tb_dev] Currently allocated     1.68E-04 Mbytes, locked:    0 /   2
[tb_pin] Currently allocated     0.00E+00 Mbytes, locked:    0 /   0

     iteration # 31     ecut=    60.00 Ry     beta= 0.30
     Davidson diagonalization with overlap

---- Real-time Memory Report at c_bands before calling an iterative solver
          2071 MiB given to the printing process from OS
             0 MiB allocation reported by mallinfo(arena+hblkhd)
       1334471 MiB available memory on the node where the printing process lives
     GPU memory used/free/total (MiB): 2124 / 79026 / 81151
------------------
     ethr =  1.58E-10,  avg # of iterations =  5.0

     total cpu time spent up to now is      229.1 secs

     total energy              =   -1665.51705693 Ry
     estimated scf accuracy    <       0.00000014 Ry

     total magnetization       =     2.30 Bohr mag/cell
     absolute magnetization    =     2.34 Bohr mag/cell
[tb_dev] Currently allocated     1.68E-04 Mbytes, locked:    0 /   2
[tb_pin] Currently allocated     0.00E+00 Mbytes, locked:    0 /   0

     iteration # 32     ecut=    60.00 Ry     beta= 0.30
     Davidson diagonalization with overlap

---- Real-time Memory Report at c_bands before calling an iterative solver
          2071 MiB given to the printing process from OS
             0 MiB allocation reported by mallinfo(arena+hblkhd)
       1345775 MiB available memory on the node where the printing process lives
     GPU memory used/free/total (MiB): 2124 / 79026 / 81151
------------------
     ethr =  1.10E-10,  avg # of iterations =  2.4
 
     Magnetic moment per site  (integrated on atomic sphere of radius R)
     atom   1 (R=0.159)  charge= 14.0974  magn=  0.5954
     atom   2 (R=0.159)  charge= 14.1001  magn=  0.5902
     atom   3 (R=0.159)  charge= 14.0991  magn=  0.5891
     atom   4 (R=0.079)  charge=  1.8585  magn=  0.0272
     atom   5 (R=0.079)  charge=  1.8585  magn=  0.0258
     atom   6 (R=0.079)  charge=  1.8591  magn=  0.0256
     atom   7 (R=0.079)  charge=  1.8592  magn=  0.0236
     atom   8 (R=0.079)  charge=  1.8593  magn=  0.0254
     atom   9 (R=0.079)  charge=  1.8589  magn=  0.0249
     atom  10 (R=0.185)  charge=  7.8852  magn=  0.0001
     atom  11 (R=0.079)  charge=  1.9175  magn=  0.0005
     atom  12 (R=0.079)  charge=  0.3955  magn=  0.0000
     atom  13 (R=0.079)  charge=  0.3895  magn=  0.0000
     atom  14 (R=0.079)  charge=  1.9158  magn=  0.0006
     atom  15 (R=0.079)  charge=  0.4000  magn=  0.0000
     atom  16 (R=0.079)  charge=  0.3892  magn=  0.0000
     atom  17 (R=0.079)  charge=  1.9105  magn=  0.0005
     atom  18 (R=0.079)  charge=  0.4029  magn=  0.0000
     atom  19 (R=0.079)  charge=  0.3908  magn=  0.0000
     atom  20 (R=0.079)  charge=  1.9130  magn=  0.0005
     atom  21 (R=0.079)  charge=  0.4002  magn=  0.0000
     atom  22 (R=0.079)  charge=  0.3919  magn=  0.0000

     total cpu time spent up to now is      235.0 secs

     End of self-consistent calculation

 ------ SPIN UP ------------


          k = 0.0000 0.0000 0.0000 ( 11393 PWs)   bands (ev):

   -91.5206 -91.5115 -91.5081 -54.7647 -54.7607 -54.7563 -54.7560 -54.7468
   -54.7364 -54.7319 -54.7189 -54.7185 -48.0261 -19.9804 -19.9630 -19.9091
   -17.7821 -17.1951 -17.1550 -16.6790 -15.0193 -13.3562 -13.3505 -13.3345
   -13.3250 -13.1230  -5.5287  -5.3989  -4.6683  -4.5534  -1.8551  -1.7089
    -1.5520  -1.2818  -1.1373  -1.1038  -1.0728  -1.0529  -1.0359  -0.8224
    -0.8183  -0.6972  -0.6769   0.3834   0.7364   0.8593   0.9098   0.9152
     0.9511   0.9604   1.2851   1.2887   1.4908   2.3130   2.6617   2.6659
     2.6950   2.6971   2.8595   2.8679   3.7421   3.7455   3.7509   3.7579
     3.9138   5.8225   5.8392   5.8486   5.8594   6.4606   6.5880   6.5929
     8.7245  10.5171  11.3977  11.4471  12.7329  12.8920  13.3377  13.4432
    13.8008  14.1663  14.5576  14.7836  15.2510

     occupation numbers 
     1.0000   1.0000   1.0000   1.0000   1.0000   1.0000   1.0000   1.0000
     1.0000   1.0000   1.0000   1.0000   1.0000   1.0000   1.0000   1.0000
     1.0000   1.0000   1.0000   1.0000   1.0000   1.0000   1.0000   1.0000
     1.0000   1.0000   1.0000   1.0000   1.0000   1.0000   1.0000   1.0000
     1.0000   1.0000   1.0000   1.0000   1.0000   1.0000   1.0000   1.0000
     1.0000   1.0000   1.0000   1.0000   1.0000   1.0000   1.0000   1.0000
     1.0000   1.0000   1.0000   1.0000   1.0000   1.0000   1.0000   1.0000
     1.0000   1.0000   1.0000   1.0000   1.0197   1.0205   1.0216   1.0232
     1.0718   0.0000   0.0000   0.0000   0.0000   0.0000   0.0000   0.0000
     0.0000   0.0000   0.0000   0.0000   0.0000   0.0000   0.0000   0.0000
     0.0000   0.0000   0.0000   0.0000   0.0000

          k = 0.0000 0.0000-0.2526 ( 11446 PWs)   bands (ev):

   -91.5206 -91.5115 -91.5081 -54.7647 -54.7608 -54.7563 -54.7560 -54.7469
   -54.7365 -54.7320 -54.7190 -54.7186 -48.0262 -19.9806 -19.9631 -19.9093
   -17.7818 -17.1957 -17.1550 -16.6790 -15.0184 -13.3562 -13.3505 -13.3345
   -13.3250 -13.1240  -5.5226  -5.3908  -4.6850  -4.5537  -1.8461  -1.6752
    -1.5678  -1.4653  -1.1097  -1.0905  -1.0633  -1.0439  -0.9264  -0.8226
    -0.8184  -0.6867  -0.6675   0.4050   0.7442   0.8307   0.9033   0.9112
     0.9376   0.9545   1.2876   1.3268   1.4913   2.2302   2.6616   2.6653
     2.6949   2.6971   2.8595   2.8679   3.7426   3.7464   3.7506   3.7575
     3.9336   5.8209   5.8397   5.8481   5.8590   6.5852   6.5917   6.6043
     8.4496  10.8118  11.1098  11.8297  12.4236  12.9474  13.3688  13.4802
    13.7809  14.1425  14.3963  14.9798  15.1986

     occupation numbers 
     1.0000   1.0000   1.0000   1.0000   1.0000   1.0000   1.0000   1.0000
     1.0000   1.0000   1.0000   1.0000   1.0000   1.0000   1.0000   1.0000
     1.0000   1.0000   1.0000   1.0000   1.0000   1.0000   1.0000   1.0000
     1.0000   1.0000   1.0000   1.0000   1.0000   1.0000   1.0000   1.0000
     1.0000   1.0000   1.0000   1.0000   1.0000   1.0000   1.0000   1.0000
     1.0000   1.0000   1.0000   1.0000   1.0000   1.0000   1.0000   1.0000
     1.0000   1.0000   1.0000   1.0000   1.0000   1.0000   1.0000   1.0000
     1.0000   1.0000   1.0000   1.0000   1.0198   1.0206   1.0216   1.0231
     1.0771   0.0000   0.0000   0.0000   0.0000   0.0000   0.0000   0.0000
     0.0000   0.0000   0.0000   0.0000   0.0000   0.0000   0.0000   0.0000
     0.0000   0.0000   0.0000   0.0000   0.0000

          k = 0.0000 0.1925 0.0000 ( 11360 PWs)   bands (ev):

   -91.5204 -91.5115 -91.5083 -54.7696 -54.7647 -54.7521 -54.7473 -54.7445
   -54.7363 -54.7322 -54.7236 -54.7196 -48.0261 -19.9813 -19.9637 -19.9089
   -17.7410 -17.2012 -17.1629 -16.7121 -14.9163 -13.4934 -13.4066 -13.3295
   -13.2707 -13.1252  -5.6238  -5.3017  -4.6975  -4.5019  -1.8888  -1.7142
    -1.5712  -1.4323  -1.3163  -1.2298  -1.0724  -1.0276  -0.9555  -0.8901
    -0.7547  -0.3175  -0.1383   0.2400   0.6217   0.6423   0.7413   0.8627
     0.8936   0.9651   1.4004   1.6104   1.6859   2.0239   2.1258   2.5445
     2.7438   2.8115   3.0919   3.2923   3.4961   3.5084   3.8384   3.9065
     3.9694   5.8255   5.8710   5.8880   5.9419   6.3065   6.5085   6.8022
     8.9966  10.5142  11.3346  11.5343  12.2211  12.6576  12.9683  13.3495
    13.6817  14.3261  14.7010  14.8999  15.1625

     occupation numbers 
     1.0000   1.0000   1.0000   1.0000   1.0000   1.0000   1.0000   1.0000
     1.0000   1.0000   1.0000   1.0000   1.0000   1.0000   1.0000   1.0000
     1.0000   1.0000   1.0000   1.0000   1.0000   1.0000   1.0000   1.0000
     1.0000   1.0000   1.0000   1.0000   1.0000   1.0000   1.0000   1.0000
     1.0000   1.0000   1.0000   1.0000   1.0000   1.0000   1.0000   1.0000
     1.0000   1.0000   1.0000   1.0000   1.0000   1.0000   1.0000   1.0000
     1.0000   1.0000   1.0000   1.0000   1.0000   1.0000   1.0000   1.0000
     1.0000   1.0000   1.0000   1.0000   1.0006   1.0007   1.0466   1.0696
     1.0829   0.0000   0.0000   0.0000   0.0000   0.0000   0.0000   0.0000
     0.0000   0.0000   0.0000   0.0000   0.0000   0.0000   0.0000   0.0000
     0.0000   0.0000   0.0000   0.0000   0.0000

          k = 0.0000 0.1925-0.2526 ( 11384 PWs)   bands (ev):

   -91.5204 -91.5115 -91.5083 -54.7696 -54.7647 -54.7522 -54.7473 -54.7445
   -54.7363 -54.7322 -54.7237 -54.7196 -48.0261 -19.9813 -19.9638 -19.9089
   -17.7407 -17.2012 -17.1634 -16.7122 -14.9155 -13.4934 -13.4066 -13.3295
   -13.2707 -13.1260  -5.6198  -5.2942  -4.7078  -4.5055  -1.8742  -1.6955
    -1.5970  -1.4844  -1.3549  -1.2489  -1.0618  -0.9655  -0.9194  -0.8782
    -0.7548  -0.3118  -0.1412   0.2636   0.5854   0.6351   0.7595   0.8688
     0.9059   0.9572   1.3886   1.6101   1.6873   2.0252   2.1209   2.5009
     2.7438   2.8115   3.0920   3.2909   3.4959   3.5085   3.8392   3.9070
     3.9864   5.8246   5.8705   5.8888   5.9405   6.2811   6.5152   6.9342
     8.7497  10.7929  11.0269  11.8746  12.2068  12.6003  12.9767  13.3077
    13.6530  14.2329  14.6748  14.8846  15.2407

     occupation numbers 
     1.0000   1.0000   1.0000   1.0000   1.0000   1.0000   1.0000   1.0000
     1.0000   1.0000   1.0000   1.0000   1.0000   1.0000   1.0000   1.0000
     1.0000   1.0000   1.0000   1.0000   1.0000   1.0000   1.0000   1.0000
     1.0000   1.0000   1.0000   1.0000   1.0000   1.0000   1.0000   1.0000
     1.0000   1.0000   1.0000   1.0000   1.0000   1.0000   1.0000   1.0000
     1.0000   1.0000   1.0000   1.0000   1.0000   1.0000   1.0000   1.0000
     1.0000   1.0000   1.0000   1.0000   1.0000   1.0000   1.0000   1.0000
     1.0000   1.0000   1.0000   1.0000   1.0006   1.0007   1.0469   1.0697
     1.0832   0.0000   0.0000   0.0000   0.0000   0.0000   0.0000   0.0000
     0.0000   0.0000   0.0000   0.0000   0.0000   0.0000   0.0000   0.0000
     0.0000   0.0000   0.0000   0.0000   0.0000

          k = 0.0000 0.3849 0.0000 ( 11350 PWs)   bands (ev):

   -91.5200 -91.5114 -91.5087 -54.7749 -54.7625 -54.7494 -54.7404 -54.7380
   -54.7355 -54.7343 -54.7323 -54.7227 -48.0261 -19.9833 -19.9649 -19.9084
   -17.6306 -17.3152 -17.0854 -16.7983 -14.6297 -13.8092 -13.4508 -13.3757
   -13.2079 -13.1353  -5.7242  -5.2070  -4.7141  -4.4317  -1.9934  -1.9201
    -1.6128  -1.4544  -1.3738  -1.0990  -1.0683  -1.0162  -0.7575  -0.7045
    -0.5932  -0.1085  -0.0029   0.2111   0.4340   0.5168   0.5957   0.9084
     1.0003   1.0201   1.0980   1.3903   1.5020   1.8903   2.2486   2.8372
     2.8449   3.1636   3.2325   3.2412   3.2773   3.6540   3.6918   3.9521
     3.9606   5.8112   5.8197   5.8696   5.8868   6.2662   6.2887   7.5827
     9.5865  10.1063  11.3356  11.4908  11.7766  12.1919  12.6799  12.9717
    13.5221  14.2608  14.5518  14.8375  15.2139

     occupation numbers 
     1.0000   1.0000   1.0000   1.0000   1.0000   1.0000   1.0000   1.0000
     1.0000   1.0000   1.0000   1.0000   1.0000   1.0000   1.0000   1.0000
     1.0000   1.0000   1.0000   1.0000   1.0000   1.0000   1.0000   1.0000
     1.0000   1.0000   1.0000   1.0000   1.0000   1.0000   1.0000   1.0000
     1.0000   1.0000   1.0000   1.0000   1.0000   1.0000   1.0000   1.0000
     1.0000   1.0000   1.0000   1.0000   1.0000   1.0000   1.0000   1.0000
     1.0000   1.0000   1.0000   1.0000   1.0000   1.0000   1.0000   1.0000
     1.0000   1.0000   1.0000   1.0000   1.0000   1.0069   1.0112   1.0808
     1.0820   0.0000   0.0000   0.0000   0.0000   0.0000   0.0000   0.0000
     0.0000   0.0000   0.0000   0.0000   0.0000   0.0000   0.0000   0.0000
     0.0000   0.0000   0.0000   0.0000   0.0000

          k = 0.0000 0.3849-0.2526 ( 11352 PWs)   bands (ev):

   -91.5200 -91.5114 -91.5087 -54.7749 -54.7625 -54.7494 -54.7404 -54.7381
   -54.7356 -54.7343 -54.7323 -54.7227 -48.0261 -19.9833 -19.9649 -19.9085
   -17.6304 -17.3152 -17.0857 -16.7984 -14.6292 -13.8092 -13.4508 -13.3757
   -13.2079 -13.1358  -5.7225  -5.2034  -4.7165  -4.4359  -1.9929  -1.9158
    -1.6157  -1.5035  -1.3201  -1.1004  -1.0681  -1.0491  -0.7247  -0.7045
    -0.5935  -0.1094   0.0007   0.2005   0.4661   0.5299   0.5798   0.8917
     0.9977   1.0174   1.1168   1.3752   1.5013   1.8845   2.2483   2.8338
     2.8396   3.1636   3.2322   3.2413   3.2771   3.6512   3.6929   3.9570
     3.9630   5.7957   5.8202   5.8693   5.8853   6.2659   6.2963   7.6453
     9.4462  10.1460  11.2882  11.4821  11.8371  12.3976  12.6728  13.0005
    13.4285  14.1887  14.4908  14.7620  15.3037

     occupation numbers 
     1.0000   1.0000   1.0000   1.0000   1.0000   1.0000   1.0000   1.0000
     1.0000   1.0000   1.0000   1.0000   1.0000   1.0000   1.0000   1.0000
     1.0000   1.0000   1.0000   1.0000   1.0000   1.0000   1.0000   1.0000
     1.0000   1.0000   1.0000   1.0000   1.0000   1.0000   1.0000   1.0000
     1.0000   1.0000   1.0000   1.0000   1.0000   1.0000   1.0000   1.0000
     1.0000   1.0000   1.0000   1.0000   1.0000   1.0000   1.0000   1.0000
     1.0000   1.0000   1.0000   1.0000   1.0000   1.0000   1.0000   1.0000
     1.0000   1.0000   1.0000   1.0000   1.0000   1.0067   1.0113   1.0815
     1.0823   0.0000   0.0000   0.0000   0.0000   0.0000   0.0000   0.0000
     0.0000   0.0000   0.0000   0.0000   0.0000   0.0000   0.0000   0.0000
     0.0000   0.0000   0.0000   0.0000   0.0000

          k = 0.0000-0.5774 0.0000 ( 11352 PWs)   bands (ev):

   -91.5199 -91.5113 -91.5090 -54.7769 -54.7543 -54.7498 -54.7483 -54.7362
   -54.7351 -54.7327 -54.7311 -54.7257 -48.0261 -19.9844 -19.9653 -19.9082
   -17.5090 -17.4389 -17.0165 -16.8711 -14.2285 -14.2233 -13.4669 -13.4008
   -13.1640 -13.1589  -5.7621  -5.1772  -4.7119  -4.4021  -2.1206  -1.9563
    -1.6088  -1.4598  -1.3871  -1.0971  -1.0580  -0.6997  -0.6754  -0.4563
    -0.3275  -0.3168  -0.1803   0.0048   0.3608   0.3748   0.5493   0.8782
     0.9376   0.9388   1.1311   1.3741   1.4168   1.9916   2.7447   2.7653
     2.8409   3.1138   3.1884   3.1918   3.5469   3.6915   3.7028   3.8637
     3.8797   5.6645   5.6736   5.8803   6.0130   6.0488   6.4670   8.1372
     9.5262  10.1868  11.1452  11.2321  11.7363  12.2285  12.4341  12.9922
    13.3715  14.1314  14.4365  14.6495  15.2169

     occupation numbers 
     1.0000   1.0000   1.0000   1.0000   1.0000   1.0000   1.0000   1.0000
     1.0000   1.0000   1.0000   1.0000   1.0000   1.0000   1.0000   1.0000
     1.0000   1.0000   1.0000   1.0000   1.0000   1.0000   1.0000   1.0000
     1.0000   1.0000   1.0000   1.0000   1.0000   1.0000   1.0000   1.0000
     1.0000   1.0000   1.0000   1.0000   1.0000   1.0000   1.0000   1.0000
     1.0000   1.0000   1.0000   1.0000   1.0000   1.0000   1.0000   1.0000
     1.0000   1.0000   1.0000   1.0000   1.0000   1.0000   1.0000   1.0000
     1.0000   1.0000   1.0000   1.0000   1.0014   1.0111   1.0127   1.0553
     1.0608   0.0000   0.0000   0.0000   0.0000   0.0000   0.0000   0.0000
     0.0000   0.0000   0.0000   0.0000   0.0000   0.0000   0.0000   0.0000
     0.0000   0.0000   0.0000   0.0000   0.0000

          k = 0.0000-0.5774-0.2526 ( 11344 PWs)   bands (ev):

   -91.5199 -91.5113 -91.5090 -54.7768 -54.7543 -54.7498 -54.7483 -54.7363
   -54.7351 -54.7327 -54.7311 -54.7256 -48.0261 -19.9844 -19.9653 -19.9082
   -17.5090 -17.4388 -17.0167 -16.8712 -14.2283 -14.2230 -13.4669 -13.4008
   -13.1642 -13.1591  -5.7612  -5.1762  -4.7106  -4.4061  -2.1206  -1.9635
    -1.5684  -1.5288  -1.3273  -1.1079  -1.0738  -0.6953  -0.6736  -0.4741
    -0.3259  -0.3124  -0.1799  -0.0070   0.3821   0.3939   0.5752   0.8254
     0.9372   0.9513   1.1447   1.3550   1.4194   1.9854   2.7471   2.7661
     2.8417   3.1138   3.1885   3.1917   3.5479   3.6914   3.7032   3.8629
     3.8784   5.6598   5.6689   5.8781   6.0161   6.0528   6.4670   8.1483
     9.5549  10.1457  11.1137  11.2309  11.6721  12.2986  12.5094  13.0886
    13.3734  14.1962  14.3340  14.4811  15.2090

     occupation numbers 
     1.0000   1.0000   1.0000   1.0000   1.0000   1.0000   1.0000   1.0000
     1.0000   1.0000   1.0000   1.0000   1.0000   1.0000   1.0000   1.0000
     1.0000   1.0000   1.0000   1.0000   1.0000   1.0000   1.0000   1.0000
     1.0000   1.0000   1.0000   1.0000   1.0000   1.0000   1.0000   1.0000
     1.0000   1.0000   1.0000   1.0000   1.0000   1.0000   1.0000   1.0000
     1.0000   1.0000   1.0000   1.0000   1.0000   1.0000   1.0000   1.0000
     1.0000   1.0000   1.0000   1.0000   1.0000   1.0000   1.0000   1.0000
     1.0000   1.0000   1.0000   1.0000   1.0014   1.0111   1.0128   1.0550
     1.0604   0.0000   0.0000   0.0000   0.0000   0.0000   0.0000   0.0000
     0.0000   0.0000   0.0000   0.0000   0.0000   0.0000   0.0000   0.0000
     0.0000   0.0000   0.0000   0.0000   0.0000

          k = 0.1667 0.2887 0.0000 ( 11373 PWs)   bands (ev):

   -91.5201 -91.5114 -91.5086 -54.7712 -54.7671 -54.7497 -54.7414 -54.7394
   -54.7358 -54.7338 -54.7303 -54.7216 -48.0261 -19.9816 -19.9642 -19.9097
   -17.6539 -17.2930 -17.0959 -16.7868 -14.7213 -13.6109 -13.6023 -13.2671
   -13.2592 -13.1313  -5.7274  -5.1873  -4.6765  -4.4868  -1.8709  -1.7805
    -1.5951  -1.5421  -1.4418  -1.3650  -1.0316  -0.8848  -0.8638  -0.8375
    -0.6263  -0.0058   0.0315   0.2254   0.5325   0.5795   0.7210   0.7401
     0.9206   1.0786   1.1788   1.2652   1.8343   1.9316   1.9578   2.7192
     2.9700   2.9733   3.2028   3.3136   3.3179   3.5269   3.8519   3.8550
     3.9828   5.8094   5.8292   5.8613   6.0543   6.0719   6.4401   7.3656
     9.3730  10.4284  11.0360  11.4349  11.9679  12.4163  12.6841  13.0882
    13.8581  14.0959  14.3960  15.0052  15.2116

     occupation numbers 
     1.0000   1.0000   1.0000   1.0000   1.0000   1.0000   1.0000   1.0000
     1.0000   1.0000   1.0000   1.0000   1.0000   1.0000   1.0000   1.0000
     1.0000   1.0000   1.0000   1.0000   1.0000   1.0000   1.0000   1.0000
     1.0000   1.0000   1.0000   1.0000   1.0000   1.0000   1.0000   1.0000
     1.0000   1.0000   1.0000   1.0000   1.0000   1.0000   1.0000   1.0000
     1.0000   1.0000   1.0000   1.0000   1.0000   1.0000   1.0000   1.0000
     1.0000   1.0000   1.0000   1.0000   1.0000   1.0000   1.0000   1.0000
     1.0000   1.0000   1.0000   1.0000   1.0000   1.0010   1.0512   1.0523
     1.0833   0.0000   0.0000   0.0000   0.0000   0.0000   0.0000   0.0000
     0.0000   0.0000   0.0000   0.0000   0.0000   0.0000   0.0000   0.0000
     0.0000   0.0000   0.0000   0.0000   0.0000

          k = 0.1667 0.2887-0.2526 ( 11348 PWs)   bands (ev):

   -91.5201 -91.5114 -91.5086 -54.7711 -54.7670 -54.7497 -54.7413 -54.7394
   -54.7357 -54.7338 -54.7303 -54.7216 -48.0261 -19.9815 -19.9641 -19.9097
   -17.6537 -17.2930 -17.0962 -16.7868 -14.7208 -13.6109 -13.6023 -13.2671
   -13.2592 -13.1319  -5.7256  -5.1825  -4.6818  -4.4888  -1.8423  -1.7700
    -1.6460  -1.6086  -1.4358  -1.3002  -1.0449  -0.8907  -0.8747  -0.7904
    -0.6264  -0.0032   0.0303   0.2255   0.5384   0.5874   0.7165   0.7451
     0.9260   1.0663   1.1971   1.2354   1.8343   1.9295   1.9565   2.7068
     2.9699   2.9733   3.1980   3.3136   3.3178   3.5270   3.8532   3.8563
     3.9915   5.8090   5.8228   5.8507   6.0546   6.0722   6.4400   7.4566
     9.2053  10.4340  11.0018  11.7029  11.8652  12.4057  12.8922  13.0442
    13.7801  13.8952  14.4060  15.0153  15.1567

     occupation numbers 
     1.0000   1.0000   1.0000   1.0000   1.0000   1.0000   1.0000   1.0000
     1.0000   1.0000   1.0000   1.0000   1.0000   1.0000   1.0000   1.0000
     1.0000   1.0000   1.0000   1.0000   1.0000   1.0000   1.0000   1.0000
     1.0000   1.0000   1.0000   1.0000   1.0000   1.0000   1.0000   1.0000
     1.0000   1.0000   1.0000   1.0000   1.0000   1.0000   1.0000   1.0000
     1.0000   1.0000   1.0000   1.0000   1.0000   1.0000   1.0000   1.0000
     1.0000   1.0000   1.0000   1.0000   1.0000   1.0000   1.0000   1.0000
     1.0000   1.0000   1.0000   1.0000   1.0000   1.0010   1.0517   1.0528
     1.0830   0.0000   0.0000   0.0000   0.0000   0.0000   0.0000   0.0000
     0.0000   0.0000   0.0000   0.0000   0.0000   0.0000   0.0000   0.0000
     0.0000   0.0000   0.0000   0.0000   0.0000

          k = 0.1667 0.4811 0.0000 ( 11356 PWs)   bands (ev):

   -91.5199 -91.5112 -91.5090 -54.7731 -54.7610 -54.7508 -54.7457 -54.7365
   -54.7352 -54.7322 -54.7314 -54.7244 -48.0261 -19.9839 -19.9650 -19.9090
   -17.5197 -17.4280 -17.0134 -16.8747 -14.3765 -13.9684 -13.6792 -13.2737
   -13.1946 -13.1513  -5.7652  -5.1590  -4.7040  -4.4304  -1.9920  -1.8953
    -1.6091  -1.5025  -1.4070  -1.1806  -1.1519  -0.7686  -0.6244  -0.5971
    -0.4316  -0.1697  -0.1419   0.0633   0.3218   0.3561   0.5332   0.8843
     0.9687   1.0885   1.2283   1.3627   1.4025   2.0654   2.4351   2.7729
     3.0088   3.2066   3.2210   3.2494   3.4196   3.6341   3.6618   3.8336
     3.8578   5.5366   5.6467   5.7871   6.1701   6.3120   6.3859   8.0613
     9.5557  10.2651  10.7557  11.4075  11.8596  12.0677  12.5979  12.9818
    13.5794  14.0282  14.2928  14.8086  15.3432

     occupation numbers 
     1.0000   1.0000   1.0000   1.0000   1.0000   1.0000   1.0000   1.0000
     1.0000   1.0000   1.0000   1.0000   1.0000   1.0000   1.0000   1.0000
     1.0000   1.0000   1.0000   1.0000   1.0000   1.0000   1.0000   1.0000
     1.0000   1.0000   1.0000   1.0000   1.0000   1.0000   1.0000   1.0000
     1.0000   1.0000   1.0000   1.0000   1.0000   1.0000   1.0000   1.0000
     1.0000   1.0000   1.0000   1.0000   1.0000   1.0000   1.0000   1.0000
     1.0000   1.0000   1.0000   1.0000   1.0000   1.0000   1.0000   1.0000
     1.0000   1.0000   1.0000   1.0000   1.0001   1.0053   1.0077   1.0450
     1.0533   0.0000   0.0000   0.0000   0.0000   0.0000   0.0000   0.0000
     0.0000   0.0000   0.0000   0.0000   0.0000   0.0000   0.0000   0.0000
     0.0000   0.0000   0.0000   0.0000   0.0000

          k = 0.1667 0.4811-0.2526 ( 11352 PWs)   bands (ev):

   -91.5199 -91.5112 -91.5090 -54.7731 -54.7611 -54.7508 -54.7456 -54.7365
   -54.7352 -54.7322 -54.7314 -54.7244 -48.0261 -19.9838 -19.9650 -19.9090
   -17.5196 -17.4279 -17.0136 -16.8747 -14.3761 -13.9683 -13.6792 -13.2737
   -13.1947 -13.1516  -5.7646  -5.1583  -4.7040  -4.4317  -1.9731  -1.9172
    -1.5949  -1.5575  -1.3643  -1.1710  -1.1505  -0.7767  -0.6389  -0.5927
    -0.4317  -0.1684  -0.1423   0.0501   0.3410   0.3706   0.5566   0.8620
     0.9667   1.0907   1.2218   1.3634   1.3941   2.0622   2.4362   2.7735
     3.0089   3.2065   3.2210   3.2486   3.4192   3.6356   3.6613   3.8343
     3.8596   5.5288   5.6450   5.7853   6.1708   6.3130   6.3859   8.0849
     9.5775  10.1953  10.7270  11.3790  11.9507  12.1314  12.6163  13.0201
    13.5591  13.8826  14.2177  15.1264  15.3174

     occupation numbers 
     1.0000   1.0000   1.0000   1.0000   1.0000   1.0000   1.0000   1.0000
     1.0000   1.0000   1.0000   1.0000   1.0000   1.0000   1.0000   1.0000
     1.0000   1.0000   1.0000   1.0000   1.0000   1.0000   1.0000   1.0000
     1.0000   1.0000   1.0000   1.0000   1.0000   1.0000   1.0000   1.0000
     1.0000   1.0000   1.0000   1.0000   1.0000   1.0000   1.0000   1.0000
     1.0000   1.0000   1.0000   1.0000   1.0000   1.0000   1.0000   1.0000
     1.0000   1.0000   1.0000   1.0000   1.0000   1.0000   1.0000   1.0000
     1.0000   1.0000   1.0000   1.0000   1.0001   1.0054   1.0076   1.0452
     1.0539   0.0000   0.0000   0.0000   0.0000   0.0000   0.0000   0.0000
     0.0000   0.0000   0.0000   0.0000   0.0000   0.0000   0.0000   0.0000
     0.0000   0.0000   0.0000   0.0000   0.0000

          k = 0.3333 0.5774 0.0000 ( 11370 PWs)   bands (ev):

   -91.5198 -91.5111 -91.5093 -54.7657 -54.7632 -54.7582 -54.7467 -54.7359
   -54.7353 -54.7312 -54.7291 -54.7251 -48.0261 -19.9862 -19.9645 -19.9091
   -17.5508 -17.3916 -17.0302 -16.8576 -14.0345 -14.0277 -14.0214 -13.1988
   -13.1915 -13.1882  -5.7350  -5.1604  -4.7352  -4.4756  -2.0879  -1.7529
    -1.6049  -1.4702  -1.4168  -1.2929  -1.0006  -0.6447  -0.6290  -0.5933
    -0.2794  -0.2747  -0.2699   0.0482   0.2037   0.2593   0.3404   0.6914
     1.0343   1.3191   1.3317   1.3363   1.5354   2.4234   2.4463   2.4555
     3.1992   3.2060   3.2078   3.4588   3.4604   3.4610   3.6909   3.6949
     3.7009   5.5493   5.5637   5.5852   6.3841   6.3927   6.3954   8.2740
     9.5112   9.9589  10.8191  11.2700  11.8019  12.4137  12.6466  12.8366
    13.5865  13.9847  14.3977  15.1295  15.3335

     occupation numbers 
     1.0000   1.0000   1.0000   1.0000   1.0000   1.0000   1.0000   1.0000
     1.0000   1.0000   1.0000   1.0000   1.0000   1.0000   1.0000   1.0000
     1.0000   1.0000   1.0000   1.0000   1.0000   1.0000   1.0000   1.0000
     1.0000   1.0000   1.0000   1.0000   1.0000   1.0000   1.0000   1.0000
     1.0000   1.0000   1.0000   1.0000   1.0000   1.0000   1.0000   1.0000
     1.0000   1.0000   1.0000   1.0000   1.0000   1.0000   1.0000   1.0000
     1.0000   1.0000   1.0000   1.0000   1.0000   1.0000   1.0000   1.0000
     1.0000   1.0000   1.0000   1.0003   1.0003   1.0003   1.0110   1.0116
     1.0125   0.0000   0.0000   0.0000   0.0000   0.0000   0.0000   0.0000
     0.0000   0.0000   0.0000   0.0000   0.0000   0.0000   0.0000   0.0000
     0.0000   0.0000   0.0000   0.0000   0.0000

          k = 0.3333 0.5774-0.2526 ( 11340 PWs)   bands (ev):

   -91.5198 -91.5111 -91.5092 -54.7657 -54.7632 -54.7582 -54.7466 -54.7359
   -54.7352 -54.7312 -54.7290 -54.7250 -48.0261 -19.9861 -19.9644 -19.9090
   -17.5507 -17.3915 -17.0303 -16.8576 -14.0342 -14.0276 -14.0215 -13.1990
   -13.1917 -13.1882  -5.7352  -5.1619  -4.7347  -4.4731  -2.0827  -1.7661
    -1.6124  -1.4696  -1.4064  -1.2551  -1.0302  -0.6508  -0.6371  -0.6143
    -0.2791  -0.2745  -0.2698   0.0338   0.2439   0.2695   0.3693   0.6828
     1.0126   1.3180   1.3317   1.3364   1.5310   2.4223   2.4474   2.4566
     3.1992   3.2053   3.2076   3.4589   3.4604   3.4610   3.6915   3.6968
     3.7036   5.5441   5.5593   5.5821   6.3841   6.3927   6.3955   8.2716
     9.5384   9.9578  10.8380  11.2742  11.7352  12.4083  12.6162  12.9477
    13.5329  13.9826  14.4105  15.1775  15.4672

     occupation numbers 
     1.0000   1.0000   1.0000   1.0000   1.0000   1.0000   1.0000   1.0000
     1.0000   1.0000   1.0000   1.0000   1.0000   1.0000   1.0000   1.0000
     1.0000   1.0000   1.0000   1.0000   1.0000   1.0000   1.0000   1.0000
     1.0000   1.0000   1.0000   1.0000   1.0000   1.0000   1.0000   1.0000
     1.0000   1.0000   1.0000   1.0000   1.0000   1.0000   1.0000   1.0000
     1.0000   1.0000   1.0000   1.0000   1.0000   1.0000   1.0000   1.0000
     1.0000   1.0000   1.0000   1.0000   1.0000   1.0000   1.0000   1.0000
     1.0000   1.0000   1.0000   1.0003   1.0003   1.0003   1.0111   1.0119
     1.0129   0.0000   0.0000   0.0000   0.0000   0.0000   0.0000   0.0000
     0.0000   0.0000   0.0000   0.0000   0.0000   0.0000   0.0000   0.0000
     0.0000   0.0000   0.0000   0.0000   0.0000

          k =-0.1667 0.0962 0.0000 ( 11360 PWs)   bands (ev):

   -91.5204 -91.5115 -91.5083 -54.7691 -54.7655 -54.7512 -54.7482 -54.7443
   -54.7364 -54.7323 -54.7232 -54.7199 -48.0261 -19.9826 -19.9632 -19.9088
   -17.7573 -17.1909 -17.1669 -16.6963 -14.9163 -13.4931 -13.4069 -13.3296
   -13.2707 -13.1251  -5.5289  -5.3906  -4.6992  -4.5436  -1.9651  -1.7340
    -1.5433  -1.4450  -1.2582  -1.2140  -1.0395  -1.0086  -0.9665  -0.8657
    -0.7528  -0.3162  -0.1295   0.3238   0.5676   0.6609   0.7166   0.7704
     0.8305   0.9460   1.5039   1.6122   1.6994   2.0195   2.1267   2.5485
     2.7442   2.8112   3.0906   3.2936   3.4951   3.5092   3.8383   3.9070
     3.9685   5.8268   5.8681   5.8893   5.9401   6.3037   6.5090   6.7863
     8.9830  10.4283  11.1967  11.4680  12.6428  12.7903  12.9827  13.3608
    13.7525  14.2019  14.5556  14.9789  15.1558

     occupation numbers 
     1.0000   1.0000   1.0000   1.0000   1.0000   1.0000   1.0000   1.0000
     1.0000   1.0000   1.0000   1.0000   1.0000   1.0000   1.0000   1.0000
     1.0000   1.0000   1.0000   1.0000   1.0000   1.0000   1.0000   1.0000
     1.0000   1.0000   1.0000   1.0000   1.0000   1.0000   1.0000   1.0000
     1.0000   1.0000   1.0000   1.0000   1.0000   1.0000   1.0000   1.0000
     1.0000   1.0000   1.0000   1.0000   1.0000   1.0000   1.0000   1.0000
     1.0000   1.0000   1.0000   1.0000   1.0000   1.0000   1.0000   1.0000
     1.0000   1.0000   1.0000   1.0000   1.0006   1.0007   1.0466   1.0697
     1.0828   0.0000   0.0000   0.0000   0.0000   0.0000   0.0000   0.0000
     0.0000   0.0000   0.0000   0.0000   0.0000   0.0000   0.0000   0.0000
     0.0000   0.0000   0.0000   0.0000   0.0000

          k = 0.1667 0.0962 0.0000 ( 11360 PWs)   bands (ev):

   -91.5204 -91.5115 -91.5083 -54.7691 -54.7653 -54.7515 -54.7484 -54.7440
   -54.7364 -54.7324 -54.7229 -54.7200 -48.0261 -19.9811 -19.9630 -19.9096
   -17.7422 -17.2023 -17.1594 -16.7136 -14.9162 -13.4928 -13.4073 -13.3303
   -13.2702 -13.1250  -5.6299  -5.2848  -4.6518  -4.5639  -1.8719  -1.7264
    -1.6048  -1.4401  -1.2699  -1.2408  -1.0815  -1.0386  -0.9521  -0.8896
    -0.7509  -0.3114  -0.1305   0.3674   0.5802   0.6756   0.7175   0.7891
     0.8701   0.9752   1.4047   1.6204   1.6677   2.0159   2.1273   2.5496
     2.7447   2.8106   3.0901   3.2950   3.4942   3.5099   3.8384   3.9061
     3.9700   5.8291   5.8678   5.8944   5.9335   6.3002   6.5101   6.8088
     8.9762  10.6008  11.1371  11.4087  12.3756  12.8620  13.0208  13.4005
    13.6084  14.1795  14.7644  14.8899  15.0345

     occupation numbers 
[...]
     1.0000   1.0000   1.0000   1.0000   1.0000   1.0000   1.0000   1.0000
     1.0000   1.0000   1.0000   1.0000   1.0000   1.0000   1.0000   1.0000
     1.0000   1.0000   1.0000   1.0000   1.0000   1.0000   1.0000   1.0000
     1.0268   1.0361   1.0474   1.0647   0.9364   0.8991   0.6775   0.2732
     0.0236   0.0000   0.0000   0.0000   0.0000   0.0000   0.0000   0.0000
     0.0000   0.0000   0.0000   0.0000   0.0000   0.0000   0.0000   0.0000
     0.0000   0.0000   0.0000   0.0000   0.0000

     the Fermi energy is     4.0861 ev

!    total energy              =   -1665.61283537 Ry
     total all-electron energy =    -10200.235169 Ry
     estimated scf accuracy    <          3.7E-09 Ry
     smearing contrib. (-TS)   =       0.00985479 Ry
     internal energy E=F+TS    =   -1665.62269016 Ry

     The total energy is F=E-TS. E is the sum of the following terms:
     one-electron contribution =   -1759.78370894 Ry
     hartree contribution      =     929.87816262 Ry
     xc contribution           =    -186.25512340 Ry
     ewald contribution        =    -275.60949986 Ry
     one-center paw contrib.   =    -373.85252059 Ry
      -> PAW hartree energy AE =    1004.40322964 Ry
      -> PAW hartree energy PS =   -1001.98458249 Ry
      -> PAW xc energy AE      =    -553.40631600 Ry
      -> PAW xc energy PS      =     177.13514826 Ry
      -> total E_H with PAW    =     932.29680977 Ry
      -> total E_XC with PAW   =    -562.52629114 Ry

     total magnetization       =     2.31 Bohr mag/cell
     absolute magnetization    =     2.35 Bohr mag/cell

     convergence has been achieved in  18 iterations

     Forces acting on atoms (cartesian axes, Ry/au):

     atom    1 type  1   force =    -0.00120988   -0.00020787   -0.00367842
     atom    2 type  1   force =     0.00046558    0.00021660    0.00761876
     atom    3 type  1   force =    -0.00070069   -0.00092342    0.01108370
     atom    4 type  2   force =    -0.00408494   -0.00480211   -0.02157463
     atom    5 type  2   force =     0.00213099    0.00306649   -0.02444218
     atom    6 type  2   force =     0.00297380    0.00572655   -0.02175478
     atom    7 type  2   force =     0.00112758    0.00353821    0.01932464
     atom    8 type  2   force =    -0.00252096   -0.00302255    0.01489027
     atom    9 type  2   force =     0.00280230    0.00201496    0.02088933
     atom   10 type  3   force =     0.00310875    0.00389093    0.00062278
     atom   11 type  2   force =     0.00001089   -0.00418518   -0.00638221
     atom   12 type  4   force =    -0.00269744    0.00196264    0.00007377
     atom   13 type  4   force =     0.00033488   -0.00122094    0.00259871
     atom   14 type  2   force =    -0.00116479    0.00187876   -0.00486316
     atom   15 type  4   force =     0.00196502   -0.00136231    0.00422151
     atom   16 type  4   force =    -0.00237621   -0.00480676   -0.00294447
     atom   17 type  2   force =    -0.00157660   -0.00447455    0.00215080
     atom   18 type  4   force =    -0.00017201   -0.00436515    0.00609044
     atom   19 type  4   force =     0.00197163    0.00415465   -0.00079164
     atom   20 type  2   force =    -0.00039185    0.00512376   -0.00080522
     atom   21 type  4   force =     0.00062977    0.00229623   -0.00310651
     atom   22 type  4   force =    -0.00062583   -0.00449893    0.00077853
     The non-local contrib.  to forces
     atom    1 type  1   force =     0.00569288    0.01125287    0.02801899
     atom    2 type  1   force =    -0.00702775   -0.00442048   -0.01940591
     atom    3 type  1   force =     0.00081068   -0.01580430   -0.03552555
     atom    4 type  2   force =    -0.03662511   -0.05109844   -1.13391340
     atom    5 type  2   force =     0.01519793    0.03089550   -1.13973648
     atom    6 type  2   force =     0.03017635    0.04726755   -1.11423818
     atom    7 type  2   force =     0.03511363    0.03517686    1.10277084
     atom    8 type  2   force =    -0.02862654   -0.04036681    1.07511530
     atom    9 type  2   force =    -0.00748407    0.02947671    1.10248061
     atom   10 type  3   force =    -0.05315559   -0.16202505    0.33041831
     atom   11 type  2   force =     0.81934494    0.79713269   -1.48427905
     atom   12 type  4   force =    -0.08161365   -0.05637592   -0.00327252
     atom   13 type  4   force =     0.02845509    0.00005896    0.10104662
     atom   14 type  2   force =     0.54394010    1.17090536   -1.41511310
     atom   15 type  4   force =    -0.00778180   -0.09861294   -0.00579156
     atom   16 type  4   force =    -0.03029643    0.02059836    0.10014375
     atom   17 type  2   force =     0.32450262    1.23412204    1.53012930
     atom   18 type  4   force =    -0.00809014   -0.09535090    0.00760061
     atom   19 type  4   force =    -0.02296448    0.02165516   -0.09995761
     atom   20 type  2   force =     0.93439785    0.92323457    1.46137274
     atom   21 type  4   force =    -0.07636523   -0.06220059    0.00828177
     atom   22 type  4   force =     0.02625564   -0.00629615   -0.10161333
     The ionic contribution  to forces
     atom    1 type  1   force =    -0.12722955   -0.35123650    1.30904991
     atom    2 type  1   force =     0.52500626   -0.12931427    2.56648751
     atom    3 type  1   force =    -0.43002133    0.49230540    2.83803904
     atom    4 type  2   force =     0.32612609    0.56481559   33.45438869
     atom    5 type  2   force =     0.21546270   -0.52054636   33.14815132
     atom    6 type  2   force =    -0.58712204   -0.14453044   33.06812360
     atom    7 type  2   force =    -0.62168367   -0.05710633  -31.75685269
     atom    8 type  2   force =     0.23769309    0.32886226  -31.88661601
     atom    9 type  2   force =     0.42937387   -0.31021390  -31.56588057
     atom   10 type  3   force =    -0.20266806   -1.91556361   -3.94079245
     atom   11 type  2   force =    -0.32253705   -1.12012121   13.83833967
     atom   12 type  4   force =     2.11413762    1.54153412    2.09508871
     atom   13 type  4   force =    -0.84390603    0.07581755    0.98937846
     atom   14 type  2   force =    -1.46353196   -0.92745098   13.26384191
     atom   15 type  4   force =     0.21939192    2.58739361    2.08665661
     atom   16 type  4   force =     0.93930505   -0.58079290    0.87407605
     atom   17 type  2   force =     0.56478874   -2.66834279  -16.00941647
     atom   18 type  4   force =     0.20750364    2.26511071   -2.37657689
     atom   19 type  4   force =     0.81618168   -0.72364464   -1.05680007
     atom   20 type  2   force =    -2.84802609   -0.43566707  -17.10290508
     atom   21 type  4   force =     1.78414804    1.73614526   -2.50815570
     atom   22 type  4   force =    -0.93239291    0.29254650   -1.32762556
     The local contribution  to forces
     atom    1 type  1   force =     0.12034563    0.33984477   -1.34053617
     atom    2 type  1   force =    -0.51754453    0.13391484   -2.53946784
     atom    3 type  1   force =     0.42851664   -0.47750595   -2.79152315
     atom    4 type  2   force =    -0.29390780   -0.51899338  -32.35202699
     atom    5 type  2   force =    -0.22835570    0.49299099  -32.04291766
     atom    6 type  2   force =     0.56013786    0.10341344  -31.98545944
     atom    7 type  2   force =     0.58799575    0.02581795   30.68316472
     atom    8 type  2   force =    -0.21181386   -0.29187980   30.83585311
     atom    9 type  2   force =    -0.41915468    0.28299598   30.49406788
     atom   10 type  3   force =     0.25886854    2.08139132    3.61104693
     atom   11 type  2   force =    -0.49044842    0.32491810  -12.37193277
     atom   12 type  4   force =    -2.03522310   -1.48319643   -2.09173793
     atom   13 type  4   force =     0.81578545   -0.07709751   -1.08781200
     atom   14 type  2   force =     0.92253578   -0.23255511  -11.86451255
     atom   15 type  4   force =    -0.20964589   -2.49014675   -2.07664040
     atom   16 type  4   force =    -0.91138587    0.55538716   -0.97715070
     atom   17 type  2   force =    -0.88844815    1.43924557   14.49325448
     atom   18 type  4   force =    -0.19958414   -2.17411954    2.37506092
     atom   19 type  4   force =    -0.79124379    0.70614223    1.15596777
     atom   20 type  2   force =     1.92048129   -0.47535797   15.65186764
     atom   21 type  4   force =    -1.70715604   -1.67165154    2.49676204
     atom   22 type  4   force =     0.90551267   -0.29074990    1.43001401
     The core correction contribution to forces
     atom    1 type  1   force =    -0.00003347   -0.00007323   -0.00014937
     atom    2 type  1   force =     0.00004169    0.00002256    0.00006414
     atom    3 type  1   force =    -0.00000081    0.00009356    0.00013474
     atom    4 type  2   force =     0.00032598    0.00045157    0.01002904
     atom    5 type  2   force =    -0.00015100   -0.00025549    0.01010893
     atom    6 type  2   force =    -0.00024461   -0.00042184    0.00986655
     atom    7 type  2   force =    -0.00031007   -0.00032792   -0.00975912
     atom    8 type  2   force =     0.00025766    0.00036382   -0.00946281
     atom    9 type  2   force =     0.00004904   -0.00026892   -0.00977677
     atom   10 type  3   force =     0.00002429    0.00007962   -0.00016898
     atom   11 type  2   force =    -0.00635174   -0.00610992    0.01150580
     atom   12 type  4   force =     0.00000000    0.00000000    0.00000000
     atom   13 type  4   force =     0.00000000    0.00000000    0.00000000
     atom   14 type  2   force =    -0.00411549   -0.00902176    0.01092866
     atom   15 type  4   force =     0.00000000    0.00000000    0.00000000
     atom   16 type  4   force =     0.00000000    0.00000000    0.00000000
     atom   17 type  2   force =    -0.00241962   -0.00949973   -0.01187842
     atom   18 type  4   force =     0.00000000    0.00000000    0.00000000
     atom   19 type  4   force =     0.00000000    0.00000000    0.00000000
     atom   20 type  2   force =    -0.00724475   -0.00708576   -0.01118550
     atom   21 type  4   force =     0.00000000    0.00000000    0.00000000
     atom   22 type  4   force =     0.00000000    0.00000000    0.00000000
     The Hubbard contrib.    to forces
     atom    1 type  1   force =     0.00000000    0.00000000    0.00000000
     atom    2 type  1   force =     0.00000000    0.00000000    0.00000000
     atom    3 type  1   force =     0.00000000    0.00000000    0.00000000
     atom    4 type  2   force =     0.00000000    0.00000000    0.00000000
     atom    5 type  2   force =     0.00000000    0.00000000    0.00000000
     atom    6 type  2   force =     0.00000000    0.00000000    0.00000000
     atom    7 type  2   force =     0.00000000    0.00000000    0.00000000
     atom    8 type  2   force =     0.00000000    0.00000000    0.00000000
     atom    9 type  2   force =     0.00000000    0.00000000    0.00000000
     atom   10 type  3   force =     0.00000000    0.00000000    0.00000000
     atom   11 type  2   force =     0.00000000    0.00000000    0.00000000
     atom   12 type  4   force =     0.00000000    0.00000000    0.00000000
     atom   13 type  4   force =     0.00000000    0.00000000    0.00000000
     atom   14 type  2   force =     0.00000000    0.00000000    0.00000000
     atom   15 type  4   force =     0.00000000    0.00000000    0.00000000
     atom   16 type  4   force =     0.00000000    0.00000000    0.00000000
     atom   17 type  2   force =     0.00000000    0.00000000    0.00000000
     atom   18 type  4   force =     0.00000000    0.00000000    0.00000000
     atom   19 type  4   force =     0.00000000    0.00000000    0.00000000
     atom   20 type  2   force =     0.00000000    0.00000000    0.00000000
     atom   21 type  4   force =     0.00000000    0.00000000    0.00000000
     atom   22 type  4   force =     0.00000000    0.00000000    0.00000000
     The SCF correction term to forces
     atom    1 type  1   force =     0.00000000    0.00000000   -0.00000000
     atom    2 type  1   force =    -0.00000000    0.00000000   -0.00000000
     atom    3 type  1   force =    -0.00000000   -0.00000000   -0.00000000
     atom    4 type  2   force =    -0.00000000    0.00000000   -0.00000000
     atom    5 type  2   force =    -0.00000000   -0.00000000   -0.00000000
     atom    6 type  2   force =     0.00000000   -0.00000000   -0.00000000
     atom    7 type  2   force =     0.00000000   -0.00000000    0.00000000
     atom    8 type  2   force =    -0.00000000   -0.00000000    0.00000000
     atom    9 type  2   force =     0.00000000    0.00000000    0.00000000
     atom   10 type  3   force =     0.00000000    0.00000000    0.00012209
     atom   11 type  2   force =     0.00000341   -0.00000528   -0.00001275
     atom   12 type  4   force =     0.00000194    0.00000043   -0.00000137
     atom   13 type  4   force =     0.00000061   -0.00000039   -0.00001125
     atom   14 type  2   force =     0.00000703    0.00000081   -0.00000495
     atom   15 type  4   force =     0.00000104    0.00000333   -0.00000002
     atom   16 type  4   force =     0.00000128    0.00000018   -0.00001044
     atom   17 type  2   force =     0.00000005   -0.00000008    0.00006502
     atom   18 type  4   force =    -0.00000112   -0.00000586    0.00000892
     atom   19 type  4   force =    -0.00000152    0.00000147    0.00000140
     atom   20 type  2   force =     0.00000010   -0.00000045    0.00004811
     atom   21 type  4   force =     0.00000326    0.00000266    0.00000850
     atom   22 type  4   force =    -0.00000097    0.00000017    0.00000653

     Total force =     0.018339     Total SCF correction =     0.000149
     Energy error            =      6.3E-04 Ry
     Gradient error          =      6.4E-03 Ry/Bohr

     number of scf cycles    =  19
     number of bfgs steps    =  18

     energy             old  =   -1665.6122067671 Ry
     energy             new  =   -1665.6128353676 Ry

     CASE: energy            _new < energy            _old

     new trust radius        =       0.0641349859 bohr
     new conv_thr            =       0.0000000063 Ry


ATOMIC_POSITIONS (crystal)
Co               0.0000000000        0.0000000000        0.0000000000    0   0   0
Co               0.3333333333        0.6666666667        0.0000000000    0   0   0
Co               0.6666666667        0.3333333333        0.0000000000    0   0   0
O                0.3333333333        0.3333333333        0.0969696970    0   0   0
O                0.6666666667        0.0000000000        0.0969696970    0   0   0
O                0.0000000000        0.6666666667        0.0969696970    0   0   0
O                0.3333333333        0.0000000000        0.9030303030    0   0   0
O                0.6666666667        0.6666666667        0.9030303030    0   0   0
O                0.0000000000        0.3333333333        0.9030303030    0   0   0
Na               0.0000000000        0.0000000000        0.5343537481    0   0   1
O                0.2974074432       -0.0544495869        0.3651658436
H                0.5258870074        0.0793630941        0.3666362664
H                0.2456545419        0.9480882048        0.2698745035
O               -0.0524779892        0.3015840118        0.3692697659
H                1.0828953386        0.5296117390        0.3725613774
H               -0.0216722803        0.2565547097        0.2757799366
O                0.3278952283        0.6711911870        0.6326000084
H                0.4593258913        0.9002630957        0.6263420207
H                0.3484247248        0.6276150055        0.7277339056
O                0.6958883499        0.2917570937        0.6439900600
H                0.9219811449        0.4351296186        0.6368361135
H                0.6511766905        0.3036154065        0.7401771589



     Writing config-only to output data dir ./out/pw.save/ :
     XML data file
     NEW-OLD atomic charge density approx. for the potential

     Check: negative core charge=   -0.000006
     Generating pointlists ...

     total cpu time spent up to now is     2312.3 secs

     Self-consistent Calculation
[tb_dev] Currently allocated     0.00E+00 Mbytes, locked:    0 /   0
[tb_pin] Currently allocated     0.00E+00 Mbytes, locked:    0 /   0

     iteration #  1     ecut=    60.00 Ry     beta= 0.30
     Davidson diagonalization with overlap

---- Real-time Memory Report at c_bands before calling an iterative solver
          2100 MiB given to the printing process from OS
             0 MiB allocation reported by mallinfo(arena+hblkhd)
       1348027 MiB available memory on the node where the printing process lives
     GPU memory used/free/total (MiB): 2242 / 78908 / 81151
------------------
     c_bands:  1 eigenvalues not converged
     c_bands:  2 eigenvalues not converged
     c_bands:  2 eigenvalues not converged
     c_bands:  1 eigenvalues not converged
     c_bands:  2 eigenvalues not converged
     c_bands:  1 eigenvalues not converged
     c_bands:  1 eigenvalues not converged
     c_bands:  1 eigenvalues not converged
     c_bands:  1 eigenvalues not converged
     c_bands:  1 eigenvalues not converged
     c_bands:  2 eigenvalues not converged
     c_bands:  2 eigenvalues not converged
     c_bands:  1 eigenvalues not converged
     c_bands:  1 eigenvalues not converged
     c_bands:  1 eigenvalues not converged
     c_bands:  1 eigenvalues not converged
     ethr =  1.00E-06,  avg # of iterations = 11.1

     total cpu time spent up to now is     2322.8 secs

     total energy              =   -1665.61340206 Ry
     estimated scf accuracy    <       0.00053919 Ry

     total magnetization       =     2.30 Bohr mag/cell
     absolute magnetization    =     2.35 Bohr mag/cell
[tb_dev] Currently allocated     1.68E-04 Mbytes, locked:    0 /   2
[tb_pin] Currently allocated     0.00E+00 Mbytes, locked:    0 /   0

     iteration #  2     ecut=    60.00 Ry     beta= 0.30
     Davidson diagonalization with overlap

---- Real-time Memory Report at c_bands before calling an iterative solver
          2100 MiB given to the printing process from OS
             0 MiB allocation reported by mallinfo(arena+hblkhd)
       1334646 MiB available memory on the node where the printing process lives
     GPU memory used/free/total (MiB): 2242 / 78908 / 81151
------------------
     c_bands:  1 eigenvalues not converged
     c_bands:  1 eigenvalues not converged
     ethr =  4.21E-07,  avg # of iterations =  3.2

     total cpu time spent up to now is     2328.8 secs

     total energy              =   -1665.61337813 Ry
     estimated scf accuracy    <       0.00034399 Ry

     total magnetization       =     2.30 Bohr mag/cell
     absolute magnetization    =     2.35 Bohr mag/cell
[tb_dev] Currently allocated     1.68E-04 Mbytes, locked:    0 /   2
[tb_pin] Currently allocated     0.00E+00 Mbytes, locked:    0 /   0

     iteration #  3     ecut=    60.00 Ry     beta= 0.30
     Davidson diagonalization with overlap

---- Real-time Memory Report at c_bands before calling an iterative solver
          2100 MiB given to the printing process from OS
             0 MiB allocation reported by mallinfo(arena+hblkhd)
       1347288 MiB available memory on the node where the printing process lives
     GPU memory used/free/total (MiB): 2242 / 78908 / 81151
------------------
     c_bands:  1 eigenvalues not converged
     c_bands:  1 eigenvalues not converged
     ethr =  2.69E-07,  avg # of iterations =  2.5

     total cpu time spent up to now is     2334.5 secs

     total energy              =   -1665.61338616 Ry
     estimated scf accuracy    <       0.00032859 Ry

     total magnetization       =     2.31 Bohr mag/cell
     absolute magnetization    =     2.35 Bohr mag/cell
[tb_dev] Currently allocated     1.68E-04 Mbytes, locked:    0 /   2
[tb_pin] Currently allocated     0.00E+00 Mbytes, locked:    0 /   0

     iteration #  4     ecut=    60.00 Ry     beta= 0.30
