
     Program PWSCF v.7.3.1 starts on 12Jul2026 at  4:22: 7 

     This program is part of the open-source Quantum ESPRESSO suite
     for quantum simulation of materials; please cite
         "P. Giannozzi et al., J. Phys.:Condens. Matter 21 395502 (2009);
         "P. Giannozzi et al., J. Phys.:Condens. Matter 29 465901 (2017);
         "P. Giannozzi et al., J. Chem. Phys. 152 154105 (2020);
          URL http://www.quantum-espresso.org", 
     in publications or presentations arising from this work. More details at
     http://www.quantum-espresso.org/quote

     Parallel version (MPI & OpenMP), running on      14 processor cores
     Number of MPI processes:                 1
     Threads/MPI process:                    14

     MPI processes distributed on     1 nodes
     763322 MiB available memory on the printing compute node when the environment starts
 
     Reading input from pw.in

     Current dimensions of program PWSCF are:
     Max number of different atomic species (ntypx) = 10
     Max number of k-points (npk) =  40000
     Max angular momentum in pseudopotentials (lmaxx) =  4
     file Co.pbe-spn-kjpaw_psl.0.3.1.UPF: wavefunction(s)  3P 3D renormalized
     file O.pbe-n-kjpaw_psl.1.0.0.UPF: wavefunction(s)  2S 2P renormalized
     file Na.pbe-spn-kjpaw_psl.1.0.0.UPF: wavefunction(s)  2P renormalized
 
     Subspace diagonalization in iterative solution of the eigenvalue problem:
     a serial algorithm will be used

 
     G-vector sticks info
     --------------------
     sticks:   dense  smooth     PW     G-vecs:    dense   smooth      PW
     Sum         979     499    151                59641    21167    3485
 
     Using Slab Decomposition
 


     bravais-lattice index     =            4
     lattice parameter (alat)  =       5.4575  a.u.
     unit-cell volume          =     336.3339 (a.u.)^3
     number of atoms/cell      =            4
     number of atomic types    =            3
     number of electrons       =        38.00
     number of Kohn-Sham states=           27
     kinetic-energy cutoff     =      60.0000  Ry
     charge density cutoff     =     480.0000  Ry
     scf convergence threshold =      1.0E-07
     mixing beta               =       0.3000
     number of iterations used =            8  local-TF  mixing
     Exchange-correlation= SLA  PW   PBX  PBC
                           (   1   4   3   4   0   0   0)

     GPU acceleration is ACTIVE.  4 visible GPUs per MPI rank
     GPU-aware MPI enabled


     GPU used by master process:

        Device Number: 0
        Device name: NVIDIA A100-SXM4-80GB
        Compute capability : 80
        Ratio of single to double precision performance  : 2
        Memory Clock Rate (KHz): 1593000
        Memory Bus Width (bits): 5120
        Peak Memory Bandwidth (GB/s): ******

     celldm(1)=   5.457529  celldm(2)=   0.000000  celldm(3)=   2.389197
     celldm(4)=   0.000000  celldm(5)=   0.000000  celldm(6)=   0.000000

     crystal axes: (cart. coord. in units of alat)
               a(1) = (   1.000000   0.000000   0.000000 )  
               a(2) = (  -0.500000   0.866025   0.000000 )  
               a(3) = (   0.000000   0.000000   2.389197 )  

     reciprocal axes: (cart. coord. in units 2 pi/alat)
               b(1) = (  1.000000  0.577350 -0.000000 )  
               b(2) = (  0.000000  1.154701  0.000000 )  
               b(3) = (  0.000000 -0.000000  0.418551 )  


     PseudoPot. # 1 for Co read from file:
     ../../pseudo/Co.pbe-spn-kjpaw_psl.0.3.1.UPF
     MD5 check sum: 3c0a43779828c046024e4f3be63f8e67
     Pseudo is Projector augmented-wave + core cor, Zval = 17.0
     Generated using &quot;atomic&quot; code by A. Dal Corso  v.6.2.2
     Shape of augmentation charge: PSQ
     Using radial grid of 1193 points,  6 beta functions with: 
                l(1) =   0
                l(2) =   0
                l(3) =   1
                l(4) =   1
                l(5) =   2
                l(6) =   2
     Q(r) pseudized with 0 coefficients 


     PseudoPot. # 2 for O  read from file:
     ../../pseudo/O.pbe-n-kjpaw_psl.1.0.0.UPF
     MD5 check sum: e99d9cef9b487d1ca56f5b95ecd0fd7a
     Pseudo is Projector augmented-wave + core cor, Zval =  6.0
     Generated using &quot;atomic&quot; code by A. Dal Corso  v.6.3
     Shape of augmentation charge: PSQ
     Using radial grid of 1095 points,  4 beta functions with: 
                l(1) =   0
                l(2) =   0
                l(3) =   1
                l(4) =   1
     Q(r) pseudized with 0 coefficients 


     PseudoPot. # 3 for Na read from file:
     ../../pseudo/Na.pbe-spn-kjpaw_psl.1.0.0.UPF
     MD5 check sum: 05b4deb74e3932c23ab016979dc8b5d4
     Pseudo is Projector augmented-wave + core cor, Zval =  9.0
     Generated using &quot;atomic&quot; code by A. Dal Corso  v.6.3
     Shape of augmentation charge: PSQ
     Using radial grid of 1121 points,  4 beta functions with: 
                l(1) =   0
                l(2) =   0
                l(3) =   1
                l(4) =   1
     Q(r) pseudized with 0 coefficients 


     atomic species   valence    mass     pseudopotential
     Co               17.00    58.93300     Co( 1.00)
     O                 6.00    15.99900     O ( 1.00)
     Na                9.00    22.98977     Na( 1.00)

     12 Sym. Ops., with inversion, found


                                    s                        frac. trans.

      isym =  1     identity                                     

 cryst.   s( 1) = (     1          0          0      )
                  (     0          1          0      )
                  (     0          0          1      )

 cart.    s( 1) = (  1.0000000  0.0000000  0.0000000 )
                  (  0.0000000  1.0000000  0.0000000 )
                  (  0.0000000  0.0000000  1.0000000 )


      isym =  2     180 deg rotation - cart. axis [1,0,0]        

 cryst.   s( 2) = (     1          0          0      )
                  (    -1         -1          0      )
                  (     0          0         -1      )

 cart.    s( 2) = (  1.0000000  0.0000000  0.0000000 )
                  (  0.0000000 -1.0000000  0.0000000 )
                  (  0.0000000  0.0000000 -1.0000000 )


      isym =  3     120 deg rotation - cryst. axis [0,0,1]       

 cryst.   s( 3) = (     0          1          0      )
                  (    -1         -1          0      )
                  (     0          0          1      )

 cart.    s( 3) = ( -0.5000000 -0.8660254  0.0000000 )
                  (  0.8660254 -0.5000000  0.0000000 )
                  (  0.0000000  0.0000000  1.0000000 )


      isym =  4     120 deg rotation - cryst. axis [0,0,-1]      

 cryst.   s( 4) = (    -1         -1          0      )
                  (     1          0          0      )
                  (     0          0          1      )

 cart.    s( 4) = ( -0.5000000  0.8660254  0.0000000 )
                  ( -0.8660254 -0.5000000  0.0000000 )
                  (  0.0000000  0.0000000  1.0000000 )


      isym =  5     180 deg rotation - cryst. axis [0,1,0]       

 cryst.   s( 5) = (    -1         -1          0      )
                  (     0          1          0      )
                  (     0          0         -1      )

 cart.    s( 5) = ( -0.5000000 -0.8660254  0.0000000 )
                  ( -0.8660254  0.5000000  0.0000000 )
                  (  0.0000000  0.0000000 -1.0000000 )


      isym =  6     180 deg rotation - cryst. axis [1,1,0]       

 cryst.   s( 6) = (     0          1          0      )
                  (     1          0          0      )
                  (     0          0         -1      )

 cart.    s( 6) = ( -0.5000000  0.8660254  0.0000000 )
                  (  0.8660254  0.5000000  0.0000000 )
                  (  0.0000000  0.0000000 -1.0000000 )


      isym =  7     inversion                                    

 cryst.   s( 7) = (    -1          0          0      )
                  (     0         -1          0      )
                  (     0          0         -1      )

 cart.    s( 7) = ( -1.0000000  0.0000000  0.0000000 )
                  (  0.0000000 -1.0000000  0.0000000 )
                  (  0.0000000  0.0000000 -1.0000000 )


      isym =  8     inv. 180 deg rotation - cart. axis [1,0,0]   

 cryst.   s( 8) = (    -1          0          0      )
                  (     1          1          0      )
                  (     0          0          1      )

 cart.    s( 8) = ( -1.0000000  0.0000000  0.0000000 )
                  (  0.0000000  1.0000000  0.0000000 )
                  (  0.0000000  0.0000000  1.0000000 )


      isym =  9     inv. 120 deg rotation - cryst. axis [0,0,1]  

 cryst.   s( 9) = (     0         -1          0      )
                  (     1          1          0      )
                  (     0          0         -1      )

 cart.    s( 9) = (  0.5000000  0.8660254  0.0000000 )
                  ( -0.8660254  0.5000000  0.0000000 )
                  (  0.0000000  0.0000000 -1.0000000 )


      isym = 10     inv. 120 deg rotation - cryst. axis [0,0,-1] 

 cryst.   s(10) = (     1          1          0      )
                  (    -1          0          0      )
                  (     0          0         -1      )

 cart.    s(10) = (  0.5000000 -0.8660254  0.0000000 )
                  (  0.8660254  0.5000000  0.0000000 )
                  (  0.0000000  0.0000000 -1.0000000 )


      isym = 11     inv. 180 deg rotation - cryst. axis [0,1,0]  

 cryst.   s(11) = (     1          1          0      )
                  (     0         -1          0      )
                  (     0          0          1      )

 cart.    s(11) = (  0.5000000  0.8660254  0.0000000 )
                  (  0.8660254 -0.5000000  0.0000000 )
                  (  0.0000000  0.0000000  1.0000000 )


      isym = 12     inv. 180 deg rotation - cryst. axis [1,1,0]  

 cryst.   s(12) = (     0         -1          0      )
                  (    -1          0          0      )
                  (     0          0          1      )

 cart.    s(12) = (  0.5000000 -0.8660254  0.0000000 )
                  ( -0.8660254 -0.5000000  0.0000000 )
                  (  0.0000000  0.0000000  1.0000000 )


     point group D_3d (-3m) 
     there are  6 classes
     the character table:

       E     2C3   3C2'  i     2S6   3s_d 
A_1g   1.00  1.00  1.00  1.00  1.00  1.00
A_2g   1.00  1.00 -1.00  1.00  1.00 -1.00
E_g    2.00 -1.00  0.00  2.00 -1.00  0.00
A_1u   1.00  1.00  1.00 -1.00 -1.00 -1.00
A_2u   1.00  1.00 -1.00 -1.00 -1.00  1.00
E_u    2.00 -1.00  0.00 -2.00  1.00  0.00

     the symmetry operations in each class and the name of the first element:

     E        1
          identity                                               
     2C3      3    4
          120 deg rotation - cryst. axis [0,0,1]                 
     3C2'     2    5    6
          180 deg rotation - cart. axis [1,0,0]                  
     i        7
          inversion                                              
     2S6      9   10
          inv. 120 deg rotation - cryst. axis [0,0,1]            
     3s_d     8   11   12
          inv. 180 deg rotation - cart. axis [1,0,0]             

   Cartesian axes

     site n.     atom                  positions (alat units)
         1        Co     tau(   1) = (   0.0000000   0.0000000   0.0000000  )
         2        O      tau(   2) = (  -0.0000000   0.5773503   0.3324100  )
         3        O      tau(   3) = (   0.5000000   0.2886751   2.0567867  )
         4        Na     tau(   4) = (   0.0000000   0.0000000   1.1945983  )

   Crystallographic axes

     site n.     atom                  positions (cryst. coord.)
         1        Co     tau(   1) = (  0.0000000  0.0000000  0.0000000  )
         2        O      tau(   2) = (  0.3333333  0.6666667  0.1391304  )
         3        O      tau(   3) = (  0.6666667  0.3333333  0.8608696  )
         4        Na     tau(   4) = (  0.0000000  0.0000000  0.5000000  )

     number of k points=    25  Marzari-Vanderbilt smearing, width (Ry)=  0.0200
                       cart. coord. in units 2pi/alat
        k(    1) = (   0.0000000   0.0000000   0.0000000), wk =   0.0104167
        k(    2) = (   0.0000000   0.0000000   0.1395169), wk =   0.0208333
        k(    3) = (   0.0000000   0.1443376   0.0000000), wk =   0.0625000
        k(    4) = (   0.0000000   0.1443376   0.1395169), wk =   0.0625000
        k(    5) = (   0.0000000   0.2886751   0.0000000), wk =   0.0625000
        k(    6) = (   0.0000000   0.2886751   0.1395169), wk =   0.0625000
        k(    7) = (   0.0000000   0.4330127   0.0000000), wk =   0.0625000
        k(    8) = (   0.0000000   0.4330127   0.1395169), wk =   0.0625000
        k(    9) = (   0.0000000  -0.5773503   0.0000000), wk =   0.0312500
        k(   10) = (   0.0000000  -0.5773503   0.1395169), wk =   0.0625000
        k(   11) = (   0.1250000   0.2165064   0.0000000), wk =   0.0625000
        k(   12) = (   0.1250000   0.2165064   0.1395169), wk =   0.1250000
        k(   13) = (   0.1250000   0.3608439   0.0000000), wk =   0.1250000
        k(   14) = (   0.1250000   0.3608439   0.1395169), wk =   0.1250000
        k(   15) = (   0.1250000   0.5051815   0.0000000), wk =   0.1250000
        k(   16) = (   0.1250000   0.5051815   0.1395169), wk =   0.1250000
        k(   17) = (   0.2500000   0.4330127   0.0000000), wk =   0.0625000
        k(   18) = (   0.2500000   0.4330127   0.1395169), wk =   0.1250000
        k(   19) = (   0.2500000   0.5773503   0.0000000), wk =   0.0625000
        k(   20) = (   0.2500000   0.5773503   0.1395169), wk =   0.1250000
        k(   21) = (   0.0000000   0.1443376  -0.1395169), wk =   0.0625000
        k(   22) = (   0.0000000   0.2886751  -0.1395169), wk =   0.0625000
        k(   23) = (   0.0000000   0.4330127  -0.1395169), wk =   0.0625000
        k(   24) = (  -0.1250000   0.3608439  -0.1395169), wk =   0.1250000
        k(   25) = (  -0.1250000   0.5051815  -0.1395169), wk =   0.1250000

                       cryst. coord.
        k(    1) = (   0.0000000   0.0000000   0.0000000), wk =   0.0104167
        k(    2) = (   0.0000000   0.0000000   0.3333333), wk =   0.0208333
        k(    3) = (   0.0000000   0.1250000   0.0000000), wk =   0.0625000
        k(    4) = (   0.0000000   0.1250000   0.3333333), wk =   0.0625000
        k(    5) = (   0.0000000   0.2500000   0.0000000), wk =   0.0625000
        k(    6) = (   0.0000000   0.2500000   0.3333333), wk =   0.0625000
        k(    7) = (   0.0000000   0.3750000   0.0000000), wk =   0.0625000
        k(    8) = (   0.0000000   0.3750000   0.3333333), wk =   0.0625000
        k(    9) = (   0.0000000  -0.5000000   0.0000000), wk =   0.0312500
        k(   10) = (   0.0000000  -0.5000000   0.3333333), wk =   0.0625000
        k(   11) = (   0.1250000   0.1250000   0.0000000), wk =   0.0625000
        k(   12) = (   0.1250000   0.1250000   0.3333333), wk =   0.1250000
        k(   13) = (   0.1250000   0.2500000   0.0000000), wk =   0.1250000
        k(   14) = (   0.1250000   0.2500000   0.3333333), wk =   0.1250000
        k(   15) = (   0.1250000   0.3750000   0.0000000), wk =   0.1250000
        k(   16) = (   0.1250000   0.3750000   0.3333333), wk =   0.1250000
        k(   17) = (   0.2500000   0.2500000   0.0000000), wk =   0.0625000
        k(   18) = (   0.2500000   0.2500000   0.3333333), wk =   0.1250000
        k(   19) = (   0.2500000   0.3750000   0.0000000), wk =   0.0625000
        k(   20) = (   0.2500000   0.3750000   0.3333333), wk =   0.1250000
        k(   21) = (   0.0000000   0.1250000  -0.3333333), wk =   0.0625000
        k(   22) = (   0.0000000   0.2500000  -0.3333333), wk =   0.0625000
        k(   23) = (   0.0000000   0.3750000  -0.3333333), wk =   0.0625000
        k(   24) = (  -0.1250000   0.3750000  -0.3333333), wk =   0.1250000
        k(   25) = (  -0.1250000   0.5000000  -0.3333333), wk =   0.1250000

     Dense  grid:    59641 G-vectors     FFT dimensions: (  40,  40,  96)

     Smooth grid:    21167 G-vectors     FFT dimensions: (  27,  27,  72)

     Dynamical RAM for                 wfc:       1.09 MB

     Dynamical RAM for     wfc (w. buffer):      28.28 MB

     Dynamical RAM for           str. fact:       2.73 MB

     Dynamical RAM for           local pot:       0.00 MB

     Dynamical RAM for          nlocal pot:       1.69 MB

     Dynamical RAM for                qrad:       5.27 MB

     Dynamical RAM for          rho,v,vnew:       6.25 MB

     Dynamical RAM for               rhoin:       2.08 MB

     Dynamical RAM for            rho*nmix:      14.56 MB

     Dynamical RAM for           G-vectors:       3.57 MB

     Dynamical RAM for          h,s,v(r/c):       0.13 MB

     Dynamical RAM for          <psi|beta>:       0.02 MB

     Dynamical RAM for                 psi:       2.18 MB

     Dynamical RAM for                hpsi:       2.18 MB

     Dynamical RAM for                spsi:       2.18 MB

     Dynamical RAM for      wfcinit/wfcrot:       2.19 MB

     Dynamical RAM for           addusdens:     171.09 MB

     Dynamical RAM for          addusforce:     173.37 MB

     Estimated static dynamical RAM per process >      59.38 MB

     Estimated max dynamical RAM per process >     247.31 MB

     Check: negative core charge=   -0.000008

     Initial potential from superposition of free atoms

     starting charge      37.9934, renormalised to      38.0000
     Starting wfcs are   23 randomized atomic wfcs +    4 random wfcs
     Checking if some PAW data can be deallocated... 

     total cpu time spent up to now is        3.3 secs

     Self-consistent Calculation
[tb_dev] Currently allocated     6.54E-01 Mbytes, locked:    0 /   6
[tb_pin] Currently allocated     0.00E+00 Mbytes, locked:    0 /   0

     iteration #  1     ecut=    60.00 Ry     beta= 0.30
     Davidson diagonalization with overlap

---- Real-time Memory Report at c_bands before calling an iterative solver
           635 MiB given to the printing process from OS
             0 MiB allocation reported by mallinfo(arena+hblkhd)
        763078 MiB available memory on the node where the printing process lives
     GPU memory used/free/total (MiB): 974 / 80176 / 81151
------------------
     ethr =  1.00E-02,  avg # of iterations =  9.6

     total cpu time spent up to now is        4.5 secs

     total energy              =    -569.28123929 Ry
     estimated scf accuracy    <       0.87001786 Ry
[tb_dev] Currently allocated     3.05E-05 Mbytes, locked:    0 /   2
[tb_pin] Currently allocated     0.00E+00 Mbytes, locked:    0 /   0

     iteration #  2     ecut=    60.00 Ry     beta= 0.30
     Davidson diagonalization with overlap

---- Real-time Memory Report at c_bands before calling an iterative solver
           668 MiB given to the printing process from OS
             0 MiB allocation reported by mallinfo(arena+hblkhd)
        763053 MiB available memory on the node where the printing process lives
     GPU memory used/free/total (MiB): 988 / 80162 / 81151
------------------
     ethr =  2.29E-03,  avg # of iterations =  2.0

     total cpu time spent up to now is        5.2 secs

     total energy              =    -569.28228383 Ry
     estimated scf accuracy    <       0.40644507 Ry
[tb_dev] Currently allocated     3.05E-05 Mbytes, locked:    0 /   2
[tb_pin] Currently allocated     0.00E+00 Mbytes, locked:    0 /   0

     iteration #  3     ecut=    60.00 Ry     beta= 0.30
     Davidson diagonalization with overlap

---- Real-time Memory Report at c_bands before calling an iterative solver
           670 MiB given to the printing process from OS
             0 MiB allocation reported by mallinfo(arena+hblkhd)
        763053 MiB available memory on the node where the printing process lives
     GPU memory used/free/total (MiB): 988 / 80162 / 81151
------------------
     ethr =  1.07E-03,  avg # of iterations =  2.0

     total cpu time spent up to now is        5.8 secs

     total energy              =    -569.24660295 Ry
     estimated scf accuracy    <       0.21496734 Ry
[tb_dev] Currently allocated     3.05E-05 Mbytes, locked:    0 /   2
[tb_pin] Currently allocated     0.00E+00 Mbytes, locked:    0 /   0

     iteration #  4     ecut=    60.00 Ry     beta= 0.30
     Davidson diagonalization with overlap

---- Real-time Memory Report at c_bands before calling an iterative solver
           671 MiB given to the printing process from OS
             0 MiB allocation reported by mallinfo(arena+hblkhd)
        763052 MiB available memory on the node where the printing process lives
     GPU memory used/free/total (MiB): 988 / 80162 / 81151
------------------
     ethr =  5.66E-04,  avg # of iterations =  6.5

     total cpu time spent up to now is        6.8 secs

     total energy              =    -569.26882157 Ry
     estimated scf accuracy    <       0.04595832 Ry
[tb_dev] Currently allocated     3.05E-05 Mbytes, locked:    0 /   2
[tb_pin] Currently allocated     0.00E+00 Mbytes, locked:    0 /   0

     iteration #  5     ecut=    60.00 Ry     beta= 0.30
     Davidson diagonalization with overlap

---- Real-time Memory Report at c_bands before calling an iterative solver
           672 MiB given to the printing process from OS
             0 MiB allocation reported by mallinfo(arena+hblkhd)
        763053 MiB available memory on the node where the printing process lives
     GPU memory used/free/total (MiB): 988 / 80162 / 81151
------------------
     ethr =  1.21E-04,  avg # of iterations =  6.2
     Minimization algorithm failed to find Fermi energy: reverting to bisection
     Possible cause: smearing is larger than the electronic band-gap.

     total cpu time spent up to now is        7.7 secs

     total energy              =    -569.25908022 Ry
     estimated scf accuracy    <       0.05437535 Ry
[tb_dev] Currently allocated     3.05E-05 Mbytes, locked:    0 /   2
[tb_pin] Currently allocated     0.00E+00 Mbytes, locked:    0 /   0

     iteration #  6     ecut=    60.00 Ry     beta= 0.30
     Davidson diagonalization with overlap

---- Real-time Memory Report at c_bands before calling an iterative solver
           674 MiB given to the printing process from OS
             0 MiB allocation reported by mallinfo(arena+hblkhd)
        763053 MiB available memory on the node where the printing process lives
     GPU memory used/free/total (MiB): 988 / 80162 / 81151
------------------
     ethr =  1.21E-04,  avg # of iterations =  3.1

     total cpu time spent up to now is        8.5 secs

     total energy              =    -569.26822264 Ry
     estimated scf accuracy    <       0.01486710 Ry
[tb_dev] Currently allocated     3.05E-05 Mbytes, locked:    0 /   2
[tb_pin] Currently allocated     0.00E+00 Mbytes, locked:    0 /   0

     iteration #  7     ecut=    60.00 Ry     beta= 0.30
     Davidson diagonalization with overlap

---- Real-time Memory Report at c_bands before calling an iterative solver
           676 MiB given to the printing process from OS
             0 MiB allocation reported by mallinfo(arena+hblkhd)
        763027 MiB available memory on the node where the printing process lives
     GPU memory used/free/total (MiB): 988 / 80162 / 81151
------------------
     ethr =  3.91E-05,  avg # of iterations =  3.0

     total cpu time spent up to now is        9.3 secs

     total energy              =    -569.27024620 Ry
     estimated scf accuracy    <       0.00158916 Ry
[tb_dev] Currently allocated     3.05E-05 Mbytes, locked:    0 /   2
[tb_pin] Currently allocated     0.00E+00 Mbytes, locked:    0 /   0

     iteration #  8     ecut=    60.00 Ry     beta= 0.30
     Davidson diagonalization with overlap

---- Real-time Memory Report at c_bands before calling an iterative solver
           676 MiB given to the printing process from OS
             0 MiB allocation reported by mallinfo(arena+hblkhd)
        763029 MiB available memory on the node where the printing process lives
     GPU memory used/free/total (MiB): 988 / 80162 / 81151
------------------
     ethr =  4.18E-06,  avg # of iterations =  8.4

     total cpu time spent up to now is       10.4 secs

     total energy              =    -569.27075041 Ry
     estimated scf accuracy    <       0.00074810 Ry
[tb_dev] Currently allocated     3.05E-05 Mbytes, locked:    0 /   2
[tb_pin] Currently allocated     0.00E+00 Mbytes, locked:    0 /   0

     iteration #  9     ecut=    60.00 Ry     beta= 0.30
     Davidson diagonalization with overlap

---- Real-time Memory Report at c_bands before calling an iterative solver
           676 MiB given to the printing process from OS
             0 MiB allocation reported by mallinfo(arena+hblkhd)
        763029 MiB available memory on the node where the printing process lives
     GPU memory used/free/total (MiB): 988 / 80162 / 81151
------------------
     ethr =  1.97E-06,  avg # of iterations =  2.3

     total cpu time spent up to now is       11.1 secs

     total energy              =    -569.27066759 Ry
     estimated scf accuracy    <       0.00069219 Ry
[tb_dev] Currently allocated     3.05E-05 Mbytes, locked:    0 /   2
[tb_pin] Currently allocated     0.00E+00 Mbytes, locked:    0 /   0

     iteration # 10     ecut=    60.00 Ry     beta= 0.30
     Davidson diagonalization with overlap

---- Real-time Memory Report at c_bands before calling an iterative solver
           677 MiB given to the printing process from OS
             0 MiB allocation reported by mallinfo(arena+hblkhd)
        763028 MiB available memory on the node where the printing process lives
     GPU memory used/free/total (MiB): 988 / 80162 / 81151
------------------
     ethr =  1.82E-06,  avg # of iterations =  3.4

     total cpu time spent up to now is       11.9 secs

     total energy              =    -569.27082926 Ry
     estimated scf accuracy    <       0.00065957 Ry
[tb_dev] Currently allocated     3.05E-05 Mbytes, locked:    0 /   2
[tb_pin] Currently allocated     0.00E+00 Mbytes, locked:    0 /   0

     iteration # 11     ecut=    60.00 Ry     beta= 0.30
     Davidson diagonalization with overlap

---- Real-time Memory Report at c_bands before calling an iterative solver
           678 MiB given to the printing process from OS
             0 MiB allocation reported by mallinfo(arena+hblkhd)
        763040 MiB available memory on the node where the printing process lives
     GPU memory used/free/total (MiB): 988 / 80162 / 81151
------------------
     ethr =  1.74E-06,  avg # of iterations =  1.4

     total cpu time spent up to now is       12.5 secs

     total energy              =    -569.27085131 Ry
     estimated scf accuracy    <       0.00013056 Ry
[tb_dev] Currently allocated     3.05E-05 Mbytes, locked:    0 /   2
[tb_pin] Currently allocated     0.00E+00 Mbytes, locked:    0 /   0

     iteration # 12     ecut=    60.00 Ry     beta= 0.30
     Davidson diagonalization with overlap

---- Real-time Memory Report at c_bands before calling an iterative solver
           678 MiB given to the printing process from OS
             0 MiB allocation reported by mallinfo(arena+hblkhd)
        763039 MiB available memory on the node where the printing process lives
     GPU memory used/free/total (MiB): 988 / 80162 / 81151
------------------
     ethr =  3.44E-07,  avg # of iterations =  2.0

     total cpu time spent up to now is       13.2 secs

     total energy              =    -569.27083266 Ry
     estimated scf accuracy    <       0.00013473 Ry
[tb_dev] Currently allocated     3.05E-05 Mbytes, locked:    0 /   2
[tb_pin] Currently allocated     0.00E+00 Mbytes, locked:    0 /   0

     iteration # 13     ecut=    60.00 Ry     beta= 0.30
     Davidson diagonalization with overlap

---- Real-time Memory Report at c_bands before calling an iterative solver
           678 MiB given to the printing process from OS
             0 MiB allocation reported by mallinfo(arena+hblkhd)
        763039 MiB available memory on the node where the printing process lives
     GPU memory used/free/total (MiB): 988 / 80162 / 81151
------------------
     ethr =  3.44E-07,  avg # of iterations =  1.7

     total cpu time spent up to now is       13.9 secs

     total energy              =    -569.27084665 Ry
     estimated scf accuracy    <       0.00000102 Ry
[tb_dev] Currently allocated     3.05E-05 Mbytes, locked:    0 /   2
[tb_pin] Currently allocated     0.00E+00 Mbytes, locked:    0 /   0

     iteration # 14     ecut=    60.00 Ry     beta= 0.30
     Davidson diagonalization with overlap

---- Real-time Memory Report at c_bands before calling an iterative solver
           678 MiB given to the printing process from OS
             0 MiB allocation reported by mallinfo(arena+hblkhd)
        763049 MiB available memory on the node where the printing process lives
     GPU memory used/free/total (MiB): 988 / 80162 / 81151
------------------
     ethr =  2.70E-09,  avg # of iterations = 12.7

     total cpu time spent up to now is       15.3 secs

     total energy              =    -569.27085297 Ry
     estimated scf accuracy    <       0.00000044 Ry
[tb_dev] Currently allocated     3.05E-05 Mbytes, locked:    0 /   2
[tb_pin] Currently allocated     0.00E+00 Mbytes, locked:    0 /   0

     iteration # 15     ecut=    60.00 Ry     beta= 0.30
     Davidson diagonalization with overlap

---- Real-time Memory Report at c_bands before calling an iterative solver
           678 MiB given to the printing process from OS
             0 MiB allocation reported by mallinfo(arena+hblkhd)
        763057 MiB available memory on the node where the printing process lives
     GPU memory used/free/total (MiB): 988 / 80162 / 81151
------------------
     ethr =  1.17E-09,  avg # of iterations =  2.8

     total cpu time spent up to now is       16.0 secs

     total energy              =    -569.27085305 Ry
     estimated scf accuracy    <       0.00000019 Ry
[tb_dev] Currently allocated     3.05E-05 Mbytes, locked:    0 /   2
[tb_pin] Currently allocated     0.00E+00 Mbytes, locked:    0 /   0

     iteration # 16     ecut=    60.00 Ry     beta= 0.30
     Davidson diagonalization with overlap

---- Real-time Memory Report at c_bands before calling an iterative solver
           678 MiB given to the printing process from OS
             0 MiB allocation reported by mallinfo(arena+hblkhd)
        763047 MiB available memory on the node where the printing process lives
     GPU memory used/free/total (MiB): 988 / 80162 / 81151
------------------
     ethr =  5.13E-10,  avg # of iterations =  4.0

     total cpu time spent up to now is       16.8 secs

     total energy              =    -569.27085311 Ry
     estimated scf accuracy    <       0.00000011 Ry
[tb_dev] Currently allocated     3.05E-05 Mbytes, locked:    0 /   2
[tb_pin] Currently allocated     0.00E+00 Mbytes, locked:    0 /   0

     iteration # 17     ecut=    60.00 Ry     beta= 0.30
     Davidson diagonalization with overlap

---- Real-time Memory Report at c_bands before calling an iterative solver
           678 MiB given to the printing process from OS
             0 MiB allocation reported by mallinfo(arena+hblkhd)
        763044 MiB available memory on the node where the printing process lives
     GPU memory used/free/total (MiB): 988 / 80162 / 81151
------------------
     ethr =  3.02E-10,  avg # of iterations =  2.2

     total cpu time spent up to now is       17.5 secs

     End of self-consistent calculation

          k = 0.0000 0.0000 0.0000 (  2625 PWs)   bands (ev):

   -87.4353 -50.6779 -50.6779 -50.6639 -46.0520 -17.8784 -17.8784 -17.8580
   -11.9224 -10.1084   1.4966   2.5943   2.5943   4.9008   5.9102   5.9102
     6.3424   6.6024   6.6024   8.0338  10.1078  10.1078  13.1641  15.2384
    18.0603  22.1066  24.8795

     occupation numbers 
     1.0000   1.0000   1.0000   1.0000   1.0000   1.0000   1.0000   1.0000
     1.0000   1.0000   1.0000   1.0000   1.0000   1.0000   1.0000   1.0000
     1.0000   1.0000   1.0000   0.0199   0.0000   0.0000   0.0000   0.0000
     0.0000   0.0000   0.0000

          k = 0.0000 0.0000 0.1395 (  2666 PWs)   bands (ev):

   -87.4354 -50.6781 -50.6781 -50.6641 -46.0521 -17.8789 -17.8789 -17.8585
   -11.9172 -10.1164   1.6599   2.5944   2.5944   4.1834   5.9094   5.9094
     6.6024   6.6024   7.2727   7.9374  10.1086  10.1086  12.2353  16.1632
    17.9727  22.0656  24.6946

     occupation numbers 
     1.0000   1.0000   1.0000   1.0000   1.0000   1.0000   1.0000   1.0000
     1.0000   1.0000   1.0000   1.0000   1.0000   1.0000   1.0000   1.0000
     1.0000   1.0000   1.0696   0.0667   0.0000   0.0000   0.0000   0.0000
     0.0000   0.0000   0.0000

          k = 0.0000 0.1443 0.0000 (  2643 PWs)   bands (ev):

   -87.4346 -50.6865 -50.6800 -50.6628 -46.0469 -17.9221 -17.8880 -17.8510
   -11.7515 -10.1041   1.7287   2.3177   2.6955   4.8441   5.3238   5.3896
     6.6568   6.8685   7.0357   8.1831   9.6330  10.0071  13.4603  15.8668
    18.6992  21.5769  22.1820

     occupation numbers 
     1.0000   1.0000   1.0000   1.0000   1.0000   1.0000   1.0000   1.0000
     1.0000   1.0000   1.0000   1.0000   1.0000   1.0000   1.0000   1.0000
     1.0000   1.0007   1.0085   0.0019   0.0000   0.0000   0.0000   0.0000
     0.0000   0.0000   0.0000

          k = 0.0000 0.1443 0.1395 (  2651 PWs)   bands (ev):

   -87.4346 -50.6865 -50.6800 -50.6628 -46.0469 -17.9222 -17.8880 -17.8513
   -11.7469 -10.1107   1.8657   2.2802   2.6956   4.7281   4.8952   5.3892
     6.8279   7.0356   7.4393   8.0094   9.7711  10.0075  12.6781  16.7234
    18.4268  21.3596  22.4765

     occupation numbers 
     1.0000   1.0000   1.0000   1.0000   1.0000   1.0000   1.0000   1.0000
     1.0000   1.0000   1.0000   1.0000   1.0000   1.0000   1.0000   1.0000
     1.0003   1.0085   1.0474   0.0277   0.0000   0.0000   0.0000   0.0000
     0.0000   0.0000   0.0000

          k = 0.0000 0.2887 0.0000 (  2620 PWs)   bands (ev):

   -87.4327 -50.7069 -50.6848 -50.6597 -46.0344 -18.0254 -17.9103 -17.8336
   -11.3025 -10.1069   1.9328   2.3086   2.9360   3.4054   4.7840   5.6566
     6.9618   7.3143   7.3406   8.3274   9.2524   9.8793  14.0481  17.2542
    17.9840  20.0995  21.5665

     occupation numbers 
     1.0000   1.0000   1.0000   1.0000   1.0000   1.0000   1.0000   1.0000
     1.0000   1.0000   1.0000   1.0000   1.0000   1.0000   1.0000   1.0000
     1.0030   1.0801   1.0832   0.0001   0.0000   0.0000   0.0000   0.0000
     0.0000   0.0000   0.0000

          k = 0.0000 0.2887 0.1395 (  2636 PWs)   bands (ev):

   -87.4327 -50.7069 -50.6849 -50.6597 -46.0344 -18.0255 -17.9105 -17.8338
   -11.2996 -10.1107   1.8755   2.3978   2.9361   3.4514   4.7837   5.4768
     6.8757   7.3405   7.6490   7.9080   9.7158   9.8790  13.6057  17.7116
    17.9759  19.3929  21.7224

     occupation numbers 
     1.0000   1.0000   1.0000   1.0000   1.0000   1.0000   1.0000   1.0000
     1.0000   1.0000   1.0000   1.0000   1.0000   1.0000   1.0000   1.0000
     1.0008   1.0832   0.6250   0.0919   0.0000   0.0000   0.0000   0.0000
     0.0000   0.0000   0.0000

          k = 0.0000 0.4330 0.0000 (  2652 PWs)   bands (ev):

   -87.4309 -50.7274 -50.6899 -50.6567 -46.0220 -18.1273 -17.9331 -17.8166
   -10.7608 -10.1616   1.4289   2.3999   3.1321   3.3650   4.4908   5.1371
     6.8937   7.2414   7.4499   8.9828   9.9122  10.0528  14.4013  15.3679
    18.2946  19.2223  20.4494

     occupation numbers 
     1.0000   1.0000   1.0000   1.0000   1.0000   1.0000   1.0000   1.0000
     1.0000   1.0000   1.0000   1.0000   1.0000   1.0000   1.0000   1.0000
     1.0010   1.0593   1.0377   0.0000   0.0000   0.0000   0.0000   0.0000
     0.0000   0.0000   0.0000

          k = 0.0000 0.4330 0.1395 (  2641 PWs)   bands (ev):

   -87.4309 -50.7274 -50.6898 -50.6567 -46.0220 -18.1271 -17.9329 -17.8166
   -10.7594 -10.1631   1.4204   2.3764   3.1323   3.4213   4.4907   5.1628
     6.8708   7.2414   7.4634   8.6866   9.9119  10.3906  14.4584  14.9824
    18.8628  19.2245  19.8412

     occupation numbers 
     1.0000   1.0000   1.0000   1.0000   1.0000   1.0000   1.0000   1.0000
     1.0000   1.0000   1.0000   1.0000   1.0000   1.0000   1.0000   1.0000
     1.0007   1.0593   1.0232   0.0000   0.0000   0.0000   0.0000   0.0000
     0.0000   0.0000   0.0000

          k = 0.0000-0.5774 0.0000 (  2642 PWs)   bands (ev):

   -87.4302 -50.7360 -50.6919 -50.6553 -46.0168 -18.1689 -17.9422 -17.8091
   -10.3837 -10.3216   1.0345   2.5037   3.1774   3.6825   4.4598   4.7412
     6.7583   7.1167   7.3958   9.3944   9.9614  11.4018  12.6279  16.4812
    16.5760  19.6389  19.8587

     occupation numbers 
     1.0000   1.0000   1.0000   1.0000   1.0000   1.0000   1.0000   1.0000
     1.0000   1.0000   1.0000   1.0000   1.0000   1.0000   1.0000   1.0000
     1.0001   1.0216   1.0744   0.0000   0.0000   0.0000   0.0000   0.0000
     0.0000   0.0000   0.0000

          k = 0.0000-0.5774 0.1395 (  2638 PWs)   bands (ev):

   -87.4302 -50.7359 -50.6918 -50.6554 -46.0168 -18.1687 -17.9421 -17.8093
   -10.3847 -10.3205   1.0341   2.4798   3.1776   3.6973   4.4597   4.7860
     6.7489   7.1167   7.3894   9.3702   9.9611  11.4137  12.5039  16.2898
    17.2235  19.0975  19.9081

     occupation numbers 
     1.0000   1.0000   1.0000   1.0000   1.0000   1.0000   1.0000   1.0000
     1.0000   1.0000   1.0000   1.0000   1.0000   1.0000   1.0000   1.0000
     1.0001   1.0216   1.0768   0.0000   0.0000   0.0000   0.0000   0.0000
     0.0000   0.0000   0.0000

          k = 0.1250 0.2165 0.0000 (  2659 PWs)   bands (ev):

   -87.4333 -50.7001 -50.6845 -50.6608 -46.0381 -17.9908 -17.9089 -17.8391
   -11.4413 -10.1026   2.0621   2.1375   2.8160   3.9010   4.6842   5.6877
     6.9973   7.1548   7.3304   8.3172   9.2203   9.8442  13.8878  16.8981
    19.0049  20.0319  21.2423

     occupation numbers 
     1.0000   1.0000   1.0000   1.0000   1.0000   1.0000   1.0000   1.0000
     1.0000   1.0000   1.0000   1.0000   1.0000   1.0000   1.0000   1.0000
     1.0051   1.0312   1.0824   0.0001   0.0000   0.0000   0.0000   0.0000
     0.0000   0.0000   0.0000

          k = 0.1250 0.2165 0.1395 (  2634 PWs)   bands (ev):

   -87.4333 -50.6999 -50.6844 -50.6606 -46.0381 -17.9904 -17.9088 -17.8389
   -11.4380 -10.1070   1.9986   2.2508   2.8183   3.9404   4.6827   5.3696
     7.0088   7.1895   7.5959   8.1647   9.4951   9.7913  13.4567  17.4588
    19.0977  19.1943  21.7496

     occupation numbers 
     1.0000   1.0000   1.0000   1.0000   1.0000   1.0000   1.0000   1.0000
     1.0000   1.0000   1.0000   1.0000   1.0000   1.0000   1.0000   1.0000
     1.0060   1.0417   0.7679   0.0026   0.0000   0.0000   0.0000   0.0000
     0.0000   0.0000   0.0000

          k = 0.1250 0.3608 0.0000 (  2630 PWs)   bands (ev):

   -87.4314 -50.7183 -50.6913 -50.6576 -46.0256 -18.0820 -17.9419 -17.8215
   -10.9468 -10.1238   1.8489   2.3398   3.0167   3.2761   4.1795   5.4729
     7.0317   7.3581   7.5223   8.7208   9.3600   9.9599  14.5363  16.3791
    18.2194  19.9323  20.4217

     occupation numbers 
     1.0000   1.0000   1.0000   1.0000   1.0000   1.0000   1.0000   1.0000
     1.0000   1.0000   1.0000   1.0000   1.0000   1.0000   1.0000   1.0000
     1.0081   1.0829   0.9337   0.0000   0.0000   0.0000   0.0000   0.0000
     0.0000   0.0000   0.0000

          k = 0.1250 0.3608 0.1395 (  2633 PWs)   bands (ev):

   -87.4314 -50.7183 -50.6914 -50.6575 -46.0256 -18.0820 -17.9420 -17.8215
   -10.9451 -10.1258   1.8166   2.3371   3.0514   3.3244   4.1790   5.4473
     7.0213   7.3434   7.5155   8.4769   9.5993  10.0353  14.4496  16.2183
    18.3205  19.7867  20.4190

     occupation numbers 
     1.0000   1.0000   1.0000   1.0000   1.0000   1.0000   1.0000   1.0000
     1.0000   1.0000   1.0000   1.0000   1.0000   1.0000   1.0000   1.0000
     1.0070   1.0833   0.9463   0.0000   0.0000   0.0000   0.0000   0.0000
     0.0000   0.0000   0.0000

          k = 0.1250 0.5052 0.0000 (  2636 PWs)   bands (ev):

   -87.4302 -50.7313 -50.6965 -50.6553 -46.0168 -18.1453 -17.9660 -17.8092
   -10.4894 -10.2169   1.3246   2.3154   3.2801   3.5932   4.0456   4.8345
     6.8855   7.1927   7.5058   9.2969   9.6489  11.0996  13.5289  15.9866
    17.7736  18.6797  20.1445

     occupation numbers 
     1.0000   1.0000   1.0000   1.0000   1.0000   1.0000   1.0000   1.0000
     1.0000   1.0000   1.0000   1.0000   1.0000   1.0000   1.0000   1.0000
     1.0009   1.0427   0.9630   0.0000   0.0000   0.0000   0.0000   0.0000
     0.0000   0.0000   0.0000

          k = 0.1250 0.5052 0.1395 (  2647 PWs)   bands (ev):

   -87.4302 -50.7313 -50.6965 -50.6554 -46.0169 -18.1454 -17.9661 -17.8094
   -10.4888 -10.2175   1.3241   2.2986   3.2723   3.6181   4.0456   4.8661
     6.8775   7.1952   7.4924   9.2337   9.6977  11.0966  13.4412  15.9125
    18.2611  18.4413  20.0857

     occupation numbers 
     1.0000   1.0000   1.0000   1.0000   1.0000   1.0000   1.0000   1.0000
     1.0000   1.0000   1.0000   1.0000   1.0000   1.0000   1.0000   1.0000
     1.0008   1.0436   0.9844   0.0000   0.0000   0.0000   0.0000   0.0000
     0.0000   0.0000   0.0000

          k = 0.2500 0.4330 0.0000 (  2639 PWs)   bands (ev):

   -87.4302 -50.7249 -50.7028 -50.6554 -46.0169 -18.1128 -17.9990 -17.8094
   -10.5437 -10.1637   1.8999   2.0127   2.9951   3.6289   3.7616   4.9465
     6.9772   7.2454   7.6427   9.1264   9.4130  10.9480  14.4715  15.9639
    17.3671  19.5665  19.8911

     occupation numbers 
     1.0000   1.0000   1.0000   1.0000   1.0000   1.0000   1.0000   1.0000
     1.0000   1.0000   1.0000   1.0000   1.0000   1.0000   1.0000   1.0000
     1.0038   1.0607   0.6425   0.0000   0.0000   0.0000   0.0000   0.0000
     0.0000   0.0000   0.0000

          k = 0.2500 0.4330 0.1395 (  2630 PWs)   bands (ev):

   -87.4302 -50.7248 -50.7027 -50.6554 -46.0168 -18.1126 -17.9989 -17.8094
   -10.5434 -10.1640   1.9002   1.9941   2.9996   3.6710   3.7522   4.9450
     6.9799   7.2500   7.6015   9.2371   9.3869  10.8058  14.4968  16.0207
    17.2225  19.6922  19.8556

     occupation numbers 
     1.0000   1.0000   1.0000   1.0000   1.0000   1.0000   1.0000   1.0000
     1.0000   1.0000   1.0000   1.0000   1.0000   1.0000   1.0000   1.0000
     1.0040   1.0623   0.7536   0.0000   0.0000   0.0000   0.0000   0.0000
     0.0000   0.0000   0.0000

          k = 0.2500 0.5774 0.0000 (  2630 PWs)   bands (ev):

   -87.4296 -50.7253 -50.7097 -50.6545 -46.0132 -18.1139 -18.0338 -17.8042
   -10.3061 -10.2422   1.7329   2.1389   2.7583   3.7737   4.0280   4.4583
     6.7772   7.4042   7.5945   9.3210   9.3589  12.2986  13.1579  16.6362
    17.4896  17.5637  19.5780

     occupation numbers 
     1.0000   1.0000   1.0000   1.0000   1.0000   1.0000   1.0000   1.0000
     1.0000   1.0000   1.0000   1.0000   1.0000   1.0000   1.0000   1.0000
     1.0001   1.0708   0.7716   0.0000   0.0000   0.0000   0.0000   0.0000
     0.0000   0.0000   0.0000

          k = 0.2500 0.5774 0.1395 (  2649 PWs)   bands (ev):

   -87.4296 -50.7254 -50.7098 -50.6546 -46.0132 -18.1140 -18.0340 -17.8045
   -10.3064 -10.2419   1.7323   2.1336   2.7636   3.7702   4.0331   4.4619
     6.7781   7.4051   7.5806   9.3710   9.3986  12.1500  13.0484  16.5503
    17.5816  17.8570  19.5787

     occupation numbers 
     1.0000   1.0000   1.0000   1.0000   1.0000   1.0000   1.0000   1.0000
     1.0000   1.0000   1.0000   1.0000   1.0000   1.0000   1.0000   1.0000
     1.0001   1.0703   0.8065   0.0000   0.0000   0.0000   0.0000   0.0000
     0.0000   0.0000   0.0000

          k = 0.0000 0.1443-0.1395 (  2651 PWs)   bands (ev):

   -87.4346 -50.6865 -50.6800 -50.6628 -46.0469 -17.9222 -17.8880 -17.8513
   -11.7470 -10.1107   1.8716   2.2745   2.6956   4.6422   4.9891   5.3891
     6.8134   7.0355   7.4193   8.0904   9.6721  10.0080  12.7490  16.6700
    18.4441  21.5925  22.1998

     occupation numbers 
     1.0000   1.0000   1.0000   1.0000   1.0000   1.0000   1.0000   1.0000
     1.0000   1.0000   1.0000   1.0000   1.0000   1.0000   1.0000   1.0000
     1.0002   1.0085   1.0624   0.0088   0.0000   0.0000   0.0000   0.0000
     0.0000   0.0000   0.0000

          k = 0.0000 0.2887-0.1395 (  2636 PWs)   bands (ev):

   -87.4327 -50.7069 -50.6849 -50.6597 -46.0344 -18.0255 -17.9105 -17.8338
   -11.2998 -10.1104   1.8939   2.3658   2.9361   3.4682   4.7837   5.4370
     6.9013   7.3404   7.4883   8.3974   9.2713   9.8796  13.8593  17.2681
    18.3879  19.4784  21.7869

     occupation numbers 
     1.0000   1.0000   1.0000   1.0000   1.0000   1.0000   1.0000   1.0000
     1.0000   1.0000   1.0000   1.0000   1.0000   1.0000   1.0000   1.0000
     1.0012   1.0832   0.9906   0.0000   0.0000   0.0000   0.0000   0.0000
     0.0000   0.0000   0.0000

          k = 0.0000 0.4330-0.1395 (  2641 PWs)   bands (ev):

   -87.4309 -50.7274 -50.6898 -50.6567 -46.0220 -18.1271 -17.9329 -17.8166
   -10.7602 -10.1621   1.4155   2.3739   3.1323   3.4465   4.4907   5.1156
     6.8861   7.2414   7.4212   9.0531   9.9122   9.9350  14.5204  15.3824
    18.3464  19.1370  20.2172

     occupation numbers 
     1.0000   1.0000   1.0000   1.0000   1.0000   1.0000   1.0000   1.0000
     1.0000   1.0000   1.0000   1.0000   1.0000   1.0000   1.0000   1.0000
     1.0009   1.0593   1.0612   0.0000   0.0000   0.0000   0.0000   0.0000
     0.0000   0.0000   0.0000

          k =-0.1250 0.3608-0.1395 (  2633 PWs)   bands (ev):

   -87.4314 -50.7183 -50.6914 -50.6575 -46.0256 -18.0820 -17.9420 -17.8215
   -10.9453 -10.1254   1.8175   2.3295   3.0421   3.3502   4.1763   5.4165
     7.0461   7.3785   7.4190   8.8013   9.3698   9.9251  14.6163  16.2370
    18.2564  20.0500  20.5596

     occupation numbers 
     1.0000   1.0000   1.0000   1.0000   1.0000   1.0000   1.0000   1.0000
     1.0000   1.0000   1.0000   1.0000   1.0000   1.0000   1.0000   1.0000
     1.0097   1.0799   1.0626   0.0000   0.0000   0.0000   0.0000   0.0000
     0.0000   0.0000   0.0000

          k =-0.1250 0.5052-0.1395 (  2647 PWs)   bands (ev):

   -87.4302 -50.7313 -50.6965 -50.6554 -46.0169 -18.1454 -17.9661 -17.8094
   -10.4897 -10.2166   1.3206   2.3007   3.2755   3.6227   4.0518   4.8444
     6.8844   7.1943   7.4813   9.3652   9.6599  10.9328  13.4906  16.2346
    17.8283  18.5220  20.2157

     occupation numbers 
     1.0000   1.0000   1.0000   1.0000   1.0000   1.0000   1.0000   1.0000
     1.0000   1.0000   1.0000   1.0000   1.0000   1.0000   1.0000   1.0000
     1.0009   1.0432   1.0005   0.0000   0.0000   0.0000   0.0000   0.0000
     0.0000   0.0000   0.0000

     the Fermi energy is     7.7323 ev

!    total energy              =    -569.27085309 Ry
     total all-electron energy =     -3412.761408 Ry
     estimated scf accuracy    <       0.00000006 Ry
     smearing contrib. (-TS)   =       0.00660357 Ry
     internal energy E=F+TS    =    -569.27745667 Ry

     The total energy is F=E-TS. E is the sum of the following terms:
     one-electron contribution =    -416.35838178 Ry
     hartree contribution      =     225.97851990 Ry
     xc contribution           =     -60.14354833 Ry
     ewald contribution        =    -196.82218580 Ry
     one-center paw contrib.   =    -121.93186065 Ry
      -> PAW hartree energy AE =     344.16667671 Ry
      -> PAW hartree energy PS =    -344.15029721 Ry
      -> PAW xc energy AE      =    -179.05513044 Ry
      -> PAW xc energy PS      =      57.10689029 Ry
      -> total E_H with PAW    =     225.99489941 Ry
      -> total E_XC with PAW   =    -182.09178849 Ry

     convergence has been achieved in  17 iterations

     Forces acting on atoms (cartesian axes, Ry/au):

     atom    1 type  1   force =     0.00000000    0.00000000    0.00000000
     atom    2 type  2   force =     0.00000000    0.00000000    0.01953740
     atom    3 type  2   force =     0.00000000    0.00000000   -0.01953740
     atom    4 type  3   force =     0.00000000    0.00000000    0.00000000
     The non-local contrib.  to forces
     atom    1 type  1   force =     0.00000000    0.00000000    0.00000000
     atom    2 type  2   force =     0.00000000    0.00000000   -0.70355334
     atom    3 type  2   force =     0.00000000    0.00000000    0.70355334
     atom    4 type  3   force =     0.00000000    0.00000000    0.00000000
     The ionic contribution  to forces
     atom    1 type  1   force =    -0.00000000   -0.00000000   -0.00000000
     atom    2 type  2   force =     0.00000000   -0.00000000   25.79816724
     atom    3 type  2   force =    -0.00000000    0.00000000  -25.79816724
     atom    4 type  3   force =    -0.00000000    0.00000000    0.00000000
     The local contribution  to forces
     atom    1 type  1   force =     0.00000000    0.00000000    0.00000000
     atom    2 type  2   force =     0.00000001   -0.00000001  -25.08054769
     atom    3 type  2   force =    -0.00000001    0.00000001   25.08054769
     atom    4 type  3   force =    -0.00000000   -0.00000000    0.00000000
     The core correction contribution to forces
     atom    1 type  1   force =    -0.00000000   -0.00000000    0.00000000
     atom    2 type  2   force =    -0.00000000    0.00000000    0.00570917
     atom    3 type  2   force =     0.00000000   -0.00000000   -0.00570917
     atom    4 type  3   force =    -0.00000000   -0.00000000    0.00000000
     The Hubbard contrib.    to forces
     atom    1 type  1   force =     0.00000000    0.00000000    0.00000000
     atom    2 type  2   force =     0.00000000    0.00000000    0.00000000
     atom    3 type  2   force =     0.00000000    0.00000000    0.00000000
     atom    4 type  3   force =     0.00000000    0.00000000    0.00000000
     The SCF correction term to forces
     atom    1 type  1   force =    -0.00000000    0.00000000    0.00000000
     atom    2 type  2   force =    -0.00000000    0.00000000   -0.00023797
     atom    3 type  2   force =     0.00000000   -0.00000000    0.00023797
     atom    4 type  3   force =     0.00000000    0.00000000   -0.00000000

     Total force =     0.027630     Total SCF correction =     0.000337

     Writing all to output data dir ./out/pw.save/ :
     XML data file, charge density, pseudopotentials, collected wavefunctions
 
     init_run     :     11.69s CPU      2.84s WALL (       1 calls)
     electrons    :     67.89s CPU     14.25s WALL (       1 calls)
     forces       :      0.39s CPU      0.38s WALL (       1 calls)

     Called by init_run:
     wfcinit      :      0.15s CPU      0.22s WALL (       1 calls)
     wfcinit:atom :      0.02s CPU      0.02s WALL (      25 calls)
     wfcinit:wfcr :      0.09s CPU      0.15s WALL (      25 calls)
     potinit      :     11.03s CPU      2.08s WALL (       1 calls)
     hinit0       :      0.42s CPU      0.42s WALL (       1 calls)

     Called by electrons:
     c_bands      :      6.28s CPU      6.37s WALL (      17 calls)
     sum_band     :      0.96s CPU      0.98s WALL (      17 calls)
     v_of_rho     :      0.25s CPU      0.11s WALL (      18 calls)
     v_h          :      0.20s CPU      0.03s WALL (      18 calls)
     v_xc         :      0.05s CPU      0.08s WALL (      19 calls)
     newd         :      0.42s CPU      0.33s WALL (      18 calls)
                                        0.33s GPU  (      18 calls)
     PAW_pot      :     62.93s CPU      6.57s WALL (      18 calls)
     mix_rho      :      0.33s CPU      0.33s WALL (      17 calls)

     Called by c_bands:
     init_us_2    :      0.37s CPU      0.37s WALL (     900 calls)
     cegterg      :      5.60s CPU      5.70s WALL (     425 calls)

     Called by sum_band:
     sum_band:wei :      0.02s CPU      0.02s WALL (      17 calls)
                                        0.02s GPU  (      17 calls)
     sum_band:loo :      0.59s CPU      0.60s WALL (      17 calls)
                                        0.60s GPU  (      17 calls)
     sum_band:buf :      0.08s CPU      0.09s WALL (     425 calls)
                                        0.08s GPU  (     425 calls)
     sum_band:ini :      0.17s CPU      0.18s WALL (     425 calls)
                                        0.17s GPU  (     425 calls)
     sum_band:cal :      0.02s CPU      0.03s WALL (     425 calls)
                                        0.02s GPU  (     425 calls)
     sum_band:bec :      0.09s CPU      0.10s WALL (     425 calls)
                                        0.10s GPU  (     425 calls)
     addusdens    :      0.29s CPU      0.30s WALL (      17 calls)
                                        0.30s GPU  (      17 calls)
     addusd:skk   :      0.00s CPU      0.00s WALL (      51 calls)
                                        0.00s GPU  (      51 calls)

     Called by *egterg:
     cdiaghg      :      1.94s CPU      2.03s WALL (    2256 calls)
                                        2.00s GPU  (    2256 calls)
     cegterg:over :      0.43s CPU      0.44s WALL (    1831 calls)
     cegterg:upda :      0.35s CPU      0.36s WALL (    1831 calls)
     cegterg:last :      0.07s CPU      0.07s WALL (     979 calls)
     h_psi        :      1.95s CPU      2.04s WALL (    2281 calls)
                                        2.01s GPU  (    2281 calls)
     s_psi        :      0.35s CPU      0.37s WALL (    2281 calls)
     g_psi        :      0.01s CPU      0.04s WALL (    1831 calls)
                                        0.02s GPU  (    1831 calls)

     Called by h_psi:
     h_psi:calbec :      0.08s CPU      0.15s WALL (    2281 calls)
                                        0.12s GPU  (    2281 calls)
     vloc_psi     :      1.31s CPU      1.35s WALL (    2281 calls)
                                        1.32s GPU  (    2281 calls)
     add_vuspsi   :      0.32s CPU      0.38s WALL (    2281 calls)
                                        0.35s GPU  (    2281 calls)

     General routines
     calbec       :      0.08s CPU      0.11s WALL (    2806 calls)
     fft          :      3.18s CPU      0.86s WALL (     243 calls)
                                        0.01s GPU  (     225 calls)
     ffts         :      4.39s CPU      0.79s WALL (     547 calls)
                                        0.01s GPU  (     529 calls)
     fftw         :      0.13s CPU      0.44s WALL (    7216 calls)
                                        0.36s GPU  (    7216 calls)
     interpolate  :      7.62s CPU      1.64s WALL (      18 calls)
 
     Parallel routines

     PAW routines
     PAW_pot      :     62.93s CPU      6.57s WALL (      18 calls)
     PAW_symme    :      0.02s CPU      0.00s WALL (      35 calls)
 
     PWSCF        :   1m20.62s CPU     17.97s WALL

 
   This run was terminated on:   4:22:25  12Jul2026            

=------------------------------------------------------------------------------=
   JOB DONE.
=------------------------------------------------------------------------------=
Warning: ieee_divide_by_zero is signaling
Warning: ieee_inexact is signaling
FORTRAN STOP
