
     Program PWSCF v.7.3.1 starts on 12Jul2026 at  2:45: 1 

     This program is part of the open-source Quantum ESPRESSO suite
     for quantum simulation of materials; please cite
         "P. Giannozzi et al., J. Phys.:Condens. Matter 21 395502 (2009);
         "P. Giannozzi et al., J. Phys.:Condens. Matter 29 465901 (2017);
         "P. Giannozzi et al., J. Chem. Phys. 152 154105 (2020);
          URL http://www.quantum-espresso.org", 
     in publications or presentations arising from this work. More details at
     http://www.quantum-espresso.org/quote

     Parallel version (MPI & OpenMP), running on      14 processor cores
     Number of MPI processes:                 1
     Threads/MPI process:                    14

     MPI processes distributed on     1 nodes
     846824 MiB available memory on the printing compute node when the environment starts
 
     Reading input from pw.in

     Current dimensions of program PWSCF are:
     Max number of different atomic species (ntypx) = 10
     Max number of k-points (npk) =  40000
     Max angular momentum in pseudopotentials (lmaxx) =  4
     file Co.pbe-spn-kjpaw_psl.0.3.1.UPF: wavefunction(s)  3P 3D renormalized
     file O.pbe-n-kjpaw_psl.1.0.0.UPF: wavefunction(s)  2S 2P renormalized
     file Na.pbe-spn-kjpaw_psl.1.0.0.UPF: wavefunction(s)  2P renormalized
 
     Subspace diagonalization in iterative solution of the eigenvalue problem:
     a serial algorithm will be used

 
     G-vector sticks info
     --------------------
     sticks:   dense  smooth     PW     G-vecs:    dense   smooth      PW
     Sum        2941    1483    421               178951    63407    9467
 
     Using Slab Decomposition
 


     bravais-lattice index     =            4
     lattice parameter (alat)  =       9.4527  a.u.
     unit-cell volume          =    1009.0018 (a.u.)^3
     number of atoms/cell      =           10
     number of atomic types    =            3
     number of electrons       =        96.00
     number of Kohn-Sham states=           64
     kinetic-energy cutoff     =      60.0000  Ry
     charge density cutoff     =     480.0000  Ry
     scf convergence threshold =      1.0E-07
     mixing beta               =       0.3000
     number of iterations used =            8  local-TF  mixing
     Exchange-correlation= SLA  PW   PBX  PBC
                           (   1   4   3   4   0   0   0)

     GPU acceleration is ACTIVE.  1 visible GPUs per MPI rank
     GPU-aware MPI enabled


     GPU used by master process:

        Device Number: 0
        Device name: NVIDIA A100-SXM4-80GB
        Compute capability : 80
        Ratio of single to double precision performance  : 2
        Memory Clock Rate (KHz): 1593000
        Memory Bus Width (bits): 5120
        Peak Memory Bandwidth (GB/s): ******

     celldm(1)=   9.452718  celldm(2)=   0.000000  celldm(3)=   1.379403
     celldm(4)=   0.000000  celldm(5)=   0.000000  celldm(6)=   0.000000

     crystal axes: (cart. coord. in units of alat)
               a(1) = (   1.000000   0.000000   0.000000 )  
               a(2) = (  -0.500000   0.866025   0.000000 )  
               a(3) = (   0.000000   0.000000   1.379403 )  

     reciprocal axes: (cart. coord. in units 2 pi/alat)
               b(1) = (  1.000000  0.577350 -0.000000 )  
               b(2) = (  0.000000  1.154701  0.000000 )  
               b(3) = (  0.000000 -0.000000  0.724951 )  


     PseudoPot. # 1 for Co read from file:
     ../../pseudo/Co.pbe-spn-kjpaw_psl.0.3.1.UPF
     MD5 check sum: 3c0a43779828c046024e4f3be63f8e67
     Pseudo is Projector augmented-wave + core cor, Zval = 17.0
     Generated using &quot;atomic&quot; code by A. Dal Corso  v.6.2.2
     Shape of augmentation charge: PSQ
     Using radial grid of 1193 points,  6 beta functions with: 
                l(1) =   0
                l(2) =   0
                l(3) =   1
                l(4) =   1
                l(5) =   2
                l(6) =   2
     Q(r) pseudized with 0 coefficients 


     PseudoPot. # 2 for O  read from file:
     ../../pseudo/O.pbe-n-kjpaw_psl.1.0.0.UPF
     MD5 check sum: e99d9cef9b487d1ca56f5b95ecd0fd7a
     Pseudo is Projector augmented-wave + core cor, Zval =  6.0
     Generated using &quot;atomic&quot; code by A. Dal Corso  v.6.3
     Shape of augmentation charge: PSQ
     Using radial grid of 1095 points,  4 beta functions with: 
                l(1) =   0
                l(2) =   0
                l(3) =   1
                l(4) =   1
     Q(r) pseudized with 0 coefficients 


     PseudoPot. # 3 for Na read from file:
     ../../pseudo/Na.pbe-spn-kjpaw_psl.1.0.0.UPF
     MD5 check sum: 05b4deb74e3932c23ab016979dc8b5d4
     Pseudo is Projector augmented-wave + core cor, Zval =  9.0
     Generated using &quot;atomic&quot; code by A. Dal Corso  v.6.3
     Shape of augmentation charge: PSQ
     Using radial grid of 1121 points,  4 beta functions with: 
                l(1) =   0
                l(2) =   0
                l(3) =   1
                l(4) =   1
     Q(r) pseudized with 0 coefficients 


     atomic species   valence    mass     pseudopotential
     Co               17.00    58.93300     Co( 1.00)
     O                 6.00    15.99900     O ( 1.00)
     Na                9.00    22.98977     Na( 1.00)

     Starting magnetic structure 
     atomic species   magnetization
     Co              0.300
     O               0.000
     Na              0.000

     12 Sym. Ops., with inversion, found


                                    s                        frac. trans.

      isym =  1     identity                                     

 cryst.   s( 1) = (     1          0          0      )
                  (     0          1          0      )
                  (     0          0          1      )

 cart.    s( 1) = (  1.0000000  0.0000000  0.0000000 )
                  (  0.0000000  1.0000000  0.0000000 )
                  (  0.0000000  0.0000000  1.0000000 )


      isym =  2     180 deg rotation - cart. axis [0,1,0]        

 cryst.   s( 2) = (    -1          0          0      )
                  (     1          1          0      )
                  (     0          0         -1      )

 cart.    s( 2) = ( -1.0000000  0.0000000  0.0000000 )
                  (  0.0000000  1.0000000  0.0000000 )
                  (  0.0000000  0.0000000 -1.0000000 )


      isym =  3     120 deg rotation - cryst. axis [0,0,1]       

 cryst.   s( 3) = (     0          1          0      )
                  (    -1         -1          0      )
                  (     0          0          1      )

 cart.    s( 3) = ( -0.5000000 -0.8660254  0.0000000 )
                  (  0.8660254 -0.5000000  0.0000000 )
                  (  0.0000000  0.0000000  1.0000000 )


      isym =  4     120 deg rotation - cryst. axis [0,0,-1]      

 cryst.   s( 4) = (    -1         -1          0      )
                  (     1          0          0      )
                  (     0          0          1      )

 cart.    s( 4) = ( -0.5000000  0.8660254  0.0000000 )
                  ( -0.8660254 -0.5000000  0.0000000 )
                  (  0.0000000  0.0000000  1.0000000 )


      isym =  5     180 deg rotation - cryst. axis [1,-1,0]      

 cryst.   s( 5) = (     0         -1          0      )
                  (    -1          0          0      )
                  (     0          0         -1      )

 cart.    s( 5) = (  0.5000000 -0.8660254  0.0000000 )
                  ( -0.8660254 -0.5000000  0.0000000 )
                  (  0.0000000  0.0000000 -1.0000000 )


      isym =  6     180 deg rotation - cryst. axis [2,1,0]       

 cryst.   s( 6) = (     1          1          0      )
                  (     0         -1          0      )
                  (     0          0         -1      )

 cart.    s( 6) = (  0.5000000  0.8660254  0.0000000 )
                  (  0.8660254 -0.5000000  0.0000000 )
                  (  0.0000000  0.0000000 -1.0000000 )


      isym =  7     inversion                                    

 cryst.   s( 7) = (    -1          0          0      )
                  (     0         -1          0      )
                  (     0          0         -1      )

 cart.    s( 7) = ( -1.0000000  0.0000000  0.0000000 )
                  (  0.0000000 -1.0000000  0.0000000 )
                  (  0.0000000  0.0000000 -1.0000000 )


      isym =  8     inv. 180 deg rotation - cart. axis [0,1,0]   

 cryst.   s( 8) = (     1          0          0      )
                  (    -1         -1          0      )
                  (     0          0          1      )

 cart.    s( 8) = (  1.0000000  0.0000000  0.0000000 )
                  (  0.0000000 -1.0000000  0.0000000 )
                  (  0.0000000  0.0000000  1.0000000 )


      isym =  9     inv. 120 deg rotation - cryst. axis [0,0,1]  

 cryst.   s( 9) = (     0         -1          0      )
                  (     1          1          0      )
                  (     0          0         -1      )

 cart.    s( 9) = (  0.5000000  0.8660254  0.0000000 )
                  ( -0.8660254  0.5000000  0.0000000 )
                  (  0.0000000  0.0000000 -1.0000000 )


      isym = 10     inv. 120 deg rotation - cryst. axis [0,0,-1] 

 cryst.   s(10) = (     1          1          0      )
                  (    -1          0          0      )
                  (     0          0         -1      )

 cart.    s(10) = (  0.5000000 -0.8660254  0.0000000 )
                  (  0.8660254  0.5000000  0.0000000 )
                  (  0.0000000  0.0000000 -1.0000000 )


      isym = 11     inv. 180 deg rotation - cryst. axis [1,-1,0] 

 cryst.   s(11) = (     0          1          0      )
                  (     1          0          0      )
                  (     0          0          1      )

 cart.    s(11) = ( -0.5000000  0.8660254  0.0000000 )
                  (  0.8660254  0.5000000  0.0000000 )
                  (  0.0000000  0.0000000  1.0000000 )


      isym = 12     inv. 180 deg rotation - cryst. axis [2,1,0]  

 cryst.   s(12) = (    -1         -1          0      )
                  (     0          1          0      )
                  (     0          0          1      )

 cart.    s(12) = ( -0.5000000 -0.8660254  0.0000000 )
                  ( -0.8660254  0.5000000  0.0000000 )
                  (  0.0000000  0.0000000  1.0000000 )


     point group D_3d (-3m) 
     there are  6 classes
     the character table:

       E     2C3   3C2'  i     2S6   3s_d 
A_1g   1.00  1.00  1.00  1.00  1.00  1.00
A_2g   1.00  1.00 -1.00  1.00  1.00 -1.00
E_g    2.00 -1.00  0.00  2.00 -1.00  0.00
A_1u   1.00  1.00  1.00 -1.00 -1.00 -1.00
A_2u   1.00  1.00 -1.00 -1.00 -1.00  1.00
E_u    2.00 -1.00  0.00 -2.00  1.00  0.00

     the symmetry operations in each class and the name of the first element:

     E        1
          identity                                               
     2C3      3    4
          120 deg rotation - cryst. axis [0,0,1]                 
     3C2'     2    6    5
          180 deg rotation - cart. axis [0,1,0]                  
     i        7
          inversion                                              
     2S6      9   10
          inv. 120 deg rotation - cryst. axis [0,0,1]            
     3s_d     8   12   11
          inv. 180 deg rotation - cart. axis [0,1,0]             

   Cartesian axes

     site n.     atom                  positions (alat units)
         1        Co     tau(   1) = (   0.0000000   0.0000000   0.0000000  )
         2        Co     tau(   2) = (  -0.0000000   0.5773503   0.0000000  )
         3        Co     tau(   3) = (   0.5000000   0.2886751   0.0000000  )
         4        O      tau(   4) = (   0.1666667   0.2886751   0.1919170  )
         5        O      tau(   5) = (   0.6666667   0.0000000   0.1919170  )
         6        O      tau(   6) = (  -0.3333333   0.5773503   0.1919170  )
         7        O      tau(   7) = (   0.3333333   0.0000000   1.1874864  )
         8        O      tau(   8) = (   0.3333333   0.5773503   1.1874864  )
         9        O      tau(   9) = (  -0.1666667   0.2886751   1.1874864  )
        10        Na     tau(  10) = (   0.0000000   0.0000000   0.6897017  )

   Crystallographic axes

     site n.     atom                  positions (cryst. coord.)
         1        Co     tau(   1) = (  0.0000000  0.0000000  0.0000000  )
         2        Co     tau(   2) = (  0.3333333  0.6666667  0.0000000  )
         3        Co     tau(   3) = (  0.6666667  0.3333333  0.0000000  )
         4        O      tau(   4) = (  0.3333333  0.3333333  0.1391304  )
         5        O      tau(   5) = (  0.6666667  0.0000000  0.1391304  )
         6        O      tau(   6) = (  0.0000000  0.6666667  0.1391304  )
         7        O      tau(   7) = (  0.3333333  0.0000000  0.8608696  )
         8        O      tau(   8) = (  0.6666667  0.6666667  0.8608696  )
         9        O      tau(   9) = ( -0.0000000  0.3333333  0.8608696  )
        10        Na     tau(  10) = (  0.0000000  0.0000000  0.5000000  )

     number of k points=    17  Marzari-Vanderbilt smearing, width (Ry)=  0.0200
                       cart. coord. in units 2pi/alat
        k(    1) = (   0.0000000   0.0000000   0.0000000), wk =   0.0092593
        k(    2) = (   0.0000000   0.0000000   0.2416504), wk =   0.0185185
        k(    3) = (   0.0000000   0.1924501   0.0000000), wk =   0.0555556
        k(    4) = (   0.0000000   0.1924501   0.2416504), wk =   0.1111111
        k(    5) = (   0.0000000   0.3849002   0.0000000), wk =   0.0555556
        k(    6) = (   0.0000000   0.3849002   0.2416504), wk =   0.1111111
        k(    7) = (   0.0000000  -0.5773503   0.0000000), wk =   0.0277778
        k(    8) = (   0.0000000  -0.5773503   0.2416504), wk =   0.0555556
        k(    9) = (   0.1666667   0.2886751   0.0000000), wk =   0.0555556
        k(   10) = (   0.1666667   0.2886751   0.2416504), wk =   0.0555556
        k(   11) = (   0.1666667   0.4811252   0.0000000), wk =   0.1111111
        k(   12) = (   0.1666667   0.4811252   0.2416504), wk =   0.1111111
        k(   13) = (   0.3333333   0.5773503   0.0000000), wk =   0.0185185
        k(   14) = (   0.3333333   0.5773503   0.2416504), wk =   0.0185185
        k(   15) = (  -0.1666667  -0.2886751   0.2416504), wk =   0.0555556
        k(   16) = (  -0.1666667  -0.4811252   0.2416504), wk =   0.1111111
        k(   17) = (  -0.3333333  -0.5773503   0.2416504), wk =   0.0185185

                       cryst. coord.
        k(    1) = (   0.0000000   0.0000000   0.0000000), wk =   0.0092593
        k(    2) = (   0.0000000   0.0000000   0.3333333), wk =   0.0185185
        k(    3) = (   0.0000000   0.1666667   0.0000000), wk =   0.0555556
        k(    4) = (   0.0000000   0.1666667   0.3333333), wk =   0.1111111
        k(    5) = (   0.0000000   0.3333333   0.0000000), wk =   0.0555556
        k(    6) = (   0.0000000   0.3333333   0.3333333), wk =   0.1111111
        k(    7) = (   0.0000000  -0.5000000   0.0000000), wk =   0.0277778
        k(    8) = (   0.0000000  -0.5000000   0.3333333), wk =   0.0555556
        k(    9) = (   0.1666667   0.1666667   0.0000000), wk =   0.0555556
        k(   10) = (   0.1666667   0.1666667   0.3333333), wk =   0.0555556
        k(   11) = (   0.1666667   0.3333333   0.0000000), wk =   0.1111111
        k(   12) = (   0.1666667   0.3333333   0.3333333), wk =   0.1111111
        k(   13) = (   0.3333333   0.3333333   0.0000000), wk =   0.0185185
        k(   14) = (   0.3333333   0.3333333   0.3333333), wk =   0.0185185
        k(   15) = (  -0.1666667  -0.1666667   0.3333333), wk =   0.0555556
        k(   16) = (  -0.1666667  -0.3333333   0.3333333), wk =   0.1111111
        k(   17) = (  -0.3333333  -0.3333333   0.3333333), wk =   0.0185185

     Dense  grid:   178951 G-vectors     FFT dimensions: (  72,  72,  96)

     Smooth grid:    63407 G-vectors     FFT dimensions: (  48,  48,  72)

     Dynamical RAM for                 wfc:       7.73 MB

     Dynamical RAM for     wfc (w. buffer):     270.67 MB

     Dynamical RAM for           str. fact:       8.19 MB

     Dynamical RAM for           local pot:       0.00 MB

     Dynamical RAM for          nlocal pot:      13.29 MB

     Dynamical RAM for                qrad:       5.27 MB

     Dynamical RAM for          rho,v,vnew:      39.16 MB

     Dynamical RAM for               rhoin:      13.05 MB

     Dynamical RAM for            rho*nmix:      87.38 MB

     Dynamical RAM for           G-vectors:      10.72 MB

     Dynamical RAM for          h,s,v(r/c):       0.75 MB

     Dynamical RAM for          <psi|beta>:       0.11 MB

     Dynamical RAM for                 psi:      15.47 MB

     Dynamical RAM for                hpsi:      15.47 MB

     Dynamical RAM for                spsi:      15.47 MB

     Dynamical RAM for      wfcinit/wfcrot:      15.56 MB

     Dynamical RAM for           addusdens:     527.00 MB

     Dynamical RAM for          addusforce:     554.35 MB

     Estimated static dynamical RAM per process >     394.07 MB

     Estimated max dynamical RAM per process >       1.01 GB

     Check: negative core charge=   -0.000008
     Generating pointlists ...
     new r_m :   0.1587 (alat units)  1.4998 (a.u.) for type    1
     new r_m :   0.1587 (alat units)  1.4998 (a.u.) for type    2
     new r_m :   0.2471 (alat units)  2.3360 (a.u.) for type    3

     Initial potential from superposition of free atoms

     starting charge      95.9928, renormalised to      96.0000
     Starting wfcs are   59 randomized atomic wfcs +    5 random wfcs
     Checking if some PAW data can be deallocated... 

     total cpu time spent up to now is        6.4 secs

     Self-consistent Calculation
[tb_dev] Currently allocated     9.94E-01 Mbytes, locked:    0 /   6
[tb_pin] Currently allocated     0.00E+00 Mbytes, locked:    0 /   0

     iteration #  1     ecut=    60.00 Ry     beta= 0.30
     Davidson diagonalization with overlap

---- Real-time Memory Report at c_bands before calling an iterative solver
           968 MiB given to the printing process from OS
             0 MiB allocation reported by mallinfo(arena+hblkhd)
        846731 MiB available memory on the node where the printing process lives
     GPU memory used/free/total (MiB): 1616 / 79534 / 81151
------------------
     ethr =  1.00E-02,  avg # of iterations =  9.9

     total cpu time spent up to now is       10.2 secs

     total energy              =   -1488.31568854 Ry
     estimated scf accuracy    <       6.11226158 Ry

     total magnetization       =    14.00 Bohr mag/cell
     absolute magnetization    =    14.00 Bohr mag/cell
[tb_dev] Currently allocated     7.63E-05 Mbytes, locked:    0 /   2
[tb_pin] Currently allocated     0.00E+00 Mbytes, locked:    0 /   0

     iteration #  2     ecut=    60.00 Ry     beta= 0.30
     Davidson diagonalization with overlap

---- Real-time Memory Report at c_bands before calling an iterative solver
          1026 MiB given to the printing process from OS
             0 MiB allocation reported by mallinfo(arena+hblkhd)
        846199 MiB available memory on the node where the printing process lives
     GPU memory used/free/total (MiB): 1666 / 79484 / 81151
------------------
     ethr =  6.37E-03,  avg # of iterations =  2.0

     total cpu time spent up to now is       12.9 secs

     total energy              =   -1488.65934898 Ry
     estimated scf accuracy    <       0.95496853 Ry

     total magnetization       =    10.89 Bohr mag/cell
     absolute magnetization    =    10.89 Bohr mag/cell
[tb_dev] Currently allocated     7.63E-05 Mbytes, locked:    0 /   2
[tb_pin] Currently allocated     0.00E+00 Mbytes, locked:    0 /   0

     iteration #  3     ecut=    60.00 Ry     beta= 0.30
     Davidson diagonalization with overlap

---- Real-time Memory Report at c_bands before calling an iterative solver
          1032 MiB given to the printing process from OS
             0 MiB allocation reported by mallinfo(arena+hblkhd)
        845755 MiB available memory on the node where the printing process lives
     GPU memory used/free/total (MiB): 1666 / 79484 / 81151
------------------
     ethr =  9.95E-04,  avg # of iterations =  4.0

     total cpu time spent up to now is       15.8 secs

     total energy              =   -1488.98050277 Ry
     estimated scf accuracy    <       2.20847160 Ry

     total magnetization       =     4.41 Bohr mag/cell
     absolute magnetization    =     5.05 Bohr mag/cell
[tb_dev] Currently allocated     7.63E-05 Mbytes, locked:    0 /   2
[tb_pin] Currently allocated     0.00E+00 Mbytes, locked:    0 /   0

     iteration #  4     ecut=    60.00 Ry     beta= 0.30
     Davidson diagonalization with overlap

---- Real-time Memory Report at c_bands before calling an iterative solver
          1037 MiB given to the printing process from OS
             0 MiB allocation reported by mallinfo(arena+hblkhd)
        846336 MiB available memory on the node where the printing process lives
     GPU memory used/free/total (MiB): 1666 / 79484 / 81151
------------------
     ethr =  9.95E-04,  avg # of iterations =  1.6

     total cpu time spent up to now is       18.3 secs

     total energy              =   -1488.95458992 Ry
     estimated scf accuracy    <       1.38500178 Ry

     total magnetization       =     5.06 Bohr mag/cell
     absolute magnetization    =     5.52 Bohr mag/cell
[tb_dev] Currently allocated     7.63E-05 Mbytes, locked:    0 /   2
[tb_pin] Currently allocated     0.00E+00 Mbytes, locked:    0 /   0

     iteration #  5     ecut=    60.00 Ry     beta= 0.30
     Davidson diagonalization with overlap

---- Real-time Memory Report at c_bands before calling an iterative solver
          1045 MiB given to the printing process from OS
             0 MiB allocation reported by mallinfo(arena+hblkhd)
        846273 MiB available memory on the node where the printing process lives
     GPU memory used/free/total (MiB): 1666 / 79484 / 81151
------------------
     ethr =  9.95E-04,  avg # of iterations =  1.2

     total cpu time spent up to now is       20.6 secs

     total energy              =   -1489.04966231 Ry
     estimated scf accuracy    <       0.62731486 Ry

     total magnetization       =     7.04 Bohr mag/cell
     absolute magnetization    =     7.19 Bohr mag/cell
[tb_dev] Currently allocated     7.63E-05 Mbytes, locked:    0 /   2
[tb_pin] Currently allocated     0.00E+00 Mbytes, locked:    0 /   0

     iteration #  6     ecut=    60.00 Ry     beta= 0.30
     Davidson diagonalization with overlap

---- Real-time Memory Report at c_bands before calling an iterative solver
          1050 MiB given to the printing process from OS
             0 MiB allocation reported by mallinfo(arena+hblkhd)
        846123 MiB available memory on the node where the printing process lives
     GPU memory used/free/total (MiB): 1666 / 79484 / 81151
------------------
     ethr =  6.53E-04,  avg # of iterations =  1.4

     total cpu time spent up to now is       23.1 secs

     total energy              =   -1489.31100320 Ry
     estimated scf accuracy    <       0.74163396 Ry

     total magnetization       =     2.23 Bohr mag/cell
     absolute magnetization    =     3.77 Bohr mag/cell
[tb_dev] Currently allocated     7.63E-05 Mbytes, locked:    0 /   2
[tb_pin] Currently allocated     0.00E+00 Mbytes, locked:    0 /   0

     iteration #  7     ecut=    60.00 Ry     beta= 0.30
     Davidson diagonalization with overlap

---- Real-time Memory Report at c_bands before calling an iterative solver
          1058 MiB given to the printing process from OS
             0 MiB allocation reported by mallinfo(arena+hblkhd)
        845302 MiB available memory on the node where the printing process lives
     GPU memory used/free/total (MiB): 1666 / 79484 / 81151
------------------
     ethr =  6.53E-04,  avg # of iterations =  2.2

     total cpu time spent up to now is       25.6 secs

     total energy              =   -1489.29733779 Ry
     estimated scf accuracy    <       0.53283589 Ry

     total magnetization       =     2.30 Bohr mag/cell
     absolute magnetization    =     2.55 Bohr mag/cell
[tb_dev] Currently allocated     7.63E-05 Mbytes, locked:    0 /   2
[tb_pin] Currently allocated     0.00E+00 Mbytes, locked:    0 /   0

     iteration #  8     ecut=    60.00 Ry     beta= 0.30
     Davidson diagonalization with overlap

---- Real-time Memory Report at c_bands before calling an iterative solver
          1061 MiB given to the printing process from OS
             0 MiB allocation reported by mallinfo(arena+hblkhd)
        845200 MiB available memory on the node where the printing process lives
     GPU memory used/free/total (MiB): 1666 / 79484 / 81151
------------------
     ethr =  5.55E-04,  avg # of iterations =  1.9

     total cpu time spent up to now is       28.1 secs

     total energy              =   -1489.29043198 Ry
     estimated scf accuracy    <       0.22720061 Ry

     total magnetization       =     2.02 Bohr mag/cell
     absolute magnetization    =     2.68 Bohr mag/cell
[tb_dev] Currently allocated     7.63E-05 Mbytes, locked:    0 /   2
[tb_pin] Currently allocated     0.00E+00 Mbytes, locked:    0 /   0

     iteration #  9     ecut=    60.00 Ry     beta= 0.30
     Davidson diagonalization with overlap

---- Real-time Memory Report at c_bands before calling an iterative solver
          1066 MiB given to the printing process from OS
             0 MiB allocation reported by mallinfo(arena+hblkhd)
        845146 MiB available memory on the node where the printing process lives
     GPU memory used/free/total (MiB): 1666 / 79484 / 81151
------------------
     ethr =  2.37E-04,  avg # of iterations =  6.8

     total cpu time spent up to now is       31.2 secs

     total energy              =   -1489.30355360 Ry
     estimated scf accuracy    <       0.03130716 Ry

     total magnetization       =     2.32 Bohr mag/cell
     absolute magnetization    =     2.39 Bohr mag/cell
[tb_dev] Currently allocated     7.63E-05 Mbytes, locked:    0 /   2
[tb_pin] Currently allocated     0.00E+00 Mbytes, locked:    0 /   0

     iteration # 10     ecut=    60.00 Ry     beta= 0.30
     Davidson diagonalization with overlap

---- Real-time Memory Report at c_bands before calling an iterative solver
          1072 MiB given to the printing process from OS
             0 MiB allocation reported by mallinfo(arena+hblkhd)
        845074 MiB available memory on the node where the printing process lives
     GPU memory used/free/total (MiB): 1666 / 79484 / 81151
------------------
     c_bands:  1 eigenvalues not converged
     ethr =  3.26E-05,  avg # of iterations = 12.2

     total cpu time spent up to now is       35.4 secs

     total energy              =   -1489.31641963 Ry
     estimated scf accuracy    <       0.01127460 Ry

     total magnetization       =     2.41 Bohr mag/cell
     absolute magnetization    =     2.43 Bohr mag/cell
[tb_dev] Currently allocated     7.63E-05 Mbytes, locked:    0 /   2
[tb_pin] Currently allocated     0.00E+00 Mbytes, locked:    0 /   0

     iteration # 11     ecut=    60.00 Ry     beta= 0.30
     Davidson diagonalization with overlap

---- Real-time Memory Report at c_bands before calling an iterative solver
          1072 MiB given to the printing process from OS
             0 MiB allocation reported by mallinfo(arena+hblkhd)
        845033 MiB available memory on the node where the printing process lives
     GPU memory used/free/total (MiB): 1666 / 79484 / 81151
------------------
     ethr =  1.17E-05,  avg # of iterations =  2.9

     total cpu time spent up to now is       38.0 secs

     total energy              =   -1489.31617029 Ry
     estimated scf accuracy    <       0.01032292 Ry

     total magnetization       =     2.41 Bohr mag/cell
     absolute magnetization    =     2.43 Bohr mag/cell
[tb_dev] Currently allocated     7.63E-05 Mbytes, locked:    0 /   2
[tb_pin] Currently allocated     0.00E+00 Mbytes, locked:    0 /   0

     iteration # 12     ecut=    60.00 Ry     beta= 0.30
     Davidson diagonalization with overlap

---- Real-time Memory Report at c_bands before calling an iterative solver
          1072 MiB given to the printing process from OS
             0 MiB allocation reported by mallinfo(arena+hblkhd)
        845031 MiB available memory on the node where the printing process lives
     GPU memory used/free/total (MiB): 1666 / 79484 / 81151
------------------
     c_bands:  2 eigenvalues not converged
     ethr =  1.08E-05,  avg # of iterations =  3.1

     total cpu time spent up to now is       40.7 secs

     total energy              =   -1489.31735882 Ry
     estimated scf accuracy    <       0.00105932 Ry

     total magnetization       =     2.31 Bohr mag/cell
     absolute magnetization    =     2.34 Bohr mag/cell
[tb_dev] Currently allocated     7.63E-05 Mbytes, locked:    0 /   2
[tb_pin] Currently allocated     0.00E+00 Mbytes, locked:    0 /   0

     iteration # 13     ecut=    60.00 Ry     beta= 0.30
     Davidson diagonalization with overlap

---- Real-time Memory Report at c_bands before calling an iterative solver
          1072 MiB given to the printing process from OS
             0 MiB allocation reported by mallinfo(arena+hblkhd)
        845028 MiB available memory on the node where the printing process lives
     GPU memory used/free/total (MiB): 1666 / 79484 / 81151
------------------
     c_bands:  1 eigenvalues not converged
     c_bands:  2 eigenvalues not converged
     ethr =  1.10E-06,  avg # of iterations = 10.3

     total cpu time spent up to now is       44.5 secs

     total energy              =   -1489.31780849 Ry
     estimated scf accuracy    <       0.00035045 Ry

     total magnetization       =     2.30 Bohr mag/cell
     absolute magnetization    =     2.33 Bohr mag/cell
[tb_dev] Currently allocated     7.63E-05 Mbytes, locked:    0 /   2
[tb_pin] Currently allocated     0.00E+00 Mbytes, locked:    0 /   0

     iteration # 14     ecut=    60.00 Ry     beta= 0.30
     Davidson diagonalization with overlap

---- Real-time Memory Report at c_bands before calling an iterative solver
          1072 MiB given to the printing process from OS
             0 MiB allocation reported by mallinfo(arena+hblkhd)
        845078 MiB available memory on the node where the printing process lives
     GPU memory used/free/total (MiB): 1666 / 79484 / 81151
------------------
     c_bands:  1 eigenvalues not converged
     ethr =  3.65E-07,  avg # of iterations =  3.9

     total cpu time spent up to now is       47.5 secs

     total energy              =   -1489.31788708 Ry
     estimated scf accuracy    <       0.00016392 Ry

     total magnetization       =     2.26 Bohr mag/cell
     absolute magnetization    =     2.30 Bohr mag/cell
[tb_dev] Currently allocated     7.63E-05 Mbytes, locked:    0 /   2
[tb_pin] Currently allocated     0.00E+00 Mbytes, locked:    0 /   0

     iteration # 15     ecut=    60.00 Ry     beta= 0.30
     Davidson diagonalization with overlap

---- Real-time Memory Report at c_bands before calling an iterative solver
          1072 MiB given to the printing process from OS
             0 MiB allocation reported by mallinfo(arena+hblkhd)
        845081 MiB available memory on the node where the printing process lives
     GPU memory used/free/total (MiB): 1666 / 79484 / 81151
------------------
     ethr =  1.71E-07,  avg # of iterations =  5.2

     total cpu time spent up to now is       50.6 secs

     total energy              =   -1489.31790682 Ry
     estimated scf accuracy    <       0.00007243 Ry

     total magnetization       =     2.32 Bohr mag/cell
     absolute magnetization    =     2.35 Bohr mag/cell
[tb_dev] Currently allocated     7.63E-05 Mbytes, locked:    0 /   2
[tb_pin] Currently allocated     0.00E+00 Mbytes, locked:    0 /   0

     iteration # 16     ecut=    60.00 Ry     beta= 0.30
     Davidson diagonalization with overlap

---- Real-time Memory Report at c_bands before calling an iterative solver
          1072 MiB given to the printing process from OS
             0 MiB allocation reported by mallinfo(arena+hblkhd)
        845086 MiB available memory on the node where the printing process lives
     GPU memory used/free/total (MiB): 1666 / 79484 / 81151
------------------
     ethr =  7.54E-08,  avg # of iterations =  2.6

     total cpu time spent up to now is       53.3 secs

     total energy              =   -1489.31791137 Ry
     estimated scf accuracy    <       0.00002183 Ry

     total magnetization       =     2.30 Bohr mag/cell
     absolute magnetization    =     2.34 Bohr mag/cell
[tb_dev] Currently allocated     7.63E-05 Mbytes, locked:    0 /   2
[tb_pin] Currently allocated     0.00E+00 Mbytes, locked:    0 /   0

     iteration # 17     ecut=    60.00 Ry     beta= 0.30
     Davidson diagonalization with overlap

---- Real-time Memory Report at c_bands before calling an iterative solver
          1072 MiB given to the printing process from OS
             0 MiB allocation reported by mallinfo(arena+hblkhd)
        845082 MiB available memory on the node where the printing process lives
     GPU memory used/free/total (MiB): 1666 / 79484 / 81151
------------------
     ethr =  2.27E-08,  avg # of iterations =  5.3

     total cpu time spent up to now is       56.5 secs

     total energy              =   -1489.31791961 Ry
     estimated scf accuracy    <       0.00000180 Ry

     total magnetization       =     2.29 Bohr mag/cell
     absolute magnetization    =     2.33 Bohr mag/cell
[tb_dev] Currently allocated     7.63E-05 Mbytes, locked:    0 /   2
[tb_pin] Currently allocated     0.00E+00 Mbytes, locked:    0 /   0

     iteration # 18     ecut=    60.00 Ry     beta= 0.30
     Davidson diagonalization with overlap

---- Real-time Memory Report at c_bands before calling an iterative solver
          1072 MiB given to the printing process from OS
             0 MiB allocation reported by mallinfo(arena+hblkhd)
        845090 MiB available memory on the node where the printing process lives
     GPU memory used/free/total (MiB): 1666 / 79484 / 81151
------------------
     ethr =  1.88E-09,  avg # of iterations =  9.1

     total cpu time spent up to now is       60.4 secs

     total energy              =   -1489.31792137 Ry
     estimated scf accuracy    <       0.00000065 Ry

     total magnetization       =     2.29 Bohr mag/cell
     absolute magnetization    =     2.33 Bohr mag/cell
[tb_dev] Currently allocated     7.63E-05 Mbytes, locked:    0 /   2
[tb_pin] Currently allocated     0.00E+00 Mbytes, locked:    0 /   0

     iteration # 19     ecut=    60.00 Ry     beta= 0.30
     Davidson diagonalization with overlap

---- Real-time Memory Report at c_bands before calling an iterative solver
          1072 MiB given to the printing process from OS
             0 MiB allocation reported by mallinfo(arena+hblkhd)
        845073 MiB available memory on the node where the printing process lives
     GPU memory used/free/total (MiB): 1666 / 79484 / 81151
------------------
     ethr =  6.77E-10,  avg # of iterations =  2.5

     total cpu time spent up to now is       63.1 secs

     total energy              =   -1489.31792146 Ry
     estimated scf accuracy    <       0.00000029 Ry

     total magnetization       =     2.29 Bohr mag/cell
     absolute magnetization    =     2.33 Bohr mag/cell
[tb_dev] Currently allocated     7.63E-05 Mbytes, locked:    0 /   2
[tb_pin] Currently allocated     0.00E+00 Mbytes, locked:    0 /   0

     iteration # 20     ecut=    60.00 Ry     beta= 0.30
     Davidson diagonalization with overlap

---- Real-time Memory Report at c_bands before calling an iterative solver
          1072 MiB given to the printing process from OS
             0 MiB allocation reported by mallinfo(arena+hblkhd)
        845090 MiB available memory on the node where the printing process lives
     GPU memory used/free/total (MiB): 1666 / 79484 / 81151
------------------
     ethr =  3.01E-10,  avg # of iterations =  6.0

     total cpu time spent up to now is       66.4 secs

     total energy              =   -1489.31792164 Ry
     estimated scf accuracy    <       0.00000011 Ry

     total magnetization       =     2.29 Bohr mag/cell
     absolute magnetization    =     2.33 Bohr mag/cell
[tb_dev] Currently allocated     7.63E-05 Mbytes, locked:    0 /   2
[tb_pin] Currently allocated     0.00E+00 Mbytes, locked:    0 /   0

     iteration # 21     ecut=    60.00 Ry     beta= 0.30
     Davidson diagonalization with overlap

---- Real-time Memory Report at c_bands before calling an iterative solver
          1072 MiB given to the printing process from OS
             0 MiB allocation reported by mallinfo(arena+hblkhd)
        845092 MiB available memory on the node where the printing process lives
     GPU memory used/free/total (MiB): 1666 / 79484 / 81151
------------------
     ethr =  1.12E-10,  avg # of iterations =  3.9
 
     Magnetic moment per site  (integrated on atomic sphere of radius R)
     atom   1 (R=0.159)  charge= 14.1032  magn=  0.5889
     atom   2 (R=0.159)  charge= 14.0954  magn=  0.5937
     atom   3 (R=0.159)  charge= 14.0954  magn=  0.5937
     atom   4 (R=0.159)  charge=  5.2257  magn=  0.0567
     atom   5 (R=0.159)  charge=  5.2257  magn=  0.0567
     atom   6 (R=0.159)  charge=  5.2257  magn=  0.0567
     atom   7 (R=0.159)  charge=  5.2257  magn=  0.0567
     atom   8 (R=0.159)  charge=  5.2257  magn=  0.0567
     atom   9 (R=0.159)  charge=  5.2257  magn=  0.0567
     atom  10 (R=0.247)  charge=  8.0327  magn=  0.0023

     total cpu time spent up to now is       69.3 secs

     End of self-consistent calculation

 ------ SPIN UP ------------


          k = 0.0000 0.0000 0.0000 (  7923 PWs)   bands (ev):

   -91.2937 -91.2897 -91.2678 -54.5333 -54.5333 -54.5245 -54.5245 -54.5229
   -54.5164 -54.4883 -54.4878 -54.4878 -47.6042 -19.5241 -19.5241 -19.4668
   -14.7756 -13.0996 -13.0996 -13.0977 -13.0977 -12.8748  -1.0959  -0.8674
    -0.8674  -0.8298  -0.8298  -0.5809  -0.5809  -0.4809  -0.4107   1.1302
     1.1302   1.1629   1.1629   1.4774   1.5658   2.5132   2.8948   2.8957
     2.9295   2.9295   3.1084   3.1084   3.9769   3.9769   3.9864   3.9864
     4.1028   6.0574   6.0574   6.0968   6.0968   6.8281   6.8281   7.5648
    12.4913  13.2436  14.2460  14.2460  15.0273  15.0274  15.1140  15.4992

     occupation numbers 
     1.0000   1.0000   1.0000   1.0000   1.0000   1.0000   1.0000   1.0000
     1.0000   1.0000   1.0000   1.0000   1.0000   1.0000   1.0000   1.0000
     1.0000   1.0000   1.0000   1.0000   1.0000   1.0000   1.0000   1.0000
     1.0000   1.0000   1.0000   1.0000   1.0000   1.0000   1.0000   1.0000
     1.0000   1.0000   1.0000   1.0000   1.0000   1.0000   1.0000   1.0000
     1.0000   1.0000   1.0000   1.0000   1.0207   1.0207   1.0228   1.0228
     1.0584   0.0000   0.0000   0.0000   0.0000   0.0000   0.0000   0.0000
     0.0000   0.0000   0.0000   0.0000   0.0000   0.0000   0.0000   0.0000

          k = 0.0000 0.0000 0.2417 (  7928 PWs)   bands (ev):

   -91.2937 -91.2897 -91.2678 -54.5332 -54.5332 -54.5243 -54.5243 -54.5230
   -54.5164 -54.4884 -54.4880 -54.4880 -47.6042 -19.5241 -19.5241 -19.4671
   -14.7738 -13.0998 -13.0998 -13.0975 -13.0975 -12.8777  -1.0535  -0.8685
    -0.8685  -0.8317  -0.8317  -0.5809  -0.5809  -0.4759  -0.4086   1.1312
     1.1312   1.1660   1.1660   1.4650   1.5620   2.3561   2.8951   2.8966
     2.9295   2.9295   3.1081   3.1081   3.9753   3.9753   3.9843   3.9843
     4.1565   6.0665   6.0665   6.1066   6.1066   6.8281   6.8281   7.9437
    11.2622  14.1685  14.1685  14.2059  14.9729  14.9729  15.0292  15.4029

     occupation numbers 
     1.0000   1.0000   1.0000   1.0000   1.0000   1.0000   1.0000   1.0000
     1.0000   1.0000   1.0000   1.0000   1.0000   1.0000   1.0000   1.0000
     1.0000   1.0000   1.0000   1.0000   1.0000   1.0000   1.0000   1.0000
     1.0000   1.0000   1.0000   1.0000   1.0000   1.0000   1.0000   1.0000
     1.0000   1.0000   1.0000   1.0000   1.0000   1.0000   1.0000   1.0000
     1.0000   1.0000   1.0000   1.0000   1.0204   1.0204   1.0224   1.0224
     1.0752   0.0000   0.0000   0.0000   0.0000   0.0000   0.0000   0.0000
     0.0000   0.0000   0.0000   0.0000   0.0000   0.0000   0.0000   0.0000

          k = 0.0000 0.1925 0.0000 (  7914 PWs)   bands (ev):

   -91.2934 -91.2899 -91.2679 -54.5384 -54.5361 -54.5225 -54.5183 -54.5172
   -54.5166 -54.4923 -54.4889 -54.4884 -47.6042 -19.5243 -19.5241 -19.4668
   -14.6725 -13.2492 -13.1619 -13.0887 -13.0284 -12.8775  -1.2840  -1.0302
    -0.9551  -0.8672  -0.7328  -0.6894  -0.5136  -0.0697   0.1208   0.8188
     0.8921   0.9981   1.1028   1.8256   1.9030   2.2602   2.3617   2.7613
     2.9759   3.0427   3.3280   3.5324   3.7256   3.7391   4.0736   4.1420
     4.1513   6.0538   6.1095   6.1216   6.1779   6.5517   6.7501   7.8383
    12.7127  12.7343  13.6004  13.6537  14.1586  15.6195  16.1960  16.2020

     occupation numbers 
     1.0000   1.0000   1.0000   1.0000   1.0000   1.0000   1.0000   1.0000
     1.0000   1.0000   1.0000   1.0000   1.0000   1.0000   1.0000   1.0000
     1.0000   1.0000   1.0000   1.0000   1.0000   1.0000   1.0000   1.0000
     1.0000   1.0000   1.0000   1.0000   1.0000   1.0000   1.0000   1.0000
     1.0000   1.0000   1.0000   1.0000   1.0000   1.0000   1.0000   1.0000
     1.0000   1.0000   1.0000   1.0000   1.0006   1.0007   1.0483   1.0712
     1.0738   0.0000   0.0000   0.0000   0.0000   0.0000   0.0000   0.0000
     0.0000   0.0000   0.0000   0.0000   0.0000   0.0000   0.0000   0.0000

          k = 0.0000 0.1925 0.2417 (  7936 PWs)   bands (ev):

   -91.2934 -91.2899 -91.2679 -54.5384 -54.5361 -54.5225 -54.5183 -54.5173
   -54.5167 -54.4923 -54.4890 -54.4885 -47.6042 -19.5243 -19.5241 -19.4671
   -14.6708 -13.2491 -13.1620 -13.0886 -13.0285 -12.8800  -1.2838  -1.0252
    -0.9215  -0.8709  -0.7351  -0.6942  -0.5136  -0.0674   0.1226   0.8157
     0.8882   1.0054   1.1048   1.8269   1.9016   2.2613   2.3430   2.6445
     2.9758   3.0429   3.3280   3.5290   3.7265   3.7399   4.0693   4.1364
     4.2079   6.0668   6.1167   6.1235   6.1860   6.5268   6.7549   8.1819
    11.6065  12.6370  13.5783  14.0195  14.6220  15.7234  16.0835  16.1882

     occupation numbers 
     1.0000   1.0000   1.0000   1.0000   1.0000   1.0000   1.0000   1.0000
     1.0000   1.0000   1.0000   1.0000   1.0000   1.0000   1.0000   1.0000
     1.0000   1.0000   1.0000   1.0000   1.0000   1.0000   1.0000   1.0000
     1.0000   1.0000   1.0000   1.0000   1.0000   1.0000   1.0000   1.0000
     1.0000   1.0000   1.0000   1.0000   1.0000   1.0000   1.0000   1.0000
     1.0000   1.0000   1.0000   1.0000   1.0006   1.0008   1.0469   1.0695
     1.0833   0.0000   0.0000   0.0000   0.0000   0.0000   0.0000   0.0000
     0.0000   0.0000   0.0000   0.0000   0.0000   0.0000   0.0000   0.0000

          k = 0.0000 0.3849 0.0000 (  7930 PWs)   bands (ev):

   -91.2927 -91.2905 -91.2680 -54.5439 -54.5336 -54.5214 -54.5177 -54.5120
   -54.5099 -54.4999 -54.4918 -54.4887 -47.6042 -19.5245 -19.5243 -19.4669
   -14.3856 -13.5650 -13.2059 -13.1352 -12.9642 -12.8888  -1.6981  -0.9164
    -0.8645  -0.8535  -0.6360  -0.4740  -0.3527   0.1374   0.3883   0.6555
     0.7330   0.8408   1.2553   1.2758   1.7429   2.1056   2.4796   3.0705
     3.0731   3.3977   3.4610   3.4721   3.5063   3.8917   3.9278   4.1399
     4.1964   6.0454   6.0809   6.0872   6.1258   6.5016   6.5152   8.5571
    11.0513  13.0730  13.2045  13.5567  14.5405  14.8782  16.0336  16.4767

     occupation numbers 
     1.0000   1.0000   1.0000   1.0000   1.0000   1.0000   1.0000   1.0000
     1.0000   1.0000   1.0000   1.0000   1.0000   1.0000   1.0000   1.0000
     1.0000   1.0000   1.0000   1.0000   1.0000   1.0000   1.0000   1.0000
     1.0000   1.0000   1.0000   1.0000   1.0000   1.0000   1.0000   1.0000
     1.0000   1.0000   1.0000   1.0000   1.0000   1.0000   1.0000   1.0000
     1.0000   1.0000   1.0000   1.0000   1.0000   1.0076   1.0120   1.0706
     1.0826   0.0000   0.0000   0.0000   0.0000   0.0000   0.0000   0.0000
     0.0000   0.0000   0.0000   0.0000   0.0000   0.0000   0.0000   0.0000

          k = 0.0000 0.3849 0.2417 (  7917 PWs)   bands (ev):

   -91.2927 -91.2905 -91.2680 -54.5439 -54.5337 -54.5213 -54.5177 -54.5120
   -54.5098 -54.4998 -54.4918 -54.4887 -47.6042 -19.5245 -19.5242 -19.4669
   -14.3842 -13.5646 -13.2061 -13.1350 -12.9647 -12.8906  -1.6987  -0.9286
    -0.8734  -0.8534  -0.6054  -0.4776  -0.3525   0.1383   0.3846   0.6737
     0.7380   0.8379   1.2567   1.2816   1.7424   2.1169   2.4786   2.9959
     3.0695   3.3980   3.4635   3.4732   3.5085   3.8784   3.9240   4.1816
     4.1853   5.9991   6.0606   6.0971   6.1380   6.5048   6.5365   8.7834
    11.0149  12.4653  13.0240  13.3915  14.8506  15.4939  16.1364  16.7475

     occupation numbers 
     1.0000   1.0000   1.0000   1.0000   1.0000   1.0000   1.0000   1.0000
     1.0000   1.0000   1.0000   1.0000   1.0000   1.0000   1.0000   1.0000
     1.0000   1.0000   1.0000   1.0000   1.0000   1.0000   1.0000   1.0000
     1.0000   1.0000   1.0000   1.0000   1.0000   1.0000   1.0000   1.0000
     1.0000   1.0000   1.0000   1.0000   1.0000   1.0000   1.0000   1.0000
     1.0000   1.0000   1.0000   1.0000   1.0000   1.0064   1.0114   1.0807
     1.0812   0.0000   0.0000   0.0000   0.0000   0.0000   0.0000   0.0000
     0.0000   0.0000   0.0000   0.0000   0.0000   0.0000   0.0000   0.0000

          k = 0.0000-0.5774 0.0000 (  7928 PWs)   bands (ev):

   -91.2922 -91.2910 -91.2680 -54.5460 -54.5266 -54.5205 -54.5194 -54.5184
   -54.5056 -54.4995 -54.4942 -54.4888 -47.6042 -19.5246 -19.5244 -19.4668
   -13.9871 -13.9761 -13.2217 -13.1605 -12.9182 -12.9146  -1.8495  -0.9778
    -0.9251  -0.4577  -0.4533  -0.1970  -0.1238  -0.1113   0.0588   0.5338
     0.6381   0.7768   1.1777   1.1846   1.6361   2.2013   2.9750   3.0049
     3.0738   3.3472   3.4197   3.4237   3.7821   3.9034   3.9136   4.1057
     4.1109   5.8968   5.9507   6.1011   6.2469   6.2557   6.7040   9.4136
     9.8713  12.8539  13.3606  13.5948  14.3233  15.6702  15.6934  15.8229

     occupation numbers 
     1.0000   1.0000   1.0000   1.0000   1.0000   1.0000   1.0000   1.0000
     1.0000   1.0000   1.0000   1.0000   1.0000   1.0000   1.0000   1.0000
     1.0000   1.0000   1.0000   1.0000   1.0000   1.0000   1.0000   1.0000
     1.0000   1.0000   1.0000   1.0000   1.0000   1.0000   1.0000   1.0000
     1.0000   1.0000   1.0000   1.0000   1.0000   1.0000   1.0000   1.0000
     1.0000   1.0000   1.0000   1.0000   1.0015   1.0089   1.0101   1.0594
     1.0612   0.0000   0.0000   0.0000   0.0000   0.0000   0.0000   0.0000
     0.0000   0.0000   0.0000   0.0000   0.0000   0.0000   0.0000   0.0000

          k = 0.0000-0.5774 0.2417 (  7914 PWs)   bands (ev):

   -91.2922 -91.2910 -91.2680 -54.5459 -54.5267 -54.5204 -54.5195 -54.5184
   -54.5055 -54.4995 -54.4940 -54.4887 -47.6042 -19.5247 -19.5242 -19.4668
   -13.9855 -13.9760 -13.2219 -13.1603 -12.9201 -12.9149  -1.8501  -0.9940
    -0.9343  -0.4546  -0.4515  -0.2051  -0.1166  -0.0975   0.0587   0.5554
     0.6515   0.7807   1.1765   1.1843   1.6363   2.2172   2.9608   2.9848
     3.0722   3.3472   3.4208   3.4251   3.7796   3.9217   3.9274   4.0817
     4.0943   5.8383   5.9113   6.1036   6.2723   6.2875   6.7036   9.5041
     9.9519  12.8192  13.1630  13.3601  13.8890  15.7330  16.3087  16.6193

     occupation numbers 
     1.0000   1.0000   1.0000   1.0000   1.0000   1.0000   1.0000   1.0000
     1.0000   1.0000   1.0000   1.0000   1.0000   1.0000   1.0000   1.0000
     1.0000   1.0000   1.0000   1.0000   1.0000   1.0000   1.0000   1.0000
     1.0000   1.0000   1.0000   1.0000   1.0000   1.0000   1.0000   1.0000
     1.0000   1.0000   1.0000   1.0000   1.0000   1.0000   1.0000   1.0000
     1.0000   1.0000   1.0000   1.0000   1.0015   1.0111   1.0119   1.0511
     1.0554   0.0000   0.0000   0.0000   0.0000   0.0000   0.0000   0.0000
     0.0000   0.0000   0.0000   0.0000   0.0000   0.0000   0.0000   0.0000

          k = 0.1667 0.2887 0.0000 (  7899 PWs)   bands (ev):

   -91.2929 -91.2903 -91.2679 -54.5399 -54.5382 -54.5217 -54.5173 -54.5122
   -54.5114 -54.4986 -54.4906 -54.4885 -47.6042 -19.5244 -19.5241 -19.4667
   -14.4776 -13.3646 -13.3608 -13.0204 -13.0202 -12.8847  -1.3602  -1.3598
    -0.8541  -0.7294  -0.6751  -0.6360  -0.3868   0.2583   0.2901   0.7524
     0.7937   0.9433   0.9852   1.4228   2.0721   2.1697   2.1745   2.9433
     3.1981   3.2070   3.4362   3.5456   3.5462   3.7647   4.0877   4.0912
     4.1658   6.0284   6.0692   6.1075   6.2954   6.3084   6.6783   8.3223
    11.8509  12.1544  13.0536  14.2387  15.0511  15.1231  15.7470  16.0434

     occupation numbers 
     1.0000   1.0000   1.0000   1.0000   1.0000   1.0000   1.0000   1.0000
     1.0000   1.0000   1.0000   1.0000   1.0000   1.0000   1.0000   1.0000
     1.0000   1.0000   1.0000   1.0000   1.0000   1.0000   1.0000   1.0000
     1.0000   1.0000   1.0000   1.0000   1.0000   1.0000   1.0000   1.0000
     1.0000   1.0000   1.0000   1.0000   1.0000   1.0000   1.0000   1.0000
     1.0000   1.0000   1.0000   1.0000   1.0000   1.0011   1.0532   1.0544
     1.0775   0.0000   0.0000   0.0000   0.0000   0.0000   0.0000   0.0000
     0.0000   0.0000   0.0000   0.0000   0.0000   0.0000   0.0000   0.0000

          k = 0.1667 0.2887 0.2417 (  7926 PWs)   bands (ev):

   -91.2929 -91.2903 -91.2679 -54.5399 -54.5382 -54.5217 -54.5175 -54.5123
   -54.5115 -54.4986 -54.4906 -54.4886 -47.6042 -19.5244 -19.5243 -19.4670
   -14.4760 -13.3644 -13.3606 -13.0207 -13.0204 -12.8867  -1.3614  -1.3598
    -0.8679  -0.6940  -0.6794  -0.6395  -0.3868   0.2550   0.2883   0.7643
     0.8008   0.9417   0.9858   1.4285   2.0721   2.1752   2.1804   2.8600
     3.1979   3.2068   3.4139   3.5468   3.5474   3.7647   4.0825   4.0867
     4.2195   6.0115   6.0603   6.0617   6.3041   6.3166   6.6782   8.6339
    11.8195  12.1287  12.1525  14.9865  15.0473  15.2848  15.5212  15.8048

     occupation numbers 
     1.0000   1.0000   1.0000   1.0000   1.0000   1.0000   1.0000   1.0000
     1.0000   1.0000   1.0000   1.0000   1.0000   1.0000   1.0000   1.0000
     1.0000   1.0000   1.0000   1.0000   1.0000   1.0000   1.0000   1.0000
     1.0000   1.0000   1.0000   1.0000   1.0000   1.0000   1.0000   1.0000
     1.0000   1.0000   1.0000   1.0000   1.0000   1.0000   1.0000   1.0000
     1.0000   1.0000   1.0000   1.0000   1.0000   1.0012   1.0514   1.0528
     1.0831   0.0000   0.0000   0.0000   0.0000   0.0000   0.0000   0.0000
     0.0000   0.0000   0.0000   0.0000   0.0000   0.0000   0.0000   0.0000

          k = 0.1667 0.4811 0.0000 (  7898 PWs)   bands (ev):

   -91.2922 -91.2909 -91.2680 -54.5420 -54.5323 -54.5206 -54.5187 -54.5184
   -54.5060 -54.4985 -54.4932 -54.4888 -47.6042 -19.5246 -19.5242 -19.4667
   -14.1325 -13.7238 -13.4359 -13.0309 -12.9501 -12.9060  -1.6284  -1.1456
    -0.9934  -0.5516  -0.4091  -0.3875  -0.2015   0.0676   0.1151   0.4914
     0.6060   0.7393   1.2134   1.4701   1.6256   2.2887   2.6663   3.0057
     3.2390   3.4362   3.4552   3.4823   3.6464   3.8683   3.8951   4.0623
     4.0694   5.7725   5.8840   6.0178   6.4089   6.5458   6.6222   9.1664
    10.4584  11.6126  13.5021  14.5209  14.8346  15.2598  15.3970  16.3394

     occupation numbers 
     1.0000   1.0000   1.0000   1.0000   1.0000   1.0000   1.0000   1.0000
     1.0000   1.0000   1.0000   1.0000   1.0000   1.0000   1.0000   1.0000
     1.0000   1.0000   1.0000   1.0000   1.0000   1.0000   1.0000   1.0000
     1.0000   1.0000   1.0000   1.0000   1.0000   1.0000   1.0000   1.0000
     1.0000   1.0000   1.0000   1.0000   1.0000   1.0000   1.0000   1.0000
     1.0000   1.0000   1.0000   1.0000   1.0001   1.0056   1.0080   1.0445
     1.0469   0.0000   0.0000   0.0000   0.0000   0.0000   0.0000   0.0000
     0.0000   0.0000   0.0000   0.0000   0.0000   0.0000   0.0000   0.0000

          k = 0.1667 0.4811 0.2417 (  7912 PWs)   bands (ev):

   -91.2922 -91.2909 -91.2680 -54.5421 -54.5324 -54.5206 -54.5187 -54.5184
   -54.5061 -54.4985 -54.4932 -54.4888 -47.6042 -19.5245 -19.5243 -19.4669
   -14.1314 -13.7232 -13.4356 -13.0313 -12.9509 -12.9073  -1.6295  -1.1527
    -1.0072  -0.5558  -0.3957  -0.3899  -0.1987   0.0692   0.1135   0.5124
     0.6174   0.7481   1.2137   1.4703   1.6257   2.3021   2.6684   2.9848
     3.2378   3.4359   3.4552   3.4667   3.6501   3.8673   3.8879   4.0636
     4.0940   5.6986   5.8440   5.9987   6.4198   6.5528   6.6235   9.3734
    10.5330  11.6538  13.0024  14.2085  14.6874  15.0622  16.1115  16.7435

     occupation numbers 
     1.0000   1.0000   1.0000   1.0000   1.0000   1.0000   1.0000   1.0000
     1.0000   1.0000   1.0000   1.0000   1.0000   1.0000   1.0000   1.0000
     1.0000   1.0000   1.0000   1.0000   1.0000   1.0000   1.0000   1.0000
     1.0000   1.0000   1.0000   1.0000   1.0000   1.0000   1.0000   1.0000
     1.0000   1.0000   1.0000   1.0000   1.0000   1.0000   1.0000   1.0000
     1.0000   1.0000   1.0000   1.0000   1.0001   1.0055   1.0073   1.0449
     1.0553   0.0000   0.0000   0.0000   0.0000   0.0000   0.0000   0.0000
     0.0000   0.0000   0.0000   0.0000   0.0000   0.0000   0.0000   0.0000

          k = 0.3333 0.5774 0.0000 (  7920 PWs)   bands (ev):

   -91.2916 -91.2916 -91.2681 -54.5362 -54.5302 -54.5302 -54.5194 -54.5194
   -54.5047 -54.4950 -54.4950 -54.4889 -47.6042 -19.5245 -19.5245 -19.4668
   -13.7928 -13.7794 -13.7794 -12.9511 -12.9475 -12.9475  -1.2677  -1.2486
    -1.2486  -0.4236  -0.3832  -0.3832  -0.0384  -0.0384  -0.0251   0.3571
     0.4928   0.4928   1.5675   1.5675   1.5831   2.6556   2.6556   2.7060
     3.4336   3.4336   3.4375   3.6939   3.6939   3.6977   3.9115   3.9232
     3.9232   5.7523   5.8221   5.8221   6.6295   6.6295   6.6297   9.8249
    10.4190  10.4190  13.6603  14.5951  14.5951  15.9630  16.0784  16.0784

     occupation numbers 
     1.0000   1.0000   1.0000   1.0000   1.0000   1.0000   1.0000   1.0000
     1.0000   1.0000   1.0000   1.0000   1.0000   1.0000   1.0000   1.0000
     1.0000   1.0000   1.0000   1.0000   1.0000   1.0000   1.0000   1.0000
     1.0000   1.0000   1.0000   1.0000   1.0000   1.0000   1.0000   1.0000
     1.0000   1.0000   1.0000   1.0000   1.0000   1.0000   1.0000   1.0000
     1.0000   1.0000   1.0000   1.0003   1.0003   1.0004   1.0098   1.0113
     1.0113   0.0000   0.0000   0.0000   0.0000   0.0000   0.0000   0.0000
     0.0000   0.0000   0.0000   0.0000   0.0000   0.0000   0.0000   0.0000

          k = 0.3333 0.5774 0.2417 (  7899 PWs)   bands (ev):

   -91.2916 -91.2916 -91.2681 -54.5362 -54.5303 -54.5303 -54.5193 -54.5193
   -54.5046 -54.4949 -54.4949 -54.4888 -47.6042 -19.5245 -19.5245 -19.4668
   -13.7911 -13.7792 -13.7792 -12.9529 -12.9478 -12.9478  -1.2770  -1.2540
    -1.2540  -0.4306  -0.3858  -0.3858  -0.0383  -0.0383  -0.0252   0.3882
     0.5092   0.5092   1.5674   1.5674   1.5834   2.6596   2.6596   2.7096
     3.4285   3.4285   3.4306   3.6939   3.6939   3.6979   3.9238   3.9321
     3.9321   5.6801   5.7759   5.7759   6.6293   6.6294   6.6294   9.9780
    10.5431  10.5431  13.3953  14.1914  14.1914  16.3192  16.3192  16.5833

     occupation numbers 
     1.0000   1.0000   1.0000   1.0000   1.0000   1.0000   1.0000   1.0000
     1.0000   1.0000   1.0000   1.0000   1.0000   1.0000   1.0000   1.0000
     1.0000   1.0000   1.0000   1.0000   1.0000   1.0000   1.0000   1.0000
     1.0000   1.0000   1.0000   1.0000   1.0000   1.0000   1.0000   1.0000
     1.0000   1.0000   1.0000   1.0000   1.0000   1.0000   1.0000   1.0000
     1.0000   1.0000   1.0000   1.0003   1.0003   1.0004   1.0114   1.0126
     1.0126   0.0000   0.0000   0.0000   0.0000   0.0000   0.0000   0.0000
     0.0000   0.0000   0.0000   0.0000   0.0000   0.0000   0.0000   0.0000

          k =-0.1667-0.2887 0.2417 (  7926 PWs)   bands (ev):

   -91.2929 -91.2903 -91.2679 -54.5399 -54.5382 -54.5217 -54.5175 -54.5123
   -54.5115 -54.4986 -54.4906 -54.4886 -47.6042 -19.5244 -19.5243 -19.4670
   -14.4761 -13.3645 -13.3608 -13.0206 -13.0202 -12.8867  -1.3620  -1.3619
    -0.8583  -0.7026  -0.6785  -0.6389  -0.3867   0.2582   0.2894   0.7583
     0.7979   0.9468   0.9896   1.4260   2.0720   2.1706   2.1758   2.8607
     3.1990   3.2080   3.4165   3.5472   3.5477   3.7646   4.0792   4.0834
     4.2077   6.0430   6.0793   6.1006   6.2979   6.3081   6.6785   8.5451
    11.7108  12.0547  12.2469  15.0430  15.0529  15.4326  15.7282  16.0506

     occupation numbers 
     1.0000   1.0000   1.0000   1.0000   1.0000   1.0000   1.0000   1.0000
     1.0000   1.0000   1.0000   1.0000   1.0000   1.0000   1.0000   1.0000
     1.0000   1.0000   1.0000   1.0000   1.0000   1.0000   1.0000   1.0000
     1.0000   1.0000   1.0000   1.0000   1.0000   1.0000   1.0000   1.0000
     1.0000   1.0000   1.0000   1.0000   1.0000   1.0000   1.0000   1.0000
     1.0000   1.0000   1.0000   1.0000   1.0000   1.0011   1.0502   1.0517
     1.0833   0.0000   0.0000   0.0000   0.0000   0.0000   0.0000   0.0000
     0.0000   0.0000   0.0000   0.0000   0.0000   0.0000   0.0000   0.0000

          k =-0.1667-0.4811 0.2417 (  7912 PWs)   bands (ev):

   -91.2922 -91.2909 -91.2680 -54.5421 -54.5324 -54.5206 -54.5187 -54.5184
   -54.5061 -54.4985 -54.4932 -54.4888 -47.6042 -19.5245 -19.5243 -19.4669
   -14.1315 -13.7233 -13.4358 -13.0311 -12.9508 -12.9073  -1.6307  -1.1532
    -1.0029  -0.5559  -0.4000  -0.3909  -0.1994   0.0667   0.1138   0.5192
     0.6208   0.7517   1.2126   1.4701   1.6255   2.2923   2.6601   2.9759
     3.2409   3.4385   3.4554   3.4725   3.6512   3.8617   3.8938   4.0505
     4.0693   5.7697   5.8900   6.0261   6.4100   6.5485   6.6224   9.2395
    10.4143  11.4845  13.2158  14.4685  14.8301  15.4887  15.9398  16.4650

     occupation numbers 
     1.0000   1.0000   1.0000   1.0000   1.0000   1.0000   1.0000   1.0000
     1.0000   1.0000   1.0000   1.0000   1.0000   1.0000   1.0000   1.0000
     1.0000   1.0000   1.0000   1.0000   1.0000   1.0000   1.0000   1.0000
     1.0000   1.0000   1.0000   1.0000   1.0000   1.0000   1.0000   1.0000
     1.0000   1.0000   1.0000   1.0000   1.0000   1.0000   1.0000   1.0000
     1.0000   1.0000   1.0000   1.0000   1.0001   1.0051   1.0078   1.0407
     1.0469   0.0000   0.0000   0.0000   0.0000   0.0000   0.0000   0.0000
     0.0000   0.0000   0.0000   0.0000   0.0000   0.0000   0.0000   0.0000

          k =-0.3333-0.5774 0.2417 (  7899 PWs)   bands (ev):

   -91.2916 -91.2916 -91.2681 -54.5362 -54.5303 -54.5303 -54.5193 -54.5193
   -54.5046 -54.4949 -54.4949 -54.4888 -47.6042 -19.5245 -19.5245 -19.4668
   -13.7912 -13.7794 -13.7794 -12.9527 -12.9476 -12.9476  -1.2785  -1.2530
    -1.2530  -0.4331  -0.3888  -0.3888  -0.0383  -0.0383  -0.0251   0.3961
     0.5138   0.5138   1.5674   1.5674   1.5831   2.6486   2.6486   2.6962
     3.4338   3.4338   3.4377   3.6939   3.6939   3.6979   3.8992   3.9159
     3.9159   5.7622   5.8287   5.8287   6.6296   6.6296   6.6296   9.7516
    10.3816  10.3816  13.8461  14.5156  14.5156  15.9465  16.2516  16.2516

     occupation numbers 
     1.0000   1.0000   1.0000   1.0000   1.0000   1.0000   1.0000   1.0000
     1.0000   1.0000   1.0000   1.0000   1.0000   1.0000   1.0000   1.0000
     1.0000   1.0000   1.0000   1.0000   1.0000   1.0000   1.0000   1.0000
     1.0000   1.0000   1.0000   1.0000   1.0000   1.0000   1.0000   1.0000
     1.0000   1.0000   1.0000   1.0000   1.0000   1.0000   1.0000   1.0000
     1.0000   1.0000   1.0000   1.0003   1.0003   1.0004   1.0084   1.0104
     1.0104   0.0000   0.0000   0.0000   0.0000   0.0000   0.0000   0.0000
     0.0000   0.0000   0.0000   0.0000   0.0000   0.0000   0.0000   0.0000

 ------ SPIN DOWN ----------


          k = 0.0000 0.0000 0.0000 (  7923 PWs)   bands (ev):

   -90.5668 -90.5625 -90.5472 -53.8833 -53.8833 -53.8756 -53.8756 -53.8377
   -53.8377 -53.6996 -53.6923 -53.6785 -47.6032 -19.5228 -19.5228 -19.4656
   -14.6818 -12.9969 -12.9969 -12.9950 -12.9950 -12.7741  -0.7940  -0.7217
    -0.7217  -0.6839  -0.6839  -0.3874  -0.3554  -0.3554  -0.3233   1.3926
     1.3926   1.4249   1.4249   1.5455   1.6355   2.6703   3.1753   3.1753
     3.5175   3.5175   3.8982   3.9245   4.5660   4.5660   4.5713   4.5713
     4.9599   6.3696   6.3696   6.4083   6.4083   7.1379   7.1379   7.5842
    12.5639  13.3542  14.2554  14.2554  15.0254  15.0254  15.1325  15.4848

     occupation numbers 
     1.0000   1.0000   1.0000   1.0000   1.0000   1.0000   1.0000   1.0000
     1.0000   1.0000   1.0000   1.0000   1.0000   1.0000   1.0000   1.0000
     1.0000   1.0000   1.0000   1.0000   1.0000   1.0000   1.0000   1.0000
     1.0000   1.0000   1.0000   1.0000   1.0000   1.0000   1.0000   1.0000
     1.0000   1.0000   1.0000   1.0000   1.0000   1.0000   1.0000   1.0000
     1.0000   1.0000   1.0083   1.0115   0.4801   0.4801   0.4658   0.4658
     0.0081   0.0000   0.0000   0.0000   0.0000   0.0000   0.0000   0.0000
     0.0000   0.0000   0.0000   0.0000   0.0000   0.0000   0.0000   0.0000

          k = 0.0000 0.0000 0.2417 (  7928 PWs)   bands (ev):

   -90.5668 -90.5625 -90.5472 -53.8832 -53.8832 -53.8754 -53.8754 -53.8379
   -53.8379 -53.6998 -53.6923 -53.6786 -47.6032 -19.5228 -19.5228 -19.4659
   -14.6799 -12.9971 -12.9971 -12.9948 -12.9948 -12.7770  -0.7454  -0.7229
    -0.7229  -0.6859  -0.6859  -0.3822  -0.3554  -0.3554  -0.3212   1.3937
     1.3937   1.4282   1.4282   1.5330   1.6316   2.5030   3.1750   3.1750
     3.5174   3.5174   3.8996   3.9251   4.5644   4.5644   4.5693   4.5693
     5.0197   6.3792   6.3792   6.4184   6.4184   7.1379   7.1379   7.9644
    11.3373  14.1756  14.1756  14.2881  14.9685  14.9685  15.0454  15.3826

     occupation numbers 
     1.0000   1.0000   1.0000   1.0000   1.0000   1.0000   1.0000   1.0000
     1.0000   1.0000   1.0000   1.0000   1.0000   1.0000   1.0000   1.0000
     1.0000   1.0000   1.0000   1.0000   1.0000   1.0000   1.0000   1.0000
     1.0000   1.0000   1.0000   1.0000   1.0000   1.0000   1.0000   1.0000
     1.0000   1.0000   1.0000   1.0000   1.0000   1.0000   1.0000   1.0000
     1.0000   1.0000   1.0085   1.0116   0.4845   0.4845   0.4712   0.4712
     0.0031   0.0000   0.0000   0.0000   0.0000   0.0000   0.0000   0.0000
     0.0000   0.0000   0.0000   0.0000   0.0000   0.0000   0.0000   0.0000

          k = 0.0000 0.1925 0.0000 (  7914 PWs)   bands (ev):

   -90.5665 -90.5627 -90.5473 -53.8890 -53.8866 -53.8686 -53.8674 -53.8425
   -53.8389 -53.6991 -53.6926 -53.6787 -47.6032 -19.5230 -19.5228 -19.4656
   -14.5783 -13.1482 -13.0607 -12.9849 -12.9245 -12.7763  -1.1461  -0.8962
    -0.7082  -0.6568  -0.5952  -0.4735  -0.2928   0.0377   0.2379   0.9941
     1.0731   1.2767   1.3742   1.9806   2.0618   2.4738   2.6238   2.9274
     3.8148   3.9191   3.9617   4.0197   4.3424   4.3550   4.6296   4.6919
     4.9798   6.3649   6.4396   6.4403   6.4788   6.8647   7.0530   7.8583
    12.7394  12.7830  13.6611  13.7085  14.1554  15.6273  16.2248  16.2367

     occupation numbers 
     1.0000   1.0000   1.0000   1.0000   1.0000   1.0000   1.0000   1.0000
     1.0000   1.0000   1.0000   1.0000   1.0000   1.0000   1.0000   1.0000
     1.0000   1.0000   1.0000   1.0000   1.0000   1.0000   1.0000   1.0000
     1.0000   1.0000   1.0000   1.0000   1.0000   1.0000   1.0000   1.0000
     1.0000   1.0000   1.0000   1.0000   1.0000   1.0000   1.0000   1.0000
     1.0026   1.0108   1.0176   1.0314   1.0047   0.9869   0.3214   0.1978
     0.0059   0.0000   0.0000   0.0000   0.0000   0.0000   0.0000   0.0000
     0.0000   0.0000   0.0000   0.0000   0.0000   0.0000   0.0000   0.0000

          k = 0.0000 0.1925 0.2417 (  7936 PWs)   bands (ev):

   -90.5665 -90.5628 -90.5473 -53.8890 -53.8866 -53.8685 -53.8675 -53.8425
   -53.8390 -53.6992 -53.6927 -53.6788 -47.6032 -19.5230 -19.5228 -19.4659
   -14.5766 -13.1481 -13.0608 -12.9848 -12.9246 -12.7789  -1.1460  -0.8951
    -0.7122  -0.6136  -0.5973  -0.4787  -0.2927   0.0399   0.2395   0.9899
     1.0688   1.2848   1.3763   1.9836   2.0605   2.4760   2.5847   2.8247
     3.8152   3.9141   3.9621   4.0200   4.3433   4.3557   4.6255   4.6863
     5.0398   6.3794   6.4419   6.4470   6.4866   6.8303   7.0599   8.2120
    11.6783  12.6388  13.5840  14.0098  14.7139  15.7301  16.0961  16.2583

     occupation numbers 
     1.0000   1.0000   1.0000   1.0000   1.0000   1.0000   1.0000   1.0000
     1.0000   1.0000   1.0000   1.0000   1.0000   1.0000   1.0000   1.0000
     1.0000   1.0000   1.0000   1.0000   1.0000   1.0000   1.0000   1.0000
     1.0000   1.0000   1.0000   1.0000   1.0000   1.0000   1.0000   1.0000
     1.0000   1.0000   1.0000   1.0000   1.0000   1.0000   1.0000   1.0000
     1.0026   1.0101   1.0177   1.0314   1.0035   0.9858   0.3307   0.2074
     0.0022   0.0000   0.0000   0.0000   0.0000   0.0000   0.0000   0.0000
     0.0000   0.0000   0.0000   0.0000   0.0000   0.0000   0.0000   0.0000

          k = 0.0000 0.3849 0.0000 (  7930 PWs)   bands (ev):

   -90.5657 -90.5633 -90.5475 -53.8949 -53.8841 -53.8613 -53.8596 -53.8512
   -53.8421 -53.6978 -53.6937 -53.6792 -47.6032 -19.5232 -19.5230 -19.4657
   -14.2904 -13.4662 -13.1059 -13.0309 -12.8601 -12.7866  -1.5567  -0.7384
    -0.7192  -0.6672  -0.3502  -0.3390  -0.1454   0.2829   0.5521   0.9407
     0.9908   1.0175   1.4071   1.4600   1.9816   2.2657   2.6575   3.2243
     3.9745   3.9911   4.1296   4.1429   4.3228   4.3537   4.4953   4.7046
     4.9533   6.3683   6.3956   6.4093   6.4825   6.7835   6.8063   8.5750
    11.0557  13.0812  13.2642  13.5487  14.6522  14.9159  16.0806  16.5707

     occupation numbers 
     1.0000   1.0000   1.0000   1.0000   1.0000   1.0000   1.0000   1.0000
     1.0000   1.0000   1.0000   1.0000   1.0000   1.0000   1.0000   1.0000
     1.0000   1.0000   1.0000   1.0000   1.0000   1.0000   1.0000   1.0000
     1.0000   1.0000   1.0000   1.0000   1.0000   1.0000   1.0000   1.0000
     1.0000   1.0000   1.0000   1.0000   1.0000   1.0000   1.0000   1.0000
     1.0202   1.0239   1.0674   1.0714   1.0286   0.9888   0.6745   0.1771
     0.0089   0.0000   0.0000   0.0000   0.0000   0.0000   0.0000   0.0000
     0.0000   0.0000   0.0000   0.0000   0.0000   0.0000   0.0000   0.0000

          k = 0.0000 0.3849 0.2417 (  7917 PWs)   bands (ev):

   -90.5657 -90.5633 -90.5475 -53.8949 -53.8842 -53.8612 -53.8595 -53.8511
   -53.8421 -53.6977 -53.6937 -53.6792 -47.6032 -19.5232 -19.5229 -19.4658
   -14.2891 -13.4658 -13.1061 -13.0307 -12.8606 -12.7884  -1.5571  -0.7506
    -0.7192  -0.6779  -0.3542  -0.3049  -0.1447   0.2838   0.5485   0.9556
     1.0008   1.0153   1.4089   1.4690   1.9807   2.2781   2.6555   3.1429
     3.9743   3.9901   4.1304   4.1440   4.3093   4.3554   4.4924   4.6926
     4.9953   6.3098   6.3777   6.4241   6.4851   6.7870   6.8329   8.8142
    11.0209  12.5289  13.0315  13.3815  14.8978  15.5862  16.1853  16.8337

     occupation numbers 
     1.0000   1.0000   1.0000   1.0000   1.0000   1.0000   1.0000   1.0000
     1.0000   1.0000   1.0000   1.0000   1.0000   1.0000   1.0000   1.0000
     1.0000   1.0000   1.0000   1.0000   1.0000   1.0000   1.0000   1.0000
     1.0000   1.0000   1.0000   1.0000   1.0000   1.0000   1.0000   1.0000
     1.0000   1.0000   1.0000   1.0000   1.0000   1.0000   1.0000   1.0000
     1.0202   1.0237   1.0676   1.0718   1.0423   0.9863   0.6823   0.1966
     0.0046   0.0000   0.0000   0.0000   0.0000   0.0000   0.0000   0.0000
     0.0000   0.0000   0.0000   0.0000   0.0000   0.0000   0.0000   0.0000

          k = 0.0000-0.5774 0.0000 (  7928 PWs)   bands (ev):

   -90.5651 -90.5639 -90.5476 -53.8971 -53.8763 -53.8698 -53.8547 -53.8504
   -53.8451 -53.6966 -53.6946 -53.6794 -47.6032 -19.5233 -19.5231 -19.4657
   -13.8904 -13.8793 -13.1222 -13.0562 -12.8148 -12.8111  -1.7061  -0.7929
    -0.7365  -0.2810  -0.2749  -0.1123   0.1124   0.1361   0.2560   0.7416
     0.8666   1.0974   1.3792   1.3880   1.7022   2.3476   3.1353   3.1703
     3.9107   4.0347   4.0503   4.0564   4.4164   4.5768   4.5876   4.7318
     4.7542   6.2208   6.2742   6.4790   6.5392   6.5526   6.9789   9.4323
     9.8723  12.8606  13.3522  13.6423  14.3762  15.7420  15.7849  15.9408

     occupation numbers 
     1.0000   1.0000   1.0000   1.0000   1.0000   1.0000   1.0000   1.0000
     1.0000   1.0000   1.0000   1.0000   1.0000   1.0000   1.0000   1.0000
     1.0000   1.0000   1.0000   1.0000   1.0000   1.0000   1.0000   1.0000
     1.0000   1.0000   1.0000   1.0000   1.0000   1.0000   1.0000   1.0000
     1.0000   1.0000   1.0000   1.0000   1.0000   1.0000   1.0000   1.0000
     1.0097   1.0357   1.0406   1.0426   0.8727   0.4515   0.4233   0.1379
     0.1107   0.0000   0.0000   0.0000   0.0000   0.0000   0.0000   0.0000
     0.0000   0.0000   0.0000   0.0000   0.0000   0.0000   0.0000   0.0000

          k = 0.0000-0.5774 0.2417 (  7914 PWs)   bands (ev):

   -90.5651 -90.5638 -90.5476 -53.8970 -53.8764 -53.8699 -53.8545 -53.8504
   -53.8449 -53.6966 -53.6946 -53.6794 -47.6032 -19.5234 -19.5229 -19.4657
   -13.8888 -13.8791 -13.1223 -13.0559 -12.8167 -12.8114  -1.7066  -0.8104
    -0.7465  -0.2792  -0.2739  -0.1204   0.1193   0.1488   0.2560   0.7718
     0.8859   1.1012   1.3782   1.3879   1.7024   2.3642   3.1176   3.1454
     3.9086   4.0347   4.0505   4.0569   4.4150   4.5535   4.5716   4.7483
     4.7666   6.1509   6.2268   6.4853   6.5693   6.5854   6.9785   9.5343
     9.9602  12.8274  13.1571  13.4087  13.9475  15.7815  16.4038  16.7251

     occupation numbers 
     1.0000   1.0000   1.0000   1.0000   1.0000   1.0000   1.0000   1.0000
     1.0000   1.0000   1.0000   1.0000   1.0000   1.0000   1.0000   1.0000
     1.0000   1.0000   1.0000   1.0000   1.0000   1.0000   1.0000   1.0000
     1.0000   1.0000   1.0000   1.0000   1.0000   1.0000   1.0000   1.0000
     1.0000   1.0000   1.0000   1.0000   1.0000   1.0000   1.0000   1.0000
     1.0095   1.0357   1.0407   1.0427   0.8756   0.5138   0.4652   0.1173
     0.0974   0.0000   0.0000   0.0000   0.0000   0.0000   0.0000   0.0000
     0.0000   0.0000   0.0000   0.0000   0.0000   0.0000   0.0000   0.0000

          k = 0.1667 0.2887 0.0000 (  7899 PWs)   bands (ev):

   -90.5659 -90.5631 -90.5474 -53.8905 -53.8890 -53.8617 -53.8612 -53.8497
   -53.8408 -53.6982 -53.6933 -53.6790 -47.6032 -19.5231 -19.5228 -19.4656
   -14.3827 -13.2646 -13.2607 -12.9165 -12.9162 -12.7828  -1.2162  -1.2148
    -0.6461  -0.5357  -0.4968  -0.4332  -0.1740   0.4091   0.4421   0.9577
     0.9867   1.1719   1.2297   1.6133   2.3110   2.3496   2.3551   3.1139
     3.9517   4.1146   4.1285   4.1820   4.1821   4.2056   4.6264   4.6307
     4.9756   6.3734   6.4154   6.4329   6.5871   6.6014   6.9725   8.3389
    11.8590  12.1515  13.1179  14.3486  15.0488  15.1451  15.7726  16.0912

     occupation numbers 
     1.0000   1.0000   1.0000   1.0000   1.0000   1.0000   1.0000   1.0000
     1.0000   1.0000   1.0000   1.0000   1.0000   1.0000   1.0000   1.0000
     1.0000   1.0000   1.0000   1.0000   1.0000   1.0000   1.0000   1.0000
     1.0000   1.0000   1.0000   1.0000   1.0000   1.0000   1.0000   1.0000
     1.0000   1.0000   1.0000   1.0000   1.0000   1.0000   1.0000   1.0000
     1.0158   1.0624   1.0670   1.0807   1.0807   1.0832   0.3287   0.3188
     0.0063   0.0000   0.0000   0.0000   0.0000   0.0000   0.0000   0.0000
     0.0000   0.0000   0.0000   0.0000   0.0000   0.0000   0.0000   0.0000

          k = 0.1667 0.2887 0.2417 (  7926 PWs)   bands (ev):

   -90.5659 -90.5632 -90.5474 -53.8906 -53.8891 -53.8617 -53.8612 -53.8497
   -53.8408 -53.6981 -53.6934 -53.6791 -47.6032 -19.5231 -19.5230 -19.4658
   -14.3812 -13.2643 -13.2605 -12.9168 -12.9165 -12.7848  -1.2159  -1.2159
    -0.6613  -0.5406  -0.5007  -0.3927  -0.1740   0.4059   0.4403   0.9644
     0.9906   1.1757   1.2339   1.6221   2.3127   2.3566   2.3596   3.0164
     3.9394   4.1136   4.1275   4.1829   4.1829   4.2057   4.6218   4.6269
     5.0292   6.3412   6.3853   6.4068   6.5961   6.6093   6.9725   8.6694
    11.8271  12.1252  12.2162  14.9867  15.1142  15.3057  15.5824  15.8511

     occupation numbers 
     1.0000   1.0000   1.0000   1.0000   1.0000   1.0000   1.0000   1.0000
     1.0000   1.0000   1.0000   1.0000   1.0000   1.0000   1.0000   1.0000
     1.0000   1.0000   1.0000   1.0000   1.0000   1.0000   1.0000   1.0000
     1.0000   1.0000   1.0000   1.0000   1.0000   1.0000   1.0000   1.0000
     1.0000   1.0000   1.0000   1.0000   1.0000   1.0000   1.0000   1.0000
     1.0137   1.0621   1.0667   1.0809   1.0809   1.0832   0.3393   0.3275
     0.0026   0.0000   0.0000   0.0000   0.0000   0.0000   0.0000   0.0000
     0.0000   0.0000   0.0000   0.0000   0.0000   0.0000   0.0000   0.0000

          k = 0.1667 0.4811 0.0000 (  7898 PWs)   bands (ev):

   -90.5651 -90.5638 -90.5475 -53.8929 -53.8828 -53.8689 -53.8552 -53.8494
   -53.8438 -53.6967 -53.6944 -53.6794 -47.6032 -19.5233 -19.5229 -19.4656
   -14.0364 -13.6258 -13.3363 -12.9273 -12.8463 -12.8030  -1.4790  -0.9741
    -0.8007  -0.4111  -0.2700  -0.1701   0.0104   0.2534   0.2994   0.7418
     0.8587   1.0494   1.3827   1.5810   1.8424   2.4587   2.8425   3.1919
     4.0109   4.0430   4.0779   4.1299   4.3932   4.4112   4.4974   4.6491
     4.8583   6.1208   6.2374   6.3952   6.6903   6.8268   6.8979   9.1798
    10.4622  11.6125  13.5533  14.5665  14.8377  15.3648  15.4525  16.4595

     occupation numbers 
     1.0000   1.0000   1.0000   1.0000   1.0000   1.0000   1.0000   1.0000
     1.0000   1.0000   1.0000   1.0000   1.0000   1.0000   1.0000   1.0000
     1.0000   1.0000   1.0000   1.0000   1.0000   1.0000   1.0000   1.0000
     1.0000   1.0000   1.0000   1.0000   1.0000   1.0000   1.0000   1.0000
     1.0000   1.0000   1.0000   1.0000   1.0000   1.0000   1.0000   1.0000
     1.0289   1.0383   1.0498   1.0674   0.9210   0.8840   0.6686   0.2789
     0.0337   0.0000   0.0000   0.0000   0.0000   0.0000   0.0000   0.0000
     0.0000   0.0000   0.0000   0.0000   0.0000   0.0000   0.0000   0.0000

          k = 0.1667 0.4811 0.2417 (  7912 PWs)   bands (ev):

   -90.5651 -90.5638 -90.5476 -53.8929 -53.8828 -53.8688 -53.8552 -53.8494
   -53.8438 -53.6967 -53.6945 -53.6794 -47.6032 -19.5233 -19.5230 -19.4657
   -14.0353 -13.6252 -13.3359 -12.9277 -12.8471 -12.8043  -1.4799  -0.9812
    -0.8154  -0.4159  -0.2772  -0.1557   0.0157   0.2539   0.2981   0.7680
     0.8760   1.0587   1.3831   1.5812   1.8426   2.4732   2.8434   3.1606
     4.0078   4.0345   4.0765   4.1297   4.3863   4.4070   4.4975   4.6521
     4.8871   6.0336   6.1911   6.3730   6.7026   6.8353   6.8993   9.4043
    10.5441  11.6563  13.0553  14.2569  14.7005  15.0983  16.2161  16.8015

     occupation numbers 
     1.0000   1.0000   1.0000   1.0000   1.0000   1.0000   1.0000   1.0000
     1.0000   1.0000   1.0000   1.0000   1.0000   1.0000   1.0000   1.0000
     1.0000   1.0000   1.0000   1.0000   1.0000   1.0000   1.0000   1.0000
     1.0000   1.0000   1.0000   1.0000   1.0000   1.0000   1.0000   1.0000
     1.0000   1.0000   1.0000   1.0000   1.0000   1.0000   1.0000   1.0000
     1.0281   1.0357   1.0493   1.0674   0.9340   0.8929   0.6682   0.2725
     0.0231   0.0000   0.0000   0.0000   0.0000   0.0000   0.0000   0.0000
     0.0000   0.0000   0.0000   0.0000   0.0000   0.0000   0.0000   0.0000

          k = 0.3333 0.5774 0.0000 (  7920 PWs)   bands (ev):

   -90.5644 -90.5644 -90.5476 -53.8863 -53.8810 -53.8810 -53.8536 -53.8457
   -53.8457 -53.6955 -53.6955 -53.6796 -47.6032 -19.5232 -19.5232 -19.4656
   -13.6952 -13.6817 -13.6817 -12.8475 -12.8438 -12.8438  -1.0966  -1.0736
    -1.0736  -0.2924  -0.2478  -0.2478   0.1538   0.1538   0.1687   0.6554
     0.8015   0.8015   1.7386   1.7386   1.7550   2.8384   2.8384   2.8960
     4.0412   4.0593   4.0593   4.2739   4.2739   4.2746   4.6521   4.6771
     4.6771   6.1280   6.1965   6.1965   6.9026   6.9026   6.9035   9.8436
    10.4159  10.4159  13.7029  14.6428  14.6428  16.0805  16.1861  16.1861

     occupation numbers 
     1.0000   1.0000   1.0000   1.0000   1.0000   1.0000   1.0000   1.0000
     1.0000   1.0000   1.0000   1.0000   1.0000   1.0000   1.0000   1.0000
     1.0000   1.0000   1.0000   1.0000   1.0000   1.0000   1.0000   1.0000
     1.0000   1.0000   1.0000   1.0000   1.0000   1.0000   1.0000   1.0000
     1.0000   1.0000   1.0000   1.0000   1.0000   1.0000   1.0000   1.0000
     1.0377   1.0435   1.0435   1.0680   1.0680   1.0676   0.2725   0.2238
     0.2238   0.0000   0.0000   0.0000   0.0000   0.0000   0.0000   0.0000
     0.0000   0.0000   0.0000   0.0000   0.0000   0.0000   0.0000   0.0000

          k = 0.3333 0.5774 0.2417 (  7899 PWs)   bands (ev):

   -90.5644 -90.5644 -90.5476 -53.8863 -53.8810 -53.8810 -53.8536 -53.8456
   -53.8456 -53.6955 -53.6955 -53.6795 -47.6032 -19.5232 -19.5232 -19.4657
   -13.6934 -13.6815 -13.6815 -12.8494 -12.8441 -12.8441  -1.1058  -1.0791
    -1.0791  -0.3006  -0.2511  -0.2511   0.1539   0.1539   0.1686   0.6914
     0.8213   0.8213   1.7386   1.7386   1.7553   2.8409   2.8409   2.8971
     4.0339   4.0533   4.0533   4.2739   4.2739   4.2747   4.6630   4.6856
     4.6856   6.0463   6.1437   6.1437   6.9025   6.9025   6.9031  10.0122
    10.5501  10.5501  13.4379  14.2410  14.2410  16.3589  16.3590  16.7009

     occupation numbers 
     1.0000   1.0000   1.0000   1.0000   1.0000   1.0000   1.0000   1.0000
     1.0000   1.0000   1.0000   1.0000   1.0000   1.0000   1.0000   1.0000
     1.0000   1.0000   1.0000   1.0000   1.0000   1.0000   1.0000   1.0000
     1.0000   1.0000   1.0000   1.0000   1.0000   1.0000   1.0000   1.0000
     1.0000   1.0000   1.0000   1.0000   1.0000   1.0000   1.0000   1.0000
     1.0355   1.0416   1.0416   1.0680   1.0680   1.0676   0.2506   0.2086
     0.2086   0.0000   0.0000   0.0000   0.0000   0.0000   0.0000   0.0000
     0.0000   0.0000   0.0000   0.0000   0.0000   0.0000   0.0000   0.0000

          k =-0.1667-0.2887 0.2417 (  7926 PWs)   bands (ev):

   -90.5659 -90.5632 -90.5474 -53.8906 -53.8891 -53.8617 -53.8612 -53.8497
   -53.8408 -53.6981 -53.6934 -53.6791 -47.6032 -19.5231 -19.5230 -19.4658
   -14.3812 -13.2644 -13.2607 -12.9167 -12.9163 -12.7848  -1.2181  -1.2166
    -0.6554  -0.5394  -0.5001  -0.3978  -0.1739   0.4089   0.4414   0.9576
     0.9871   1.1833   1.2394   1.6181   2.3109   2.3508   2.3555   3.0214
     3.9347   4.1149   4.1285   4.1831   4.1833   4.2058   4.6183   4.6234
     5.0187   6.3878   6.4237   6.4264   6.5889   6.6000   6.9727   8.5709
    11.7171  12.0509  12.3149  15.0401  15.1040  15.4812  15.7819  16.1129

     occupation numbers 
     1.0000   1.0000   1.0000   1.0000   1.0000   1.0000   1.0000   1.0000
     1.0000   1.0000   1.0000   1.0000   1.0000   1.0000   1.0000   1.0000
     1.0000   1.0000   1.0000   1.0000   1.0000   1.0000   1.0000   1.0000
     1.0000   1.0000   1.0000   1.0000   1.0000   1.0000   1.0000   1.0000
     1.0000   1.0000   1.0000   1.0000   1.0000   1.0000   1.0000   1.0000
     1.0130   1.0625   1.0670   1.0809   1.0809   1.0832   0.3476   0.3356
     0.0031   0.0000   0.0000   0.0000   0.0000   0.0000   0.0000   0.0000
     0.0000   0.0000   0.0000   0.0000   0.0000   0.0000   0.0000   0.0000

          k =-0.1667-0.4811 0.2417 (  7912 PWs)   bands (ev):

   -90.5651 -90.5638 -90.5476 -53.8929 -53.8828 -53.8688 -53.8552 -53.8494
   -53.8438 -53.6967 -53.6945 -53.6794 -47.6032 -19.5232 -19.5230 -19.4657
   -14.0353 -13.6253 -13.3361 -12.9274 -12.8470 -12.8043  -1.4812  -0.9823
    -0.8119  -0.4158  -0.2765  -0.1602   0.0143   0.2523   0.2982   0.7741
     0.8807   1.0642   1.3819   1.5811   1.8424   2.4618   2.8336   3.1526
     4.0097   4.0342   4.0781   4.1294   4.3868   4.4105   4.4930   4.6381
     4.8683   6.1161   6.2429   6.4032   6.6915   6.8302   6.8981   9.2617
    10.4208  11.4843  13.2756  14.5216  14.8302  15.5556  16.0199  16.5315

     occupation numbers 
     1.0000   1.0000   1.0000   1.0000   1.0000   1.0000   1.0000   1.0000
     1.0000   1.0000   1.0000   1.0000   1.0000   1.0000   1.0000   1.0000
     1.0000   1.0000   1.0000   1.0000   1.0000   1.0000   1.0000   1.0000
     1.0000   1.0000   1.0000   1.0000   1.0000   1.0000   1.0000   1.0000
     1.0000   1.0000   1.0000   1.0000   1.0000   1.0000   1.0000   1.0000
     1.0286   1.0356   1.0499   1.0673   0.9331   0.8854   0.6807   0.3025
     0.0297   0.0000   0.0000   0.0000   0.0000   0.0000   0.0000   0.0000
     0.0000   0.0000   0.0000   0.0000   0.0000   0.0000   0.0000   0.0000

          k =-0.3333-0.5774 0.2417 (  7899 PWs)   bands (ev):

   -90.5644 -90.5644 -90.5476 -53.8863 -53.8810 -53.8810 -53.8535 -53.8456
   -53.8456 -53.6955 -53.6955 -53.6795 -47.6032 -19.5232 -19.5232 -19.4656
   -13.6936 -13.6816 -13.6816 -12.8491 -12.8439 -12.8439  -1.1083  -1.0785
    -1.0785  -0.3017  -0.2535  -0.2535   0.1539   0.1539   0.1688   0.7005
     0.8268   0.8268   1.7386   1.7386   1.7550   2.8278   2.8278   2.8811
     4.0343   4.0540   4.0540   4.2739   4.2739   4.2747   4.6448   4.6736
     4.6736   6.1374   6.2033   6.2033   6.9027   6.9027   6.9034   9.7756
    10.3814  10.3814  13.8971  14.5761  14.5761  16.0090  16.2984  16.2984

     occupation numbers 
     1.0000   1.0000   1.0000   1.0000   1.0000   1.0000   1.0000   1.0000
     1.0000   1.0000   1.0000   1.0000   1.0000   1.0000   1.0000   1.0000
     1.0000   1.0000   1.0000   1.0000   1.0000   1.0000   1.0000   1.0000
     1.0000   1.0000   1.0000   1.0000   1.0000   1.0000   1.0000   1.0000
     1.0000   1.0000   1.0000   1.0000   1.0000   1.0000   1.0000   1.0000
     1.0356   1.0418   1.0418   1.0680   1.0680   1.0676   0.2879   0.2302
     0.2302   0.0000   0.0000   0.0000   0.0000   0.0000   0.0000   0.0000
     0.0000   0.0000   0.0000   0.0000   0.0000   0.0000   0.0000   0.0000

     the Fermi energy is     4.5965 ev

!    total energy              =   -1489.31792167 Ry
     total all-electron energy =     -9588.552729 Ry
     estimated scf accuracy    <       0.00000002 Ry
     smearing contrib. (-TS)   =       0.00965855 Ry
     internal energy E=F+TS    =   -1489.32758022 Ry

     The total energy is F=E-TS. E is the sum of the following terms:
     one-electron contribution =   -1469.83115742 Ry
     hartree contribution      =     769.89162146 Ry
     xc contribution           =    -150.56322462 Ry
     ewald contribution        =    -303.31363253 Ry
     one-center paw contrib.   =    -335.51118712 Ry
      -> PAW hartree energy AE =     884.43719910 Ry
      -> PAW hartree energy PS =    -882.15499160 Ry
      -> PAW xc energy AE      =    -480.31370855 Ry
      -> PAW xc energy PS      =     142.52031393 Ry
      -> total E_H with PAW    =     772.17382897 Ry
      -> total E_XC with PAW   =    -488.35661925 Ry

     total magnetization       =     2.29 Bohr mag/cell
     absolute magnetization    =     2.33 Bohr mag/cell

     convergence has been achieved in  21 iterations

     Forces acting on atoms (cartesian axes, Ry/au):

     atom    1 type  1   force =     0.00000000    0.00000000    0.00000000
     atom    2 type  1   force =     0.00000000    0.00000000   -0.00000000
     atom    3 type  1   force =     0.00000000    0.00000000   -0.00000000
     atom    4 type  2   force =    -0.00191175   -0.00331126   -0.01369764
     atom    5 type  2   force =     0.00382351   -0.00000000   -0.01369764
     atom    6 type  2   force =    -0.00191175    0.00331126   -0.01369764
     atom    7 type  2   force =    -0.00382351    0.00000000    0.01369764
     atom    8 type  2   force =     0.00191175    0.00331126    0.01369764
     atom    9 type  2   force =     0.00191175   -0.00331126    0.01369764
     atom   10 type  3   force =     0.00000000    0.00000000    0.00000000
     The non-local contrib.  to forces
     atom    1 type  1   force =     0.00000000    0.00000000    0.00000000
     atom    2 type  1   force =     0.00000000    0.00000000    0.00000000
     atom    3 type  1   force =     0.00000000    0.00000000   -0.00000000
     atom    4 type  2   force =    -0.02230083   -0.03862616   -1.08005662
     atom    5 type  2   force =     0.04460165   -0.00000000   -1.08005662
     atom    6 type  2   force =    -0.02230083    0.03862616   -1.08005662
     atom    7 type  2   force =    -0.04460165    0.00000000    1.08005662
     atom    8 type  2   force =     0.02230083    0.03862616    1.08005662
     atom    9 type  2   force =     0.02230083   -0.03862616    1.08005662
     atom   10 type  3   force =     0.00000000   -0.00000000    0.00000000
     The ionic contribution  to forces
     atom    1 type  1   force =    -0.00000000   -0.00000000   -0.00000000
     atom    2 type  1   force =     0.00000002   -0.00000001   -0.00000000
     atom    3 type  1   force =    -0.00000002    0.00000001   -0.00000000
     atom    4 type  2   force =     0.36730356    0.63618843   30.58006954
     atom    5 type  2   force =    -0.73460712   -0.00000000   30.58006955
     atom    6 type  2   force =     0.36730355   -0.63618843   30.58006955
     atom    7 type  2   force =     0.73460712    0.00000000  -30.58006955
     atom    8 type  2   force =    -0.36730356   -0.63618843  -30.58006954
     atom    9 type  2   force =    -0.36730355    0.63618843  -30.58006955
     atom   10 type  3   force =    -0.00000000   -0.00000000    0.00000000
     The local contribution  to forces
     atom    1 type  1   force =     0.00000000    0.00000000    0.00000000
     atom    2 type  1   force =     0.00000021   -0.00000012    0.00000000
     atom    3 type  1   force =    -0.00000021    0.00000012    0.00000000
     atom    4 type  2   force =    -0.34709231   -0.60118151  -29.52316117
     atom    5 type  2   force =     0.69418462    0.00000000  -29.52316117
     atom    6 type  2   force =    -0.34709231    0.60118151  -29.52316117
     atom    7 type  2   force =    -0.69418462   -0.00000000   29.52316117
     atom    8 type  2   force =     0.34709231    0.60118151   29.52316117
     atom    9 type  2   force =     0.34709231   -0.60118151   29.52316117
     atom   10 type  3   force =     0.00000000    0.00000000    0.00000000
     The core correction contribution to forces
     atom    1 type  1   force =     0.00000000    0.00000000    0.00000000
     atom    2 type  1   force =     0.00000000   -0.00000000   -0.00000000
     atom    3 type  1   force =    -0.00000000    0.00000000    0.00000000
     atom    4 type  2   force =     0.00020127    0.00034861    0.00946238
     atom    5 type  2   force =    -0.00040254    0.00000000    0.00946238
     atom    6 type  2   force =     0.00020127   -0.00034861    0.00946238
     atom    7 type  2   force =     0.00040254   -0.00000000   -0.00946238
     atom    8 type  2   force =    -0.00020127   -0.00034861   -0.00946238
     atom    9 type  2   force =    -0.00020127    0.00034861   -0.00946238
     atom   10 type  3   force =     0.00000000    0.00000000    0.00000000
     The Hubbard contrib.    to forces
     atom    1 type  1   force =     0.00000000    0.00000000    0.00000000
     atom    2 type  1   force =     0.00000000    0.00000000    0.00000000
     atom    3 type  1   force =     0.00000000    0.00000000    0.00000000
     atom    4 type  2   force =     0.00000000    0.00000000    0.00000000
     atom    5 type  2   force =     0.00000000    0.00000000    0.00000000
     atom    6 type  2   force =     0.00000000    0.00000000    0.00000000
     atom    7 type  2   force =     0.00000000    0.00000000    0.00000000
     atom    8 type  2   force =     0.00000000    0.00000000    0.00000000
     atom    9 type  2   force =     0.00000000    0.00000000    0.00000000
     atom   10 type  3   force =     0.00000000    0.00000000    0.00000000
     The SCF correction term to forces
     atom    1 type  1   force =     0.00000000   -0.00000000   -0.00000000
     atom    2 type  1   force =    -0.00000000    0.00000000   -0.00000000
     atom    3 type  1   force =     0.00000000   -0.00000000   -0.00000000
     atom    4 type  2   force =    -0.00002345   -0.00004061   -0.00001178
     atom    5 type  2   force =     0.00004690    0.00000000   -0.00001178
     atom    6 type  2   force =    -0.00002345    0.00004061   -0.00001178
     atom    7 type  2   force =    -0.00004690   -0.00000000    0.00001178
     atom    8 type  2   force =     0.00002345    0.00004061    0.00001178
     atom    9 type  2   force =     0.00002345   -0.00004061    0.00001178
     atom   10 type  3   force =    -0.00000000    0.00000000   -0.00000000

     Total force =     0.034835     Total SCF correction =     0.000118

     Writing all to output data dir ./out/pw.save/ :
     XML data file, charge density, pseudopotentials, collected wavefunctions
 
     init_run     :     21.49s CPU      5.93s WALL (       1 calls)
     electrons    :    264.13s CPU     62.97s WALL (       1 calls)
     forces       :      1.09s CPU      0.91s WALL (       1 calls)

     Called by init_run:
     wfcinit      :      0.48s CPU      1.24s WALL (       1 calls)
     wfcinit:atom :      0.06s CPU      0.06s WALL (      34 calls)
     wfcinit:wfcr :      0.31s CPU      0.95s WALL (      34 calls)
     potinit      :     20.35s CPU      3.60s WALL (       1 calls)
     hinit0       :      0.52s CPU      0.51s WALL (       1 calls)

     Called by electrons:
     c_bands      :     26.28s CPU     26.48s WALL (      21 calls)
     sum_band     :      4.21s CPU      4.23s WALL (      21 calls)
     v_of_rho     :      0.50s CPU      0.31s WALL (      22 calls)
     v_h          :      0.31s CPU      0.08s WALL (      22 calls)
     v_xc         :      0.19s CPU      0.24s WALL (      23 calls)
     newd         :      0.53s CPU      0.47s WALL (      22 calls)
                                        0.47s GPU  (      22 calls)
     PAW_pot      :    241.62s CPU     31.63s WALL (      22 calls)
     mix_rho      :      1.07s CPU      1.05s WALL (      21 calls)

     Called by c_bands:
     init_us_2    :      0.90s CPU      0.88s WALL (    1496 calls)
     cegterg      :     21.74s CPU     21.92s WALL (     714 calls)

     Called by sum_band:
     sum_band:wei :      0.04s CPU      0.04s WALL (      21 calls)
                                        0.04s GPU  (      21 calls)
     sum_band:loo :      3.02s CPU      3.01s WALL (      21 calls)
                                        3.01s GPU  (      21 calls)
     sum_band:buf :      0.89s CPU      0.94s WALL (     714 calls)
                                        0.93s GPU  (     714 calls)
     sum_band:ini :      0.43s CPU      0.42s WALL (     714 calls)
                                        0.42s GPU  (     714 calls)
     sum_band:cal :      0.07s CPU      0.10s WALL (     714 calls)
                                        0.07s GPU  (     714 calls)
     sum_band:bec :      0.35s CPU      0.36s WALL (     714 calls)
                                        0.35s GPU  (     714 calls)
     addusdens    :      0.80s CPU      0.81s WALL (      21 calls)
                                        0.81s GPU  (      21 calls)
     addusd:skk   :      0.01s CPU      0.01s WALL (      63 calls)
                                        0.01s GPU  (      63 calls)

     Called by *egterg:
     cdiaghg      :      9.10s CPU      9.84s WALL (    4041 calls)
                                        9.80s GPU  (    4041 calls)
     cegterg:over :      1.16s CPU      1.18s WALL (    3327 calls)
     cegterg:upda :      1.15s CPU      1.15s WALL (    3327 calls)
     cegterg:last :      0.19s CPU      0.19s WALL (    1471 calls)
     h_psi        :      8.02s CPU      8.18s WALL (    4075 calls)
                                        8.13s GPU  (    4075 calls)
     s_psi        :      1.26s CPU      1.29s WALL (    4075 calls)
     g_psi        :      0.02s CPU      0.12s WALL (    3327 calls)
                                        0.08s GPU  (    3327 calls)

     Called by h_psi:
     h_psi:calbec :      0.19s CPU      0.39s WALL (    4075 calls)
                                        0.34s GPU  (    4075 calls)
     vloc_psi     :      6.02s CPU      6.09s WALL (    4075 calls)
                                        6.04s GPU  (    4075 calls)
     add_vuspsi   :      1.21s CPU      1.39s WALL (    4075 calls)
                                        1.34s GPU  (    4075 calls)

     General routines
     calbec       :      0.22s CPU      0.25s WALL (    4925 calls)
     fft          :      6.80s CPU      1.35s WALL (     563 calls)
                                        0.03s GPU  (     519 calls)
     ffts         :      2.88s CPU      0.77s WALL (    1096 calls)
                                        0.03s GPU  (    1052 calls)
     fftw         :      0.37s CPU      3.64s WALL (   20734 calls)
                                        3.40s GPU  (   20734 calls)
     interpolate  :      9.96s CPU      2.12s WALL (      44 calls)
 
     Parallel routines

     PAW routines
     PAW_pot      :    241.62s CPU     31.63s WALL (      22 calls)
     PAW_symme    :      0.04s CPU      0.02s WALL (      43 calls)
 
     PWSCF        :   4m47.55s CPU   1m10.46s WALL

 
   This run was terminated on:   2:46:11  12Jul2026            

=------------------------------------------------------------------------------=
   JOB DONE.
=------------------------------------------------------------------------------=
Warning: ieee_divide_by_zero is signaling
Warning: ieee_inexact is signaling
FORTRAN STOP
