
     Program PWSCF v.7.3.1 starts on 12Jul2026 at  3:51:39 

     This program is part of the open-source Quantum ESPRESSO suite
     for quantum simulation of materials; please cite
         "P. Giannozzi et al., J. Phys.:Condens. Matter 21 395502 (2009);
         "P. Giannozzi et al., J. Phys.:Condens. Matter 29 465901 (2017);
         "P. Giannozzi et al., J. Chem. Phys. 152 154105 (2020);
          URL http://www.quantum-espresso.org", 
     in publications or presentations arising from this work. More details at
     http://www.quantum-espresso.org/quote

     Parallel version (MPI & OpenMP), running on      14 processor cores
     Number of MPI processes:                 1
     Threads/MPI process:                    14

     MPI processes distributed on     1 nodes
     841897 MiB available memory on the printing compute node when the environment starts
 
     Reading input from pw.in

     Current dimensions of program PWSCF are:
     Max number of different atomic species (ntypx) = 10
     Max number of k-points (npk) =  40000
     Max angular momentum in pseudopotentials (lmaxx) =  4
     file Co.pbe-spn-kjpaw_psl.0.3.1.UPF: wavefunction(s)  3P 3D renormalized
     file O.pbe-n-kjpaw_psl.1.0.0.UPF: wavefunction(s)  2S 2P renormalized
     file Na.pbe-spn-kjpaw_psl.1.0.0.UPF: wavefunction(s)  2P renormalized
 
     Subspace diagonalization in iterative solution of the eigenvalue problem:
     a serial algorithm will be used

 
     G-vector sticks info
     --------------------
     sticks:   dense  smooth     PW     G-vecs:    dense   smooth      PW
     Sum         979     499    151                85601    30351    5001
 
     Using Slab Decomposition
 


     bravais-lattice index     =            4
     lattice parameter (alat)  =       5.4575  a.u.
     unit-cell volume          =     482.5661 (a.u.)^3
     number of atoms/cell      =            4
     number of atomic types    =            3
     number of electrons       =        38.00
     number of Kohn-Sham states=           27
     kinetic-energy cutoff     =      60.0000  Ry
     charge density cutoff     =     480.0000  Ry
     scf convergence threshold =      1.0E-07
     mixing beta               =       0.3000
     number of iterations used =            8  local-TF  mixing
     Exchange-correlation= SLA  PW   PBX  PBC
                           (   1   4   3   4   0   0   0)

     GPU acceleration is ACTIVE.  1 visible GPUs per MPI rank
     GPU-aware MPI enabled


     GPU used by master process:

        Device Number: 0
        Device name: NVIDIA A100-SXM4-80GB
        Compute capability : 80
        Ratio of single to double precision performance  : 2
        Memory Clock Rate (KHz): 1593000
        Memory Bus Width (bits): 5120
        Peak Memory Bandwidth (GB/s): ******

     celldm(1)=   5.457529  celldm(2)=   0.000000  celldm(3)=   3.427978
     celldm(4)=   0.000000  celldm(5)=   0.000000  celldm(6)=   0.000000

     crystal axes: (cart. coord. in units of alat)
               a(1) = (   1.000000   0.000000   0.000000 )  
               a(2) = (  -0.500000   0.866025   0.000000 )  
               a(3) = (   0.000000   0.000000   3.427978 )  

     reciprocal axes: (cart. coord. in units 2 pi/alat)
               b(1) = (  1.000000  0.577350 -0.000000 )  
               b(2) = (  0.000000  1.154701  0.000000 )  
               b(3) = (  0.000000 -0.000000  0.291717 )  


     PseudoPot. # 1 for Co read from file:
     ../../pseudo/Co.pbe-spn-kjpaw_psl.0.3.1.UPF
     MD5 check sum: 3c0a43779828c046024e4f3be63f8e67
     Pseudo is Projector augmented-wave + core cor, Zval = 17.0
     Generated using &quot;atomic&quot; code by A. Dal Corso  v.6.2.2
     Shape of augmentation charge: PSQ
     Using radial grid of 1193 points,  6 beta functions with: 
                l(1) =   0
                l(2) =   0
                l(3) =   1
                l(4) =   1
                l(5) =   2
                l(6) =   2
     Q(r) pseudized with 0 coefficients 


     PseudoPot. # 2 for O  read from file:
     ../../pseudo/O.pbe-n-kjpaw_psl.1.0.0.UPF
     MD5 check sum: e99d9cef9b487d1ca56f5b95ecd0fd7a
     Pseudo is Projector augmented-wave + core cor, Zval =  6.0
     Generated using &quot;atomic&quot; code by A. Dal Corso  v.6.3
     Shape of augmentation charge: PSQ
     Using radial grid of 1095 points,  4 beta functions with: 
                l(1) =   0
                l(2) =   0
                l(3) =   1
                l(4) =   1
     Q(r) pseudized with 0 coefficients 


     PseudoPot. # 3 for Na read from file:
     ../../pseudo/Na.pbe-spn-kjpaw_psl.1.0.0.UPF
     MD5 check sum: 05b4deb74e3932c23ab016979dc8b5d4
     Pseudo is Projector augmented-wave + core cor, Zval =  9.0
     Generated using &quot;atomic&quot; code by A. Dal Corso  v.6.3
     Shape of augmentation charge: PSQ
     Using radial grid of 1121 points,  4 beta functions with: 
                l(1) =   0
                l(2) =   0
                l(3) =   1
                l(4) =   1
     Q(r) pseudized with 0 coefficients 


     atomic species   valence    mass     pseudopotential
     Co               17.00    58.93300     Co( 1.00)
     O                 6.00    15.99900     O ( 1.00)
     Na                9.00    22.98977     Na( 1.00)

     Starting magnetic structure 
     atomic species   magnetization
     Co              0.300
     O               0.000
     Na              0.000

     12 Sym. Ops., with inversion, found


                                    s                        frac. trans.

      isym =  1     identity                                     

 cryst.   s( 1) = (     1          0          0      )
                  (     0          1          0      )
                  (     0          0          1      )

 cart.    s( 1) = (  1.0000000  0.0000000  0.0000000 )
                  (  0.0000000  1.0000000  0.0000000 )
                  (  0.0000000  0.0000000  1.0000000 )


      isym =  2     180 deg rotation - cart. axis [1,0,0]        

 cryst.   s( 2) = (     1          0          0      )
                  (    -1         -1          0      )
                  (     0          0         -1      )

 cart.    s( 2) = (  1.0000000  0.0000000  0.0000000 )
                  (  0.0000000 -1.0000000  0.0000000 )
                  (  0.0000000  0.0000000 -1.0000000 )


      isym =  3     120 deg rotation - cryst. axis [0,0,1]       

 cryst.   s( 3) = (     0          1          0      )
                  (    -1         -1          0      )
                  (     0          0          1      )

 cart.    s( 3) = ( -0.5000000 -0.8660254  0.0000000 )
                  (  0.8660254 -0.5000000  0.0000000 )
                  (  0.0000000  0.0000000  1.0000000 )


      isym =  4     120 deg rotation - cryst. axis [0,0,-1]      

 cryst.   s( 4) = (    -1         -1          0      )
                  (     1          0          0      )
                  (     0          0          1      )

 cart.    s( 4) = ( -0.5000000  0.8660254  0.0000000 )
                  ( -0.8660254 -0.5000000  0.0000000 )
                  (  0.0000000  0.0000000  1.0000000 )


      isym =  5     180 deg rotation - cryst. axis [0,1,0]       

 cryst.   s( 5) = (    -1         -1          0      )
                  (     0          1          0      )
                  (     0          0         -1      )

 cart.    s( 5) = ( -0.5000000 -0.8660254  0.0000000 )
                  ( -0.8660254  0.5000000  0.0000000 )
                  (  0.0000000  0.0000000 -1.0000000 )


      isym =  6     180 deg rotation - cryst. axis [1,1,0]       

 cryst.   s( 6) = (     0          1          0      )
                  (     1          0          0      )
                  (     0          0         -1      )

 cart.    s( 6) = ( -0.5000000  0.8660254  0.0000000 )
                  (  0.8660254  0.5000000  0.0000000 )
                  (  0.0000000  0.0000000 -1.0000000 )


      isym =  7     inversion                                    

 cryst.   s( 7) = (    -1          0          0      )
                  (     0         -1          0      )
                  (     0          0         -1      )

 cart.    s( 7) = ( -1.0000000  0.0000000  0.0000000 )
                  (  0.0000000 -1.0000000  0.0000000 )
                  (  0.0000000  0.0000000 -1.0000000 )


      isym =  8     inv. 180 deg rotation - cart. axis [1,0,0]   

 cryst.   s( 8) = (    -1          0          0      )
                  (     1          1          0      )
                  (     0          0          1      )

 cart.    s( 8) = ( -1.0000000  0.0000000  0.0000000 )
                  (  0.0000000  1.0000000  0.0000000 )
                  (  0.0000000  0.0000000  1.0000000 )


      isym =  9     inv. 120 deg rotation - cryst. axis [0,0,1]  

 cryst.   s( 9) = (     0         -1          0      )
                  (     1          1          0      )
                  (     0          0         -1      )

 cart.    s( 9) = (  0.5000000  0.8660254  0.0000000 )
                  ( -0.8660254  0.5000000  0.0000000 )
                  (  0.0000000  0.0000000 -1.0000000 )


      isym = 10     inv. 120 deg rotation - cryst. axis [0,0,-1] 

 cryst.   s(10) = (     1          1          0      )
                  (    -1          0          0      )
                  (     0          0         -1      )

 cart.    s(10) = (  0.5000000 -0.8660254  0.0000000 )
                  (  0.8660254  0.5000000  0.0000000 )
                  (  0.0000000  0.0000000 -1.0000000 )


      isym = 11     inv. 180 deg rotation - cryst. axis [0,1,0]  

 cryst.   s(11) = (     1          1          0      )
                  (     0         -1          0      )
                  (     0          0          1      )

 cart.    s(11) = (  0.5000000  0.8660254  0.0000000 )
                  (  0.8660254 -0.5000000  0.0000000 )
                  (  0.0000000  0.0000000  1.0000000 )


      isym = 12     inv. 180 deg rotation - cryst. axis [1,1,0]  

 cryst.   s(12) = (     0         -1          0      )
                  (    -1          0          0      )
                  (     0          0          1      )

 cart.    s(12) = (  0.5000000 -0.8660254  0.0000000 )
                  ( -0.8660254 -0.5000000  0.0000000 )
                  (  0.0000000  0.0000000  1.0000000 )


     point group D_3d (-3m) 
     there are  6 classes
     the character table:

       E     2C3   3C2'  i     2S6   3s_d 
A_1g   1.00  1.00  1.00  1.00  1.00  1.00
A_2g   1.00  1.00 -1.00  1.00  1.00 -1.00
E_g    2.00 -1.00  0.00  2.00 -1.00  0.00
A_1u   1.00  1.00  1.00 -1.00 -1.00 -1.00
A_2u   1.00  1.00 -1.00 -1.00 -1.00  1.00
E_u    2.00 -1.00  0.00 -2.00  1.00  0.00

     the symmetry operations in each class and the name of the first element:

     E        1
          identity                                               
     2C3      3    4
          120 deg rotation - cryst. axis [0,0,1]                 
     3C2'     2    5    6
          180 deg rotation - cart. axis [1,0,0]                  
     i        7
          inversion                                              
     2S6      9   10
          inv. 120 deg rotation - cryst. axis [0,0,1]            
     3s_d     8   11   12
          inv. 180 deg rotation - cart. axis [1,0,0]             

   Cartesian axes

     site n.     atom                  positions (alat units)
         1        Co     tau(   1) = (   0.0000000   0.0000000   0.0000000  )
         2        O      tau(   2) = (  -0.0000000   0.5773503   0.3324100  )
         3        O      tau(   3) = (   0.5000000   0.2886751   3.0955679  )
         4        Na     tau(   4) = (   0.0000000   0.0000000   1.7139889  )

   Crystallographic axes

     site n.     atom                  positions (cryst. coord.)
         1        Co     tau(   1) = (  0.0000000  0.0000000  0.0000000  )
         2        O      tau(   2) = (  0.3333333  0.6666667  0.0969697  )
         3        O      tau(   3) = (  0.6666667  0.3333333  0.9030303  )
         4        Na     tau(   4) = (  0.0000000  0.0000000  0.5000000  )

     number of k points=    25  Marzari-Vanderbilt smearing, width (Ry)=  0.0200
                       cart. coord. in units 2pi/alat
        k(    1) = (   0.0000000   0.0000000   0.0000000), wk =   0.0052083
        k(    2) = (   0.0000000   0.0000000   0.0972391), wk =   0.0104167
        k(    3) = (   0.0000000   0.1443376   0.0000000), wk =   0.0312500
        k(    4) = (   0.0000000   0.1443376   0.0972391), wk =   0.0312500
        k(    5) = (   0.0000000   0.2886751   0.0000000), wk =   0.0312500
        k(    6) = (   0.0000000   0.2886751   0.0972391), wk =   0.0312500
        k(    7) = (   0.0000000   0.4330127   0.0000000), wk =   0.0312500
        k(    8) = (   0.0000000   0.4330127   0.0972391), wk =   0.0312500
        k(    9) = (   0.0000000  -0.5773503   0.0000000), wk =   0.0156250
        k(   10) = (   0.0000000  -0.5773503   0.0972391), wk =   0.0312500
        k(   11) = (   0.1250000   0.2165064   0.0000000), wk =   0.0312500
        k(   12) = (   0.1250000   0.2165064   0.0972391), wk =   0.0625000
        k(   13) = (   0.1250000   0.3608439   0.0000000), wk =   0.0625000
        k(   14) = (   0.1250000   0.3608439   0.0972391), wk =   0.0625000
        k(   15) = (   0.1250000   0.5051815   0.0000000), wk =   0.0625000
        k(   16) = (   0.1250000   0.5051815   0.0972391), wk =   0.0625000
        k(   17) = (   0.2500000   0.4330127   0.0000000), wk =   0.0312500
        k(   18) = (   0.2500000   0.4330127   0.0972391), wk =   0.0625000
        k(   19) = (   0.2500000   0.5773503   0.0000000), wk =   0.0312500
        k(   20) = (   0.2500000   0.5773503   0.0972391), wk =   0.0625000
        k(   21) = (   0.0000000   0.1443376  -0.0972391), wk =   0.0312500
        k(   22) = (   0.0000000   0.2886751  -0.0972391), wk =   0.0312500
        k(   23) = (   0.0000000   0.4330127  -0.0972391), wk =   0.0312500
        k(   24) = (  -0.1250000   0.3608439  -0.0972391), wk =   0.0625000
        k(   25) = (  -0.1250000   0.5051815  -0.0972391), wk =   0.0625000

                       cryst. coord.
        k(    1) = (   0.0000000   0.0000000   0.0000000), wk =   0.0052083
        k(    2) = (   0.0000000   0.0000000   0.3333333), wk =   0.0104167
        k(    3) = (   0.0000000   0.1250000   0.0000000), wk =   0.0312500
        k(    4) = (   0.0000000   0.1250000   0.3333333), wk =   0.0312500
        k(    5) = (   0.0000000   0.2500000   0.0000000), wk =   0.0312500
        k(    6) = (   0.0000000   0.2500000   0.3333333), wk =   0.0312500
        k(    7) = (   0.0000000   0.3750000   0.0000000), wk =   0.0312500
        k(    8) = (   0.0000000   0.3750000   0.3333333), wk =   0.0312500
        k(    9) = (   0.0000000  -0.5000000   0.0000000), wk =   0.0156250
        k(   10) = (   0.0000000  -0.5000000   0.3333333), wk =   0.0312500
        k(   11) = (   0.1250000   0.1250000   0.0000000), wk =   0.0312500
        k(   12) = (   0.1250000   0.1250000   0.3333333), wk =   0.0625000
        k(   13) = (   0.1250000   0.2500000   0.0000000), wk =   0.0625000
        k(   14) = (   0.1250000   0.2500000   0.3333333), wk =   0.0625000
        k(   15) = (   0.1250000   0.3750000   0.0000000), wk =   0.0625000
        k(   16) = (   0.1250000   0.3750000   0.3333333), wk =   0.0625000
        k(   17) = (   0.2500000   0.2500000   0.0000000), wk =   0.0312500
        k(   18) = (   0.2500000   0.2500000   0.3333333), wk =   0.0625000
        k(   19) = (   0.2500000   0.3750000   0.0000000), wk =   0.0312500
        k(   20) = (   0.2500000   0.3750000   0.3333333), wk =   0.0625000
        k(   21) = (   0.0000000   0.1250000  -0.3333333), wk =   0.0312500
        k(   22) = (   0.0000000   0.2500000  -0.3333333), wk =   0.0312500
        k(   23) = (   0.0000000   0.3750000  -0.3333333), wk =   0.0312500
        k(   24) = (  -0.1250000   0.3750000  -0.3333333), wk =   0.0625000
        k(   25) = (  -0.1250000   0.5000000  -0.3333333), wk =   0.0625000

     Dense  grid:    85601 G-vectors     FFT dimensions: (  40,  40, 135)

     Smooth grid:    30351 G-vectors     FFT dimensions: (  27,  27,  96)

     Dynamical RAM for                 wfc:       1.56 MB

     Dynamical RAM for     wfc (w. buffer):      79.57 MB

     Dynamical RAM for           str. fact:       3.92 MB

     Dynamical RAM for           local pot:       0.00 MB

     Dynamical RAM for          nlocal pot:       2.43 MB

     Dynamical RAM for                qrad:       5.27 MB

     Dynamical RAM for          rho,v,vnew:      17.72 MB

     Dynamical RAM for               rhoin:       5.91 MB

     Dynamical RAM for            rho*nmix:      41.80 MB

     Dynamical RAM for           G-vectors:       5.13 MB

     Dynamical RAM for          h,s,v(r/c):       0.13 MB

     Dynamical RAM for          <psi|beta>:       0.02 MB

     Dynamical RAM for                 psi:       3.12 MB

     Dynamical RAM for                hpsi:       3.12 MB

     Dynamical RAM for                spsi:       3.12 MB

     Dynamical RAM for      wfcinit/wfcrot:       3.14 MB

     Dynamical RAM for           addusdens:     246.87 MB

     Dynamical RAM for          addusforce:     249.49 MB

     Estimated static dynamical RAM per process >     135.06 MB

     Estimated max dynamical RAM per process >     426.35 MB

     Check: negative core charge=   -0.000006
     Generating pointlists ...
     new r_m :   0.2748 (alat units)  1.4998 (a.u.) for type    1
     new r_m :   0.2748 (alat units)  1.4998 (a.u.) for type    2
     new r_m :   0.4125 (alat units)  2.2512 (a.u.) for type    3

     Initial potential from superposition of free atoms

     starting charge      37.9934, renormalised to      38.0000
     Starting wfcs are   23 randomized atomic wfcs +    4 random wfcs
     Checking if some PAW data can be deallocated... 

     total cpu time spent up to now is        3.6 secs

     Self-consistent Calculation
[tb_dev] Currently allocated     6.54E-01 Mbytes, locked:    0 /   6
[tb_pin] Currently allocated     0.00E+00 Mbytes, locked:    0 /   0

     iteration #  1     ecut=    60.00 Ry     beta= 0.30
     Davidson diagonalization with overlap

---- Real-time Memory Report at c_bands before calling an iterative solver
           724 MiB given to the printing process from OS
             0 MiB allocation reported by mallinfo(arena+hblkhd)
        841443 MiB available memory on the node where the printing process lives
     GPU memory used/free/total (MiB): 1108 / 80042 / 81151
------------------
     ethr =  1.00E-02,  avg # of iterations =  9.8

     total cpu time spent up to now is        5.9 secs

     total energy              =    -568.95777249 Ry
     estimated scf accuracy    <       2.03314915 Ry

     total magnetization       =     4.24 Bohr mag/cell
     absolute magnetization    =     4.24 Bohr mag/cell
[tb_dev] Currently allocated     3.05E-05 Mbytes, locked:    0 /   2
[tb_pin] Currently allocated     0.00E+00 Mbytes, locked:    0 /   0

     iteration #  2     ecut=    60.00 Ry     beta= 0.30
     Davidson diagonalization with overlap

---- Real-time Memory Report at c_bands before calling an iterative solver
           767 MiB given to the printing process from OS
             0 MiB allocation reported by mallinfo(arena+hblkhd)
        841131 MiB available memory on the node where the printing process lives
     GPU memory used/free/total (MiB): 1128 / 80022 / 81151
------------------
     ethr =  5.35E-03,  avg # of iterations =  1.8

     total cpu time spent up to now is        7.0 secs

     total energy              =    -569.00049667 Ry
     estimated scf accuracy    <       1.08907925 Ry

     total magnetization       =     3.64 Bohr mag/cell
     absolute magnetization    =     3.65 Bohr mag/cell
[tb_dev] Currently allocated     3.05E-05 Mbytes, locked:    0 /   2
[tb_pin] Currently allocated     0.00E+00 Mbytes, locked:    0 /   0

     iteration #  3     ecut=    60.00 Ry     beta= 0.30
     Davidson diagonalization with overlap

---- Real-time Memory Report at c_bands before calling an iterative solver
           773 MiB given to the printing process from OS
             0 MiB allocation reported by mallinfo(arena+hblkhd)
        841065 MiB available memory on the node where the printing process lives
     GPU memory used/free/total (MiB): 1128 / 80022 / 81151
------------------
     ethr =  2.87E-03,  avg # of iterations =  1.9

     total cpu time spent up to now is        8.3 secs

     total energy              =    -569.06942024 Ry
     estimated scf accuracy    <       0.86241856 Ry

     total magnetization       =     1.97 Bohr mag/cell
     absolute magnetization    =     2.01 Bohr mag/cell
[tb_dev] Currently allocated     3.05E-05 Mbytes, locked:    0 /   2
[tb_pin] Currently allocated     0.00E+00 Mbytes, locked:    0 /   0

     iteration #  4     ecut=    60.00 Ry     beta= 0.30
     Davidson diagonalization with overlap

---- Real-time Memory Report at c_bands before calling an iterative solver
           776 MiB given to the printing process from OS
             0 MiB allocation reported by mallinfo(arena+hblkhd)
        841072 MiB available memory on the node where the printing process lives
     GPU memory used/free/total (MiB): 1128 / 80022 / 81151
------------------
     ethr =  2.27E-03,  avg # of iterations =  1.2

     total cpu time spent up to now is        9.4 secs

     total energy              =    -569.04689437 Ry
     estimated scf accuracy    <       0.72635254 Ry

     total magnetization       =     3.26 Bohr mag/cell
     absolute magnetization    =     3.27 Bohr mag/cell
[tb_dev] Currently allocated     3.05E-05 Mbytes, locked:    0 /   2
[tb_pin] Currently allocated     0.00E+00 Mbytes, locked:    0 /   0

     iteration #  5     ecut=    60.00 Ry     beta= 0.30
     Davidson diagonalization with overlap

---- Real-time Memory Report at c_bands before calling an iterative solver
           777 MiB given to the printing process from OS
             0 MiB allocation reported by mallinfo(arena+hblkhd)
        841121 MiB available memory on the node where the printing process lives
     GPU memory used/free/total (MiB): 1128 / 80022 / 81151
------------------
     ethr =  1.91E-03,  avg # of iterations =  1.6

     total cpu time spent up to now is       10.5 secs

     total energy              =    -569.15865793 Ry
     estimated scf accuracy    <       0.14645867 Ry

     total magnetization       =     0.72 Bohr mag/cell
     absolute magnetization    =     1.20 Bohr mag/cell
[tb_dev] Currently allocated     3.05E-05 Mbytes, locked:    0 /   2
[tb_pin] Currently allocated     0.00E+00 Mbytes, locked:    0 /   0

     iteration #  6     ecut=    60.00 Ry     beta= 0.30
     Davidson diagonalization with overlap

---- Real-time Memory Report at c_bands before calling an iterative solver
           779 MiB given to the printing process from OS
             0 MiB allocation reported by mallinfo(arena+hblkhd)
        841122 MiB available memory on the node where the printing process lives
     GPU memory used/free/total (MiB): 1128 / 80022 / 81151
------------------
     ethr =  3.85E-04,  avg # of iterations =  6.3

     total cpu time spent up to now is       12.2 secs

     total energy              =    -569.16384627 Ry
     estimated scf accuracy    <       0.06144661 Ry

     total magnetization       =     0.72 Bohr mag/cell
     absolute magnetization    =     0.88 Bohr mag/cell
[tb_dev] Currently allocated     3.05E-05 Mbytes, locked:    0 /   2
[tb_pin] Currently allocated     0.00E+00 Mbytes, locked:    0 /   0

     iteration #  7     ecut=    60.00 Ry     beta= 0.30
     Davidson diagonalization with overlap

---- Real-time Memory Report at c_bands before calling an iterative solver
           779 MiB given to the printing process from OS
             0 MiB allocation reported by mallinfo(arena+hblkhd)
        841136 MiB available memory on the node where the printing process lives
     GPU memory used/free/total (MiB): 1128 / 80022 / 81151
------------------
     ethr =  1.62E-04,  avg # of iterations =  4.0

     total cpu time spent up to now is       13.6 secs

     total energy              =    -569.16373352 Ry
     estimated scf accuracy    <       0.11276097 Ry

     total magnetization       =     0.87 Bohr mag/cell
     absolute magnetization    =     0.99 Bohr mag/cell
[tb_dev] Currently allocated     3.05E-05 Mbytes, locked:    0 /   2
[tb_pin] Currently allocated     0.00E+00 Mbytes, locked:    0 /   0

     iteration #  8     ecut=    60.00 Ry     beta= 0.30
     Davidson diagonalization with overlap

---- Real-time Memory Report at c_bands before calling an iterative solver
           783 MiB given to the printing process from OS
             0 MiB allocation reported by mallinfo(arena+hblkhd)
        841108 MiB available memory on the node where the printing process lives
     GPU memory used/free/total (MiB): 1128 / 80022 / 81151
------------------
     c_bands:  1 eigenvalues not converged
     ethr =  1.62E-04,  avg # of iterations =  1.9

     total cpu time spent up to now is       14.8 secs

     total energy              =    -569.17249323 Ry
     estimated scf accuracy    <       0.00929470 Ry

     total magnetization       =     0.79 Bohr mag/cell
     absolute magnetization    =     0.82 Bohr mag/cell
[tb_dev] Currently allocated     3.05E-05 Mbytes, locked:    0 /   2
[tb_pin] Currently allocated     0.00E+00 Mbytes, locked:    0 /   0

     iteration #  9     ecut=    60.00 Ry     beta= 0.30
     Davidson diagonalization with overlap

---- Real-time Memory Report at c_bands before calling an iterative solver
           785 MiB given to the printing process from OS
             0 MiB allocation reported by mallinfo(arena+hblkhd)
        841124 MiB available memory on the node where the printing process lives
     GPU memory used/free/total (MiB): 1128 / 80022 / 81151
------------------
     c_bands:  1 eigenvalues not converged
     ethr =  2.45E-05,  avg # of iterations =  7.9

     total cpu time spent up to now is       16.8 secs

     total energy              =    -569.17540609 Ry
     estimated scf accuracy    <       0.01624706 Ry

     total magnetization       =     0.81 Bohr mag/cell
     absolute magnetization    =     0.84 Bohr mag/cell
[tb_dev] Currently allocated     3.05E-05 Mbytes, locked:    0 /   2
[tb_pin] Currently allocated     0.00E+00 Mbytes, locked:    0 /   0

     iteration # 10     ecut=    60.00 Ry     beta= 0.30
     Davidson diagonalization with overlap

---- Real-time Memory Report at c_bands before calling an iterative solver
           788 MiB given to the printing process from OS
             0 MiB allocation reported by mallinfo(arena+hblkhd)
        841105 MiB available memory on the node where the printing process lives
     GPU memory used/free/total (MiB): 1128 / 80022 / 81151
------------------
     ethr =  2.45E-05,  avg # of iterations =  1.3

     total cpu time spent up to now is       17.9 secs

     total energy              =    -569.17640878 Ry
     estimated scf accuracy    <       0.00356615 Ry

     total magnetization       =     0.86 Bohr mag/cell
     absolute magnetization    =     0.89 Bohr mag/cell
[tb_dev] Currently allocated     3.05E-05 Mbytes, locked:    0 /   2
[tb_pin] Currently allocated     0.00E+00 Mbytes, locked:    0 /   0

     iteration # 11     ecut=    60.00 Ry     beta= 0.30
     Davidson diagonalization with overlap

---- Real-time Memory Report at c_bands before calling an iterative solver
           789 MiB given to the printing process from OS
             0 MiB allocation reported by mallinfo(arena+hblkhd)
        841109 MiB available memory on the node where the printing process lives
     GPU memory used/free/total (MiB): 1128 / 80022 / 81151
------------------
     ethr =  9.38E-06,  avg # of iterations =  1.6

     total cpu time spent up to now is       19.1 secs

     total energy              =    -569.17624706 Ry
     estimated scf accuracy    <       0.01033129 Ry

     total magnetization       =     0.91 Bohr mag/cell
     absolute magnetization    =     0.94 Bohr mag/cell
[tb_dev] Currently allocated     3.05E-05 Mbytes, locked:    0 /   2
[tb_pin] Currently allocated     0.00E+00 Mbytes, locked:    0 /   0

     iteration # 12     ecut=    60.00 Ry     beta= 0.30
     Davidson diagonalization with overlap

---- Real-time Memory Report at c_bands before calling an iterative solver
           789 MiB given to the printing process from OS
             0 MiB allocation reported by mallinfo(arena+hblkhd)
        841110 MiB available memory on the node where the printing process lives
     GPU memory used/free/total (MiB): 1128 / 80022 / 81151
------------------
     ethr =  9.38E-06,  avg # of iterations =  1.3

     total cpu time spent up to now is       20.2 secs

     total energy              =    -569.17654105 Ry
     estimated scf accuracy    <       0.00210534 Ry

     total magnetization       =     0.87 Bohr mag/cell
     absolute magnetization    =     0.92 Bohr mag/cell
[tb_dev] Currently allocated     3.05E-05 Mbytes, locked:    0 /   2
[tb_pin] Currently allocated     0.00E+00 Mbytes, locked:    0 /   0

     iteration # 13     ecut=    60.00 Ry     beta= 0.30
     Davidson diagonalization with overlap

---- Real-time Memory Report at c_bands before calling an iterative solver
           789 MiB given to the printing process from OS
             0 MiB allocation reported by mallinfo(arena+hblkhd)
        841142 MiB available memory on the node where the printing process lives
     GPU memory used/free/total (MiB): 1128 / 80022 / 81151
------------------
     ethr =  5.54E-06,  avg # of iterations =  1.4

     total cpu time spent up to now is       21.4 secs

     total energy              =    -569.17641916 Ry
     estimated scf accuracy    <       0.00297230 Ry

     total magnetization       =     0.87 Bohr mag/cell
     absolute magnetization    =     0.93 Bohr mag/cell
[tb_dev] Currently allocated     3.05E-05 Mbytes, locked:    0 /   2
[tb_pin] Currently allocated     0.00E+00 Mbytes, locked:    0 /   0

     iteration # 14     ecut=    60.00 Ry     beta= 0.30
     Davidson diagonalization with overlap

---- Real-time Memory Report at c_bands before calling an iterative solver
           789 MiB given to the printing process from OS
             0 MiB allocation reported by mallinfo(arena+hblkhd)
        841154 MiB available memory on the node where the printing process lives
     GPU memory used/free/total (MiB): 1128 / 80022 / 81151
------------------
     c_bands:  1 eigenvalues not converged
     ethr =  5.54E-06,  avg # of iterations =  2.2

     total cpu time spent up to now is       22.6 secs

     total energy              =    -569.17650023 Ry
     estimated scf accuracy    <       0.00083713 Ry

     total magnetization       =     0.82 Bohr mag/cell
     absolute magnetization    =     0.90 Bohr mag/cell
[tb_dev] Currently allocated     3.05E-05 Mbytes, locked:    0 /   2
[tb_pin] Currently allocated     0.00E+00 Mbytes, locked:    0 /   0

     iteration # 15     ecut=    60.00 Ry     beta= 0.30
     Davidson diagonalization with overlap

---- Real-time Memory Report at c_bands before calling an iterative solver
           789 MiB given to the printing process from OS
             0 MiB allocation reported by mallinfo(arena+hblkhd)
        841163 MiB available memory on the node where the printing process lives
     GPU memory used/free/total (MiB): 1128 / 80022 / 81151
------------------
     c_bands:  1 eigenvalues not converged
     ethr =  2.20E-06,  avg # of iterations =  2.8

     total cpu time spent up to now is       23.9 secs

     total energy              =    -569.17656731 Ry
     estimated scf accuracy    <       0.00028643 Ry

     total magnetization       =     0.82 Bohr mag/cell
     absolute magnetization    =     0.90 Bohr mag/cell
[tb_dev] Currently allocated     3.05E-05 Mbytes, locked:    0 /   2
[tb_pin] Currently allocated     0.00E+00 Mbytes, locked:    0 /   0

     iteration # 16     ecut=    60.00 Ry     beta= 0.30
     Davidson diagonalization with overlap

---- Real-time Memory Report at c_bands before calling an iterative solver
           790 MiB given to the printing process from OS
             0 MiB allocation reported by mallinfo(arena+hblkhd)
        841187 MiB available memory on the node where the printing process lives
     GPU memory used/free/total (MiB): 1128 / 80022 / 81151
------------------
     ethr =  7.54E-07,  avg # of iterations =  3.1

     total cpu time spent up to now is       25.2 secs

     total energy              =    -569.17658930 Ry
     estimated scf accuracy    <       0.00004604 Ry

     total magnetization       =     0.82 Bohr mag/cell
     absolute magnetization    =     0.90 Bohr mag/cell
[tb_dev] Currently allocated     3.05E-05 Mbytes, locked:    0 /   2
[tb_pin] Currently allocated     0.00E+00 Mbytes, locked:    0 /   0

     iteration # 17     ecut=    60.00 Ry     beta= 0.30
     Davidson diagonalization with overlap

---- Real-time Memory Report at c_bands before calling an iterative solver
           790 MiB given to the printing process from OS
             0 MiB allocation reported by mallinfo(arena+hblkhd)
        841185 MiB available memory on the node where the printing process lives
     GPU memory used/free/total (MiB): 1128 / 80022 / 81151
------------------
     ethr =  1.21E-07,  avg # of iterations =  6.5

     total cpu time spent up to now is       27.0 secs

     total energy              =    -569.17660812 Ry
     estimated scf accuracy    <       0.00001040 Ry

     total magnetization       =     0.81 Bohr mag/cell
     absolute magnetization    =     0.90 Bohr mag/cell
[tb_dev] Currently allocated     3.05E-05 Mbytes, locked:    0 /   2
[tb_pin] Currently allocated     0.00E+00 Mbytes, locked:    0 /   0

     iteration # 18     ecut=    60.00 Ry     beta= 0.30
     Davidson diagonalization with overlap

---- Real-time Memory Report at c_bands before calling an iterative solver
           790 MiB given to the printing process from OS
             0 MiB allocation reported by mallinfo(arena+hblkhd)
        841800 MiB available memory on the node where the printing process lives
     GPU memory used/free/total (MiB): 1128 / 80022 / 81151
------------------
     ethr =  2.74E-08,  avg # of iterations =  3.3

     total cpu time spent up to now is       28.4 secs

     total energy              =    -569.17661084 Ry
     estimated scf accuracy    <       0.00000515 Ry

     total magnetization       =     0.81 Bohr mag/cell
     absolute magnetization    =     0.91 Bohr mag/cell
[tb_dev] Currently allocated     3.05E-05 Mbytes, locked:    0 /   2
[tb_pin] Currently allocated     0.00E+00 Mbytes, locked:    0 /   0

     iteration # 19     ecut=    60.00 Ry     beta= 0.30
     Davidson diagonalization with overlap

---- Real-time Memory Report at c_bands before calling an iterative solver
           790 MiB given to the printing process from OS
             0 MiB allocation reported by mallinfo(arena+hblkhd)
        841516 MiB available memory on the node where the printing process lives
     GPU memory used/free/total (MiB): 1128 / 80022 / 81151
------------------
     ethr =  1.36E-08,  avg # of iterations =  3.1

     total cpu time spent up to now is       29.8 secs

     total energy              =    -569.17661291 Ry
     estimated scf accuracy    <       0.00000072 Ry

     total magnetization       =     0.81 Bohr mag/cell
     absolute magnetization    =     0.91 Bohr mag/cell
[tb_dev] Currently allocated     3.05E-05 Mbytes, locked:    0 /   2
[tb_pin] Currently allocated     0.00E+00 Mbytes, locked:    0 /   0

     iteration # 20     ecut=    60.00 Ry     beta= 0.30
     Davidson diagonalization with overlap

---- Real-time Memory Report at c_bands before calling an iterative solver
           790 MiB given to the printing process from OS
             0 MiB allocation reported by mallinfo(arena+hblkhd)
        841385 MiB available memory on the node where the printing process lives
     GPU memory used/free/total (MiB): 1128 / 80022 / 81151
------------------
     ethr =  1.90E-09,  avg # of iterations =  5.4

     total cpu time spent up to now is       31.4 secs

     total energy              =    -569.17661428 Ry
     estimated scf accuracy    <       0.00000025 Ry

     total magnetization       =     0.80 Bohr mag/cell
     absolute magnetization    =     0.91 Bohr mag/cell
[tb_dev] Currently allocated     3.05E-05 Mbytes, locked:    0 /   2
[tb_pin] Currently allocated     0.00E+00 Mbytes, locked:    0 /   0

     iteration # 21     ecut=    60.00 Ry     beta= 0.30
     Davidson diagonalization with overlap

---- Real-time Memory Report at c_bands before calling an iterative solver
           790 MiB given to the printing process from OS
             0 MiB allocation reported by mallinfo(arena+hblkhd)
        841190 MiB available memory on the node where the printing process lives
     GPU memory used/free/total (MiB): 1128 / 80022 / 81151
------------------
     ethr =  6.64E-10,  avg # of iterations =  3.5

     total cpu time spent up to now is       32.9 secs

     total energy              =    -569.17661556 Ry
     estimated scf accuracy    <       0.00000011 Ry

     total magnetization       =     0.80 Bohr mag/cell
     absolute magnetization    =     0.92 Bohr mag/cell
[tb_dev] Currently allocated     3.05E-05 Mbytes, locked:    0 /   2
[tb_pin] Currently allocated     0.00E+00 Mbytes, locked:    0 /   0

     iteration # 22     ecut=    60.00 Ry     beta= 0.30
     Davidson diagonalization with overlap

---- Real-time Memory Report at c_bands before calling an iterative solver
           790 MiB given to the printing process from OS
             0 MiB allocation reported by mallinfo(arena+hblkhd)
        841729 MiB available memory on the node where the printing process lives
     GPU memory used/free/total (MiB): 1128 / 80022 / 81151
------------------
     ethr =  2.94E-10,  avg # of iterations =  4.2
 
     Magnetic moment per site  (integrated on atomic sphere of radius R)
     atom   1 (R=0.275)  charge= 14.0880  magn=  0.6509
     atom   2 (R=0.275)  charge=  5.2126  magn=  0.0694
     atom   3 (R=0.275)  charge=  5.2126  magn=  0.0694
     atom   4 (R=0.413)  charge=  8.2579  magn= -0.0205

     total cpu time spent up to now is       34.3 secs

     End of self-consistent calculation

 ------ SPIN UP ------------


          k = 0.0000 0.0000 0.0000 (  3803 PWs)   bands (ev):

   -92.0889 -55.3011 -55.2919 -55.2919 -49.7678 -21.6546 -21.5644 -21.5644
   -15.4249 -13.5037  -1.6632  -1.2874  -1.2874   1.2336   1.8317   2.1444
     2.1444   2.4679   2.4679   3.4758   5.6481   6.1170   6.1170   9.2103
    12.8287  12.9140  15.8212

     occupation numbers 
     1.0000   1.0000   1.0000   1.0000   1.0000   1.0000   1.0000   1.0000
     1.0000   1.0000   1.0000   1.0000   1.0000   1.0000   1.0000   1.0000
     1.0000   1.0000   1.0000   1.0825   0.0000   0.0000   0.0000   0.0000
     0.0000   0.0000   0.0000

          k = 0.0000 0.0000 0.0972 (  3796 PWs)   bands (ev):

   -92.0889 -55.3010 -55.2919 -55.2919 -49.7677 -21.6544 -21.5644 -21.5644
   -15.4249 -13.5038  -1.6574  -1.2874  -1.2874   1.0922   2.0429   2.1444
     2.1444   2.4679   2.4679   3.4335   5.5232   6.1170   6.1170   9.6484
    11.5821  13.8628  15.9056

     occupation numbers 
     1.0000   1.0000   1.0000   1.0000   1.0000   1.0000   1.0000   1.0000
     1.0000   1.0000   1.0000   1.0000   1.0000   1.0000   1.0000   1.0000
     1.0000   1.0000   1.0000   1.0744   0.0000   0.0000   0.0000   0.0000
     0.0000   0.0000   0.0000

          k = 0.0000 0.1443 0.0000 (  3787 PWs)   bands (ev):

   -92.0882 -55.3000 -55.2997 -55.2938 -49.7625 -21.6472 -21.6089 -21.5740
   -15.2533 -13.5113  -1.4734  -1.4330  -1.1713   1.2097   1.5773   1.6324
     2.1531   2.6408   2.9249   3.5463   5.5720   6.0197   6.0585   9.6882
    13.2659  13.4340  16.3463

     occupation numbers 
     1.0000   1.0000   1.0000   1.0000   1.0000   1.0000   1.0000   1.0000
     1.0000   1.0000   1.0000   1.0000   1.0000   1.0000   1.0000   1.0000
     1.0000   1.0000   1.0001   1.0718   0.0000   0.0000   0.0000   0.0000
     0.0000   0.0000   0.0000

          k = 0.0000 0.1443 0.0972 (  3806 PWs)   bands (ev):

   -92.0882 -55.3001 -55.2998 -55.2938 -49.7625 -21.6474 -21.6091 -21.5740
   -15.2533 -13.5113  -1.4712  -1.4316  -1.1713   1.2145   1.5046   1.5772
     2.3180   2.6614   2.9249   3.4987   5.6669   5.8671   6.0196  10.0543
    12.1214  14.4526  16.2288

     occupation numbers 
     1.0000   1.0000   1.0000   1.0000   1.0000   1.0000   1.0000   1.0000
     1.0000   1.0000   1.0000   1.0000   1.0000   1.0000   1.0000   1.0000
     1.0000   1.0000   1.0001   1.0832   0.0000   0.0000   0.0000   0.0000
     0.0000   0.0000   0.0000

          k = 0.0000 0.2887 0.0000 (  3786 PWs)   bands (ev):

   -92.0864 -55.3194 -55.2985 -55.2970 -49.7499 -21.7152 -21.6300 -21.5970
   -14.8026 -13.5436  -1.6631  -1.0200  -0.8947  -0.0650   1.0414   2.3272
     2.7542   2.8130   3.0985   3.4224   5.0199   5.9045   6.9311  10.8495
    13.6032  14.1229  14.7423

     occupation numbers 
     1.0000   1.0000   1.0000   1.0000   1.0000   1.0000   1.0000   1.0000
     1.0000   1.0000   1.0000   1.0000   1.0000   1.0000   1.0000   1.0000
     1.0000   1.0000   1.0027   1.0713   0.0000   0.0000   0.0000   0.0000
     0.0000   0.0000   0.0000

          k = 0.0000 0.2887 0.0972 (  3778 PWs)   bands (ev):

   -92.0864 -55.3194 -55.2985 -55.2970 -49.7498 -21.7151 -21.6300 -21.5969
   -14.8026 -13.5436  -1.6640  -1.0182  -0.8947  -0.0632   1.0415   2.3007
     2.6581   2.9767   3.0986   3.3654   5.0838   5.9046   6.8334  11.0706
    13.3517  13.6365  15.6331

     occupation numbers 
     1.0000   1.0000   1.0000   1.0000   1.0000   1.0000   1.0000   1.0000
     1.0000   1.0000   1.0000   1.0000   1.0000   1.0000   1.0000   1.0000
     1.0000   1.0003   1.0027   1.0523   0.0000   0.0000   0.0000   0.0000
     0.0000   0.0000   0.0000

          k = 0.0000 0.4330 0.0000 (  3780 PWs)   bands (ev):

   -92.0847 -55.3388 -55.3032 -55.2942 -49.7372 -21.8194 -21.6198 -21.6127
   -14.2577 -13.6299  -2.1079  -1.0122  -0.6780  -0.0073   0.8987   1.8539
     2.6165   2.8068   3.1089   4.6088   5.2143   5.9449   8.4884  10.1403
    12.6158  13.7951  15.3830

     occupation numbers 
     1.0000   1.0000   1.0000   1.0000   1.0000   1.0000   1.0000   1.0000
     1.0000   1.0000   1.0000   1.0000   1.0000   1.0000   1.0000   1.0000
     1.0000   1.0000   1.0032   0.0000   0.0000   0.0000   0.0000   0.0000
     0.0000   0.0000   0.0000

          k = 0.0000 0.4330 0.0972 (  3794 PWs)   bands (ev):

   -92.0847 -55.3389 -55.3032 -55.2942 -49.7372 -21.8196 -21.6199 -21.6128
   -14.2577 -13.6299  -2.1080  -1.0125  -0.6780  -0.0064   0.8987   1.8548
     2.6161   2.8067   3.1103   4.5602   5.2754   5.9449   8.4562  10.1364
    12.7005  13.8677  14.8870

     occupation numbers 
     1.0000   1.0000   1.0000   1.0000   1.0000   1.0000   1.0000   1.0000
     1.0000   1.0000   1.0000   1.0000   1.0000   1.0000   1.0000   1.0000
     1.0000   1.0000   1.0032   0.0000   0.0000   0.0000   0.0000   0.0000
     0.0000   0.0000   0.0000

          k = 0.0000-0.5774 0.0000 (  3798 PWs)   bands (ev):

   -92.0840 -55.3470 -55.3051 -55.2930 -49.7320 -21.8623 -21.6294 -21.6055
   -13.8722 -13.8103  -2.4876  -0.7997  -0.6345   0.1313   0.9949   1.6362
     2.3319   2.5503   3.0221   5.3904   5.9937   6.4993   7.7915  10.4205
    11.2421  14.4466  14.6894

     occupation numbers 
     1.0000   1.0000   1.0000   1.0000   1.0000   1.0000   1.0000   1.0000
     1.0000   1.0000   1.0000   1.0000   1.0000   1.0000   1.0000   1.0000
     1.0000   1.0000   1.0008   0.0000   0.0000   0.0000   0.0000   0.0000
     0.0000   0.0000   0.0000

          k = 0.0000-0.5774 0.0972 (  3790 PWs)   bands (ev):

   -92.0839 -55.3470 -55.3051 -55.2931 -49.7319 -21.8622 -21.6293 -21.6056
   -13.8722 -13.8103  -2.4876  -0.7998  -0.6345   0.1314   0.9950   1.6370
     2.3318   2.5504   3.0219   5.3870   5.9937   6.5054   7.7810  10.4223
    11.3012  14.1126  14.8750

     occupation numbers 
     1.0000   1.0000   1.0000   1.0000   1.0000   1.0000   1.0000   1.0000
     1.0000   1.0000   1.0000   1.0000   1.0000   1.0000   1.0000   1.0000
     1.0000   1.0000   1.0008   0.0000   0.0000   0.0000   0.0000   0.0000
     0.0000   0.0000   0.0000

          k = 0.1250 0.2165 0.0000 (  3789 PWs)   bands (ev):

   -92.0869 -55.3128 -55.2984 -55.2975 -49.7536 -21.6794 -21.6350 -21.5953
   -14.9420 -13.5303  -1.5767  -1.1351  -1.0076   0.3964   0.8938   2.3932
     2.4696   2.6486   3.2233   3.4687   5.2184   5.7698   6.6343  10.5060
    13.9129  14.3243  14.8722

     occupation numbers 
     1.0000   1.0000   1.0000   1.0000   1.0000   1.0000   1.0000   1.0000
     1.0000   1.0000   1.0000   1.0000   1.0000   1.0000   1.0000   1.0000
     1.0000   1.0000   1.0143   1.0817   0.0000   0.0000   0.0000   0.0000
     0.0000   0.0000   0.0000

          k = 0.1250 0.2165 0.0972 (  3785 PWs)   bands (ev):

   -92.0869 -55.3128 -55.2984 -55.2975 -49.7536 -21.6792 -21.6351 -21.5952
   -14.9420 -13.5303  -1.5776  -1.1326  -1.0074   0.3984   0.8938   2.2185
     2.6451   2.6667   3.2468   3.4302   5.2657   5.7401   6.5669  10.7177
    13.0820  14.8643  15.3242

     occupation numbers 
     1.0000   1.0000   1.0000   1.0000   1.0000   1.0000   1.0000   1.0000
     1.0000   1.0000   1.0000   1.0000   1.0000   1.0000   1.0000   1.0000
     1.0000   1.0000   1.0186   1.0735   0.0000   0.0000   0.0000   0.0000
     0.0000   0.0000   0.0000

          k = 0.1250 0.3608 0.0000 (  3780 PWs)   bands (ev):

   -92.0852 -55.3302 -55.3047 -55.2950 -49.7409 -21.7732 -21.6292 -21.6178
   -14.4454 -13.5816  -1.6963  -1.1961  -0.6337  -0.1011   0.4967   2.1486
     2.6818   2.9855   3.3636   3.9198   5.1632   5.6596   7.8619  11.5774
    12.1212  14.7401  15.4687

     occupation numbers 
     1.0000   1.0000   1.0000   1.0000   1.0000   1.0000   1.0000   1.0000
     1.0000   1.0000   1.0000   1.0000   1.0000   1.0000   1.0000   1.0000
     1.0000   1.0004   1.0517   0.2991   0.0000   0.0000   0.0000   0.0000
     0.0000   0.0000   0.0000

          k = 0.1250 0.3608 0.0972 (  3782 PWs)   bands (ev):

   -92.0852 -55.3303 -55.3047 -55.2950 -49.7409 -21.7732 -21.6292 -21.6178
   -14.4454 -13.5816  -1.6966  -1.1962  -0.6334  -0.0998   0.4967   2.1474
     2.6815   2.9908   3.3529   3.9071   5.2121   5.6430   7.8317  11.6117
    12.1680  14.3687  15.8420

     occupation numbers 
     1.0000   1.0000   1.0000   1.0000   1.0000   1.0000   1.0000   1.0000
     1.0000   1.0000   1.0000   1.0000   1.0000   1.0000   1.0000   1.0000
     1.0000   1.0004   1.0480   0.3273   0.0000   0.0000   0.0000   0.0000
     0.0000   0.0000   0.0000

          k = 0.1250 0.5052 0.0000 (  3784 PWs)   bands (ev):

   -92.0839 -55.3425 -55.3095 -55.2930 -49.7319 -21.8381 -21.6538 -21.6055
   -13.9835 -13.6992  -2.1991  -1.1840  -0.3433   0.1466   0.4900   1.5678
     2.4272   2.7159   3.2440   5.3429   5.7202   5.9847   8.8853   9.7785
    12.5740  13.4823  15.2020

     occupation numbers 
     1.0000   1.0000   1.0000   1.0000   1.0000   1.0000   1.0000   1.0000
     1.0000   1.0000   1.0000   1.0000   1.0000   1.0000   1.0000   1.0000
     1.0000   1.0000   1.0181   0.0000   0.0000   0.0000   0.0000   0.0000
     0.0000   0.0000   0.0000

          k = 0.1250 0.5052 0.0972 (  3793 PWs)   bands (ev):

   -92.0840 -55.3426 -55.3095 -55.2931 -49.7320 -21.8381 -21.6539 -21.6056
   -13.9835 -13.6992  -2.1991  -1.1841  -0.3434   0.1468   0.4900   1.5683
     2.4271   2.7160   3.2435   5.3294   5.7377   5.9814   8.8799   9.7787
    12.6154  13.4728  15.2484

     occupation numbers 
     1.0000   1.0000   1.0000   1.0000   1.0000   1.0000   1.0000   1.0000
     1.0000   1.0000   1.0000   1.0000   1.0000   1.0000   1.0000   1.0000
     1.0000   1.0000   1.0180   0.0000   0.0000   0.0000   0.0000   0.0000
     0.0000   0.0000   0.0000

          k = 0.2500 0.4330 0.0000 (  3781 PWs)   bands (ev):

   -92.0839 -55.3364 -55.3155 -55.2931 -49.7319 -21.8046 -21.6876 -21.6057
   -14.0401 -13.6430  -1.6332  -1.5191  -0.5608   0.1572   0.2318   1.5664
     2.4794   2.8401   3.4456   5.3228   5.3992   5.7098   9.4737  10.1136
    12.4693  14.6061  14.8541

     occupation numbers 
     1.0000   1.0000   1.0000   1.0000   1.0000   1.0000   1.0000   1.0000
     1.0000   1.0000   1.0000   1.0000   1.0000   1.0000   1.0000   1.0000
     1.0000   1.0000   1.0774   0.0000   0.0000   0.0000   0.0000   0.0000
     0.0000   0.0000   0.0000

          k = 0.2500 0.4330 0.0972 (  3790 PWs)   bands (ev):

   -92.0840 -55.3364 -55.3155 -55.2931 -49.7320 -21.8046 -21.6878 -21.6057
   -14.0401 -13.6430  -1.6332  -1.5192  -0.5608   0.1570   0.2324   1.5663
     2.4795   2.8405   3.4439   5.3476   5.3894   5.6908   9.4941  10.1108
    12.4415  14.5629  14.9165

     occupation numbers 
     1.0000   1.0000   1.0000   1.0000   1.0000   1.0000   1.0000   1.0000
     1.0000   1.0000   1.0000   1.0000   1.0000   1.0000   1.0000   1.0000
     1.0000   1.0000   1.0770   0.0000   0.0000   0.0000   0.0000   0.0000
     0.0000   0.0000   0.0000

          k = 0.2500 0.5774 0.0000 (  3794 PWs)   bands (ev):

   -92.0834 -55.3370 -55.3221 -55.2922 -49.7283 -21.8060 -21.7237 -21.6005
   -13.7989 -13.7330  -1.7920  -1.4289  -0.7053   0.2923   0.4693   1.1273
     2.1925   3.0488   3.3248   5.3876   5.4212   7.3877   8.4068  11.5154
    12.0225  12.1762  14.6436

     occupation numbers 
     1.0000   1.0000   1.0000   1.0000   1.0000   1.0000   1.0000   1.0000
     1.0000   1.0000   1.0000   1.0000   1.0000   1.0000   1.0000   1.0000
     1.0000   1.0012   1.0388   0.0000   0.0000   0.0000   0.0000   0.0000
     0.0000   0.0000   0.0000

          k = 0.2500 0.5774 0.0972 (  3783 PWs)   bands (ev):

   -92.0834 -55.3369 -55.3221 -55.2922 -49.7282 -21.8058 -21.7236 -21.6005
   -13.7989 -13.7330  -1.7919  -1.4289  -0.7052   0.2922   0.4693   1.1273
     2.1924   3.0489   3.3245   5.3882   5.4235   7.3815   8.4017  11.5369
    12.0181  12.2033  14.6591

     occupation numbers 
     1.0000   1.0000   1.0000   1.0000   1.0000   1.0000   1.0000   1.0000
     1.0000   1.0000   1.0000   1.0000   1.0000   1.0000   1.0000   1.0000
     1.0000   1.0012   1.0387   0.0000   0.0000   0.0000   0.0000   0.0000
     0.0000   0.0000   0.0000

          k = 0.0000 0.1443-0.0972 (  3806 PWs)   bands (ev):

   -92.0882 -55.3001 -55.2998 -55.2938 -49.7625 -21.6474 -21.6091 -21.5740
   -15.2533 -13.5113  -1.4692  -1.4336  -1.1713   1.2058   1.5176   1.5772
     2.3132   2.6606   2.9249   3.5043   5.5745   5.9647   6.0197  10.0224
    12.1575  14.4468  16.2182

     occupation numbers 
     1.0000   1.0000   1.0000   1.0000   1.0000   1.0000   1.0000   1.0000
     1.0000   1.0000   1.0000   1.0000   1.0000   1.0000   1.0000   1.0000
     1.0000   1.0000   1.0001   1.0828   0.0000   0.0000   0.0000   0.0000
     0.0000   0.0000   0.0000

          k = 0.0000 0.2887-0.0972 (  3778 PWs)   bands (ev):

   -92.0864 -55.3194 -55.2985 -55.2970 -49.7498 -21.7151 -21.6300 -21.5969
   -14.8026 -13.5436  -1.6637  -1.0188  -0.8947  -0.0628   1.0415   2.2884
     2.6797   2.9443   3.0985   3.4142   5.0154   5.9046   6.9060  10.9475
    13.4938  13.6890  15.6116

     occupation numbers 
     1.0000   1.0000   1.0000   1.0000   1.0000   1.0000   1.0000   1.0000
     1.0000   1.0000   1.0000   1.0000   1.0000   1.0000   1.0000   1.0000
     1.0000   1.0002   1.0027   1.0688   0.0000   0.0000   0.0000   0.0000
     0.0000   0.0000   0.0000

          k = 0.0000 0.4330-0.0972 (  3794 PWs)   bands (ev):

   -92.0847 -55.3389 -55.3032 -55.2942 -49.7372 -21.8196 -21.6199 -21.6128
   -14.2577 -13.6299  -2.1080  -1.0125  -0.6781  -0.0061   0.8987   1.8534
     2.6172   2.8067   3.1058   4.6171   5.2022   5.9449   8.5168  10.1311
    12.5065  13.9032  15.1258

     occupation numbers 
     1.0000   1.0000   1.0000   1.0000   1.0000   1.0000   1.0000   1.0000
     1.0000   1.0000   1.0000   1.0000   1.0000   1.0000   1.0000   1.0000
     1.0000   1.0000   1.0030   0.0000   0.0000   0.0000   0.0000   0.0000
     0.0000   0.0000   0.0000

          k =-0.1250 0.3608-0.0972 (  3782 PWs)   bands (ev):

   -92.0852 -55.3303 -55.3047 -55.2950 -49.7409 -21.7732 -21.6292 -21.6178
   -14.4454 -13.5816  -1.6966  -1.1963  -0.6336  -0.0993   0.4966   2.1456
     2.6825   2.9922   3.3386   3.9425   5.1637   5.6556   7.8655  11.5601
    12.1343  14.5592  15.8945

     occupation numbers 
     1.0000   1.0000   1.0000   1.0000   1.0000   1.0000   1.0000   1.0000
     1.0000   1.0000   1.0000   1.0000   1.0000   1.0000   1.0000   1.0000
     1.0000   1.0005   1.0432   0.2519   0.0000   0.0000   0.0000   0.0000
     0.0000   0.0000   0.0000

          k =-0.1250 0.5052-0.0972 (  3793 PWs)   bands (ev):

   -92.0840 -55.3426 -55.3095 -55.2931 -49.7320 -21.8381 -21.6539 -21.6056
   -13.9835 -13.6992  -2.1991  -1.1840  -0.3434   0.1469   0.4901   1.5680
     2.4272   2.7160   3.2431   5.3497   5.7249   5.9671   8.8807   9.8131
    12.6029  13.3403  15.3072

     occupation numbers 
     1.0000   1.0000   1.0000   1.0000   1.0000   1.0000   1.0000   1.0000
     1.0000   1.0000   1.0000   1.0000   1.0000   1.0000   1.0000   1.0000
     1.0000   1.0000   1.0179   0.0000   0.0000   0.0000   0.0000   0.0000
     0.0000   0.0000   0.0000

 ------ SPIN DOWN ----------


          k = 0.0000 0.0000 0.0000 (  3803 PWs)   bands (ev):

   -91.2904 -54.5703 -54.5703 -54.4088 -49.7762 -21.6614 -21.5740 -21.5740
   -15.3117 -13.3812  -1.3117  -1.0312  -1.0312   1.1423   2.0059   2.5528
     2.5528   2.8196   2.8196   4.3780   5.5923   6.4594   6.4594   9.2277
    12.9142  13.0001  15.8801

     occupation numbers 
     1.0000   1.0000   1.0000   1.0000   1.0000   1.0000   1.0000   1.0000
     1.0000   1.0000   1.0000   1.0000   1.0000   1.0000   1.0000   1.0000
     1.0000   1.0000   1.0000   0.0008   0.0000   0.0000   0.0000   0.0000
     0.0000   0.0000   0.0000

          k = 0.0000 0.0000 0.0972 (  3796 PWs)   bands (ev):

   -91.2904 -54.5703 -54.5703 -54.4087 -49.7762 -21.6612 -21.5740 -21.5740
   -15.3117 -13.3812  -1.3029  -1.0312  -1.0312   1.0220   2.1942   2.5527
     2.5527   2.8196   2.8196   4.3171   5.4847   6.4594   6.4594   9.6592
    11.6665  13.9500  15.9905

     occupation numbers 
     1.0000   1.0000   1.0000   1.0000   1.0000   1.0000   1.0000   1.0000
     1.0000   1.0000   1.0000   1.0000   1.0000   1.0000   1.0000   1.0000
     1.0000   1.0000   1.0000   0.0023   0.0000   0.0000   0.0000   0.0000
     0.0000   0.0000   0.0000

          k = 0.0000 0.1443 0.0000 (  3787 PWs)   bands (ev):

   -91.2896 -54.5786 -54.5723 -54.4074 -49.7709 -21.6539 -21.6188 -21.5837
   -15.1394 -13.3880  -1.2011  -1.1126  -0.9228   1.4290   1.5803   1.9096
     2.3325   3.1944   3.3750   4.4002   5.7418   6.1827   6.3529   9.6991
    13.3439  13.5245  16.4147

     occupation numbers 
     1.0000   1.0000   1.0000   1.0000   1.0000   1.0000   1.0000   1.0000
     1.0000   1.0000   1.0000   1.0000   1.0000   1.0000   1.0000   1.0000
     1.0000   1.0102   1.0556   0.0005   0.0000   0.0000   0.0000   0.0000
     0.0000   0.0000   0.0000

          k = 0.0000 0.1443 0.0972 (  3806 PWs)   bands (ev):

   -91.2896 -54.5787 -54.5723 -54.4075 -49.7710 -21.6542 -21.6190 -21.5837
   -15.1394 -13.3880  -1.2027  -1.1055  -0.9229   1.4332   1.4724   1.9096
     2.4851   3.2026   3.3750   4.3448   5.8131   6.0243   6.3528  10.0626
    12.2028  14.5407  16.3198

     occupation numbers 
     1.0000   1.0000   1.0000   1.0000   1.0000   1.0000   1.0000   1.0000
     1.0000   1.0000   1.0000   1.0000   1.0000   1.0000   1.0000   1.0000
     1.0000   1.0112   1.0556   0.0014   0.0000   0.0000   0.0000   0.0000
     0.0000   0.0000   0.0000

          k = 0.0000 0.2887 0.0000 (  3786 PWs)   bands (ev):

   -91.2878 -54.5989 -54.5772 -54.4045 -49.7582 -21.7258 -21.6366 -21.6068
   -14.6866 -13.4187  -1.4387  -0.7335  -0.6645   0.1862   1.3145   2.5695
     2.6936   3.3736   3.6594   4.2359   5.3893   6.2178   6.8908  10.8488
    13.4975  14.1785  14.8380

     occupation numbers 
     1.0000   1.0000   1.0000   1.0000   1.0000   1.0000   1.0000   1.0000
     1.0000   1.0000   1.0000   1.0000   1.0000   1.0000   1.0000   1.0000
     1.0000   1.0552   0.9470   0.0086   0.0000   0.0000   0.0000   0.0000
     0.0000   0.0000   0.0000

          k = 0.0000 0.2887 0.0972 (  3778 PWs)   bands (ev):

   -91.2878 -54.5989 -54.5771 -54.4044 -49.7582 -21.7257 -21.6366 -21.6067
   -14.6866 -13.4187  -1.4397  -0.7314  -0.6645   0.1897   1.3145   2.4537
     2.7957   3.3994   3.6594   4.2066   5.4731   6.2178   6.7693  11.0708
    13.4140  13.5323  15.7239

     occupation numbers 
     1.0000   1.0000   1.0000   1.0000   1.0000   1.0000   1.0000   1.0000
     1.0000   1.0000   1.0000   1.0000   1.0000   1.0000   1.0000   1.0000
     1.0000   1.0640   0.9470   0.0133   0.0000   0.0000   0.0000   0.0000
     0.0000   0.0000   0.0000

          k = 0.0000 0.4330 0.0000 (  3780 PWs)   bands (ev):

   -91.2860 -54.6191 -54.5820 -54.4014 -49.7455 -21.8306 -21.6297 -21.6192
   -14.1384 -13.5042  -1.9175  -0.8709  -0.4530   0.3521   1.0711   2.0694
     3.3594   3.4913   3.8695   4.5157   5.6168   6.2545   8.4220  10.0356
    12.6088  13.7400  15.4305

     occupation numbers 
     1.0000   1.0000   1.0000   1.0000   1.0000   1.0000   1.0000   1.0000
     1.0000   1.0000   1.0000   1.0000   1.0000   1.0000   1.0000   1.0000
     1.0503   1.0833   0.4187   0.0000   0.0000   0.0000   0.0000   0.0000
     0.0000   0.0000   0.0000

          k = 0.0000 0.4330 0.0972 (  3794 PWs)   bands (ev):

   -91.2860 -54.6192 -54.5821 -54.4015 -49.7455 -21.8308 -21.6298 -21.6193
   -14.1384 -13.5042  -1.9176  -0.8712  -0.4530   0.3533   1.0710   2.0706
     3.3572   3.4913   3.8741   4.4821   5.6659   6.2545   8.3835  10.0319
    12.6909  13.8143  14.9397

     occupation numbers 
     1.0000   1.0000   1.0000   1.0000   1.0000   1.0000   1.0000   1.0000
     1.0000   1.0000   1.0000   1.0000   1.0000   1.0000   1.0000   1.0000
     1.0495   1.0833   0.4070   0.0001   0.0000   0.0000   0.0000   0.0000
     0.0000   0.0000   0.0000

          k = 0.0000-0.5774 0.0000 (  3798 PWs)   bands (ev):

   -91.2852 -54.6276 -54.5841 -54.4002 -49.7403 -21.8738 -21.6394 -21.6119
   -13.7515 -13.6842  -2.3154  -0.6978  -0.4029   0.4967   1.0777   1.8116
     3.2356   3.3203   3.7194   5.8119   6.3068   6.3768   7.7022  10.3306
    11.1933  14.4212  14.7140

     occupation numbers 
     1.0000   1.0000   1.0000   1.0000   1.0000   1.0000   1.0000   1.0000
     1.0000   1.0000   1.0000   1.0000   1.0000   1.0000   1.0000   1.0000
     1.0165   1.0374   0.8199   0.0000   0.0000   0.0000   0.0000   0.0000
     0.0000   0.0000   0.0000

          k = 0.0000-0.5774 0.0972 (  3790 PWs)   bands (ev):

   -91.2852 -54.6276 -54.5840 -54.4002 -49.7402 -21.8737 -21.6392 -21.6120
   -13.7515 -13.6842  -2.3154  -0.6979  -0.4029   0.4968   1.0778   1.8125
     3.2353   3.3203   3.7191   5.8010   6.3068   6.3919   7.6905  10.3311
    11.2519  14.1042  14.8998

     occupation numbers 
     1.0000   1.0000   1.0000   1.0000   1.0000   1.0000   1.0000   1.0000
     1.0000   1.0000   1.0000   1.0000   1.0000   1.0000   1.0000   1.0000
     1.0164   1.0374   0.8205   0.0000   0.0000   0.0000   0.0000   0.0000
     0.0000   0.0000   0.0000

          k = 0.1250 0.2165 0.0000 (  3789 PWs)   bands (ev):

   -91.2883 -54.5921 -54.5767 -54.4053 -49.7620 -21.6898 -21.6417 -21.6051
   -14.8267 -13.4058  -1.3495  -0.8276  -0.7502   0.6175   1.1747   2.3153
     2.6449   3.3163   3.7197   4.3079   5.5380   6.0980   6.6092  10.5093
    13.9756  14.4214  14.7488

     occupation numbers 
     1.0000   1.0000   1.0000   1.0000   1.0000   1.0000   1.0000   1.0000
     1.0000   1.0000   1.0000   1.0000   1.0000   1.0000   1.0000   1.0000
     1.0000   1.0362   0.8192   0.0027   0.0000   0.0000   0.0000   0.0000
     0.0000   0.0000   0.0000

          k = 0.1250 0.2165 0.0972 (  3785 PWs)   bands (ev):

   -91.2883 -54.5920 -54.5767 -54.4054 -49.7620 -21.6896 -21.6418 -21.6050
   -14.8267 -13.4059  -1.3506  -0.8258  -0.7484   0.6214   1.1746   2.1945
     2.7795   3.3163   3.7364   4.2772   5.6082   6.0422   6.5441  10.7208
    13.1589  14.7410  15.4050

     occupation numbers 
     1.0000   1.0000   1.0000   1.0000   1.0000   1.0000   1.0000   1.0000
     1.0000   1.0000   1.0000   1.0000   1.0000   1.0000   1.0000   1.0000
     1.0000   1.0362   0.7776   0.0045   0.0000   0.0000   0.0000   0.0000
     0.0000   0.0000   0.0000

          k = 0.1250 0.3608 0.0000 (  3780 PWs)   bands (ev):

   -91.2865 -54.6102 -54.5836 -54.4023 -49.7492 -21.7841 -21.6392 -21.6243
   -14.3273 -13.4559  -1.4864  -1.0203  -0.4097   0.2253   0.7159   2.3574
     3.3849   3.7468   3.8368   4.0246   5.5339   5.9801   7.8025  11.5063
    12.0678  14.7675  15.5363

     occupation numbers 
     1.0000   1.0000   1.0000   1.0000   1.0000   1.0000   1.0000   1.0000
     1.0000   1.0000   1.0000   1.0000   1.0000   1.0000   1.0000   1.0000
     1.0591   0.7511   0.5053   0.1219   0.0000   0.0000   0.0000   0.0000
     0.0000   0.0000   0.0000

          k = 0.1250 0.3608 0.0972 (  3782 PWs)   bands (ev):

   -91.2865 -54.6102 -54.5835 -54.4023 -49.7492 -21.7841 -21.6392 -21.6243
   -14.3273 -13.4559  -1.4869  -1.0204  -0.4095   0.2275   0.7160   2.3549
     3.3832   3.7098   3.8816   4.0057   5.5859   5.9606   7.7656  11.5334
    12.1216  14.4220  15.8314

     occupation numbers 
     1.0000   1.0000   1.0000   1.0000   1.0000   1.0000   1.0000   1.0000
     1.0000   1.0000   1.0000   1.0000   1.0000   1.0000   1.0000   1.0000
     1.0585   0.8426   0.3882   0.1462   0.0000   0.0000   0.0000   0.0000
     0.0000   0.0000   0.0000

          k = 0.1250 0.5052 0.0000 (  3784 PWs)   bands (ev):

   -91.2852 -54.6230 -54.5886 -54.4002 -49.7402 -21.8494 -21.6639 -21.6120
   -13.8622 -13.5737  -2.0256  -1.0260  -0.1485   0.4242   0.6947   1.7737
     3.3821   3.4381   3.8652   5.6962   5.8746   6.0858   8.7807   9.7034
    12.5102  13.4524  15.1974

     occupation numbers 
     1.0000   1.0000   1.0000   1.0000   1.0000   1.0000   1.0000   1.0000
     1.0000   1.0000   1.0000   1.0000   1.0000   1.0000   1.0000   1.0000
     1.0581   1.0756   0.4299   0.0000   0.0000   0.0000   0.0000   0.0000
     0.0000   0.0000   0.0000

          k = 0.1250 0.5052 0.0972 (  3793 PWs)   bands (ev):

   -91.2852 -54.6230 -54.5886 -54.4002 -49.7403 -21.8494 -21.6639 -21.6121
   -13.8622 -13.5738  -2.0256  -1.0261  -0.1486   0.4244   0.6948   1.7743
     3.3818   3.4383   3.8645   5.6520   5.9451   6.0613   8.7752   9.7029
    12.5500  13.4407  15.2572

     occupation numbers 
     1.0000   1.0000   1.0000   1.0000   1.0000   1.0000   1.0000   1.0000
     1.0000   1.0000   1.0000   1.0000   1.0000   1.0000   1.0000   1.0000
     1.0580   1.0757   0.4317   0.0000   0.0000   0.0000   0.0000   0.0000
     0.0000   0.0000   0.0000

          k = 0.2500 0.4330 0.0000 (  3781 PWs)   bands (ev):

   -91.2852 -54.6166 -54.5948 -54.4002 -49.7402 -21.8157 -21.6979 -21.6121
   -13.9192 -13.5170  -1.4777  -1.3183  -0.4207   0.3629   0.5726   1.7724
     3.4529   3.5537   4.0384   5.4550   5.7574   5.8137   9.4006   9.9893
    12.4298  14.5794  14.8027

     occupation numbers 
     1.0000   1.0000   1.0000   1.0000   1.0000   1.0000   1.0000   1.0000
     1.0000   1.0000   1.0000   1.0000   1.0000   1.0000   1.0000   1.0000
     1.0790   1.0682   0.1061   0.0000   0.0000   0.0000   0.0000   0.0000
     0.0000   0.0000   0.0000

          k = 0.2500 0.4330 0.0972 (  3790 PWs)   bands (ev):

   -91.2852 -54.6166 -54.5949 -54.4002 -49.7403 -21.8157 -21.6981 -21.6121
   -13.9192 -13.5170  -1.4777  -1.3184  -0.4208   0.3627   0.5734   1.7723
     3.4528   3.5543   4.0353   5.4781   5.7348   5.8104   9.4209   9.9864
    12.4021  14.5305  14.8620

     occupation numbers 
     1.0000   1.0000   1.0000   1.0000   1.0000   1.0000   1.0000   1.0000
     1.0000   1.0000   1.0000   1.0000   1.0000   1.0000   1.0000   1.0000
     1.0790   1.0679   0.1096   0.0000   0.0000   0.0000   0.0000   0.0000
     0.0000   0.0000   0.0000

          k = 0.2500 0.5774 0.0000 (  3794 PWs)   bands (ev):

   -91.2847 -54.6172 -54.6018 -54.3993 -49.7365 -21.8171 -21.7342 -21.6069
   -13.6759 -13.6077  -1.6258  -1.2608  -0.5765   0.5127   0.7828   1.2996
     3.2493   3.7265   3.9581   5.7514   5.7615   7.2665   8.2952  11.4242
    11.9749  12.1177  14.5851

     occupation numbers 
     1.0000   1.0000   1.0000   1.0000   1.0000   1.0000   1.0000   1.0000
     1.0000   1.0000   1.0000   1.0000   1.0000   1.0000   1.0000   1.0000
     1.0191   0.8026   0.2223   0.0000   0.0000   0.0000   0.0000   0.0000
     0.0000   0.0000   0.0000

          k = 0.2500 0.5774 0.0972 (  3783 PWs)   bands (ev):

   -91.2847 -54.6171 -54.6017 -54.3993 -49.7365 -21.8169 -21.7341 -21.6069
   -13.6759 -13.6077  -1.6257  -1.2608  -0.5764   0.5126   0.7828   1.2997
     3.2493   3.7266   3.9577   5.7522   5.7650   7.2591   8.2895  11.4459
    11.9694  12.1457  14.6027

     occupation numbers 
     1.0000   1.0000   1.0000   1.0000   1.0000   1.0000   1.0000   1.0000
     1.0000   1.0000   1.0000   1.0000   1.0000   1.0000   1.0000   1.0000
     1.0191   0.8024   0.2230   0.0000   0.0000   0.0000   0.0000   0.0000
     0.0000   0.0000   0.0000

          k = 0.0000 0.1443-0.0972 (  3806 PWs)   bands (ev):

   -91.2896 -54.5787 -54.5723 -54.4075 -49.7710 -21.6542 -21.6190 -21.5837
   -15.1394 -13.3880  -1.2018  -1.1063  -0.9229   1.3841   1.5282   1.9096
     2.4747   3.2073   3.3750   4.3495   5.7169   6.1246   6.3529  10.0299
    12.2405  14.5323  16.3099

     occupation numbers 
     1.0000   1.0000   1.0000   1.0000   1.0000   1.0000   1.0000   1.0000
     1.0000   1.0000   1.0000   1.0000   1.0000   1.0000   1.0000   1.0000
     1.0000   1.0119   1.0556   0.0013   0.0000   0.0000   0.0000   0.0000
     0.0000   0.0000   0.0000

          k = 0.0000 0.2887-0.0972 (  3778 PWs)   bands (ev):

   -91.2878 -54.5989 -54.5771 -54.4044 -49.7582 -21.7257 -21.6366 -21.6067
   -14.6866 -13.4187  -1.4394  -0.7321  -0.6645   0.1902   1.3146   2.4371
     2.8150   3.4030   3.6594   4.2278   5.3836   6.2178   6.8627  10.9468
    13.4782  13.6707  15.6819

     occupation numbers 
     1.0000   1.0000   1.0000   1.0000   1.0000   1.0000   1.0000   1.0000
     1.0000   1.0000   1.0000   1.0000   1.0000   1.0000   1.0000   1.0000
     1.0000   1.0652   0.9470   0.0097   0.0000   0.0000   0.0000   0.0000
     0.0000   0.0000   0.0000

          k = 0.0000 0.4330-0.0972 (  3794 PWs)   bands (ev):

   -91.2860 -54.6192 -54.5820 -54.4015 -49.7455 -21.8308 -21.6298 -21.6193
   -14.1384 -13.5042  -1.9176  -0.8712  -0.4530   0.3539   1.0710   2.0682
     3.3580   3.4913   3.8642   4.5242   5.6092   6.2545   8.4488  10.0268
    12.4995  13.8414  15.2154

     occupation numbers 
     1.0000   1.0000   1.0000   1.0000   1.0000   1.0000   1.0000   1.0000
     1.0000   1.0000   1.0000   1.0000   1.0000   1.0000   1.0000   1.0000
     1.0498   1.0833   0.4323   0.0000   0.0000   0.0000   0.0000   0.0000
     0.0000   0.0000   0.0000

          k =-0.1250 0.3608-0.0972 (  3782 PWs)   bands (ev):

   -91.2865 -54.6102 -54.5836 -54.4023 -49.7492 -21.7841 -21.6392 -21.6243
   -14.3273 -13.4559  -1.4868  -1.0204  -0.4097   0.2281   0.7159   2.3519
     3.3857   3.7240   3.8261   4.0650   5.5356   5.9754   7.8034  11.4911
    12.0788  14.6225  15.8837

     occupation numbers 
     1.0000   1.0000   1.0000   1.0000   1.0000   1.0000   1.0000   1.0000
     1.0000   1.0000   1.0000   1.0000   1.0000   1.0000   1.0000   1.0000
     1.0593   0.8086   0.5343   0.0802   0.0000   0.0000   0.0000   0.0000
     0.0000   0.0000   0.0000

          k =-0.1250 0.5052-0.0972 (  3793 PWs)   bands (ev):

   -91.2852 -54.6230 -54.5886 -54.4002 -49.7403 -21.8494 -21.6639 -21.6121
   -13.8622 -13.5738  -2.0257  -1.0261  -0.1486   0.4244   0.6949   1.7738
     3.3820   3.4383   3.8638   5.7246   5.8493   6.0774   8.7757   9.7370
    12.5396  13.3146  15.2931

     occupation numbers 
     1.0000   1.0000   1.0000   1.0000   1.0000   1.0000   1.0000   1.0000
     1.0000   1.0000   1.0000   1.0000   1.0000   1.0000   1.0000   1.0000
     1.0581   1.0757   0.4336   0.0000   0.0000   0.0000   0.0000   0.0000
     0.0000   0.0000   0.0000

     the Fermi energy is     3.8766 ev

!    total energy              =    -569.17661635 Ry
     total all-electron energy =     -3412.667172 Ry
     estimated scf accuracy    <       0.00000004 Ry
     smearing contrib. (-TS)   =       0.00224229 Ry
     internal energy E=F+TS    =    -569.17885863 Ry

     The total energy is F=E-TS. E is the sum of the following terms:
     one-electron contribution =    -676.28743139 Ry
     hartree contribution      =     350.59938932 Ry
     xc contribution           =     -59.96161147 Ry
     ewald contribution        =     -61.57027707 Ry
     one-center paw contrib.   =    -121.95892802 Ry
      -> PAW hartree energy AE =     342.17479124 Ry
      -> PAW hartree energy PS =    -342.18102574 Ry
      -> PAW xc energy AE      =    -178.87894409 Ry
      -> PAW xc energy PS      =      56.92625057 Ry
      -> total E_H with PAW    =     350.59315483 Ry
      -> total E_XC with PAW   =    -181.91430500 Ry

     total magnetization       =     0.80 Bohr mag/cell
     absolute magnetization    =     0.92 Bohr mag/cell

     convergence has been achieved in  22 iterations

     Forces acting on atoms (cartesian axes, Ry/au):

     atom    1 type  1   force =    -0.00000000   -0.00000000    0.00000000
     atom    2 type  2   force =     0.00000000    0.00000000   -0.02172652
     atom    3 type  2   force =     0.00000000    0.00000000    0.02172652
     atom    4 type  3   force =     0.00000000    0.00000000    0.00000000
     The non-local contrib.  to forces
     atom    1 type  1   force =    -0.00000000   -0.00000000    0.00000000
     atom    2 type  2   force =     0.00000000    0.00000000   -1.16234775
     atom    3 type  2   force =     0.00000000    0.00000000    1.16234775
     atom    4 type  3   force =     0.00000000    0.00000000    0.00000000
     The ionic contribution  to forces
     atom    1 type  1   force =    -0.00000000   -0.00000000    0.00000000
     atom    2 type  2   force =     0.00000000   -0.00000000   35.02000483
     atom    3 type  2   force =    -0.00000000    0.00000000  -35.02000483
     atom    4 type  3   force =    -0.00000000   -0.00000000    0.00000000
     The local contribution  to forces
     atom    1 type  1   force =    -0.00000000   -0.00000000    0.00000000
     atom    2 type  2   force =     0.00000001   -0.00000001  -33.88955122
     atom    3 type  2   force =    -0.00000001    0.00000001   33.88955122
     atom    4 type  3   force =    -0.00000000   -0.00000000    0.00000000
     The core correction contribution to forces
     atom    1 type  1   force =    -0.00000000   -0.00000000    0.00000000
     atom    2 type  2   force =    -0.00000000    0.00000000    0.01022531
     atom    3 type  2   force =     0.00000000   -0.00000000   -0.01022531
     atom    4 type  3   force =    -0.00000000   -0.00000000    0.00000000
     The Hubbard contrib.    to forces
     atom    1 type  1   force =     0.00000000    0.00000000    0.00000000
     atom    2 type  2   force =     0.00000000    0.00000000    0.00000000
     atom    3 type  2   force =     0.00000000    0.00000000    0.00000000
     atom    4 type  3   force =     0.00000000    0.00000000    0.00000000
     The SCF correction term to forces
     atom    1 type  1   force =     0.00000000   -0.00000000   -0.00000000
     atom    2 type  2   force =     0.00000000   -0.00000000   -0.00005770
     atom    3 type  2   force =    -0.00000000    0.00000000    0.00005770
     atom    4 type  3   force =    -0.00000000    0.00000000    0.00000000

     Total force =     0.030726     Total SCF correction =     0.000082

     Writing all to output data dir ./out/pw.save/ :
     XML data file, charge density, pseudopotentials, collected wavefunctions
 
     init_run     :     12.97s CPU      3.17s WALL (       1 calls)
     electrons    :    116.61s CPU     30.71s WALL (       1 calls)
     forces       :      0.79s CPU      0.58s WALL (       1 calls)

     Called by init_run:
     wfcinit      :      0.29s CPU      0.34s WALL (       1 calls)
     wfcinit:atom :      0.04s CPU      0.04s WALL (      50 calls)
     wfcinit:wfcr :      0.17s CPU      0.20s WALL (      50 calls)
     potinit      :     12.10s CPU      2.09s WALL (       1 calls)
     hinit0       :      0.48s CPU      0.60s WALL (       1 calls)

     Called by electrons:
     c_bands      :     14.52s CPU     14.63s WALL (      22 calls)
     sum_band     :      2.59s CPU      2.57s WALL (      22 calls)
     v_of_rho     :      0.40s CPU      0.23s WALL (      23 calls)
     v_h          :      0.27s CPU      0.05s WALL (      23 calls)
     v_xc         :      0.14s CPU      0.18s WALL (      24 calls)
     newd         :      0.54s CPU      0.42s WALL (      23 calls)
                                        0.42s GPU  (      23 calls)
     PAW_pot      :    101.26s CPU     12.58s WALL (      23 calls)
     mix_rho      :      0.79s CPU      0.75s WALL (      22 calls)

     Called by c_bands:
     init_us_2    :      0.96s CPU      0.93s WALL (    2300 calls)
     cegterg      :     12.50s CPU     12.65s WALL (    1100 calls)

     Called by sum_band:
     sum_band:wei :      0.03s CPU      0.03s WALL (      22 calls)
                                        0.03s GPU  (      22 calls)
     sum_band:loo :      1.63s CPU      1.60s WALL (      22 calls)
                                        1.60s GPU  (      22 calls)
     sum_band:buf :      0.23s CPU      0.26s WALL (    1100 calls)
                                        0.25s GPU  (    1100 calls)
     sum_band:ini :      0.45s CPU      0.45s WALL (    1100 calls)
                                        0.44s GPU  (    1100 calls)
     sum_band:cal :      0.04s CPU      0.07s WALL (    1100 calls)
                                        0.06s GPU  (    1100 calls)
     sum_band:bec :      0.24s CPU      0.26s WALL (    1100 calls)
                                        0.24s GPU  (    1100 calls)
     addusdens    :      0.76s CPU      0.77s WALL (      22 calls)
                                        0.76s GPU  (      22 calls)
     addusd:skk   :      0.00s CPU      0.00s WALL (      66 calls)
                                        0.00s GPU  (      66 calls)

     Called by *egterg:
     cdiaghg      :      4.16s CPU      4.31s WALL (    4903 calls)
                                        4.25s GPU  (    4903 calls)
     cegterg:over :      1.12s CPU      1.17s WALL (    3803 calls)
     cegterg:upda :      0.71s CPU      0.72s WALL (    3803 calls)
     cegterg:last :      0.14s CPU      0.14s WALL (    2052 calls)
     h_psi        :      4.60s CPU      4.70s WALL (    4953 calls)
                                        4.64s GPU  (    4953 calls)
     s_psi        :      0.77s CPU      0.81s WALL (    4953 calls)
     g_psi        :      0.02s CPU      0.10s WALL (    3803 calls)
                                        0.05s GPU  (    3803 calls)

     Called by h_psi:
     h_psi:calbec :      0.16s CPU      0.29s WALL (    4953 calls)
                                        0.23s GPU  (    4953 calls)
     vloc_psi     :      3.21s CPU      3.23s WALL (    4953 calls)
                                        3.16s GPU  (    4953 calls)
     add_vuspsi   :      0.69s CPU      0.83s WALL (    4953 calls)
                                        0.77s GPU  (    4953 calls)

     General routines
     calbec       :      0.18s CPU      0.20s WALL (    6253 calls)
     fft          :      3.75s CPU      0.70s WALL (     588 calls)
                                        0.06s GPU  (     542 calls)
     ffts         :      4.58s CPU      0.86s WALL (     897 calls)
                                        0.02s GPU  (     851 calls)
     fftw         :      0.31s CPU      1.15s WALL (   16630 calls)
                                        0.96s GPU  (   16630 calls)
     interpolate  :      8.46s CPU      1.49s WALL (      46 calls)
 
     Parallel routines

     PAW routines
     PAW_pot      :    101.26s CPU     12.58s WALL (      23 calls)
     PAW_symme    :      0.03s CPU      0.01s WALL (      45 calls)
 
     PWSCF        :   2m11.23s CPU     34.98s WALL

 
   This run was terminated on:   3:52:13  12Jul2026            

=------------------------------------------------------------------------------=
   JOB DONE.
=------------------------------------------------------------------------------=
Warning: ieee_divide_by_zero is signaling
Warning: ieee_inexact is signaling
FORTRAN STOP
