
     Program PWSCF v.7.3.1 starts on 12Jul2026 at  5:35:48 

     This program is part of the open-source Quantum ESPRESSO suite
     for quantum simulation of materials; please cite
         "P. Giannozzi et al., J. Phys.:Condens. Matter 21 395502 (2009);
         "P. Giannozzi et al., J. Phys.:Condens. Matter 29 465901 (2017);
         "P. Giannozzi et al., J. Chem. Phys. 152 154105 (2020);
          URL http://www.quantum-espresso.org", 
     in publications or presentations arising from this work. More details at
     http://www.quantum-espresso.org/quote

     Parallel version (MPI & OpenMP), running on      14 processor cores
     Number of MPI processes:                 1
     Threads/MPI process:                    14

     MPI processes distributed on     1 nodes
     1358691 MiB available memory on the printing compute node when the environment starts
 
     Reading input from pw.in

     Current dimensions of program PWSCF are:
     Max number of different atomic species (ntypx) = 10
     Max number of k-points (npk) =  40000
     Max angular momentum in pseudopotentials (lmaxx) =  4
     file Co.pbe-spn-kjpaw_psl.0.3.1.UPF: wavefunction(s)  3P 3D renormalized
     file O.pbe-n-kjpaw_psl.1.0.0.UPF: wavefunction(s)  2S 2P renormalized
     file K.pbe-spn-kjpaw_psl.1.0.0.UPF: wavefunction(s)  3S renormalized
 
     Subspace diagonalization in iterative solution of the eigenvalue problem:
     a serial algorithm will be used

 
     G-vector sticks info
     --------------------
     sticks:   dense  smooth     PW     G-vecs:    dense   smooth      PW
     Sum        1003     499    151                47935    16953    2771
 
     Using Slab Decomposition
 


     bravais-lattice index     =            4
     lattice parameter (alat)  =       5.4802  a.u.
     unit-cell volume          =     270.3248 (a.u.)^3
     number of atoms/cell      =            4
     number of atomic types    =            3
     number of electrons       =        38.00
     number of Kohn-Sham states=           27
     kinetic-energy cutoff     =      60.0000  Ry
     charge density cutoff     =     480.0000  Ry
     scf convergence threshold =      1.0E-07
     mixing beta               =       0.3000
     number of iterations used =            8  local-TF  mixing
     Exchange-correlation= SLA  PW   PBX  PBC
                           (   1   4   3   4   0   0   0)

     GPU acceleration is ACTIVE.  1 visible GPUs per MPI rank
     GPU-aware MPI enabled


     GPU used by master process:

        Device Number: 0
        Device name: NVIDIA A100-SXM4-80GB
        Compute capability : 80
        Ratio of single to double precision performance  : 2
        Memory Clock Rate (KHz): 1593000
        Memory Bus Width (bits): 5120
        Peak Memory Bandwidth (GB/s): ******

     celldm(1)=   5.480206  celldm(2)=   0.000000  celldm(3)=   1.896552
     celldm(4)=   0.000000  celldm(5)=   0.000000  celldm(6)=   0.000000

     crystal axes: (cart. coord. in units of alat)
               a(1) = (   1.000000   0.000000   0.000000 )  
               a(2) = (  -0.500000   0.866025   0.000000 )  
               a(3) = (   0.000000   0.000000   1.896552 )  

     reciprocal axes: (cart. coord. in units 2 pi/alat)
               b(1) = (  1.000000  0.577350 -0.000000 )  
               b(2) = (  0.000000  1.154701  0.000000 )  
               b(3) = (  0.000000 -0.000000  0.527273 )  


     PseudoPot. # 1 for Co read from file:
     ../../pseudo/Co.pbe-spn-kjpaw_psl.0.3.1.UPF
     MD5 check sum: 3c0a43779828c046024e4f3be63f8e67
     Pseudo is Projector augmented-wave + core cor, Zval = 17.0
     Generated using &quot;atomic&quot; code by A. Dal Corso  v.6.2.2
     Shape of augmentation charge: PSQ
     Using radial grid of 1193 points,  6 beta functions with: 
                l(1) =   0
                l(2) =   0
                l(3) =   1
                l(4) =   1
                l(5) =   2
                l(6) =   2
     Q(r) pseudized with 0 coefficients 


     PseudoPot. # 2 for O  read from file:
     ../../pseudo/O.pbe-n-kjpaw_psl.1.0.0.UPF
     MD5 check sum: e99d9cef9b487d1ca56f5b95ecd0fd7a
     Pseudo is Projector augmented-wave + core cor, Zval =  6.0
     Generated using &quot;atomic&quot; code by A. Dal Corso  v.6.3
     Shape of augmentation charge: PSQ
     Using radial grid of 1095 points,  4 beta functions with: 
                l(1) =   0
                l(2) =   0
                l(3) =   1
                l(4) =   1
     Q(r) pseudized with 0 coefficients 


     PseudoPot. # 3 for K  read from file:
     ../../pseudo/K.pbe-spn-kjpaw_psl.1.0.0.UPF
     MD5 check sum: 34cc42130a09071ebe376fd42eb21491
     Pseudo is Projector augmented-wave + core cor, Zval =  9.0
     Generated using &quot;atomic&quot; code by A. Dal Corso  v.6.2.2
     Shape of augmentation charge: PSQ
     Using radial grid of 1165 points,  6 beta functions with: 
                l(1) =   0
                l(2) =   0
                l(3) =   1
                l(4) =   1
                l(5) =   2
                l(6) =   2
     Q(r) pseudized with 0 coefficients 


     atomic species   valence    mass     pseudopotential
     Co               17.00    58.93300     Co( 1.00)
     O                 6.00    15.99900     O ( 1.00)
     K                 9.00    39.09830     K ( 1.00)

     Starting magnetic structure 
     atomic species   magnetization
     Co              0.300
     O               0.000
     K               0.000

     12 Sym. Ops., with inversion, found


                                    s                        frac. trans.

      isym =  1     identity                                     

 cryst.   s( 1) = (     1          0          0      )
                  (     0          1          0      )
                  (     0          0          1      )

 cart.    s( 1) = (  1.0000000  0.0000000  0.0000000 )
                  (  0.0000000  1.0000000  0.0000000 )
                  (  0.0000000  0.0000000  1.0000000 )


      isym =  2     180 deg rotation - cart. axis [1,0,0]        

 cryst.   s( 2) = (     1          0          0      )
                  (    -1         -1          0      )
                  (     0          0         -1      )

 cart.    s( 2) = (  1.0000000  0.0000000  0.0000000 )
                  (  0.0000000 -1.0000000  0.0000000 )
                  (  0.0000000  0.0000000 -1.0000000 )


      isym =  3     120 deg rotation - cryst. axis [0,0,1]       

 cryst.   s( 3) = (     0          1          0      )
                  (    -1         -1          0      )
                  (     0          0          1      )

 cart.    s( 3) = ( -0.5000000 -0.8660254  0.0000000 )
                  (  0.8660254 -0.5000000  0.0000000 )
                  (  0.0000000  0.0000000  1.0000000 )


      isym =  4     120 deg rotation - cryst. axis [0,0,-1]      

 cryst.   s( 4) = (    -1         -1          0      )
                  (     1          0          0      )
                  (     0          0          1      )

 cart.    s( 4) = ( -0.5000000  0.8660254  0.0000000 )
                  ( -0.8660254 -0.5000000  0.0000000 )
                  (  0.0000000  0.0000000  1.0000000 )


      isym =  5     180 deg rotation - cryst. axis [0,1,0]       

 cryst.   s( 5) = (    -1         -1          0      )
                  (     0          1          0      )
                  (     0          0         -1      )

 cart.    s( 5) = ( -0.5000000 -0.8660254  0.0000000 )
                  ( -0.8660254  0.5000000  0.0000000 )
                  (  0.0000000  0.0000000 -1.0000000 )


      isym =  6     180 deg rotation - cryst. axis [1,1,0]       

 cryst.   s( 6) = (     0          1          0      )
                  (     1          0          0      )
                  (     0          0         -1      )

 cart.    s( 6) = ( -0.5000000  0.8660254  0.0000000 )
                  (  0.8660254  0.5000000  0.0000000 )
                  (  0.0000000  0.0000000 -1.0000000 )


      isym =  7     inversion                                    

 cryst.   s( 7) = (    -1          0          0      )
                  (     0         -1          0      )
                  (     0          0         -1      )

 cart.    s( 7) = ( -1.0000000  0.0000000  0.0000000 )
                  (  0.0000000 -1.0000000  0.0000000 )
                  (  0.0000000  0.0000000 -1.0000000 )


      isym =  8     inv. 180 deg rotation - cart. axis [1,0,0]   

 cryst.   s( 8) = (    -1          0          0      )
                  (     1          1          0      )
                  (     0          0          1      )

 cart.    s( 8) = ( -1.0000000  0.0000000  0.0000000 )
                  (  0.0000000  1.0000000  0.0000000 )
                  (  0.0000000  0.0000000  1.0000000 )


      isym =  9     inv. 120 deg rotation - cryst. axis [0,0,1]  

 cryst.   s( 9) = (     0         -1          0      )
                  (     1          1          0      )
                  (     0          0         -1      )

 cart.    s( 9) = (  0.5000000  0.8660254  0.0000000 )
                  ( -0.8660254  0.5000000  0.0000000 )
                  (  0.0000000  0.0000000 -1.0000000 )


      isym = 10     inv. 120 deg rotation - cryst. axis [0,0,-1] 

 cryst.   s(10) = (     1          1          0      )
                  (    -1          0          0      )
                  (     0          0         -1      )

 cart.    s(10) = (  0.5000000 -0.8660254  0.0000000 )
                  (  0.8660254  0.5000000  0.0000000 )
                  (  0.0000000  0.0000000 -1.0000000 )


      isym = 11     inv. 180 deg rotation - cryst. axis [0,1,0]  

 cryst.   s(11) = (     1          1          0      )
                  (     0         -1          0      )
                  (     0          0          1      )

 cart.    s(11) = (  0.5000000  0.8660254  0.0000000 )
                  (  0.8660254 -0.5000000  0.0000000 )
                  (  0.0000000  0.0000000  1.0000000 )


      isym = 12     inv. 180 deg rotation - cryst. axis [1,1,0]  

 cryst.   s(12) = (     0         -1          0      )
                  (    -1          0          0      )
                  (     0          0          1      )

 cart.    s(12) = (  0.5000000 -0.8660254  0.0000000 )
                  ( -0.8660254 -0.5000000  0.0000000 )
                  (  0.0000000  0.0000000  1.0000000 )


     point group D_3d (-3m) 
     there are  6 classes
     the character table:

       E     2C3   3C2'  i     2S6   3s_d 
A_1g   1.00  1.00  1.00  1.00  1.00  1.00
A_2g   1.00  1.00 -1.00  1.00  1.00 -1.00
E_g    2.00 -1.00  0.00  2.00 -1.00  0.00
A_1u   1.00  1.00  1.00 -1.00 -1.00 -1.00
A_2u   1.00  1.00 -1.00 -1.00 -1.00  1.00
E_u    2.00 -1.00  0.00 -2.00  1.00  0.00

     the symmetry operations in each class and the name of the first element:

     E        1
          identity                                               
     2C3      3    4
          120 deg rotation - cryst. axis [0,0,1]                 
     3C2'     2    5    6
          180 deg rotation - cart. axis [1,0,0]                  
     i        7
          inversion                                              
     2S6      9   10
          inv. 120 deg rotation - cryst. axis [0,0,1]            
     3s_d     8   11   12
          inv. 180 deg rotation - cart. axis [1,0,0]             

   Cartesian axes

     site n.     atom                  positions (alat units)
         1        Co     tau(   1) = (   0.0000000   0.0000000   0.0000000  )
         2        O      tau(   2) = (  -0.0000000   0.5773503   0.3310345  )
         3        O      tau(   3) = (   0.5000000   0.2886751   1.5655172  )
         4        K      tau(   4) = (   0.0000000   0.0000000   0.9482759  )

   Crystallographic axes

     site n.     atom                  positions (cryst. coord.)
         1        Co     tau(   1) = (  0.0000000  0.0000000  0.0000000  )
         2        O      tau(   2) = (  0.3333333  0.6666667  0.1745455  )
         3        O      tau(   3) = (  0.6666667  0.3333333  0.8254545  )
         4        K      tau(   4) = (  0.0000000  0.0000000  0.5000000  )

     number of k points=    25  Marzari-Vanderbilt smearing, width (Ry)=  0.0200
                       cart. coord. in units 2pi/alat
        k(    1) = (   0.0000000   0.0000000   0.0000000), wk =   0.0052083
        k(    2) = (   0.0000000   0.0000000   0.1757576), wk =   0.0104167
        k(    3) = (   0.0000000   0.1443376   0.0000000), wk =   0.0312500
        k(    4) = (   0.0000000   0.1443376   0.1757576), wk =   0.0312500
        k(    5) = (   0.0000000   0.2886751   0.0000000), wk =   0.0312500
        k(    6) = (   0.0000000   0.2886751   0.1757576), wk =   0.0312500
        k(    7) = (   0.0000000   0.4330127   0.0000000), wk =   0.0312500
        k(    8) = (   0.0000000   0.4330127   0.1757576), wk =   0.0312500
        k(    9) = (   0.0000000  -0.5773503   0.0000000), wk =   0.0156250
        k(   10) = (   0.0000000  -0.5773503   0.1757576), wk =   0.0312500
        k(   11) = (   0.1250000   0.2165064   0.0000000), wk =   0.0312500
        k(   12) = (   0.1250000   0.2165064   0.1757576), wk =   0.0625000
        k(   13) = (   0.1250000   0.3608439   0.0000000), wk =   0.0625000
        k(   14) = (   0.1250000   0.3608439   0.1757576), wk =   0.0625000
        k(   15) = (   0.1250000   0.5051815   0.0000000), wk =   0.0625000
        k(   16) = (   0.1250000   0.5051815   0.1757576), wk =   0.0625000
        k(   17) = (   0.2500000   0.4330127   0.0000000), wk =   0.0312500
        k(   18) = (   0.2500000   0.4330127   0.1757576), wk =   0.0625000
        k(   19) = (   0.2500000   0.5773503   0.0000000), wk =   0.0312500
        k(   20) = (   0.2500000   0.5773503   0.1757576), wk =   0.0625000
        k(   21) = (   0.0000000   0.1443376  -0.1757576), wk =   0.0312500
        k(   22) = (   0.0000000   0.2886751  -0.1757576), wk =   0.0312500
        k(   23) = (   0.0000000   0.4330127  -0.1757576), wk =   0.0312500
        k(   24) = (  -0.1250000   0.3608439  -0.1757576), wk =   0.0625000
        k(   25) = (  -0.1250000   0.5051815  -0.1757576), wk =   0.0625000

                       cryst. coord.
        k(    1) = (   0.0000000   0.0000000   0.0000000), wk =   0.0052083
        k(    2) = (   0.0000000   0.0000000   0.3333333), wk =   0.0104167
        k(    3) = (   0.0000000   0.1250000   0.0000000), wk =   0.0312500
        k(    4) = (   0.0000000   0.1250000   0.3333333), wk =   0.0312500
        k(    5) = (   0.0000000   0.2500000   0.0000000), wk =   0.0312500
        k(    6) = (   0.0000000   0.2500000   0.3333333), wk =   0.0312500
        k(    7) = (   0.0000000   0.3750000   0.0000000), wk =   0.0312500
        k(    8) = (   0.0000000   0.3750000   0.3333333), wk =   0.0312500
        k(    9) = (   0.0000000  -0.5000000   0.0000000), wk =   0.0156250
        k(   10) = (   0.0000000  -0.5000000   0.3333333), wk =   0.0312500
        k(   11) = (   0.1250000   0.1250000   0.0000000), wk =   0.0312500
        k(   12) = (   0.1250000   0.1250000   0.3333333), wk =   0.0625000
        k(   13) = (   0.1250000   0.2500000   0.0000000), wk =   0.0625000
        k(   14) = (   0.1250000   0.2500000   0.3333333), wk =   0.0625000
        k(   15) = (   0.1250000   0.3750000   0.0000000), wk =   0.0625000
        k(   16) = (   0.1250000   0.3750000   0.3333333), wk =   0.0625000
        k(   17) = (   0.2500000   0.2500000   0.0000000), wk =   0.0312500
        k(   18) = (   0.2500000   0.2500000   0.3333333), wk =   0.0625000
        k(   19) = (   0.2500000   0.3750000   0.0000000), wk =   0.0312500
        k(   20) = (   0.2500000   0.3750000   0.3333333), wk =   0.0625000
        k(   21) = (   0.0000000   0.1250000  -0.3333333), wk =   0.0312500
        k(   22) = (   0.0000000   0.2500000  -0.3333333), wk =   0.0312500
        k(   23) = (   0.0000000   0.3750000  -0.3333333), wk =   0.0312500
        k(   24) = (  -0.1250000   0.3750000  -0.3333333), wk =   0.0625000
        k(   25) = (  -0.1250000   0.5000000  -0.3333333), wk =   0.0625000

     Dense  grid:    47935 G-vectors     FFT dimensions: (  40,  40,  75)

     Smooth grid:    16953 G-vectors     FFT dimensions: (  27,  27,  54)

     Dynamical RAM for                 wfc:       0.87 MB

     Dynamical RAM for     wfc (w. buffer):      44.59 MB

     Dynamical RAM for           str. fact:       2.19 MB

     Dynamical RAM for           local pot:       0.00 MB

     Dynamical RAM for          nlocal pot:       1.68 MB

     Dynamical RAM for                qrad:       5.27 MB

     Dynamical RAM for          rho,v,vnew:       9.88 MB

     Dynamical RAM for               rhoin:       3.29 MB

     Dynamical RAM for            rho*nmix:      23.41 MB

     Dynamical RAM for           G-vectors:       2.87 MB

     Dynamical RAM for          h,s,v(r/c):       0.13 MB

     Dynamical RAM for          <psi|beta>:       0.02 MB

     Dynamical RAM for                 psi:       1.75 MB

     Dynamical RAM for                hpsi:       1.75 MB

     Dynamical RAM for                spsi:       1.75 MB

     Dynamical RAM for      wfcinit/wfcrot:       1.77 MB

     Dynamical RAM for           addusdens:     138.24 MB

     Dynamical RAM for          addusforce:     139.72 MB

     Estimated static dynamical RAM per process >      78.20 MB

     Estimated max dynamical RAM per process >     241.33 MB

     Check: negative core charge=   -0.000009
     Generating pointlists ...
     new r_m :   0.2745 (alat units)  1.5045 (a.u.) for type    1
     new r_m :   0.2745 (alat units)  1.5045 (a.u.) for type    2
     new r_m :   0.3486 (alat units)  1.9106 (a.u.) for type    3

     Initial potential from superposition of free atoms

     starting charge      37.9809, renormalised to      38.0000
     Starting wfcs are   26 randomized atomic wfcs +    1 random wfcs
     Checking if some PAW data can be deallocated... 

     total cpu time spent up to now is        3.4 secs

     Self-consistent Calculation
[tb_dev] Currently allocated     6.58E-01 Mbytes, locked:    0 /   6
[tb_pin] Currently allocated     0.00E+00 Mbytes, locked:    0 /   0

     iteration #  1     ecut=    60.00 Ry     beta= 0.30
     Davidson diagonalization with overlap

---- Real-time Memory Report at c_bands before calling an iterative solver
           664 MiB given to the printing process from OS
             0 MiB allocation reported by mallinfo(arena+hblkhd)
       1354166 MiB available memory on the node where the printing process lives
     GPU memory used/free/total (MiB): 926 / 80224 / 81151
------------------
     ethr =  1.00E-02,  avg # of iterations =  9.3

     total cpu time spent up to now is        5.6 secs

     total energy              =    -572.85242424 Ry
     estimated scf accuracy    <       1.52783689 Ry

     total magnetization       =     4.00 Bohr mag/cell
     absolute magnetization    =     4.00 Bohr mag/cell
[tb_dev] Currently allocated     3.05E-05 Mbytes, locked:    0 /   2
[tb_pin] Currently allocated     0.00E+00 Mbytes, locked:    0 /   0

     iteration #  2     ecut=    60.00 Ry     beta= 0.30
     Davidson diagonalization with overlap

---- Real-time Memory Report at c_bands before calling an iterative solver
           707 MiB given to the printing process from OS
             0 MiB allocation reported by mallinfo(arena+hblkhd)
       1351017 MiB available memory on the node where the printing process lives
     GPU memory used/free/total (MiB): 938 / 80212 / 81151
------------------
     ethr =  4.02E-03,  avg # of iterations =  1.9

     total cpu time spent up to now is        6.9 secs

     total energy              =    -572.77856536 Ry
     estimated scf accuracy    <       0.50480618 Ry

     total magnetization       =     4.03 Bohr mag/cell
     absolute magnetization    =     4.03 Bohr mag/cell
[tb_dev] Currently allocated     3.05E-05 Mbytes, locked:    0 /   2
[tb_pin] Currently allocated     0.00E+00 Mbytes, locked:    0 /   0

     iteration #  3     ecut=    60.00 Ry     beta= 0.30
     Davidson diagonalization with overlap

---- Real-time Memory Report at c_bands before calling an iterative solver
           709 MiB given to the printing process from OS
             0 MiB allocation reported by mallinfo(arena+hblkhd)
       1349067 MiB available memory on the node where the printing process lives
     GPU memory used/free/total (MiB): 938 / 80212 / 81151
------------------
     ethr =  1.33E-03,  avg # of iterations =  3.3

     total cpu time spent up to now is        8.5 secs

     total energy              =    -572.99584233 Ry
     estimated scf accuracy    <       0.98973798 Ry

     total magnetization       =     1.47 Bohr mag/cell
     absolute magnetization    =     1.56 Bohr mag/cell
[tb_dev] Currently allocated     3.05E-05 Mbytes, locked:    0 /   2
[tb_pin] Currently allocated     0.00E+00 Mbytes, locked:    0 /   0

     iteration #  4     ecut=    60.00 Ry     beta= 0.30
     Davidson diagonalization with overlap

---- Real-time Memory Report at c_bands before calling an iterative solver
           712 MiB given to the printing process from OS
             0 MiB allocation reported by mallinfo(arena+hblkhd)
       1346374 MiB available memory on the node where the printing process lives
     GPU memory used/free/total (MiB): 938 / 80212 / 81151
------------------
     ethr =  1.33E-03,  avg # of iterations =  1.4

     total cpu time spent up to now is        9.8 secs

     total energy              =    -573.17868968 Ry
     estimated scf accuracy    <       1.16807259 Ry

     total magnetization       =     1.37 Bohr mag/cell
     absolute magnetization    =     1.48 Bohr mag/cell
[tb_dev] Currently allocated     3.05E-05 Mbytes, locked:    0 /   2
[tb_pin] Currently allocated     0.00E+00 Mbytes, locked:    0 /   0

     iteration #  5     ecut=    60.00 Ry     beta= 0.30
     Davidson diagonalization with overlap

---- Real-time Memory Report at c_bands before calling an iterative solver
           713 MiB given to the printing process from OS
             0 MiB allocation reported by mallinfo(arena+hblkhd)
       1344401 MiB available memory on the node where the printing process lives
     GPU memory used/free/total (MiB): 938 / 80212 / 81151
------------------
     ethr =  1.33E-03,  avg # of iterations =  2.1

     total cpu time spent up to now is       11.1 secs

     total energy              =    -573.22564734 Ry
     estimated scf accuracy    <       2.92095483 Ry

     total magnetization       =     0.35 Bohr mag/cell
     absolute magnetization    =     0.96 Bohr mag/cell
[tb_dev] Currently allocated     3.05E-05 Mbytes, locked:    0 /   2
[tb_pin] Currently allocated     0.00E+00 Mbytes, locked:    0 /   0

     iteration #  6     ecut=    60.00 Ry     beta= 0.30
     Davidson diagonalization with overlap

---- Real-time Memory Report at c_bands before calling an iterative solver
           715 MiB given to the printing process from OS
             0 MiB allocation reported by mallinfo(arena+hblkhd)
       1341759 MiB available memory on the node where the printing process lives
     GPU memory used/free/total (MiB): 938 / 80212 / 81151
------------------
     ethr =  1.33E-03,  avg # of iterations =  1.4

     total cpu time spent up to now is       12.4 secs

     total energy              =    -573.08360482 Ry
     estimated scf accuracy    <       2.44044084 Ry

     total magnetization       =     0.20 Bohr mag/cell
     absolute magnetization    =     0.93 Bohr mag/cell
[tb_dev] Currently allocated     3.05E-05 Mbytes, locked:    0 /   2
[tb_pin] Currently allocated     0.00E+00 Mbytes, locked:    0 /   0

     iteration #  7     ecut=    60.00 Ry     beta= 0.30
     Davidson diagonalization with overlap

---- Real-time Memory Report at c_bands before calling an iterative solver
           716 MiB given to the printing process from OS
             0 MiB allocation reported by mallinfo(arena+hblkhd)
       1360869 MiB available memory on the node where the printing process lives
     GPU memory used/free/total (MiB): 938 / 80212 / 81151
------------------
     ethr =  1.33E-03,  avg # of iterations =  1.4

     total cpu time spent up to now is       13.7 secs

     total energy              =    -573.11377813 Ry
     estimated scf accuracy    <       0.99817190 Ry

     total magnetization       =     0.06 Bohr mag/cell
     absolute magnetization    =     0.77 Bohr mag/cell
[tb_dev] Currently allocated     3.05E-05 Mbytes, locked:    0 /   2
[tb_pin] Currently allocated     0.00E+00 Mbytes, locked:    0 /   0

     iteration #  8     ecut=    60.00 Ry     beta= 0.30
     Davidson diagonalization with overlap

---- Real-time Memory Report at c_bands before calling an iterative solver
           718 MiB given to the printing process from OS
             0 MiB allocation reported by mallinfo(arena+hblkhd)
       1359963 MiB available memory on the node where the printing process lives
     GPU memory used/free/total (MiB): 938 / 80212 / 81151
------------------
     ethr =  1.33E-03,  avg # of iterations =  1.1

     total cpu time spent up to now is       15.0 secs

     total energy              =    -573.11210142 Ry
     estimated scf accuracy    <       0.96576129 Ry

     total magnetization       =     0.10 Bohr mag/cell
     absolute magnetization    =     0.81 Bohr mag/cell
[tb_dev] Currently allocated     3.05E-05 Mbytes, locked:    0 /   2
[tb_pin] Currently allocated     0.00E+00 Mbytes, locked:    0 /   0

     iteration #  9     ecut=    60.00 Ry     beta= 0.30
     Davidson diagonalization with overlap

---- Real-time Memory Report at c_bands before calling an iterative solver
           719 MiB given to the printing process from OS
             0 MiB allocation reported by mallinfo(arena+hblkhd)
       1358894 MiB available memory on the node where the printing process lives
     GPU memory used/free/total (MiB): 938 / 80212 / 81151
------------------
     ethr =  1.33E-03,  avg # of iterations =  1.5

     total cpu time spent up to now is       16.3 secs

     total energy              =    -573.09916897 Ry
     estimated scf accuracy    <       0.88954174 Ry

     total magnetization       =     0.06 Bohr mag/cell
     absolute magnetization    =     0.76 Bohr mag/cell
[tb_dev] Currently allocated     3.05E-05 Mbytes, locked:    0 /   2
[tb_pin] Currently allocated     0.00E+00 Mbytes, locked:    0 /   0

     iteration # 10     ecut=    60.00 Ry     beta= 0.30
     Davidson diagonalization with overlap

---- Real-time Memory Report at c_bands before calling an iterative solver
           719 MiB given to the printing process from OS
             0 MiB allocation reported by mallinfo(arena+hblkhd)
       1357626 MiB available memory on the node where the printing process lives
     GPU memory used/free/total (MiB): 938 / 80212 / 81151
------------------
     ethr =  1.33E-03,  avg # of iterations =  1.3

     total cpu time spent up to now is       17.6 secs

     total energy              =    -572.97553989 Ry
     estimated scf accuracy    <       0.74770940 Ry

     total magnetization       =     0.03 Bohr mag/cell
     absolute magnetization    =     0.70 Bohr mag/cell
[tb_dev] Currently allocated     3.05E-05 Mbytes, locked:    0 /   2
[tb_pin] Currently allocated     0.00E+00 Mbytes, locked:    0 /   0

     iteration # 11     ecut=    60.00 Ry     beta= 0.30
     Davidson diagonalization with overlap

---- Real-time Memory Report at c_bands before calling an iterative solver
           719 MiB given to the printing process from OS
             0 MiB allocation reported by mallinfo(arena+hblkhd)
       1356410 MiB available memory on the node where the printing process lives
     GPU memory used/free/total (MiB): 938 / 80212 / 81151
------------------
     ethr =  1.33E-03,  avg # of iterations =  1.5

     total cpu time spent up to now is       18.9 secs

     total energy              =    -573.04942438 Ry
     estimated scf accuracy    <       0.02636346 Ry

     total magnetization       =     0.00 Bohr mag/cell
     absolute magnetization    =     0.11 Bohr mag/cell
[tb_dev] Currently allocated     3.05E-05 Mbytes, locked:    0 /   2
[tb_pin] Currently allocated     0.00E+00 Mbytes, locked:    0 /   0

     iteration # 12     ecut=    60.00 Ry     beta= 0.30
     Davidson diagonalization with overlap

---- Real-time Memory Report at c_bands before calling an iterative solver
           719 MiB given to the printing process from OS
             0 MiB allocation reported by mallinfo(arena+hblkhd)
       1355342 MiB available memory on the node where the printing process lives
     GPU memory used/free/total (MiB): 938 / 80212 / 81151
------------------
     c_bands:  2 eigenvalues not converged
     c_bands:  1 eigenvalues not converged
     ethr =  6.94E-05,  avg # of iterations =  8.5

     total cpu time spent up to now is       21.0 secs

     total energy              =    -573.05402925 Ry
     estimated scf accuracy    <       0.03246717 Ry

     total magnetization       =    -0.00 Bohr mag/cell
     absolute magnetization    =     0.17 Bohr mag/cell
[tb_dev] Currently allocated     3.05E-05 Mbytes, locked:    0 /   2
[tb_pin] Currently allocated     0.00E+00 Mbytes, locked:    0 /   0

     iteration # 13     ecut=    60.00 Ry     beta= 0.30
     Davidson diagonalization with overlap

---- Real-time Memory Report at c_bands before calling an iterative solver
           719 MiB given to the printing process from OS
             0 MiB allocation reported by mallinfo(arena+hblkhd)
       1353272 MiB available memory on the node where the printing process lives
     GPU memory used/free/total (MiB): 938 / 80212 / 81151
------------------
     ethr =  6.94E-05,  avg # of iterations =  1.8

     total cpu time spent up to now is       22.4 secs

     total energy              =    -573.05796104 Ry
     estimated scf accuracy    <       0.01191164 Ry

     total magnetization       =     0.00 Bohr mag/cell
     absolute magnetization    =     0.05 Bohr mag/cell
[tb_dev] Currently allocated     3.05E-05 Mbytes, locked:    0 /   2
[tb_pin] Currently allocated     0.00E+00 Mbytes, locked:    0 /   0

     iteration # 14     ecut=    60.00 Ry     beta= 0.30
     Davidson diagonalization with overlap

---- Real-time Memory Report at c_bands before calling an iterative solver
           719 MiB given to the printing process from OS
             0 MiB allocation reported by mallinfo(arena+hblkhd)
       1351291 MiB available memory on the node where the printing process lives
     GPU memory used/free/total (MiB): 938 / 80212 / 81151
------------------
     c_bands:  1 eigenvalues not converged
     ethr =  3.13E-05,  avg # of iterations =  2.2

     total cpu time spent up to now is       23.8 secs

     total energy              =    -573.06073590 Ry
     estimated scf accuracy    <       0.00703444 Ry

     total magnetization       =     0.00 Bohr mag/cell
     absolute magnetization    =     0.03 Bohr mag/cell
[tb_dev] Currently allocated     3.05E-05 Mbytes, locked:    0 /   2
[tb_pin] Currently allocated     0.00E+00 Mbytes, locked:    0 /   0

     iteration # 15     ecut=    60.00 Ry     beta= 0.30
     Davidson diagonalization with overlap

---- Real-time Memory Report at c_bands before calling an iterative solver
           719 MiB given to the printing process from OS
             0 MiB allocation reported by mallinfo(arena+hblkhd)
       1348908 MiB available memory on the node where the printing process lives
     GPU memory used/free/total (MiB): 938 / 80212 / 81151
------------------
     ethr =  1.85E-05,  avg # of iterations =  4.7

     total cpu time spent up to now is       25.5 secs

     total energy              =    -573.05928565 Ry
     estimated scf accuracy    <       0.01833107 Ry

     total magnetization       =     0.00 Bohr mag/cell
     absolute magnetization    =     0.02 Bohr mag/cell
[tb_dev] Currently allocated     3.05E-05 Mbytes, locked:    0 /   2
[tb_pin] Currently allocated     0.00E+00 Mbytes, locked:    0 /   0

     iteration # 16     ecut=    60.00 Ry     beta= 0.30
     Davidson diagonalization with overlap

---- Real-time Memory Report at c_bands before calling an iterative solver
           719 MiB given to the printing process from OS
             0 MiB allocation reported by mallinfo(arena+hblkhd)
       1346131 MiB available memory on the node where the printing process lives
     GPU memory used/free/total (MiB): 938 / 80212 / 81151
------------------
     ethr =  1.85E-05,  avg # of iterations =  1.2

     total cpu time spent up to now is       26.8 secs

     total energy              =    -573.05909575 Ry
     estimated scf accuracy    <       0.00670833 Ry

     total magnetization       =     0.00 Bohr mag/cell
     absolute magnetization    =     0.02 Bohr mag/cell
[tb_dev] Currently allocated     3.05E-05 Mbytes, locked:    0 /   2
[tb_pin] Currently allocated     0.00E+00 Mbytes, locked:    0 /   0

     iteration # 17     ecut=    60.00 Ry     beta= 0.30
     Davidson diagonalization with overlap

---- Real-time Memory Report at c_bands before calling an iterative solver
           719 MiB given to the printing process from OS
             0 MiB allocation reported by mallinfo(arena+hblkhd)
       1343833 MiB available memory on the node where the printing process lives
     GPU memory used/free/total (MiB): 938 / 80212 / 81151
------------------
     ethr =  1.77E-05,  avg # of iterations =  1.3

     total cpu time spent up to now is       28.1 secs

     total energy              =    -573.05836103 Ry
     estimated scf accuracy    <       0.00429021 Ry

     total magnetization       =     0.00 Bohr mag/cell
     absolute magnetization    =     0.01 Bohr mag/cell
[tb_dev] Currently allocated     3.05E-05 Mbytes, locked:    0 /   2
[tb_pin] Currently allocated     0.00E+00 Mbytes, locked:    0 /   0

     iteration # 18     ecut=    60.00 Ry     beta= 0.30
     Davidson diagonalization with overlap

---- Real-time Memory Report at c_bands before calling an iterative solver
           719 MiB given to the printing process from OS
             0 MiB allocation reported by mallinfo(arena+hblkhd)
       1360032 MiB available memory on the node where the printing process lives
     GPU memory used/free/total (MiB): 938 / 80212 / 81151
------------------
     ethr =  1.13E-05,  avg # of iterations =  1.6

     total cpu time spent up to now is       29.4 secs

     total energy              =    -573.05805065 Ry
     estimated scf accuracy    <       0.00170754 Ry

     total magnetization       =    -0.00 Bohr mag/cell
     absolute magnetization    =     0.01 Bohr mag/cell
[tb_dev] Currently allocated     3.05E-05 Mbytes, locked:    0 /   2
[tb_pin] Currently allocated     0.00E+00 Mbytes, locked:    0 /   0

     iteration # 19     ecut=    60.00 Ry     beta= 0.30
     Davidson diagonalization with overlap

---- Real-time Memory Report at c_bands before calling an iterative solver
           719 MiB given to the printing process from OS
             0 MiB allocation reported by mallinfo(arena+hblkhd)
       1359655 MiB available memory on the node where the printing process lives
     GPU memory used/free/total (MiB): 938 / 80212 / 81151
------------------
     c_bands:  1 eigenvalues not converged
     ethr =  4.49E-06,  avg # of iterations =  3.4

     total cpu time spent up to now is       31.0 secs

     total energy              =    -573.05821106 Ry
     estimated scf accuracy    <       0.00069455 Ry

     total magnetization       =    -0.00 Bohr mag/cell
     absolute magnetization    =     0.01 Bohr mag/cell
[tb_dev] Currently allocated     3.05E-05 Mbytes, locked:    0 /   2
[tb_pin] Currently allocated     0.00E+00 Mbytes, locked:    0 /   0

     iteration # 20     ecut=    60.00 Ry     beta= 0.30
     Davidson diagonalization with overlap

---- Real-time Memory Report at c_bands before calling an iterative solver
           719 MiB given to the printing process from OS
             0 MiB allocation reported by mallinfo(arena+hblkhd)
       1358477 MiB available memory on the node where the printing process lives
     GPU memory used/free/total (MiB): 938 / 80212 / 81151
------------------
     c_bands:  1 eigenvalues not converged
     c_bands:  1 eigenvalues not converged
     ethr =  1.83E-06,  avg # of iterations =  4.5

     total cpu time spent up to now is       32.7 secs

     total energy              =    -573.05819745 Ry
     estimated scf accuracy    <       0.00034067 Ry

     total magnetization       =    -0.00 Bohr mag/cell
     absolute magnetization    =     0.01 Bohr mag/cell
[tb_dev] Currently allocated     3.05E-05 Mbytes, locked:    0 /   2
[tb_pin] Currently allocated     0.00E+00 Mbytes, locked:    0 /   0

     iteration # 21     ecut=    60.00 Ry     beta= 0.30
     Davidson diagonalization with overlap

---- Real-time Memory Report at c_bands before calling an iterative solver
           719 MiB given to the printing process from OS
             0 MiB allocation reported by mallinfo(arena+hblkhd)
       1357212 MiB available memory on the node where the printing process lives
     GPU memory used/free/total (MiB): 938 / 80212 / 81151
------------------
     ethr =  8.97E-07,  avg # of iterations =  3.2

     total cpu time spent up to now is       34.2 secs

     total energy              =    -573.05825950 Ry
     estimated scf accuracy    <       0.00006359 Ry

     total magnetization       =    -0.00 Bohr mag/cell
     absolute magnetization    =     0.00 Bohr mag/cell
[tb_dev] Currently allocated     3.05E-05 Mbytes, locked:    0 /   2
[tb_pin] Currently allocated     0.00E+00 Mbytes, locked:    0 /   0

     iteration # 22     ecut=    60.00 Ry     beta= 0.30
     Davidson diagonalization with overlap

---- Real-time Memory Report at c_bands before calling an iterative solver
           719 MiB given to the printing process from OS
             0 MiB allocation reported by mallinfo(arena+hblkhd)
       1356008 MiB available memory on the node where the printing process lives
     GPU memory used/free/total (MiB): 938 / 80212 / 81151
------------------
     ethr =  1.67E-07,  avg # of iterations =  3.9

     total cpu time spent up to now is       35.8 secs

     total energy              =    -573.05825526 Ry
     estimated scf accuracy    <       0.00003650 Ry

     total magnetization       =    -0.00 Bohr mag/cell
     absolute magnetization    =     0.00 Bohr mag/cell
[tb_dev] Currently allocated     3.05E-05 Mbytes, locked:    0 /   2
[tb_pin] Currently allocated     0.00E+00 Mbytes, locked:    0 /   0

     iteration # 23     ecut=    60.00 Ry     beta= 0.30
     Davidson diagonalization with overlap

---- Real-time Memory Report at c_bands before calling an iterative solver
           719 MiB given to the printing process from OS
             0 MiB allocation reported by mallinfo(arena+hblkhd)
       1355119 MiB available memory on the node where the printing process lives
     GPU memory used/free/total (MiB): 938 / 80212 / 81151
------------------
     ethr =  9.61E-08,  avg # of iterations =  3.3

     total cpu time spent up to now is       37.4 secs

     total energy              =    -573.05826388 Ry
     estimated scf accuracy    <       0.00000169 Ry

     total magnetization       =    -0.00 Bohr mag/cell
     absolute magnetization    =     0.00 Bohr mag/cell
[tb_dev] Currently allocated     3.05E-05 Mbytes, locked:    0 /   2
[tb_pin] Currently allocated     0.00E+00 Mbytes, locked:    0 /   0

     iteration # 24     ecut=    60.00 Ry     beta= 0.30
     Davidson diagonalization with overlap

---- Real-time Memory Report at c_bands before calling an iterative solver
           719 MiB given to the printing process from OS
             0 MiB allocation reported by mallinfo(arena+hblkhd)
       1354567 MiB available memory on the node where the printing process lives
     GPU memory used/free/total (MiB): 938 / 80212 / 81151
------------------
     ethr =  4.46E-09,  avg # of iterations =  7.6

     total cpu time spent up to now is       39.5 secs

     total energy              =    -573.05826623 Ry
     estimated scf accuracy    <       0.00000831 Ry

     total magnetization       =    -0.00 Bohr mag/cell
     absolute magnetization    =     0.00 Bohr mag/cell
[tb_dev] Currently allocated     3.05E-05 Mbytes, locked:    0 /   2
[tb_pin] Currently allocated     0.00E+00 Mbytes, locked:    0 /   0

     iteration # 25     ecut=    60.00 Ry     beta= 0.30
     Davidson diagonalization with overlap

---- Real-time Memory Report at c_bands before calling an iterative solver
           719 MiB given to the printing process from OS
             0 MiB allocation reported by mallinfo(arena+hblkhd)
       1352045 MiB available memory on the node where the printing process lives
     GPU memory used/free/total (MiB): 938 / 80212 / 81151
------------------
     ethr =  4.46E-09,  avg # of iterations =  4.1

     total cpu time spent up to now is       41.2 secs

     total energy              =    -573.05826627 Ry
     estimated scf accuracy    <       0.00000074 Ry

     total magnetization       =    -0.00 Bohr mag/cell
     absolute magnetization    =     0.00 Bohr mag/cell
[tb_dev] Currently allocated     3.05E-05 Mbytes, locked:    0 /   2
[tb_pin] Currently allocated     0.00E+00 Mbytes, locked:    0 /   0

     iteration # 26     ecut=    60.00 Ry     beta= 0.30
     Davidson diagonalization with overlap

---- Real-time Memory Report at c_bands before calling an iterative solver
           719 MiB given to the printing process from OS
             0 MiB allocation reported by mallinfo(arena+hblkhd)
       1351261 MiB available memory on the node where the printing process lives
     GPU memory used/free/total (MiB): 938 / 80212 / 81151
------------------
     ethr =  1.95E-09,  avg # of iterations =  3.4
 
     Magnetic moment per site  (integrated on atomic sphere of radius R)
     atom   1 (R=0.275)  charge= 14.1915  magn= -0.0001
     atom   2 (R=0.275)  charge=  5.3451  magn=  0.0001
     atom   3 (R=0.275)  charge=  5.3451  magn=  0.0001
     atom   4 (R=0.349)  charge=  7.2545  magn= -0.0000

     total cpu time spent up to now is       42.8 secs

     End of self-consistent calculation

 ------ SPIN UP ------------


          k = 0.0000 0.0000 0.0000 (  2125 PWs)   bands (ev):

   -82.0635 -45.3642 -45.3642 -45.2259 -17.5920  -6.8139  -5.7517  -0.0886
     0.4916   0.4916   6.9019   7.6416   7.6416  10.8315  10.8315  11.0631
    11.8352  11.8352  12.5730  15.0771  15.0771  17.5718  19.4966  21.0168
    21.0168  21.7637  24.0274

     occupation numbers 
     1.0000   1.0000   1.0000   1.0000   1.0000   1.0000   1.0000   1.0000
     1.0000   1.0000   1.0000   1.0000   1.0000   1.0000   1.0000   1.0000
     1.0000   1.0000   1.0000   0.0000   0.0000   0.0000   0.0000   0.0000
     0.0000   0.0000   0.0000

          k = 0.0000 0.0000 0.1758 (  2120 PWs)   bands (ev):

   -82.0635 -45.3643 -45.3643 -45.2256 -17.5880  -7.1606  -5.2146  -0.4632
     0.4894   0.4894   7.5061   7.6855   7.6855  10.4100  10.7212  10.7212
    11.8520  11.8520  12.7884  15.1724  15.1724  17.4617  19.9524  20.9337
    20.9338  21.3778  23.9546

     occupation numbers 
     1.0000   1.0000   1.0000   1.0000   1.0000   1.0000   1.0000   1.0000
     1.0000   1.0000   1.0000   1.0000   1.0000   1.0000   1.0000   1.0000
     1.0000   1.0000   1.0000   0.0000   0.0000   0.0000   0.0000   0.0000
     0.0000   0.0000   0.0000

          k = 0.0000 0.1443 0.0000 (  2127 PWs)   bands (ev):

   -82.0628 -45.3725 -45.3663 -45.2245 -17.4974  -6.6722  -5.6776  -0.1661
     0.0392   0.3929   7.1573   7.6211   7.7391   9.8094  10.3604  10.9116
    12.0794  12.2211  12.7462  14.8182  15.0071  18.1347  20.1014  20.3017
    21.5283  22.5838  23.7134

     occupation numbers 
     1.0000   1.0000   1.0000   1.0000   1.0000   1.0000   1.0000   1.0000
     1.0000   1.0000   1.0000   1.0000   1.0000   1.0000   1.0000   1.0000
     1.0000   1.0000   1.0000   0.0000   0.0000   0.0000   0.0000   0.0000
     0.0000   0.0000   0.0000

          k = 0.0000 0.1443 0.1758 (  2112 PWs)   bands (ev):

   -82.0628 -45.3725 -45.3663 -45.2243 -17.4937  -6.9829  -5.2224  -0.4485
     0.0606   0.3903   7.3293   7.7343   7.7970   9.9289  10.2622  10.5934
    12.0797  12.2120  12.9005  14.7488  15.0755  17.9872  20.2442  20.5500
    21.5156  21.7951  23.8155

     occupation numbers 
     1.0000   1.0000   1.0000   1.0000   1.0000   1.0000   1.0000   1.0000
     1.0000   1.0000   1.0000   1.0000   1.0000   1.0000   1.0000   1.0000
     1.0000   1.0000   1.0002   0.0000   0.0000   0.0000   0.0000   0.0000
     0.0000   0.0000   0.0000

          k = 0.0000 0.2887 0.0000 (  2124 PWs)   bands (ev):

   -82.0611 -45.3923 -45.3710 -45.2214 -17.2588  -6.3156  -5.5083  -0.9340
    -0.3100   0.1644   7.3575   7.6504   7.9597   8.5095   9.7627  10.5138
    12.0912  12.5383  12.8799  14.5218  14.9160  18.1560  20.6650  21.4424
    22.4314  22.9686  23.8039

     occupation numbers 
     1.0000   1.0000   1.0000   1.0000   1.0000   1.0000   1.0000   1.0000
     1.0000   1.0000   1.0000   1.0000   1.0000   1.0000   1.0000   1.0000
     1.0000   1.0000   1.0002   0.0000   0.0000   0.0000   0.0000   0.0000
     0.0000   0.0000   0.0000

          k = 0.0000 0.2887 0.1758 (  2109 PWs)   bands (ev):

   -82.0610 -45.3922 -45.3709 -45.2214 -17.2559  -6.5224  -5.2510  -0.8927
    -0.4345   0.1619   7.1524   7.6398   8.0423   8.9256   9.6522  10.4656
    12.1995  12.5148  12.9166  14.2987  14.9823  18.0644  20.5871  21.5663
    22.2254  23.0048  23.7784

     occupation numbers 
     1.0000   1.0000   1.0000   1.0000   1.0000   1.0000   1.0000   1.0000
     1.0000   1.0000   1.0000   1.0000   1.0000   1.0000   1.0000   1.0000
     1.0000   1.0000   1.0003   0.0011   0.0000   0.0000   0.0000   0.0000
     0.0000   0.0000   0.0000

          k = 0.0000 0.4330 0.0000 (  2116 PWs)   bands (ev):

   -82.0593 -45.4120 -45.3758 -45.2182 -17.0034  -5.9268  -5.3871  -1.7124
    -0.4449  -0.0516   6.3218   7.8643   8.1118   8.5442   9.4865  10.1639
    11.9438  12.4711  12.7496  14.4592  14.9495  17.2829  21.3729  22.5826
    22.9830  23.6096  24.9968

     occupation numbers 
     1.0000   1.0000   1.0000   1.0000   1.0000   1.0000   1.0000   1.0000
     1.0000   1.0000   1.0000   1.0000   1.0000   1.0000   1.0000   1.0000
     1.0000   1.0000   1.0000   0.0000   0.0000   0.0000   0.0000   0.0000
     0.0000   0.0000   0.0000

          k = 0.0000 0.4330 0.1758 (  2127 PWs)   bands (ev):

   -82.0593 -45.4120 -45.3758 -45.2184 -17.0014  -6.0106  -5.2982  -1.7354
    -0.4666  -0.0539   6.7724   7.3435   8.2425   8.9498   9.3119   9.7513
    12.1384  12.4627  12.7317  14.4638  15.0454  17.2858  21.3290  22.0770
    23.2013  23.4914  25.0269

     occupation numbers 
     1.0000   1.0000   1.0000   1.0000   1.0000   1.0000   1.0000   1.0000
     1.0000   1.0000   1.0000   1.0000   1.0000   1.0000   1.0000   1.0000
     1.0000   1.0000   1.0000   0.0000   0.0000   0.0000   0.0000   0.0000
     0.0000   0.0000   0.0000

          k = 0.0000-0.5774 0.0000 (  2126 PWs)   bands (ev):

   -82.0586 -45.4203 -45.3777 -45.2170 -16.8921  -5.7374  -5.3832  -1.9753
    -0.4916  -0.1377   5.8032   8.0031   8.1322   8.5303   9.4651  10.1987
    11.8029  12.3637  12.6331  14.4610  14.9922  16.9544  21.1610  23.1679
    23.4656  23.5638  26.6122

     occupation numbers 
     1.0000   1.0000   1.0000   1.0000   1.0000   1.0000   1.0000   1.0000
     1.0000   1.0000   1.0000   1.0000   1.0000   1.0000   1.0000   1.0000
     1.0000   1.0000   1.0000   0.0000   0.0000   0.0000   0.0000   0.0000
     0.0000   0.0000   0.0000

          k = 0.0000-0.5774 0.1758 (  2130 PWs)   bands (ev):

   -82.0586 -45.4202 -45.3778 -45.2172 -16.8903  -5.6961  -5.4344  -2.0165
    -0.4840  -0.1397   6.2475   7.4411   8.2537   9.0784   9.2963   9.5495
    12.0259  12.3670  12.6578  14.6887  15.0956  16.9315  20.9904  22.3155
    23.3867  23.6240  26.4649

     occupation numbers 
     1.0000   1.0000   1.0000   1.0000   1.0000   1.0000   1.0000   1.0000
     1.0000   1.0000   1.0000   1.0000   1.0000   1.0000   1.0000   1.0000
     1.0000   1.0000   1.0000   0.0000   0.0000   0.0000   0.0000   0.0000
     0.0000   0.0000   0.0000

          k = 0.1250 0.2165 0.0000 (  2125 PWs)   bands (ev):

   -82.0616 -45.3856 -45.3706 -45.2223 -17.3304  -6.4228  -5.5548  -0.6116
    -0.2886   0.1821   7.4765   7.5804   7.8900   8.8786   9.6317  10.6966
    12.1690  12.5597  12.8279  14.6570  14.8196  18.9710  19.4552  21.0994
    22.6230  22.7660  23.6796

     occupation numbers 
     1.0000   1.0000   1.0000   1.0000   1.0000   1.0000   1.0000   1.0000
     1.0000   1.0000   1.0000   1.0000   1.0000   1.0000   1.0000   1.0000
     1.0000   1.0000   1.0001   0.0000   0.0000   0.0000   0.0000   0.0000
     0.0000   0.0000   0.0000

          k = 0.1250 0.2165 0.1758 (  2124 PWs)   bands (ev):

   -82.0616 -45.3856 -45.3705 -45.2223 -17.3273  -6.6553  -5.2562  -0.5707
    -0.4100   0.1664   7.2130   7.5650   7.8940   9.2975   9.6572  10.7699
    12.1868  12.5188  12.8978  14.4823  14.8204  18.8481  19.4755  21.1208
    22.1290  22.7994  23.6709

     occupation numbers 
     1.0000   1.0000   1.0000   1.0000   1.0000   1.0000   1.0000   1.0000
     1.0000   1.0000   1.0000   1.0000   1.0000   1.0000   1.0000   1.0000
     1.0000   1.0000   1.0002   0.0000   0.0000   0.0000   0.0000   0.0000
     0.0000   0.0000   0.0000

          k = 0.1250 0.3608 0.0000 (  2112 PWs)   bands (ev):

   -82.0598 -45.4032 -45.3772 -45.2192 -17.0809  -6.0479  -5.4062  -1.3761
    -0.4356  -0.1365   6.9544   7.4955   8.2089   8.5128   9.2304  10.2393
    12.1785  12.5819  12.7912  14.5460  14.7777  18.2861  20.6693  21.9466
    22.4831  23.2532  24.8556

     occupation numbers 
     1.0000   1.0000   1.0000   1.0000   1.0000   1.0000   1.0000   1.0000
     1.0000   1.0000   1.0000   1.0000   1.0000   1.0000   1.0000   1.0000
     1.0000   1.0000   1.0000   0.0000   0.0000   0.0000   0.0000   0.0000
     0.0000   0.0000   0.0000

          k = 0.1250 0.3608 0.1758 (  2117 PWs)   bands (ev):

   -82.0598 -45.4033 -45.3772 -45.2193 -17.0785  -6.1546  -5.2983  -1.3469
    -0.4611  -0.1611   7.1547   7.2599   8.0911   8.7667   9.2519  10.2419
    12.2426  12.6101  12.7736  14.4161  14.7310  18.3038  20.6324  21.6486
    22.5237  23.3813  24.6697

     occupation numbers 
     1.0000   1.0000   1.0000   1.0000   1.0000   1.0000   1.0000   1.0000
     1.0000   1.0000   1.0000   1.0000   1.0000   1.0000   1.0000   1.0000
     1.0000   1.0000   1.0000   0.0001   0.0000   0.0000   0.0000   0.0000
     0.0000   0.0000   0.0000

          k = 0.1250 0.5052 0.0000 (  2125 PWs)   bands (ev):

   -82.0586 -45.4157 -45.3822 -45.2171 -16.8937  -5.7393  -5.3665  -1.8264
    -0.4884  -0.3750   6.1187   7.4234   8.3704   8.7295   9.1371  10.0593
    11.9995  12.4495  12.7057  14.5239  14.8380  17.6704  21.3675  22.3904
    23.1143  23.2499  25.6779

     occupation numbers 
     1.0000   1.0000   1.0000   1.0000   1.0000   1.0000   1.0000   1.0000
     1.0000   1.0000   1.0000   1.0000   1.0000   1.0000   1.0000   1.0000
     1.0000   1.0000   1.0000   0.0000   0.0000   0.0000   0.0000   0.0000
     0.0000   0.0000   0.0000

          k = 0.1250 0.5052 0.1758 (  2124 PWs)   bands (ev):

   -82.0586 -45.4158 -45.3821 -45.2172 -16.8919  -5.7574  -5.3477  -1.8663
    -0.4948  -0.3928   6.6082   7.2955   8.2515   8.9104   9.1242   9.5427
    12.1628  12.4347  12.7323  14.5811  14.7993  17.7084  21.3978  22.1661
    22.5531  23.6554  25.3304

     occupation numbers 
     1.0000   1.0000   1.0000   1.0000   1.0000   1.0000   1.0000   1.0000
     1.0000   1.0000   1.0000   1.0000   1.0000   1.0000   1.0000   1.0000
     1.0000   1.0000   1.0000   0.0000   0.0000   0.0000   0.0000   0.0000
     0.0000   0.0000   0.0000

          k = 0.2500 0.4330 0.0000 (  2117 PWs)   bands (ev):

   -82.0586 -45.4096 -45.3883 -45.2171 -16.8953  -5.7418  -5.3493  -1.5959
    -0.7481  -0.4280   6.6850   7.0374   7.9055   8.9587   9.0908   9.9316
    12.1561  12.4969  12.7934  14.5839  14.6825  18.9976  20.6472  21.8791
    22.4588  23.1314  26.2324

     occupation numbers 
     1.0000   1.0000   1.0000   1.0000   1.0000   1.0000   1.0000   1.0000
     1.0000   1.0000   1.0000   1.0000   1.0000   1.0000   1.0000   1.0000
     1.0000   1.0000   1.0000   0.0000   0.0000   0.0000   0.0000   0.0000
     0.0000   0.0000   0.0000

          k = 0.2500 0.4330 0.1758 (  2126 PWs)   bands (ev):

   -82.0586 -45.4096 -45.3883 -45.2172 -16.8935  -5.7154  -5.3901  -1.5790
    -0.7785  -0.4527   6.8878   7.1822   8.0635   8.6518   9.0179   9.8900
    12.2145  12.4809  12.8676  14.4170  14.5924  19.0746  20.5752  21.7848
    22.4337  23.2299  25.8035

     occupation numbers 
     1.0000   1.0000   1.0000   1.0000   1.0000   1.0000   1.0000   1.0000
     1.0000   1.0000   1.0000   1.0000   1.0000   1.0000   1.0000   1.0000
     1.0000   1.0000   1.0001   0.0001   0.0000   0.0000   0.0000   0.0000
     0.0000   0.0000   0.0000

          k = 0.2500 0.5774 0.0000 (  2121 PWs)   bands (ev):

   -82.0581 -45.4101 -45.3949 -45.2162 -16.8160  -5.5541  -5.3915  -1.6135
    -1.0101  -0.4656   6.5100   6.9637   7.6057   9.1385   9.1500   9.8493
    11.9893  12.6268  12.7387  14.6051  14.6404  19.1595  21.1021  21.7326
    22.5364  23.0131  26.5849

     occupation numbers 
     1.0000   1.0000   1.0000   1.0000   1.0000   1.0000   1.0000   1.0000
     1.0000   1.0000   1.0000   1.0000   1.0000   1.0000   1.0000   1.0000
     1.0000   1.0000   1.0000   0.0000   0.0000   0.0000   0.0000   0.0000
     0.0000   0.0000   0.0000

          k = 0.2500 0.5774 0.1758 (  2132 PWs)   bands (ev):

   -82.0581 -45.4101 -45.3950 -45.2163 -16.8144  -5.5142  -5.4254  -1.6398
    -1.0360  -0.5128   6.8573   7.1371   7.9477   8.7637   9.0882   9.4272
    12.0994  12.6203  12.8146  14.4353  14.5284  19.1921  21.0358  21.9518
    22.5479  22.9505  26.1536

     occupation numbers 
     1.0000   1.0000   1.0000   1.0000   1.0000   1.0000   1.0000   1.0000
     1.0000   1.0000   1.0000   1.0000   1.0000   1.0000   1.0000   1.0000
     1.0000   1.0000   1.0000   0.0001   0.0000   0.0000   0.0000   0.0000
     0.0000   0.0000   0.0000

          k = 0.0000 0.1443-0.1758 (  2112 PWs)   bands (ev):

   -82.0628 -45.3725 -45.3662 -45.2243 -17.4937  -6.9806  -5.2284  -0.4511
     0.0771   0.3914   7.3425   7.6645   7.7620   9.8515  10.3346  10.7557
    12.0543  12.1881  12.8867  14.7713  15.0769  18.0163  20.2947  20.3901
    21.4427  21.8339  23.9073

     occupation numbers 
     1.0000   1.0000   1.0000   1.0000   1.0000   1.0000   1.0000   1.0000
     1.0000   1.0000   1.0000   1.0000   1.0000   1.0000   1.0000   1.0000
     1.0000   1.0000   1.0002   0.0000   0.0000   0.0000   0.0000   0.0000
     0.0000   0.0000   0.0000

          k = 0.0000 0.2887-0.1758 (  2109 PWs)   bands (ev):

   -82.0611 -45.3922 -45.3709 -45.2214 -17.2559  -6.4963  -5.3034  -0.8636
    -0.3855   0.1633   7.0323   7.3224   7.9687   9.1097   9.7673  10.8598
    12.0998  12.4982  12.8790  14.3801  14.9620  18.2095  20.5275  20.8809
    22.3333  22.9347  23.7337

     occupation numbers 
     1.0000   1.0000   1.0000   1.0000   1.0000   1.0000   1.0000   1.0000
     1.0000   1.0000   1.0000   1.0000   1.0000   1.0000   1.0000   1.0000
     1.0000   1.0000   1.0002   0.0002   0.0000   0.0000   0.0000   0.0000
     0.0000   0.0000   0.0000

          k = 0.0000 0.4330-0.1758 (  2127 PWs)   bands (ev):

   -82.0593 -45.4120 -45.3758 -45.2184 -17.0014  -5.8878  -5.4718  -1.6586
    -0.4261  -0.0530   6.3622   7.3630   8.1613   8.9375   9.4240  10.2738
    12.0362  12.4492  12.7448  14.5529  15.0249  17.3122  20.8892  21.9698
    23.0799  23.4825  24.9611

     occupation numbers 
     1.0000   1.0000   1.0000   1.0000   1.0000   1.0000   1.0000   1.0000
     1.0000   1.0000   1.0000   1.0000   1.0000   1.0000   1.0000   1.0000
     1.0000   1.0000   1.0000   0.0000   0.0000   0.0000   0.0000   0.0000
     0.0000   0.0000   0.0000

          k =-0.1250 0.3608-0.1758 (  2117 PWs)   bands (ev):

   -82.0598 -45.4033 -45.3772 -45.2193 -17.0785  -6.1130  -5.3655  -1.3024
    -0.4396  -0.1630   6.7986   7.3331   8.0330   9.0235   9.1691  10.5069
    12.1744  12.5830  12.8067  14.4452  14.7302  18.3545  20.5929  21.2964
    22.4269  23.4388  24.9555

     occupation numbers 
     1.0000   1.0000   1.0000   1.0000   1.0000   1.0000   1.0000   1.0000
     1.0000   1.0000   1.0000   1.0000   1.0000   1.0000   1.0000   1.0000
     1.0000   1.0000   1.0000   0.0001   0.0000   0.0000   0.0000   0.0000
     0.0000   0.0000   0.0000

          k =-0.1250 0.5052-0.1758 (  2124 PWs)   bands (ev):

   -82.0586 -45.4158 -45.3821 -45.2172 -16.8919  -5.5940  -5.5373  -1.8227
    -0.4954  -0.3809   6.3864   7.3542   8.2989   8.8321   9.0710   9.8431
    12.1118  12.4338  12.7596  14.5569  14.8480  17.6930  21.2400  22.1434
    22.5094  23.5831  25.6120

     occupation numbers 
     1.0000   1.0000   1.0000   1.0000   1.0000   1.0000   1.0000   1.0000
     1.0000   1.0000   1.0000   1.0000   1.0000   1.0000   1.0000   1.0000
     1.0000   1.0000   1.0000   0.0000   0.0000   0.0000   0.0000   0.0000
     0.0000   0.0000   0.0000

 ------ SPIN DOWN ----------


          k = 0.0000 0.0000 0.0000 (  2125 PWs)   bands (ev):

   -82.0635 -45.3641 -45.3641 -45.2261 -17.5920  -6.8137  -5.7515  -0.0886
     0.4916   0.4916   6.9020   7.6417   7.6417  10.8317  10.8317  11.0635
    11.8352  11.8352  12.5732  15.0772  15.0772  17.5718  19.4966  21.0168
    21.0168  21.7635  24.0274

     occupation numbers 
     1.0000   1.0000   1.0000   1.0000   1.0000   1.0000   1.0000   1.0000
     1.0000   1.0000   1.0000   1.0000   1.0000   1.0000   1.0000   1.0000
     1.0000   1.0000   1.0000   0.0000   0.0000   0.0000   0.0000   0.0000
     0.0000   0.0000   0.0000

          k = 0.0000 0.0000 0.1758 (  2120 PWs)   bands (ev):

   -82.0635 -45.3642 -45.3642 -45.2258 -17.5880  -7.1605  -5.2143  -0.4632
     0.4894   0.4894   7.5062   7.6856   7.6856  10.4103  10.7214  10.7214
    11.8520  11.8520  12.7887  15.1725  15.1725  17.4617  19.9524  20.9337
    20.9337  21.3777  23.9546

     occupation numbers 
     1.0000   1.0000   1.0000   1.0000   1.0000   1.0000   1.0000   1.0000
     1.0000   1.0000   1.0000   1.0000   1.0000   1.0000   1.0000   1.0000
     1.0000   1.0000   1.0000   0.0000   0.0000   0.0000   0.0000   0.0000
     0.0000   0.0000   0.0000

          k = 0.0000 0.1443 0.0000 (  2127 PWs)   bands (ev):

   -82.0628 -45.3723 -45.3662 -45.2247 -17.4975  -6.6720  -5.6773  -0.1661
     0.0392   0.3929   7.1574   7.6211   7.7392   9.8096  10.3606  10.9119
    12.0794  12.2212  12.7464  14.8183  15.0072  18.1347  20.1014  20.3016
    21.5283  22.5836  23.7133

     occupation numbers 
     1.0000   1.0000   1.0000   1.0000   1.0000   1.0000   1.0000   1.0000
     1.0000   1.0000   1.0000   1.0000   1.0000   1.0000   1.0000   1.0000
     1.0000   1.0000   1.0000   0.0000   0.0000   0.0000   0.0000   0.0000
     0.0000   0.0000   0.0000

          k = 0.0000 0.1443 0.1758 (  2112 PWs)   bands (ev):

   -82.0627 -45.3723 -45.3661 -45.2245 -17.4938  -6.9828  -5.2221  -0.4485
     0.0606   0.3903   7.3294   7.7344   7.7971   9.9290  10.2624  10.5937
    12.0798  12.2121  12.9007  14.7488  15.0756  17.9872  20.2441  20.5500
    21.5156  21.7950  23.8155

     occupation numbers 
     1.0000   1.0000   1.0000   1.0000   1.0000   1.0000   1.0000   1.0000
     1.0000   1.0000   1.0000   1.0000   1.0000   1.0000   1.0000   1.0000
     1.0000   1.0000   1.0002   0.0000   0.0000   0.0000   0.0000   0.0000
     0.0000   0.0000   0.0000

          k = 0.0000 0.2887 0.0000 (  2124 PWs)   bands (ev):

   -82.0610 -45.3921 -45.3709 -45.2216 -17.2588  -6.3154  -5.5081  -0.9341
    -0.3100   0.1644   7.3576   7.6505   7.9597   8.5096   9.7629  10.5141
    12.0912  12.5385  12.8801  14.5218  14.9160  18.1560  20.6650  21.4424
    22.4314  22.9686  23.8039

     occupation numbers 
     1.0000   1.0000   1.0000   1.0000   1.0000   1.0000   1.0000   1.0000
     1.0000   1.0000   1.0000   1.0000   1.0000   1.0000   1.0000   1.0000
     1.0000   1.0000   1.0002   0.0000   0.0000   0.0000   0.0000   0.0000
     0.0000   0.0000   0.0000

          k = 0.0000 0.2887 0.1758 (  2109 PWs)   bands (ev):

   -82.0610 -45.3921 -45.3708 -45.2215 -17.2559  -6.5223  -5.2507  -0.8927
    -0.4345   0.1619   7.1525   7.6399   8.0423   8.9257   9.6523  10.4659
    12.1996  12.5149  12.9168  14.2988  14.9823  18.0644  20.5871  21.5663
    22.2253  23.0058  24.1539

     occupation numbers 
     1.0000   1.0000   1.0000   1.0000   1.0000   1.0000   1.0000   1.0000
     1.0000   1.0000   1.0000   1.0000   1.0000   1.0000   1.0000   1.0000
     1.0000   1.0000   1.0003   0.0011   0.0000   0.0000   0.0000   0.0000
     0.0000   0.0000   0.0000

          k = 0.0000 0.4330 0.0000 (  2116 PWs)   bands (ev):

   -82.0593 -45.4118 -45.3757 -45.2184 -17.0035  -5.9266  -5.3868  -1.7124
    -0.4450  -0.0516   6.3218   7.8644   8.1118   8.5443   9.4867  10.1642
    11.9439  12.4713  12.7498  14.4592  14.9495  17.2829  21.3729  22.5827
    22.9830  23.6096  24.9966

     occupation numbers 
     1.0000   1.0000   1.0000   1.0000   1.0000   1.0000   1.0000   1.0000
     1.0000   1.0000   1.0000   1.0000   1.0000   1.0000   1.0000   1.0000
     1.0000   1.0000   1.0000   0.0000   0.0000   0.0000   0.0000   0.0000
     0.0000   0.0000   0.0000

          k = 0.0000 0.4330 0.1758 (  2127 PWs)   bands (ev):

   -82.0593 -45.4119 -45.3757 -45.2186 -17.0014  -6.0104  -5.2980  -1.7354
    -0.4666  -0.0539   6.7724   7.3436   8.2425   8.9500   9.3120   9.7515
    12.1385  12.4629  12.7320  14.4639  15.0454  17.2858  21.3291  22.0770
    23.2013  23.4914  25.0975

     occupation numbers 
     1.0000   1.0000   1.0000   1.0000   1.0000   1.0000   1.0000   1.0000
     1.0000   1.0000   1.0000   1.0000   1.0000   1.0000   1.0000   1.0000
     1.0000   1.0000   1.0000   0.0000   0.0000   0.0000   0.0000   0.0000
     0.0000   0.0000   0.0000

          k = 0.0000-0.5774 0.0000 (  2126 PWs)   bands (ev):

   -82.0586 -45.4202 -45.3776 -45.2172 -16.8921  -5.7372  -5.3829  -1.9753
    -0.4916  -0.1377   5.8032   8.0032   8.1322   8.5304   9.4653  10.1990
    11.8030  12.3640  12.6333  14.4611  14.9922  16.9544  21.1610  23.1679
    23.4655  23.5638  26.6122

     occupation numbers 
     1.0000   1.0000   1.0000   1.0000   1.0000   1.0000   1.0000   1.0000
     1.0000   1.0000   1.0000   1.0000   1.0000   1.0000   1.0000   1.0000
     1.0000   1.0000   1.0000   0.0000   0.0000   0.0000   0.0000   0.0000
     0.0000   0.0000   0.0000

          k = 0.0000-0.5774 0.1758 (  2130 PWs)   bands (ev):

   -82.0586 -45.4201 -45.3777 -45.2174 -16.8904  -5.6959  -5.4342  -2.0165
    -0.4841  -0.1397   6.2475   7.4412   8.2537   9.0785   9.2964   9.5497
    12.0260  12.3672  12.6580  14.6888  15.0956  16.9314  20.9904  22.3155
    23.3866  23.6239  26.4646

     occupation numbers 
     1.0000   1.0000   1.0000   1.0000   1.0000   1.0000   1.0000   1.0000
     1.0000   1.0000   1.0000   1.0000   1.0000   1.0000   1.0000   1.0000
     1.0000   1.0000   1.0000   0.0000   0.0000   0.0000   0.0000   0.0000
     0.0000   0.0000   0.0000

          k = 0.1250 0.2165 0.0000 (  2125 PWs)   bands (ev):

   -82.0615 -45.3855 -45.3704 -45.2225 -17.3304  -6.4226  -5.5545  -0.6116
    -0.2885   0.1820   7.4766   7.5805   7.8900   8.8787   9.6318  10.6969
    12.1691  12.5599  12.8282  14.6571  14.8196  18.9710  19.4552  21.0994
    22.6230  22.7660  23.6796

     occupation numbers 
     1.0000   1.0000   1.0000   1.0000   1.0000   1.0000   1.0000   1.0000
     1.0000   1.0000   1.0000   1.0000   1.0000   1.0000   1.0000   1.0000
     1.0000   1.0000   1.0001   0.0000   0.0000   0.0000   0.0000   0.0000
     0.0000   0.0000   0.0000

          k = 0.1250 0.2165 0.1758 (  2124 PWs)   bands (ev):

   -82.0615 -45.3855 -45.3704 -45.2225 -17.3273  -6.6551  -5.2560  -0.5708
    -0.4100   0.1663   7.2131   7.5651   7.8941   9.2977   9.6573  10.7702
    12.1869  12.5189  12.8981  14.4824  14.8204  18.8481  19.4755  21.1208
    22.1289  22.7993  23.6705

     occupation numbers 
     1.0000   1.0000   1.0000   1.0000   1.0000   1.0000   1.0000   1.0000
     1.0000   1.0000   1.0000   1.0000   1.0000   1.0000   1.0000   1.0000
     1.0000   1.0000   1.0002   0.0000   0.0000   0.0000   0.0000   0.0000
     0.0000   0.0000   0.0000

          k = 0.1250 0.3608 0.0000 (  2112 PWs)   bands (ev):

   -82.0598 -45.4031 -45.3771 -45.2194 -17.0809  -6.0477  -5.4060  -1.3761
    -0.4356  -0.1365   6.9544   7.4955   8.2090   8.5129   9.2305  10.2396
    12.1787  12.5821  12.7914  14.5460  14.7777  18.2861  20.6693  21.9466
    22.4831  23.2532  24.8555

     occupation numbers 
     1.0000   1.0000   1.0000   1.0000   1.0000   1.0000   1.0000   1.0000
     1.0000   1.0000   1.0000   1.0000   1.0000   1.0000   1.0000   1.0000
     1.0000   1.0000   1.0000   0.0000   0.0000   0.0000   0.0000   0.0000
     0.0000   0.0000   0.0000

          k = 0.1250 0.3608 0.1758 (  2117 PWs)   bands (ev):

   -82.0598 -45.4031 -45.3771 -45.2195 -17.0786  -6.1544  -5.2981  -1.3469
    -0.4611  -0.1611   7.1548   7.2599   8.0911   8.7668   9.2520  10.2422
    12.2428  12.6103  12.7738  14.4161  14.7310  18.3038  20.6324  21.6486
    22.5237  23.3813  24.6699

     occupation numbers 
     1.0000   1.0000   1.0000   1.0000   1.0000   1.0000   1.0000   1.0000
     1.0000   1.0000   1.0000   1.0000   1.0000   1.0000   1.0000   1.0000
     1.0000   1.0000   1.0000   0.0001   0.0000   0.0000   0.0000   0.0000
     0.0000   0.0000   0.0000

          k = 0.1250 0.5052 0.0000 (  2125 PWs)   bands (ev):

   -82.0586 -45.4156 -45.3821 -45.2173 -16.8937  -5.7391  -5.3662  -1.8264
    -0.4884  -0.3751   6.1187   7.4235   8.3705   8.7296   9.1372  10.0595
    11.9997  12.4497  12.7059  14.5239  14.8380  17.6704  21.3675  22.3904
    23.1143  23.2498  25.6778

     occupation numbers 
     1.0000   1.0000   1.0000   1.0000   1.0000   1.0000   1.0000   1.0000
     1.0000   1.0000   1.0000   1.0000   1.0000   1.0000   1.0000   1.0000
     1.0000   1.0000   1.0000   0.0000   0.0000   0.0000   0.0000   0.0000
     0.0000   0.0000   0.0000

          k = 0.1250 0.5052 0.1758 (  2124 PWs)   bands (ev):

   -82.0586 -45.4156 -45.3820 -45.2174 -16.8920  -5.7572  -5.3474  -1.8663
    -0.4948  -0.3928   6.6082   7.2955   8.2516   8.9105   9.1244   9.5429
    12.1630  12.4349  12.7324  14.5812  14.7993  17.7084  21.3979  22.1661
    22.5531  23.6554  25.3303

     occupation numbers 
     1.0000   1.0000   1.0000   1.0000   1.0000   1.0000   1.0000   1.0000
     1.0000   1.0000   1.0000   1.0000   1.0000   1.0000   1.0000   1.0000
     1.0000   1.0000   1.0000   0.0000   0.0000   0.0000   0.0000   0.0000
     0.0000   0.0000   0.0000

          k = 0.2500 0.4330 0.0000 (  2117 PWs)   bands (ev):

   -82.0586 -45.4094 -45.3881 -45.2173 -16.8953  -5.7416  -5.3490  -1.5959
    -0.7481  -0.4280   6.6850   7.0375   7.9056   8.9588   9.0908   9.9318
    12.1563  12.4971  12.7936  14.5839  14.6825  18.9976  20.6471  21.8791
    22.4588  23.1314  26.2322

     occupation numbers 
     1.0000   1.0000   1.0000   1.0000   1.0000   1.0000   1.0000   1.0000
     1.0000   1.0000   1.0000   1.0000   1.0000   1.0000   1.0000   1.0000
     1.0000   1.0000   1.0000   0.0000   0.0000   0.0000   0.0000   0.0000
     0.0000   0.0000   0.0000

          k = 0.2500 0.4330 0.1758 (  2126 PWs)   bands (ev):

   -82.0586 -45.4095 -45.3881 -45.2174 -16.8936  -5.7152  -5.3899  -1.5790
    -0.7785  -0.4527   6.8878   7.1822   8.0636   8.6519   9.0180   9.8903
    12.2147  12.4812  12.8678  14.4170  14.5924  19.0745  20.5752  21.7849
    22.4337  23.2299  25.8034

     occupation numbers 
     1.0000   1.0000   1.0000   1.0000   1.0000   1.0000   1.0000   1.0000
     1.0000   1.0000   1.0000   1.0000   1.0000   1.0000   1.0000   1.0000
     1.0000   1.0000   1.0001   0.0001   0.0000   0.0000   0.0000   0.0000
     0.0000   0.0000   0.0000

          k = 0.2500 0.5774 0.0000 (  2121 PWs)   bands (ev):

   -82.0581 -45.4100 -45.3948 -45.2164 -16.8160  -5.5538  -5.3913  -1.6135
    -1.0101  -0.4657   6.5100   6.9637   7.6058   9.1387   9.1501   9.8495
    11.9895  12.6270  12.7389  14.6051  14.6404  19.1595  21.1021  21.7326
    22.5364  23.0132  26.5842

     occupation numbers 
     1.0000   1.0000   1.0000   1.0000   1.0000   1.0000   1.0000   1.0000
     1.0000   1.0000   1.0000   1.0000   1.0000   1.0000   1.0000   1.0000
     1.0000   1.0000   1.0000   0.0000   0.0000   0.0000   0.0000   0.0000
     0.0000   0.0000   0.0000

          k = 0.2500 0.5774 0.1758 (  2132 PWs)   bands (ev):

   -82.0581 -45.4100 -45.3949 -45.2165 -16.8145  -5.5140  -5.4251  -1.6398
    -1.0360  -0.5128   6.8573   7.1371   7.9478   8.7638   9.0883   9.4273
    12.0996  12.6205  12.8149  14.4352  14.5284  19.1920  21.0358  21.9518
    22.5479  22.9505  26.1530

     occupation numbers 
     1.0000   1.0000   1.0000   1.0000   1.0000   1.0000   1.0000   1.0000
     1.0000   1.0000   1.0000   1.0000   1.0000   1.0000   1.0000   1.0000
     1.0000   1.0000   1.0000   0.0001   0.0000   0.0000   0.0000   0.0000
     0.0000   0.0000   0.0000

          k = 0.0000 0.1443-0.1758 (  2112 PWs)   bands (ev):

   -82.0627 -45.3723 -45.3661 -45.2245 -17.4938  -6.9804  -5.2281  -0.4511
     0.0771   0.3914   7.3426   7.6646   7.7621   9.8516  10.3348  10.7560
    12.0544  12.1882  12.8869  14.7714  15.0770  18.0163  20.2947  20.3900
    21.4426  21.8338  23.9073

     occupation numbers 
     1.0000   1.0000   1.0000   1.0000   1.0000   1.0000   1.0000   1.0000
     1.0000   1.0000   1.0000   1.0000   1.0000   1.0000   1.0000   1.0000
     1.0000   1.0000   1.0002   0.0000   0.0000   0.0000   0.0000   0.0000
     0.0000   0.0000   0.0000

          k = 0.0000 0.2887-0.1758 (  2109 PWs)   bands (ev):

   -82.0610 -45.3921 -45.3708 -45.2215 -17.2559  -6.4962  -5.3032  -0.8637
    -0.3855   0.1632   7.0324   7.3225   7.9687   9.1098   9.7675  10.8601
    12.0999  12.4984  12.8793  14.3802  14.9620  18.2095  20.5275  20.8808
    22.3333  22.9347  23.7337

     occupation numbers 
     1.0000   1.0000   1.0000   1.0000   1.0000   1.0000   1.0000   1.0000
     1.0000   1.0000   1.0000   1.0000   1.0000   1.0000   1.0000   1.0000
     1.0000   1.0000   1.0002   0.0002   0.0000   0.0000   0.0000   0.0000
     0.0000   0.0000   0.0000

          k = 0.0000 0.4330-0.1758 (  2127 PWs)   bands (ev):

   -82.0593 -45.4119 -45.3757 -45.2186 -17.0014  -5.8876  -5.4716  -1.6586
    -0.4261  -0.0530   6.3622   7.3630   8.1613   8.9376   9.4241  10.2740
    12.0363  12.4494  12.7450  14.5530  15.0249  17.3122  20.8892  21.9698
    23.0797  23.4825  24.9608

     occupation numbers 
     1.0000   1.0000   1.0000   1.0000   1.0000   1.0000   1.0000   1.0000
     1.0000   1.0000   1.0000   1.0000   1.0000   1.0000   1.0000   1.0000
     1.0000   1.0000   1.0000   0.0000   0.0000   0.0000   0.0000   0.0000
     0.0000   0.0000   0.0000

          k =-0.1250 0.3608-0.1758 (  2117 PWs)   bands (ev):

   -82.0598 -45.4031 -45.3771 -45.2195 -17.0786  -6.1128  -5.3653  -1.3024
    -0.4397  -0.1630   6.7987   7.3332   8.0330   9.0237   9.1691  10.5071
    12.1745  12.5832  12.8069  14.4452  14.7302  18.3545  20.5929  21.2964
    22.4269  23.4388  24.9555

     occupation numbers 
     1.0000   1.0000   1.0000   1.0000   1.0000   1.0000   1.0000   1.0000
     1.0000   1.0000   1.0000   1.0000   1.0000   1.0000   1.0000   1.0000
     1.0000   1.0000   1.0000   0.0001   0.0000   0.0000   0.0000   0.0000
     0.0000   0.0000   0.0000

          k =-0.1250 0.5052-0.1758 (  2124 PWs)   bands (ev):

   -82.0586 -45.4156 -45.3820 -45.2174 -16.8920  -5.5938  -5.5371  -1.8227
    -0.4955  -0.3810   6.3864   7.3542   8.2990   8.8322   9.0712   9.8433
    12.1120  12.4340  12.7598  14.5569  14.8480  17.6930  21.2401  22.1434
    22.5094  23.5830  25.6119

     occupation numbers 
     1.0000   1.0000   1.0000   1.0000   1.0000   1.0000   1.0000   1.0000
     1.0000   1.0000   1.0000   1.0000   1.0000   1.0000   1.0000   1.0000
     1.0000   1.0000   1.0000   0.0000   0.0000   0.0000   0.0000   0.0000
     0.0000   0.0000   0.0000

     the Fermi energy is    13.8179 ev

     WARNING: integrated charge=    38.00028071, expected=    38.00000000

!    total energy              =    -573.05826620 Ry
     total all-electron energy =     -4292.169103 Ry
     estimated scf accuracy    <       0.00000003 Ry
     smearing contrib. (-TS)   =       0.00000422 Ry
     internal energy E=F+TS    =    -573.05827042 Ry

     The total energy is F=E-TS. E is the sum of the following terms:
     one-electron contribution =    -250.61407500 Ry
     hartree contribution      =     150.50650373 Ry
     xc contribution           =     -57.16861525 Ry
     ewald contribution        =    -253.59744870 Ry
     one-center paw contrib.   =    -162.18463519 Ry
      -> PAW hartree energy AE =     314.05149388 Ry
      -> PAW hartree energy PS =    -312.67988510 Ry
      -> PAW xc energy AE      =    -217.53091578 Ry
      -> PAW xc energy PS      =      53.97467181 Ry
      -> total E_H with PAW    =     151.87811251 Ry
      -> total E_XC with PAW   =    -220.72485922 Ry

     total magnetization       =    -0.00 Bohr mag/cell
     absolute magnetization    =     0.00 Bohr mag/cell

     convergence has been achieved in  26 iterations

     Forces acting on atoms (cartesian axes, Ry/au):

     atom    1 type  1   force =     0.00000000    0.00000000    0.00000000
     atom    2 type  2   force =     0.00000000    0.00000000   -0.03146229
     atom    3 type  2   force =     0.00000000    0.00000000    0.03146229
     atom    4 type  3   force =     0.00000000    0.00000000    0.00000000
     The non-local contrib.  to forces
     atom    1 type  1   force =     0.00000000    0.00000000    0.00000000
     atom    2 type  2   force =     0.00000000    0.00000000   -0.76416212
     atom    3 type  2   force =     0.00000000    0.00000000    0.76416212
     atom    4 type  3   force =     0.00000000    0.00000000    0.00000000
     The ionic contribution  to forces
     atom    1 type  1   force =    -0.00000000   -0.00000000    0.00000000
     atom    2 type  2   force =     0.00000000   -0.00000000   18.37757715
     atom    3 type  2   force =    -0.00000000    0.00000000  -18.37757715
     atom    4 type  3   force =    -0.00000000    0.00000000   -0.00000000
     The local contribution  to forces
     atom    1 type  1   force =    -0.00000000   -0.00000000   -0.00000000
     atom    2 type  2   force =     0.00000001   -0.00000001  -17.65244827
     atom    3 type  2   force =    -0.00000001    0.00000001   17.65244827
     atom    4 type  3   force =    -0.00000000    0.00000000    0.00000000
     The core correction contribution to forces
     atom    1 type  1   force =    -0.00000000   -0.00000000    0.00000000
     atom    2 type  2   force =    -0.00000000    0.00000000    0.00741373
     atom    3 type  2   force =     0.00000000   -0.00000000   -0.00741373
     atom    4 type  3   force =    -0.00000000   -0.00000000   -0.00000000
     The Hubbard contrib.    to forces
     atom    1 type  1   force =     0.00000000    0.00000000    0.00000000
     atom    2 type  2   force =     0.00000000    0.00000000    0.00000000
     atom    3 type  2   force =     0.00000000    0.00000000    0.00000000
     atom    4 type  3   force =     0.00000000    0.00000000    0.00000000
     The SCF correction term to forces
     atom    1 type  1   force =     0.00000000   -0.00000000    0.00000000
     atom    2 type  2   force =    -0.00000000    0.00000000    0.00015722
     atom    3 type  2   force =     0.00000000   -0.00000000   -0.00015722
     atom    4 type  3   force =     0.00000000   -0.00000000   -0.00000000

     Total force =     0.044494     Total SCF correction =     0.000222

     Writing all to output data dir ./out/pw.save/ :
     XML data file, charge density, pseudopotentials, collected wavefunctions
 
     init_run     :     11.12s CPU      2.80s WALL (       1 calls)
     electrons    :    162.52s CPU     39.40s WALL (       1 calls)
     forces       :      0.70s CPU      0.66s WALL (       1 calls)

     Called by init_run:
     wfcinit      :      0.29s CPU      0.38s WALL (       1 calls)
     wfcinit:atom :      0.05s CPU      0.05s WALL (      50 calls)
     wfcinit:wfcr :      0.19s CPU      0.25s WALL (      50 calls)
     potinit      :     10.22s CPU      1.75s WALL (       1 calls)
     hinit0       :      0.52s CPU      0.53s WALL (       1 calls)

     Called by electrons:
     c_bands      :     15.21s CPU     15.08s WALL (      26 calls)
     sum_band     :      3.33s CPU      3.30s WALL (      26 calls)
     v_of_rho     :      0.41s CPU      0.19s WALL (      27 calls)
     v_h          :      0.28s CPU      0.03s WALL (      27 calls)
     v_xc         :      0.13s CPU      0.16s WALL (      28 calls)
     newd         :      0.84s CPU      0.68s WALL (      27 calls)
                                        0.68s GPU  (      27 calls)
     PAW_pot      :    147.17s CPU     20.25s WALL (      27 calls)
     mix_rho      :      0.72s CPU      0.68s WALL (      26 calls)

     Called by c_bands:
     init_us_2    :      1.12s CPU      1.09s WALL (    2700 calls)
     cegterg      :     13.29s CPU     13.21s WALL (    1300 calls)

     Called by sum_band:
     sum_band:wei :      0.04s CPU      0.04s WALL (      26 calls)
                                        0.04s GPU  (      26 calls)
     sum_band:loo :      1.79s CPU      1.75s WALL (      26 calls)
                                        1.75s GPU  (      26 calls)
     sum_band:buf :      0.16s CPU      0.19s WALL (    1300 calls)
                                        0.17s GPU  (    1300 calls)
     sum_band:ini :      0.54s CPU      0.54s WALL (    1300 calls)
                                        0.53s GPU  (    1300 calls)
     sum_band:cal :      0.05s CPU      0.08s WALL (    1300 calls)
                                        0.06s GPU  (    1300 calls)
     sum_band:bec :      0.29s CPU      0.31s WALL (    1300 calls)
                                        0.30s GPU  (    1300 calls)
     addusdens    :      1.36s CPU      1.37s WALL (      26 calls)
                                        1.37s GPU  (      26 calls)
     addusd:skk   :      0.00s CPU      0.01s WALL (      78 calls)
                                        0.00s GPU  (      78 calls)

     Called by *egterg:
     cdiaghg      :      4.67s CPU      4.84s WALL (    5347 calls)
                                        4.78s GPU  (    5347 calls)
     cegterg:over :      0.75s CPU      0.77s WALL (    4047 calls)
     cegterg:upda :      0.85s CPU      0.86s WALL (    4047 calls)
     cegterg:last :      0.14s CPU      0.14s WALL (    2391 calls)
     h_psi        :      4.77s CPU      4.72s WALL (    5397 calls)
                                        4.65s GPU  (    5397 calls)
     s_psi        :      0.85s CPU      0.88s WALL (    5397 calls)
     g_psi        :      0.02s CPU      0.10s WALL (    4047 calls)
                                        0.05s GPU  (    4047 calls)

     Called by h_psi:
     h_psi:calbec :      0.16s CPU      0.28s WALL (    5397 calls)
                                        0.22s GPU  (    5397 calls)
     vloc_psi     :      3.27s CPU      3.16s WALL (    5397 calls)
                                        3.09s GPU  (    5397 calls)
     add_vuspsi   :      0.77s CPU      0.89s WALL (    5397 calls)
                                        0.83s GPU  (    5397 calls)

     General routines
     calbec       :      0.18s CPU      0.20s WALL (    6897 calls)
     fft          :      2.98s CPU      0.61s WALL (     688 calls)
                                        0.03s GPU  (     634 calls)
     ffts         :      1.89s CPU      0.36s WALL (     839 calls)
                                        0.02s GPU  (     785 calls)
     fftw         :      0.37s CPU      1.07s WALL (   18712 calls)
                                        0.86s GPU  (   18712 calls)
     interpolate  :      4.97s CPU      0.93s WALL (      54 calls)
 
     Parallel routines

     PAW routines
     PAW_pot      :    147.17s CPU     20.25s WALL (      27 calls)
     PAW_symme    :      0.01s CPU      0.02s WALL (      53 calls)
 
     PWSCF        :   2m55.28s CPU     43.49s WALL

 
   This run was terminated on:   5:36:31  12Jul2026            

=------------------------------------------------------------------------------=
   JOB DONE.
=------------------------------------------------------------------------------=
Warning: ieee_divide_by_zero is signaling
Warning: ieee_inexact is signaling
FORTRAN STOP
