
     Program PWSCF v.7.3.1 starts on 12Jul2026 at  2:49:13 

     This program is part of the open-source Quantum ESPRESSO suite
     for quantum simulation of materials; please cite
         "P. Giannozzi et al., J. Phys.:Condens. Matter 21 395502 (2009);
         "P. Giannozzi et al., J. Phys.:Condens. Matter 29 465901 (2017);
         "P. Giannozzi et al., J. Chem. Phys. 152 154105 (2020);
          URL http://www.quantum-espresso.org", 
     in publications or presentations arising from this work. More details at
     http://www.quantum-espresso.org/quote

     Parallel version (MPI & OpenMP), running on      14 processor cores
     Number of MPI processes:                 1
     Threads/MPI process:                    14

     MPI processes distributed on     1 nodes
     843884 MiB available memory on the printing compute node when the environment starts
 
     Reading input from pw.in

     Current dimensions of program PWSCF are:
     Max number of different atomic species (ntypx) = 10
     Max number of k-points (npk) =  40000
     Max angular momentum in pseudopotentials (lmaxx) =  4
     file Co.pbe-spn-kjpaw_psl.0.3.1.UPF: wavefunction(s)  3P 3D renormalized
     file O.pbe-n-kjpaw_psl.1.0.0.UPF: wavefunction(s)  2S 2P renormalized

     Atomic positions and unit cell read from directory:
     ../Li_1x1_c6.9_d1.00/out/pw.save/
 
 
     Subspace diagonalization in iterative solution of the eigenvalue problem:
     a serial algorithm will be used

 
     G-vector sticks info
     --------------------
     sticks:   dense  smooth     PW     G-vecs:    dense   smooth      PW
     Sum         931     475    151                56785    20183    3437
 
     Using Slab Decomposition
 


     bravais-lattice index     =            4
     lattice parameter (alat)  =       5.3290  a.u.
     unit-cell volume          =     320.6820 (a.u.)^3
     number of atoms/cell      =            4
     number of atomic types    =            3
     number of electrons       =        32.00
     number of Kohn-Sham states=           24
     kinetic-energy cutoff     =      60.0000  Ry
     charge density cutoff     =     480.0000  Ry
     Exchange-correlation= SLA  PW   PBX  PBC
                           (   1   4   3   4   0   0   0)

     GPU acceleration is ACTIVE.  1 visible GPUs per MPI rank
     GPU-aware MPI enabled


     GPU used by master process:

        Device Number: 0
        Device name: NVIDIA A100-SXM4-80GB
        Compute capability : 80
        Ratio of single to double precision performance  : 2
        Memory Clock Rate (KHz): 1593000
        Memory Bus Width (bits): 5120
        Peak Memory Bandwidth (GB/s): ******

     celldm(1)=   5.329028  celldm(2)=   0.000000  celldm(3)=   2.446809
     celldm(4)=   0.000000  celldm(5)=   0.000000  celldm(6)=   0.000000

     crystal axes: (cart. coord. in units of alat)
               a(1) = (   1.000000   0.000000   0.000000 )  
               a(2) = (  -0.500000   0.866025   0.000000 )  
               a(3) = (   0.000000   0.000000   2.446809 )  

     reciprocal axes: (cart. coord. in units 2 pi/alat)
               b(1) = (  1.000000  0.577350 -0.000000 )  
               b(2) = (  0.000000  1.154701  0.000000 )  
               b(3) = (  0.000000 -0.000000  0.408696 )  


     PseudoPot. # 1 for Co read from file:
     ../../pseudo/Co.pbe-spn-kjpaw_psl.0.3.1.UPF
     MD5 check sum: 3c0a43779828c046024e4f3be63f8e67
     Pseudo is Projector augmented-wave + core cor, Zval = 17.0
     Generated using &quot;atomic&quot; code by A. Dal Corso  v.6.2.2
     Shape of augmentation charge: PSQ
     Using radial grid of 1193 points,  6 beta functions with: 
                l(1) =   0
                l(2) =   0
                l(3) =   1
                l(4) =   1
                l(5) =   2
                l(6) =   2
     Q(r) pseudized with 0 coefficients 


     PseudoPot. # 2 for O  read from file:
     ../../pseudo/O.pbe-n-kjpaw_psl.1.0.0.UPF
     MD5 check sum: e99d9cef9b487d1ca56f5b95ecd0fd7a
     Pseudo is Projector augmented-wave + core cor, Zval =  6.0
     Generated using &quot;atomic&quot; code by A. Dal Corso  v.6.3
     Shape of augmentation charge: PSQ
     Using radial grid of 1095 points,  4 beta functions with: 
                l(1) =   0
                l(2) =   0
                l(3) =   1
                l(4) =   1
     Q(r) pseudized with 0 coefficients 


     PseudoPot. # 3 for Li read from file:
     ../../pseudo/Li.pbe-s-kjpaw_psl.1.0.0.UPF
     MD5 check sum: 3974953fb0fea6c4f83fb01d64ffc134
     Pseudo is Projector augmented-wave, Zval =  3.0
     Generated using &quot;atomic&quot; code by A. Dal Corso  v.6.3
     Shape of augmentation charge: PSQ
     Using radial grid of 1017 points,  4 beta functions with: 
                l(1) =   0
                l(2) =   0
                l(3) =   1
                l(4) =   1
     Q(r) pseudized with 0 coefficients 


     atomic species   valence    mass     pseudopotential
     Co               17.00    58.93300     Co( 1.00)
     O                 6.00    15.99900     O ( 1.00)
     Li                3.00     6.94100     Li( 1.00)

     Starting magnetic structure 
     atomic species   magnetization
     Co              0.300
     O               0.000
     Li              0.000

      6 Sym. Ops. (no inversion) found


                                    s                        frac. trans.

      isym =  1     identity                                     

 cryst.   s( 1) = (     1          0          0      )
                  (     0          1          0      )
                  (     0          0          1      )

 cart.    s( 1) = (  1.0000000  0.0000000  0.0000000 )
                  (  0.0000000  1.0000000  0.0000000 )
                  (  0.0000000  0.0000000  1.0000000 )


      isym =  2     120 deg rotation - cryst. axis [0,0,1]       

 cryst.   s( 2) = (     0          1          0      )
                  (    -1         -1          0      )
                  (     0          0          1      )

 cart.    s( 2) = ( -0.5000000 -0.8660254  0.0000000 )
                  (  0.8660254 -0.5000000  0.0000000 )
                  (  0.0000000  0.0000000  1.0000000 )


      isym =  3     120 deg rotation - cryst. axis [0,0,-1]      

 cryst.   s( 3) = (    -1         -1          0      )
                  (     1          0          0      )
                  (     0          0          1      )

 cart.    s( 3) = ( -0.5000000  0.8660254  0.0000000 )
                  ( -0.8660254 -0.5000000  0.0000000 )
                  (  0.0000000  0.0000000  1.0000000 )


      isym =  4     inv. 180 deg rotation - cart. axis [1,0,0]   

 cryst.   s( 4) = (    -1          0          0      )
                  (     1          1          0      )
                  (     0          0          1      )

 cart.    s( 4) = ( -1.0000000  0.0000000  0.0000000 )
                  (  0.0000000  1.0000000  0.0000000 )
                  (  0.0000000  0.0000000  1.0000000 )


      isym =  5     inv. 180 deg rotation - cryst. axis [0,1,0]  

 cryst.   s( 5) = (     1          1          0      )
                  (     0         -1          0      )
                  (     0          0          1      )

 cart.    s( 5) = (  0.5000000  0.8660254  0.0000000 )
                  (  0.8660254 -0.5000000  0.0000000 )
                  (  0.0000000  0.0000000  1.0000000 )


      isym =  6     inv. 180 deg rotation - cryst. axis [1,1,0]  

 cryst.   s( 6) = (     0         -1          0      )
                  (    -1          0          0      )
                  (     0          0          1      )

 cart.    s( 6) = (  0.5000000 -0.8660254  0.0000000 )
                  ( -0.8660254 -0.5000000  0.0000000 )
                  (  0.0000000  0.0000000  1.0000000 )


     point group C_3v (3m)  
     there are  3 classes
     the character table:

       E     2C3   3s_v 
A_1    1.00  1.00  1.00
A_2    1.00  1.00 -1.00
E      2.00 -1.00  0.00

     the symmetry operations in each class and the name of the first element:

     E        1
          identity                                               
     2C3      2    3
          120 deg rotation - cryst. axis [0,0,1]                 
     3s_v     4    5    6
          inv. 180 deg rotation - cart. axis [1,0,0]             

   Cartesian axes

     site n.     atom                  positions (alat units)
         1        Co     tau(   1) = (   0.0000000   0.0000000   0.0000000  )
         2        O      tau(   2) = (  -0.0000000   0.5773503   0.3404255  )
         3        O      tau(   3) = (   0.5000000   0.2886751   2.1063830  )
         4        Li     tau(   4) = (   0.0000000   0.0000000   1.5780142  )

   Crystallographic axes

     site n.     atom                  positions (cryst. coord.)
         1        Co     tau(   1) = (  0.0000000  0.0000000  0.0000000  )
         2        O      tau(   2) = (  0.3333333  0.6666667  0.1391304  )
         3        O      tau(   3) = (  0.6666667  0.3333333  0.8608696  )
         4        Li     tau(   4) = (  0.0000000  0.0000000  0.6449275  )

     number of k points=   449  Marzari-Vanderbilt smearing, width (Ry)=  0.0200
                       cart. coord. in units 2pi/alat
        k(    1) = (   0.0000000   0.0000000   0.0000000), wk =   0.0002170
        k(    2) = (   0.0000000   0.0000000   0.0510870), wk =   0.0004340
        k(    3) = (   0.0000000   0.0000000   0.1021739), wk =   0.0004340
        k(    4) = (   0.0000000   0.0000000   0.1532609), wk =   0.0004340
        k(    5) = (   0.0000000   0.0000000  -0.2043478), wk =   0.0002170
        k(    6) = (   0.0000000   0.0481125   0.0000000), wk =   0.0013021
        k(    7) = (   0.0000000   0.0481125   0.0510870), wk =   0.0013021
        k(    8) = (   0.0000000   0.0481125   0.1021739), wk =   0.0013021
        k(    9) = (   0.0000000   0.0481125   0.1532609), wk =   0.0013021
        k(   10) = (   0.0000000   0.0481125  -0.2043478), wk =   0.0013021
        k(   11) = (   0.0000000   0.0962250   0.0000000), wk =   0.0013021
        k(   12) = (   0.0000000   0.0962250   0.0510870), wk =   0.0013021
        k(   13) = (   0.0000000   0.0962250   0.1021739), wk =   0.0013021
        k(   14) = (   0.0000000   0.0962250   0.1532609), wk =   0.0013021
        k(   15) = (   0.0000000   0.0962250  -0.2043478), wk =   0.0013021
        k(   16) = (   0.0000000   0.1443376   0.0000000), wk =   0.0013021
        k(   17) = (   0.0000000   0.1443376   0.0510870), wk =   0.0013021
        k(   18) = (   0.0000000   0.1443376   0.1021739), wk =   0.0013021
        k(   19) = (   0.0000000   0.1443376   0.1532609), wk =   0.0013021
        k(   20) = (   0.0000000   0.1443376  -0.2043478), wk =   0.0013021
        k(   21) = (   0.0000000   0.1924501   0.0000000), wk =   0.0013021
        k(   22) = (   0.0000000   0.1924501   0.0510870), wk =   0.0013021
        k(   23) = (   0.0000000   0.1924501   0.1021739), wk =   0.0013021
        k(   24) = (   0.0000000   0.1924501   0.1532609), wk =   0.0013021
        k(   25) = (   0.0000000   0.1924501  -0.2043478), wk =   0.0013021
        k(   26) = (   0.0000000   0.2405626   0.0000000), wk =   0.0013021
        k(   27) = (   0.0000000   0.2405626   0.0510870), wk =   0.0013021
        k(   28) = (   0.0000000   0.2405626   0.1021739), wk =   0.0013021
        k(   29) = (   0.0000000   0.2405626   0.1532609), wk =   0.0013021
        k(   30) = (   0.0000000   0.2405626  -0.2043478), wk =   0.0013021
        k(   31) = (   0.0000000   0.2886751   0.0000000), wk =   0.0013021
        k(   32) = (   0.0000000   0.2886751   0.0510870), wk =   0.0013021
        k(   33) = (   0.0000000   0.2886751   0.1021739), wk =   0.0013021
        k(   34) = (   0.0000000   0.2886751   0.1532609), wk =   0.0013021
        k(   35) = (   0.0000000   0.2886751  -0.2043478), wk =   0.0013021
        k(   36) = (   0.0000000   0.3367877   0.0000000), wk =   0.0013021
        k(   37) = (   0.0000000   0.3367877   0.0510870), wk =   0.0013021
        k(   38) = (   0.0000000   0.3367877   0.1021739), wk =   0.0013021
        k(   39) = (   0.0000000   0.3367877   0.1532609), wk =   0.0013021
        k(   40) = (   0.0000000   0.3367877  -0.2043478), wk =   0.0013021
        k(   41) = (   0.0000000   0.3849002   0.0000000), wk =   0.0013021
        k(   42) = (   0.0000000   0.3849002   0.0510870), wk =   0.0013021
        k(   43) = (   0.0000000   0.3849002   0.1021739), wk =   0.0013021
        k(   44) = (   0.0000000   0.3849002   0.1532609), wk =   0.0013021
        k(   45) = (   0.0000000   0.3849002  -0.2043478), wk =   0.0013021
        k(   46) = (   0.0000000   0.4330127   0.0000000), wk =   0.0013021
        k(   47) = (   0.0000000   0.4330127   0.0510870), wk =   0.0013021
        k(   48) = (   0.0000000   0.4330127   0.1021739), wk =   0.0013021
        k(   49) = (   0.0000000   0.4330127   0.1532609), wk =   0.0013021
        k(   50) = (   0.0000000   0.4330127  -0.2043478), wk =   0.0013021
        k(   51) = (   0.0000000   0.4811252   0.0000000), wk =   0.0013021
        k(   52) = (   0.0000000   0.4811252   0.0510870), wk =   0.0013021
        k(   53) = (   0.0000000   0.4811252   0.1021739), wk =   0.0013021
        k(   54) = (   0.0000000   0.4811252   0.1532609), wk =   0.0013021
        k(   55) = (   0.0000000   0.4811252  -0.2043478), wk =   0.0013021
        k(   56) = (   0.0000000   0.5292377   0.0000000), wk =   0.0013021
        k(   57) = (   0.0000000   0.5292377   0.0510870), wk =   0.0013021
        k(   58) = (   0.0000000   0.5292377   0.1021739), wk =   0.0013021
        k(   59) = (   0.0000000   0.5292377   0.1532609), wk =   0.0013021
        k(   60) = (   0.0000000   0.5292377  -0.2043478), wk =   0.0013021
        k(   61) = (   0.0000000  -0.5773503   0.0000000), wk =   0.0006510
        k(   62) = (   0.0000000  -0.5773503   0.0510870), wk =   0.0013021
        k(   63) = (   0.0000000  -0.5773503   0.1021739), wk =   0.0013021
        k(   64) = (   0.0000000  -0.5773503   0.1532609), wk =   0.0013021
        k(   65) = (   0.0000000  -0.5773503  -0.2043478), wk =   0.0006510
        k(   66) = (   0.0416667   0.0721688   0.0000000), wk =   0.0013021
        k(   67) = (   0.0416667   0.0721688   0.0510870), wk =   0.0026042
        k(   68) = (   0.0416667   0.0721688   0.1021739), wk =   0.0026042
        k(   69) = (   0.0416667   0.0721688   0.1532609), wk =   0.0026042
        k(   70) = (   0.0416667   0.0721688  -0.2043478), wk =   0.0013021
        k(   71) = (   0.0416667   0.1202813   0.0000000), wk =   0.0026042
        k(   72) = (   0.0416667   0.1202813   0.0510870), wk =   0.0026042
        k(   73) = (   0.0416667   0.1202813   0.1021739), wk =   0.0026042
        k(   74) = (   0.0416667   0.1202813   0.1532609), wk =   0.0026042
        k(   75) = (   0.0416667   0.1202813  -0.2043478), wk =   0.0026042
        k(   76) = (   0.0416667   0.1683938   0.0000000), wk =   0.0026042
        k(   77) = (   0.0416667   0.1683938   0.0510870), wk =   0.0026042
        k(   78) = (   0.0416667   0.1683938   0.1021739), wk =   0.0026042
        k(   79) = (   0.0416667   0.1683938   0.1532609), wk =   0.0026042
        k(   80) = (   0.0416667   0.1683938  -0.2043478), wk =   0.0026042
        k(   81) = (   0.0416667   0.2165064   0.0000000), wk =   0.0026042
        k(   82) = (   0.0416667   0.2165064   0.0510870), wk =   0.0026042
        k(   83) = (   0.0416667   0.2165064   0.1021739), wk =   0.0026042
        k(   84) = (   0.0416667   0.2165064   0.1532609), wk =   0.0026042
        k(   85) = (   0.0416667   0.2165064  -0.2043478), wk =   0.0026042
        k(   86) = (   0.0416667   0.2646189   0.0000000), wk =   0.0026042
        k(   87) = (   0.0416667   0.2646189   0.0510870), wk =   0.0026042
        k(   88) = (   0.0416667   0.2646189   0.1021739), wk =   0.0026042
        k(   89) = (   0.0416667   0.2646189   0.1532609), wk =   0.0026042
        k(   90) = (   0.0416667   0.2646189  -0.2043478), wk =   0.0026042
        k(   91) = (   0.0416667   0.3127314   0.0000000), wk =   0.0026042
        k(   92) = (   0.0416667   0.3127314   0.0510870), wk =   0.0026042
        k(   93) = (   0.0416667   0.3127314   0.1021739), wk =   0.0026042
        k(   94) = (   0.0416667   0.3127314   0.1532609), wk =   0.0026042
        k(   95) = (   0.0416667   0.3127314  -0.2043478), wk =   0.0026042
        k(   96) = (   0.0416667   0.3608439   0.0000000), wk =   0.0026042
        k(   97) = (   0.0416667   0.3608439   0.0510870), wk =   0.0026042
        k(   98) = (   0.0416667   0.3608439   0.1021739), wk =   0.0026042
        k(   99) = (   0.0416667   0.3608439   0.1532609), wk =   0.0026042
        k(  100) = (   0.0416667   0.3608439  -0.2043478), wk =   0.0026042
        k(  101) = (   0.0416667   0.4089564   0.0000000), wk =   0.0026042
        k(  102) = (   0.0416667   0.4089564   0.0510870), wk =   0.0026042
        k(  103) = (   0.0416667   0.4089564   0.1021739), wk =   0.0026042
        k(  104) = (   0.0416667   0.4089564   0.1532609), wk =   0.0026042
        k(  105) = (   0.0416667   0.4089564  -0.2043478), wk =   0.0026042
        k(  106) = (   0.0416667   0.4570690   0.0000000), wk =   0.0026042
        k(  107) = (   0.0416667   0.4570690   0.0510870), wk =   0.0026042
        k(  108) = (   0.0416667   0.4570690   0.1021739), wk =   0.0026042
        k(  109) = (   0.0416667   0.4570690   0.1532609), wk =   0.0026042
        k(  110) = (   0.0416667   0.4570690  -0.2043478), wk =   0.0026042
        k(  111) = (   0.0416667   0.5051815   0.0000000), wk =   0.0026042
        k(  112) = (   0.0416667   0.5051815   0.0510870), wk =   0.0026042
        k(  113) = (   0.0416667   0.5051815   0.1021739), wk =   0.0026042
        k(  114) = (   0.0416667   0.5051815   0.1532609), wk =   0.0026042
        k(  115) = (   0.0416667   0.5051815  -0.2043478), wk =   0.0026042
        k(  116) = (   0.0416667   0.5532940   0.0000000), wk =   0.0026042
        k(  117) = (   0.0416667   0.5532940   0.0510870), wk =   0.0026042
        k(  118) = (   0.0416667   0.5532940   0.1021739), wk =   0.0026042
        k(  119) = (   0.0416667   0.5532940   0.1532609), wk =   0.0026042
        k(  120) = (   0.0416667   0.5532940  -0.2043478), wk =   0.0026042
        k(  121) = (   0.0833333   0.1443376   0.0000000), wk =   0.0013021
        k(  122) = (   0.0833333   0.1443376   0.0510870), wk =   0.0026042
        k(  123) = (   0.0833333   0.1443376   0.1021739), wk =   0.0026042
        k(  124) = (   0.0833333   0.1443376   0.1532609), wk =   0.0026042
        k(  125) = (   0.0833333   0.1443376  -0.2043478), wk =   0.0013021
        k(  126) = (   0.0833333   0.1924501   0.0000000), wk =   0.0026042
        k(  127) = (   0.0833333   0.1924501   0.0510870), wk =   0.0026042
        k(  128) = (   0.0833333   0.1924501   0.1021739), wk =   0.0026042
        k(  129) = (   0.0833333   0.1924501   0.1532609), wk =   0.0026042
        k(  130) = (   0.0833333   0.1924501  -0.2043478), wk =   0.0026042
        k(  131) = (   0.0833333   0.2405626   0.0000000), wk =   0.0026042
        k(  132) = (   0.0833333   0.2405626   0.0510870), wk =   0.0026042
        k(  133) = (   0.0833333   0.2405626   0.1021739), wk =   0.0026042
        k(  134) = (   0.0833333   0.2405626   0.1532609), wk =   0.0026042
        k(  135) = (   0.0833333   0.2405626  -0.2043478), wk =   0.0026042
        k(  136) = (   0.0833333   0.2886751   0.0000000), wk =   0.0026042
        k(  137) = (   0.0833333   0.2886751   0.0510870), wk =   0.0026042
        k(  138) = (   0.0833333   0.2886751   0.1021739), wk =   0.0026042
        k(  139) = (   0.0833333   0.2886751   0.1532609), wk =   0.0026042
        k(  140) = (   0.0833333   0.2886751  -0.2043478), wk =   0.0026042
        k(  141) = (   0.0833333   0.3367877   0.0000000), wk =   0.0026042
        k(  142) = (   0.0833333   0.3367877   0.0510870), wk =   0.0026042
        k(  143) = (   0.0833333   0.3367877   0.1021739), wk =   0.0026042
        k(  144) = (   0.0833333   0.3367877   0.1532609), wk =   0.0026042
        k(  145) = (   0.0833333   0.3367877  -0.2043478), wk =   0.0026042
        k(  146) = (   0.0833333   0.3849002   0.0000000), wk =   0.0026042
        k(  147) = (   0.0833333   0.3849002   0.0510870), wk =   0.0026042
        k(  148) = (   0.0833333   0.3849002   0.1021739), wk =   0.0026042
        k(  149) = (   0.0833333   0.3849002   0.1532609), wk =   0.0026042
        k(  150) = (   0.0833333   0.3849002  -0.2043478), wk =   0.0026042
        k(  151) = (   0.0833333   0.4330127   0.0000000), wk =   0.0026042
        k(  152) = (   0.0833333   0.4330127   0.0510870), wk =   0.0026042
        k(  153) = (   0.0833333   0.4330127   0.1021739), wk =   0.0026042
        k(  154) = (   0.0833333   0.4330127   0.1532609), wk =   0.0026042
        k(  155) = (   0.0833333   0.4330127  -0.2043478), wk =   0.0026042
        k(  156) = (   0.0833333   0.4811252   0.0000000), wk =   0.0026042
        k(  157) = (   0.0833333   0.4811252   0.0510870), wk =   0.0026042
        k(  158) = (   0.0833333   0.4811252   0.1021739), wk =   0.0026042
        k(  159) = (   0.0833333   0.4811252   0.1532609), wk =   0.0026042
        k(  160) = (   0.0833333   0.4811252  -0.2043478), wk =   0.0026042
        k(  161) = (   0.0833333   0.5292377   0.0000000), wk =   0.0026042
        k(  162) = (   0.0833333   0.5292377   0.0510870), wk =   0.0026042
        k(  163) = (   0.0833333   0.5292377   0.1021739), wk =   0.0026042
        k(  164) = (   0.0833333   0.5292377   0.1532609), wk =   0.0026042
        k(  165) = (   0.0833333   0.5292377  -0.2043478), wk =   0.0026042
        k(  166) = (   0.0833333   0.5773503   0.0000000), wk =   0.0013021
        k(  167) = (   0.0833333   0.5773503   0.0510870), wk =   0.0026042
        k(  168) = (   0.0833333   0.5773503   0.1021739), wk =   0.0026042
        k(  169) = (   0.0833333   0.5773503   0.1532609), wk =   0.0026042
        k(  170) = (   0.0833333   0.5773503  -0.2043478), wk =   0.0013021
        k(  171) = (   0.1250000   0.2165064   0.0000000), wk =   0.0013021
        k(  172) = (   0.1250000   0.2165064   0.0510870), wk =   0.0026042
        k(  173) = (   0.1250000   0.2165064   0.1021739), wk =   0.0026042
        k(  174) = (   0.1250000   0.2165064   0.1532609), wk =   0.0026042
        k(  175) = (   0.1250000   0.2165064  -0.2043478), wk =   0.0013021
        k(  176) = (   0.1250000   0.2646189   0.0000000), wk =   0.0026042
        k(  177) = (   0.1250000   0.2646189   0.0510870), wk =   0.0026042
        k(  178) = (   0.1250000   0.2646189   0.1021739), wk =   0.0026042
        k(  179) = (   0.1250000   0.2646189   0.1532609), wk =   0.0026042
        k(  180) = (   0.1250000   0.2646189  -0.2043478), wk =   0.0026042
        k(  181) = (   0.1250000   0.3127314   0.0000000), wk =   0.0026042
        k(  182) = (   0.1250000   0.3127314   0.0510870), wk =   0.0026042
        k(  183) = (   0.1250000   0.3127314   0.1021739), wk =   0.0026042
        k(  184) = (   0.1250000   0.3127314   0.1532609), wk =   0.0026042
        k(  185) = (   0.1250000   0.3127314  -0.2043478), wk =   0.0026042
        k(  186) = (   0.1250000   0.3608439   0.0000000), wk =   0.0026042
        k(  187) = (   0.1250000   0.3608439   0.0510870), wk =   0.0026042
        k(  188) = (   0.1250000   0.3608439   0.1021739), wk =   0.0026042
        k(  189) = (   0.1250000   0.3608439   0.1532609), wk =   0.0026042
        k(  190) = (   0.1250000   0.3608439  -0.2043478), wk =   0.0026042
        k(  191) = (   0.1250000   0.4089564   0.0000000), wk =   0.0026042
        k(  192) = (   0.1250000   0.4089564   0.0510870), wk =   0.0026042
        k(  193) = (   0.1250000   0.4089564   0.1021739), wk =   0.0026042
        k(  194) = (   0.1250000   0.4089564   0.1532609), wk =   0.0026042
        k(  195) = (   0.1250000   0.4089564  -0.2043478), wk =   0.0026042
        k(  196) = (   0.1250000   0.4570690   0.0000000), wk =   0.0026042
        k(  197) = (   0.1250000   0.4570690   0.0510870), wk =   0.0026042
        k(  198) = (   0.1250000   0.4570690   0.1021739), wk =   0.0026042
        k(  199) = (   0.1250000   0.4570690   0.1532609), wk =   0.0026042
        k(  200) = (   0.1250000   0.4570690  -0.2043478), wk =   0.0026042
        k(  201) = (   0.1250000   0.5051815   0.0000000), wk =   0.0026042
        k(  202) = (   0.1250000   0.5051815   0.0510870), wk =   0.0026042
        k(  203) = (   0.1250000   0.5051815   0.1021739), wk =   0.0026042
        k(  204) = (   0.1250000   0.5051815   0.1532609), wk =   0.0026042
        k(  205) = (   0.1250000   0.5051815  -0.2043478), wk =   0.0026042
        k(  206) = (   0.1250000   0.5532940   0.0000000), wk =   0.0026042
        k(  207) = (   0.1250000   0.5532940   0.0510870), wk =   0.0026042
        k(  208) = (   0.1250000   0.5532940   0.1021739), wk =   0.0026042
        k(  209) = (   0.1250000   0.5532940   0.1532609), wk =   0.0026042
        k(  210) = (   0.1250000   0.5532940  -0.2043478), wk =   0.0026042
        k(  211) = (   0.1666667   0.2886751   0.0000000), wk =   0.0013021
        k(  212) = (   0.1666667   0.2886751   0.0510870), wk =   0.0026042
        k(  213) = (   0.1666667   0.2886751   0.1021739), wk =   0.0026042
        k(  214) = (   0.1666667   0.2886751   0.1532609), wk =   0.0026042
        k(  215) = (   0.1666667   0.2886751  -0.2043478), wk =   0.0013021
        k(  216) = (   0.1666667   0.3367877   0.0000000), wk =   0.0026042
        k(  217) = (   0.1666667   0.3367877   0.0510870), wk =   0.0026042
        k(  218) = (   0.1666667   0.3367877   0.1021739), wk =   0.0026042
        k(  219) = (   0.1666667   0.3367877   0.1532609), wk =   0.0026042
        k(  220) = (   0.1666667   0.3367877  -0.2043478), wk =   0.0026042
        k(  221) = (   0.1666667   0.3849002   0.0000000), wk =   0.0026042
        k(  222) = (   0.1666667   0.3849002   0.0510870), wk =   0.0026042
        k(  223) = (   0.1666667   0.3849002   0.1021739), wk =   0.0026042
        k(  224) = (   0.1666667   0.3849002   0.1532609), wk =   0.0026042
        k(  225) = (   0.1666667   0.3849002  -0.2043478), wk =   0.0026042
        k(  226) = (   0.1666667   0.4330127   0.0000000), wk =   0.0026042
        k(  227) = (   0.1666667   0.4330127   0.0510870), wk =   0.0026042
        k(  228) = (   0.1666667   0.4330127   0.1021739), wk =   0.0026042
        k(  229) = (   0.1666667   0.4330127   0.1532609), wk =   0.0026042
        k(  230) = (   0.1666667   0.4330127  -0.2043478), wk =   0.0026042
        k(  231) = (   0.1666667   0.4811252   0.0000000), wk =   0.0026042
        k(  232) = (   0.1666667   0.4811252   0.0510870), wk =   0.0026042
        k(  233) = (   0.1666667   0.4811252   0.1021739), wk =   0.0026042
        k(  234) = (   0.1666667   0.4811252   0.1532609), wk =   0.0026042
        k(  235) = (   0.1666667   0.4811252  -0.2043478), wk =   0.0026042
        k(  236) = (   0.1666667   0.5292377   0.0000000), wk =   0.0026042
        k(  237) = (   0.1666667   0.5292377   0.0510870), wk =   0.0026042
        k(  238) = (   0.1666667   0.5292377   0.1021739), wk =   0.0026042
        k(  239) = (   0.1666667   0.5292377   0.1532609), wk =   0.0026042
        k(  240) = (   0.1666667   0.5292377  -0.2043478), wk =   0.0026042
        k(  241) = (   0.1666667   0.5773503   0.0000000), wk =   0.0013021
        k(  242) = (   0.1666667   0.5773503   0.0510870), wk =   0.0026042
        k(  243) = (   0.1666667   0.5773503   0.1021739), wk =   0.0026042
        k(  244) = (   0.1666667   0.5773503   0.1532609), wk =   0.0026042
        k(  245) = (   0.1666667   0.5773503  -0.2043478), wk =   0.0013021
        k(  246) = (   0.2083333   0.3608439   0.0000000), wk =   0.0013021
        k(  247) = (   0.2083333   0.3608439   0.0510870), wk =   0.0026042
        k(  248) = (   0.2083333   0.3608439   0.1021739), wk =   0.0026042
        k(  249) = (   0.2083333   0.3608439   0.1532609), wk =   0.0026042
        k(  250) = (   0.2083333   0.3608439  -0.2043478), wk =   0.0013021
        k(  251) = (   0.2083333   0.4089564   0.0000000), wk =   0.0026042
        k(  252) = (   0.2083333   0.4089564   0.0510870), wk =   0.0026042
        k(  253) = (   0.2083333   0.4089564   0.1021739), wk =   0.0026042
        k(  254) = (   0.2083333   0.4089564   0.1532609), wk =   0.0026042
        k(  255) = (   0.2083333   0.4089564  -0.2043478), wk =   0.0026042
        k(  256) = (   0.2083333   0.4570690   0.0000000), wk =   0.0026042
        k(  257) = (   0.2083333   0.4570690   0.0510870), wk =   0.0026042
        k(  258) = (   0.2083333   0.4570690   0.1021739), wk =   0.0026042
        k(  259) = (   0.2083333   0.4570690   0.1532609), wk =   0.0026042
        k(  260) = (   0.2083333   0.4570690  -0.2043478), wk =   0.0026042
        k(  261) = (   0.2083333   0.5051815   0.0000000), wk =   0.0026042
        k(  262) = (   0.2083333   0.5051815   0.0510870), wk =   0.0026042
        k(  263) = (   0.2083333   0.5051815   0.1021739), wk =   0.0026042
        k(  264) = (   0.2083333   0.5051815   0.1532609), wk =   0.0026042
        k(  265) = (   0.2083333   0.5051815  -0.2043478), wk =   0.0026042
        k(  266) = (   0.2083333   0.5532940   0.0000000), wk =   0.0026042
        k(  267) = (   0.2083333   0.5532940   0.0510870), wk =   0.0026042
        k(  268) = (   0.2083333   0.5532940   0.1021739), wk =   0.0026042
        k(  269) = (   0.2083333   0.5532940   0.1532609), wk =   0.0026042
        k(  270) = (   0.2083333   0.5532940  -0.2043478), wk =   0.0026042
        k(  271) = (   0.2500000   0.4330127   0.0000000), wk =   0.0013021
        k(  272) = (   0.2500000   0.4330127   0.0510870), wk =   0.0026042
        k(  273) = (   0.2500000   0.4330127   0.1021739), wk =   0.0026042
        k(  274) = (   0.2500000   0.4330127   0.1532609), wk =   0.0026042
        k(  275) = (   0.2500000   0.4330127  -0.2043478), wk =   0.0013021
        k(  276) = (   0.2500000   0.4811252   0.0000000), wk =   0.0026042
        k(  277) = (   0.2500000   0.4811252   0.0510870), wk =   0.0026042
        k(  278) = (   0.2500000   0.4811252   0.1021739), wk =   0.0026042
        k(  279) = (   0.2500000   0.4811252   0.1532609), wk =   0.0026042
        k(  280) = (   0.2500000   0.4811252  -0.2043478), wk =   0.0026042
        k(  281) = (   0.2500000   0.5292377   0.0000000), wk =   0.0026042
        k(  282) = (   0.2500000   0.5292377   0.0510870), wk =   0.0026042
        k(  283) = (   0.2500000   0.5292377   0.1021739), wk =   0.0026042
        k(  284) = (   0.2500000   0.5292377   0.1532609), wk =   0.0026042
        k(  285) = (   0.2500000   0.5292377  -0.2043478), wk =   0.0026042
        k(  286) = (   0.2500000   0.5773503   0.0000000), wk =   0.0013021
        k(  287) = (   0.2500000   0.5773503   0.0510870), wk =   0.0026042
        k(  288) = (   0.2500000   0.5773503   0.1021739), wk =   0.0026042
        k(  289) = (   0.2500000   0.5773503   0.1532609), wk =   0.0026042
        k(  290) = (   0.2500000   0.5773503  -0.2043478), wk =   0.0013021
        k(  291) = (   0.2916667   0.5051815   0.0000000), wk =   0.0013021
        k(  292) = (   0.2916667   0.5051815   0.0510870), wk =   0.0026042
        k(  293) = (   0.2916667   0.5051815   0.1021739), wk =   0.0026042
        k(  294) = (   0.2916667   0.5051815   0.1532609), wk =   0.0026042
        k(  295) = (   0.2916667   0.5051815  -0.2043478), wk =   0.0013021
        k(  296) = (   0.2916667   0.5532940   0.0000000), wk =   0.0026042
        k(  297) = (   0.2916667   0.5532940   0.0510870), wk =   0.0026042
        k(  298) = (   0.2916667   0.5532940   0.1021739), wk =   0.0026042
        k(  299) = (   0.2916667   0.5532940   0.1532609), wk =   0.0026042
        k(  300) = (   0.2916667   0.5532940  -0.2043478), wk =   0.0026042
        k(  301) = (   0.3333333   0.5773503   0.0000000), wk =   0.0004340
        k(  302) = (   0.3333333   0.5773503   0.0510870), wk =   0.0008681
        k(  303) = (   0.3333333   0.5773503   0.1021739), wk =   0.0008681
        k(  304) = (   0.3333333   0.5773503   0.1532609), wk =   0.0008681
        k(  305) = (   0.3333333   0.5773503  -0.2043478), wk =   0.0004340
        k(  306) = (   0.0000000  -0.0481125   0.0510870), wk =   0.0013021
        k(  307) = (   0.0000000  -0.0481125   0.1021739), wk =   0.0013021
        k(  308) = (   0.0000000  -0.0481125   0.1532609), wk =   0.0013021
        k(  309) = (   0.0000000  -0.0962250   0.0510870), wk =   0.0013021
        k(  310) = (   0.0000000  -0.0962250   0.1021739), wk =   0.0013021
        k(  311) = (   0.0000000  -0.0962250   0.1532609), wk =   0.0013021
        k(  312) = (   0.0000000  -0.1443376   0.0510870), wk =   0.0013021
        k(  313) = (   0.0000000  -0.1443376   0.1021739), wk =   0.0013021
        k(  314) = (   0.0000000  -0.1443376   0.1532609), wk =   0.0013021
        k(  315) = (   0.0000000  -0.1924501   0.0510870), wk =   0.0013021
        k(  316) = (   0.0000000  -0.1924501   0.1021739), wk =   0.0013021
        k(  317) = (   0.0000000  -0.1924501   0.1532609), wk =   0.0013021
        k(  318) = (   0.0000000  -0.2405626   0.0510870), wk =   0.0013021
        k(  319) = (   0.0000000  -0.2405626   0.1021739), wk =   0.0013021
        k(  320) = (   0.0000000  -0.2405626   0.1532609), wk =   0.0013021
        k(  321) = (   0.0000000  -0.2886751   0.0510870), wk =   0.0013021
        k(  322) = (   0.0000000  -0.2886751   0.1021739), wk =   0.0013021
        k(  323) = (   0.0000000  -0.2886751   0.1532609), wk =   0.0013021
        k(  324) = (   0.0000000  -0.3367877   0.0510870), wk =   0.0013021
        k(  325) = (   0.0000000  -0.3367877   0.1021739), wk =   0.0013021
        k(  326) = (   0.0000000  -0.3367877   0.1532609), wk =   0.0013021
        k(  327) = (   0.0000000  -0.3849002   0.0510870), wk =   0.0013021
        k(  328) = (   0.0000000  -0.3849002   0.1021739), wk =   0.0013021
        k(  329) = (   0.0000000  -0.3849002   0.1532609), wk =   0.0013021
        k(  330) = (   0.0000000  -0.4330127   0.0510870), wk =   0.0013021
        k(  331) = (   0.0000000  -0.4330127   0.1021739), wk =   0.0013021
        k(  332) = (   0.0000000  -0.4330127   0.1532609), wk =   0.0013021
        k(  333) = (   0.0000000  -0.4811252   0.0510870), wk =   0.0013021
        k(  334) = (   0.0000000  -0.4811252   0.1021739), wk =   0.0013021
        k(  335) = (   0.0000000  -0.4811252   0.1532609), wk =   0.0013021
        k(  336) = (   0.0000000  -0.5292377   0.0510870), wk =   0.0013021
        k(  337) = (   0.0000000  -0.5292377   0.1021739), wk =   0.0013021
        k(  338) = (   0.0000000  -0.5292377   0.1532609), wk =   0.0013021
        k(  339) = (  -0.0416667  -0.1202813   0.0510870), wk =   0.0026042
        k(  340) = (  -0.0416667  -0.1202813   0.1021739), wk =   0.0026042
        k(  341) = (  -0.0416667  -0.1202813   0.1532609), wk =   0.0026042
        k(  342) = (  -0.0416667  -0.1683938   0.0510870), wk =   0.0026042
        k(  343) = (  -0.0416667  -0.1683938   0.1021739), wk =   0.0026042
        k(  344) = (  -0.0416667  -0.1683938   0.1532609), wk =   0.0026042
        k(  345) = (  -0.0416667  -0.2165064   0.0510870), wk =   0.0026042
        k(  346) = (  -0.0416667  -0.2165064   0.1021739), wk =   0.0026042
        k(  347) = (  -0.0416667  -0.2165064   0.1532609), wk =   0.0026042
        k(  348) = (  -0.0416667  -0.2646189   0.0510870), wk =   0.0026042
        k(  349) = (  -0.0416667  -0.2646189   0.1021739), wk =   0.0026042
        k(  350) = (  -0.0416667  -0.2646189   0.1532609), wk =   0.0026042
        k(  351) = (  -0.0416667  -0.3127314   0.0510870), wk =   0.0026042
        k(  352) = (  -0.0416667  -0.3127314   0.1021739), wk =   0.0026042
        k(  353) = (  -0.0416667  -0.3127314   0.1532609), wk =   0.0026042
        k(  354) = (  -0.0416667  -0.3608439   0.0510870), wk =   0.0026042
        k(  355) = (  -0.0416667  -0.3608439   0.1021739), wk =   0.0026042
        k(  356) = (  -0.0416667  -0.3608439   0.1532609), wk =   0.0026042
        k(  357) = (  -0.0416667  -0.4089564   0.0510870), wk =   0.0026042
        k(  358) = (  -0.0416667  -0.4089564   0.1021739), wk =   0.0026042
        k(  359) = (  -0.0416667  -0.4089564   0.1532609), wk =   0.0026042
        k(  360) = (  -0.0416667  -0.4570690   0.0510870), wk =   0.0026042
        k(  361) = (  -0.0416667  -0.4570690   0.1021739), wk =   0.0026042
        k(  362) = (  -0.0416667  -0.4570690   0.1532609), wk =   0.0026042
        k(  363) = (  -0.0416667  -0.5051815   0.0510870), wk =   0.0026042
        k(  364) = (  -0.0416667  -0.5051815   0.1021739), wk =   0.0026042
        k(  365) = (  -0.0416667  -0.5051815   0.1532609), wk =   0.0026042
        k(  366) = (  -0.0416667  -0.5532940   0.0510870), wk =   0.0026042
        k(  367) = (  -0.0416667  -0.5532940   0.1021739), wk =   0.0026042
        k(  368) = (  -0.0416667  -0.5532940   0.1532609), wk =   0.0026042
        k(  369) = (  -0.0833333  -0.1924501   0.0510870), wk =   0.0026042
        k(  370) = (  -0.0833333  -0.1924501   0.1021739), wk =   0.0026042
        k(  371) = (  -0.0833333  -0.1924501   0.1532609), wk =   0.0026042
        k(  372) = (  -0.0833333  -0.2405626   0.0510870), wk =   0.0026042
        k(  373) = (  -0.0833333  -0.2405626   0.1021739), wk =   0.0026042
        k(  374) = (  -0.0833333  -0.2405626   0.1532609), wk =   0.0026042
        k(  375) = (  -0.0833333  -0.2886751   0.0510870), wk =   0.0026042
        k(  376) = (  -0.0833333  -0.2886751   0.1021739), wk =   0.0026042
        k(  377) = (  -0.0833333  -0.2886751   0.1532609), wk =   0.0026042
        k(  378) = (  -0.0833333  -0.3367877   0.0510870), wk =   0.0026042
        k(  379) = (  -0.0833333  -0.3367877   0.1021739), wk =   0.0026042
        k(  380) = (  -0.0833333  -0.3367877   0.1532609), wk =   0.0026042
        k(  381) = (  -0.0833333  -0.3849002   0.0510870), wk =   0.0026042
        k(  382) = (  -0.0833333  -0.3849002   0.1021739), wk =   0.0026042
        k(  383) = (  -0.0833333  -0.3849002   0.1532609), wk =   0.0026042
        k(  384) = (  -0.0833333  -0.4330127   0.0510870), wk =   0.0026042
        k(  385) = (  -0.0833333  -0.4330127   0.1021739), wk =   0.0026042
        k(  386) = (  -0.0833333  -0.4330127   0.1532609), wk =   0.0026042
        k(  387) = (  -0.0833333  -0.4811252   0.0510870), wk =   0.0026042
        k(  388) = (  -0.0833333  -0.4811252   0.1021739), wk =   0.0026042
        k(  389) = (  -0.0833333  -0.4811252   0.1532609), wk =   0.0026042
        k(  390) = (  -0.0833333  -0.5292377   0.0510870), wk =   0.0026042
        k(  391) = (  -0.0833333  -0.5292377   0.1021739), wk =   0.0026042
        k(  392) = (  -0.0833333  -0.5292377   0.1532609), wk =   0.0026042
        k(  393) = (  -0.1250000  -0.2646189   0.0510870), wk =   0.0026042
        k(  394) = (  -0.1250000  -0.2646189   0.1021739), wk =   0.0026042
        k(  395) = (  -0.1250000  -0.2646189   0.1532609), wk =   0.0026042
        k(  396) = (  -0.1250000  -0.3127314   0.0510870), wk =   0.0026042
        k(  397) = (  -0.1250000  -0.3127314   0.1021739), wk =   0.0026042
        k(  398) = (  -0.1250000  -0.3127314   0.1532609), wk =   0.0026042
        k(  399) = (  -0.1250000  -0.3608439   0.0510870), wk =   0.0026042
        k(  400) = (  -0.1250000  -0.3608439   0.1021739), wk =   0.0026042
        k(  401) = (  -0.1250000  -0.3608439   0.1532609), wk =   0.0026042
        k(  402) = (  -0.1250000  -0.4089564   0.0510870), wk =   0.0026042
        k(  403) = (  -0.1250000  -0.4089564   0.1021739), wk =   0.0026042
        k(  404) = (  -0.1250000  -0.4089564   0.1532609), wk =   0.0026042
        k(  405) = (  -0.1250000  -0.4570690   0.0510870), wk =   0.0026042
        k(  406) = (  -0.1250000  -0.4570690   0.1021739), wk =   0.0026042
        k(  407) = (  -0.1250000  -0.4570690   0.1532609), wk =   0.0026042
        k(  408) = (  -0.1250000  -0.5051815   0.0510870), wk =   0.0026042
        k(  409) = (  -0.1250000  -0.5051815   0.1021739), wk =   0.0026042
        k(  410) = (  -0.1250000  -0.5051815   0.1532609), wk =   0.0026042
        k(  411) = (  -0.1250000  -0.5532940   0.0510870), wk =   0.0026042
        k(  412) = (  -0.1250000  -0.5532940   0.1021739), wk =   0.0026042
        k(  413) = (  -0.1250000  -0.5532940   0.1532609), wk =   0.0026042
        k(  414) = (  -0.1666667  -0.3367877   0.0510870), wk =   0.0026042
        k(  415) = (  -0.1666667  -0.3367877   0.1021739), wk =   0.0026042
        k(  416) = (  -0.1666667  -0.3367877   0.1532609), wk =   0.0026042
        k(  417) = (  -0.1666667  -0.3849002   0.0510870), wk =   0.0026042
        k(  418) = (  -0.1666667  -0.3849002   0.1021739), wk =   0.0026042
        k(  419) = (  -0.1666667  -0.3849002   0.1532609), wk =   0.0026042
        k(  420) = (  -0.1666667  -0.4330127   0.0510870), wk =   0.0026042
        k(  421) = (  -0.1666667  -0.4330127   0.1021739), wk =   0.0026042
        k(  422) = (  -0.1666667  -0.4330127   0.1532609), wk =   0.0026042
        k(  423) = (  -0.1666667  -0.4811252   0.0510870), wk =   0.0026042
        k(  424) = (  -0.1666667  -0.4811252   0.1021739), wk =   0.0026042
        k(  425) = (  -0.1666667  -0.4811252   0.1532609), wk =   0.0026042
        k(  426) = (  -0.1666667  -0.5292377   0.0510870), wk =   0.0026042
        k(  427) = (  -0.1666667  -0.5292377   0.1021739), wk =   0.0026042
        k(  428) = (  -0.1666667  -0.5292377   0.1532609), wk =   0.0026042
        k(  429) = (  -0.2083333  -0.4089564   0.0510870), wk =   0.0026042
        k(  430) = (  -0.2083333  -0.4089564   0.1021739), wk =   0.0026042
        k(  431) = (  -0.2083333  -0.4089564   0.1532609), wk =   0.0026042
        k(  432) = (  -0.2083333  -0.4570690   0.0510870), wk =   0.0026042
        k(  433) = (  -0.2083333  -0.4570690   0.1021739), wk =   0.0026042
        k(  434) = (  -0.2083333  -0.4570690   0.1532609), wk =   0.0026042
        k(  435) = (  -0.2083333  -0.5051815   0.0510870), wk =   0.0026042
        k(  436) = (  -0.2083333  -0.5051815   0.1021739), wk =   0.0026042
        k(  437) = (  -0.2083333  -0.5051815   0.1532609), wk =   0.0026042
        k(  438) = (  -0.2083333  -0.5532940   0.0510870), wk =   0.0026042
        k(  439) = (  -0.2083333  -0.5532940   0.1021739), wk =   0.0026042
        k(  440) = (  -0.2083333  -0.5532940   0.1532609), wk =   0.0026042
        k(  441) = (  -0.2500000  -0.4811252   0.0510870), wk =   0.0026042
        k(  442) = (  -0.2500000  -0.4811252   0.1021739), wk =   0.0026042
        k(  443) = (  -0.2500000  -0.4811252   0.1532609), wk =   0.0026042
        k(  444) = (  -0.2500000  -0.5292377   0.0510870), wk =   0.0026042
        k(  445) = (  -0.2500000  -0.5292377   0.1021739), wk =   0.0026042
        k(  446) = (  -0.2500000  -0.5292377   0.1532609), wk =   0.0026042
        k(  447) = (  -0.2916667  -0.5532940   0.0510870), wk =   0.0026042
        k(  448) = (  -0.2916667  -0.5532940   0.1021739), wk =   0.0026042
        k(  449) = (  -0.2916667  -0.5532940   0.1532609), wk =   0.0026042

                       cryst. coord.
        k(    1) = (   0.0000000   0.0000000   0.0000000), wk =   0.0002170
        k(    2) = (   0.0000000   0.0000000   0.1250000), wk =   0.0004340
        k(    3) = (   0.0000000   0.0000000   0.2500000), wk =   0.0004340
        k(    4) = (   0.0000000   0.0000000   0.3750000), wk =   0.0004340
        k(    5) = (   0.0000000   0.0000000  -0.5000000), wk =   0.0002170
        k(    6) = (   0.0000000   0.0416667   0.0000000), wk =   0.0013021
        k(    7) = (   0.0000000   0.0416667   0.1250000), wk =   0.0013021
        k(    8) = (   0.0000000   0.0416667   0.2500000), wk =   0.0013021
        k(    9) = (   0.0000000   0.0416667   0.3750000), wk =   0.0013021
        k(   10) = (   0.0000000   0.0416667  -0.5000000), wk =   0.0013021
        k(   11) = (   0.0000000   0.0833333   0.0000000), wk =   0.0013021
        k(   12) = (   0.0000000   0.0833333   0.1250000), wk =   0.0013021
        k(   13) = (   0.0000000   0.0833333   0.2500000), wk =   0.0013021
        k(   14) = (   0.0000000   0.0833333   0.3750000), wk =   0.0013021
        k(   15) = (   0.0000000   0.0833333  -0.5000000), wk =   0.0013021
        k(   16) = (   0.0000000   0.1250000   0.0000000), wk =   0.0013021
        k(   17) = (   0.0000000   0.1250000   0.1250000), wk =   0.0013021
        k(   18) = (   0.0000000   0.1250000   0.2500000), wk =   0.0013021
        k(   19) = (   0.0000000   0.1250000   0.3750000), wk =   0.0013021
        k(   20) = (   0.0000000   0.1250000  -0.5000000), wk =   0.0013021
        k(   21) = (   0.0000000   0.1666667   0.0000000), wk =   0.0013021
        k(   22) = (   0.0000000   0.1666667   0.1250000), wk =   0.0013021
        k(   23) = (   0.0000000   0.1666667   0.2500000), wk =   0.0013021
        k(   24) = (   0.0000000   0.1666667   0.3750000), wk =   0.0013021
        k(   25) = (   0.0000000   0.1666667  -0.5000000), wk =   0.0013021
        k(   26) = (   0.0000000   0.2083333   0.0000000), wk =   0.0013021
        k(   27) = (   0.0000000   0.2083333   0.1250000), wk =   0.0013021
        k(   28) = (   0.0000000   0.2083333   0.2500000), wk =   0.0013021
        k(   29) = (   0.0000000   0.2083333   0.3750000), wk =   0.0013021
        k(   30) = (   0.0000000   0.2083333  -0.5000000), wk =   0.0013021
        k(   31) = (   0.0000000   0.2500000   0.0000000), wk =   0.0013021
        k(   32) = (   0.0000000   0.2500000   0.1250000), wk =   0.0013021
        k(   33) = (   0.0000000   0.2500000   0.2500000), wk =   0.0013021
        k(   34) = (   0.0000000   0.2500000   0.3750000), wk =   0.0013021
        k(   35) = (   0.0000000   0.2500000  -0.5000000), wk =   0.0013021
        k(   36) = (   0.0000000   0.2916667   0.0000000), wk =   0.0013021
        k(   37) = (   0.0000000   0.2916667   0.1250000), wk =   0.0013021
        k(   38) = (   0.0000000   0.2916667   0.2500000), wk =   0.0013021
        k(   39) = (   0.0000000   0.2916667   0.3750000), wk =   0.0013021
        k(   40) = (   0.0000000   0.2916667  -0.5000000), wk =   0.0013021
        k(   41) = (   0.0000000   0.3333333   0.0000000), wk =   0.0013021
        k(   42) = (   0.0000000   0.3333333   0.1250000), wk =   0.0013021
        k(   43) = (   0.0000000   0.3333333   0.2500000), wk =   0.0013021
        k(   44) = (   0.0000000   0.3333333   0.3750000), wk =   0.0013021
        k(   45) = (   0.0000000   0.3333333  -0.5000000), wk =   0.0013021
        k(   46) = (   0.0000000   0.3750000   0.0000000), wk =   0.0013021
        k(   47) = (   0.0000000   0.3750000   0.1250000), wk =   0.0013021
        k(   48) = (   0.0000000   0.3750000   0.2500000), wk =   0.0013021
        k(   49) = (   0.0000000   0.3750000   0.3750000), wk =   0.0013021
        k(   50) = (   0.0000000   0.3750000  -0.5000000), wk =   0.0013021
        k(   51) = (   0.0000000   0.4166667   0.0000000), wk =   0.0013021
        k(   52) = (   0.0000000   0.4166667   0.1250000), wk =   0.0013021
        k(   53) = (   0.0000000   0.4166667   0.2500000), wk =   0.0013021
        k(   54) = (   0.0000000   0.4166667   0.3750000), wk =   0.0013021
        k(   55) = (   0.0000000   0.4166667  -0.5000000), wk =   0.0013021
        k(   56) = (   0.0000000   0.4583333   0.0000000), wk =   0.0013021
        k(   57) = (   0.0000000   0.4583333   0.1250000), wk =   0.0013021
        k(   58) = (   0.0000000   0.4583333   0.2500000), wk =   0.0013021
        k(   59) = (   0.0000000   0.4583333   0.3750000), wk =   0.0013021
        k(   60) = (   0.0000000   0.4583333  -0.5000000), wk =   0.0013021
        k(   61) = (   0.0000000  -0.5000000   0.0000000), wk =   0.0006510
        k(   62) = (   0.0000000  -0.5000000   0.1250000), wk =   0.0013021
        k(   63) = (   0.0000000  -0.5000000   0.2500000), wk =   0.0013021
        k(   64) = (   0.0000000  -0.5000000   0.3750000), wk =   0.0013021
        k(   65) = (   0.0000000  -0.5000000  -0.5000000), wk =   0.0006510
        k(   66) = (   0.0416667   0.0416667   0.0000000), wk =   0.0013021
        k(   67) = (   0.0416667   0.0416667   0.1250000), wk =   0.0026042
        k(   68) = (   0.0416667   0.0416667   0.2500000), wk =   0.0026042
        k(   69) = (   0.0416667   0.0416667   0.3750000), wk =   0.0026042
        k(   70) = (   0.0416667   0.0416667  -0.5000000), wk =   0.0013021
        k(   71) = (   0.0416667   0.0833333   0.0000000), wk =   0.0026042
        k(   72) = (   0.0416667   0.0833333   0.1250000), wk =   0.0026042
        k(   73) = (   0.0416667   0.0833333   0.2500000), wk =   0.0026042
        k(   74) = (   0.0416667   0.0833333   0.3750000), wk =   0.0026042
        k(   75) = (   0.0416667   0.0833333  -0.5000000), wk =   0.0026042
        k(   76) = (   0.0416667   0.1250000   0.0000000), wk =   0.0026042
        k(   77) = (   0.0416667   0.1250000   0.1250000), wk =   0.0026042
        k(   78) = (   0.0416667   0.1250000   0.2500000), wk =   0.0026042
        k(   79) = (   0.0416667   0.1250000   0.3750000), wk =   0.0026042
        k(   80) = (   0.0416667   0.1250000  -0.5000000), wk =   0.0026042
        k(   81) = (   0.0416667   0.1666667   0.0000000), wk =   0.0026042
        k(   82) = (   0.0416667   0.1666667   0.1250000), wk =   0.0026042
        k(   83) = (   0.0416667   0.1666667   0.2500000), wk =   0.0026042
        k(   84) = (   0.0416667   0.1666667   0.3750000), wk =   0.0026042
        k(   85) = (   0.0416667   0.1666667  -0.5000000), wk =   0.0026042
        k(   86) = (   0.0416667   0.2083333   0.0000000), wk =   0.0026042
        k(   87) = (   0.0416667   0.2083333   0.1250000), wk =   0.0026042
        k(   88) = (   0.0416667   0.2083333   0.2500000), wk =   0.0026042
        k(   89) = (   0.0416667   0.2083333   0.3750000), wk =   0.0026042
        k(   90) = (   0.0416667   0.2083333  -0.5000000), wk =   0.0026042
        k(   91) = (   0.0416667   0.2500000   0.0000000), wk =   0.0026042
        k(   92) = (   0.0416667   0.2500000   0.1250000), wk =   0.0026042
        k(   93) = (   0.0416667   0.2500000   0.2500000), wk =   0.0026042
        k(   94) = (   0.0416667   0.2500000   0.3750000), wk =   0.0026042
        k(   95) = (   0.0416667   0.2500000  -0.5000000), wk =   0.0026042
        k(   96) = (   0.0416667   0.2916667   0.0000000), wk =   0.0026042
        k(   97) = (   0.0416667   0.2916667   0.1250000), wk =   0.0026042
        k(   98) = (   0.0416667   0.2916667   0.2500000), wk =   0.0026042
        k(   99) = (   0.0416667   0.2916667   0.3750000), wk =   0.0026042
        k(  100) = (   0.0416667   0.2916667  -0.5000000), wk =   0.0026042
        k(  101) = (   0.0416667   0.3333333   0.0000000), wk =   0.0026042
        k(  102) = (   0.0416667   0.3333333   0.1250000), wk =   0.0026042
        k(  103) = (   0.0416667   0.3333333   0.2500000), wk =   0.0026042
        k(  104) = (   0.0416667   0.3333333   0.3750000), wk =   0.0026042
        k(  105) = (   0.0416667   0.3333333  -0.5000000), wk =   0.0026042
        k(  106) = (   0.0416667   0.3750000   0.0000000), wk =   0.0026042
        k(  107) = (   0.0416667   0.3750000   0.1250000), wk =   0.0026042
        k(  108) = (   0.0416667   0.3750000   0.2500000), wk =   0.0026042
        k(  109) = (   0.0416667   0.3750000   0.3750000), wk =   0.0026042
        k(  110) = (   0.0416667   0.3750000  -0.5000000), wk =   0.0026042
        k(  111) = (   0.0416667   0.4166667   0.0000000), wk =   0.0026042
        k(  112) = (   0.0416667   0.4166667   0.1250000), wk =   0.0026042
        k(  113) = (   0.0416667   0.4166667   0.2500000), wk =   0.0026042
        k(  114) = (   0.0416667   0.4166667   0.3750000), wk =   0.0026042
        k(  115) = (   0.0416667   0.4166667  -0.5000000), wk =   0.0026042
        k(  116) = (   0.0416667   0.4583333   0.0000000), wk =   0.0026042
        k(  117) = (   0.0416667   0.4583333   0.1250000), wk =   0.0026042
        k(  118) = (   0.0416667   0.4583333   0.2500000), wk =   0.0026042
        k(  119) = (   0.0416667   0.4583333   0.3750000), wk =   0.0026042
        k(  120) = (   0.0416667   0.4583333  -0.5000000), wk =   0.0026042
        k(  121) = (   0.0833333   0.0833333   0.0000000), wk =   0.0013021
        k(  122) = (   0.0833333   0.0833333   0.1250000), wk =   0.0026042
        k(  123) = (   0.0833333   0.0833333   0.2500000), wk =   0.0026042
        k(  124) = (   0.0833333   0.0833333   0.3750000), wk =   0.0026042
        k(  125) = (   0.0833333   0.0833333  -0.5000000), wk =   0.0013021
        k(  126) = (   0.0833333   0.1250000   0.0000000), wk =   0.0026042
        k(  127) = (   0.0833333   0.1250000   0.1250000), wk =   0.0026042
        k(  128) = (   0.0833333   0.1250000   0.2500000), wk =   0.0026042
        k(  129) = (   0.0833333   0.1250000   0.3750000), wk =   0.0026042
        k(  130) = (   0.0833333   0.1250000  -0.5000000), wk =   0.0026042
        k(  131) = (   0.0833333   0.1666667   0.0000000), wk =   0.0026042
        k(  132) = (   0.0833333   0.1666667   0.1250000), wk =   0.0026042
        k(  133) = (   0.0833333   0.1666667   0.2500000), wk =   0.0026042
        k(  134) = (   0.0833333   0.1666667   0.3750000), wk =   0.0026042
        k(  135) = (   0.0833333   0.1666667  -0.5000000), wk =   0.0026042
        k(  136) = (   0.0833333   0.2083333   0.0000000), wk =   0.0026042
        k(  137) = (   0.0833333   0.2083333   0.1250000), wk =   0.0026042
        k(  138) = (   0.0833333   0.2083333   0.2500000), wk =   0.0026042
        k(  139) = (   0.0833333   0.2083333   0.3750000), wk =   0.0026042
        k(  140) = (   0.0833333   0.2083333  -0.5000000), wk =   0.0026042
        k(  141) = (   0.0833333   0.2500000   0.0000000), wk =   0.0026042
        k(  142) = (   0.0833333   0.2500000   0.1250000), wk =   0.0026042
        k(  143) = (   0.0833333   0.2500000   0.2500000), wk =   0.0026042
        k(  144) = (   0.0833333   0.2500000   0.3750000), wk =   0.0026042
        k(  145) = (   0.0833333   0.2500000  -0.5000000), wk =   0.0026042
        k(  146) = (   0.0833333   0.2916667   0.0000000), wk =   0.0026042
        k(  147) = (   0.0833333   0.2916667   0.1250000), wk =   0.0026042
        k(  148) = (   0.0833333   0.2916667   0.2500000), wk =   0.0026042
        k(  149) = (   0.0833333   0.2916667   0.3750000), wk =   0.0026042
        k(  150) = (   0.0833333   0.2916667  -0.5000000), wk =   0.0026042
        k(  151) = (   0.0833333   0.3333333   0.0000000), wk =   0.0026042
        k(  152) = (   0.0833333   0.3333333   0.1250000), wk =   0.0026042
        k(  153) = (   0.0833333   0.3333333   0.2500000), wk =   0.0026042
        k(  154) = (   0.0833333   0.3333333   0.3750000), wk =   0.0026042
        k(  155) = (   0.0833333   0.3333333  -0.5000000), wk =   0.0026042
        k(  156) = (   0.0833333   0.3750000   0.0000000), wk =   0.0026042
        k(  157) = (   0.0833333   0.3750000   0.1250000), wk =   0.0026042
        k(  158) = (   0.0833333   0.3750000   0.2500000), wk =   0.0026042
        k(  159) = (   0.0833333   0.3750000   0.3750000), wk =   0.0026042
        k(  160) = (   0.0833333   0.3750000  -0.5000000), wk =   0.0026042
        k(  161) = (   0.0833333   0.4166667   0.0000000), wk =   0.0026042
        k(  162) = (   0.0833333   0.4166667   0.1250000), wk =   0.0026042
        k(  163) = (   0.0833333   0.4166667   0.2500000), wk =   0.0026042
        k(  164) = (   0.0833333   0.4166667   0.3750000), wk =   0.0026042
        k(  165) = (   0.0833333   0.4166667  -0.5000000), wk =   0.0026042
        k(  166) = (   0.0833333   0.4583333   0.0000000), wk =   0.0013021
        k(  167) = (   0.0833333   0.4583333   0.1250000), wk =   0.0026042
        k(  168) = (   0.0833333   0.4583333   0.2500000), wk =   0.0026042
        k(  169) = (   0.0833333   0.4583333   0.3750000), wk =   0.0026042
        k(  170) = (   0.0833333   0.4583333  -0.5000000), wk =   0.0013021
        k(  171) = (   0.1250000   0.1250000   0.0000000), wk =   0.0013021
        k(  172) = (   0.1250000   0.1250000   0.1250000), wk =   0.0026042
        k(  173) = (   0.1250000   0.1250000   0.2500000), wk =   0.0026042
        k(  174) = (   0.1250000   0.1250000   0.3750000), wk =   0.0026042
        k(  175) = (   0.1250000   0.1250000  -0.5000000), wk =   0.0013021
        k(  176) = (   0.1250000   0.1666667   0.0000000), wk =   0.0026042
        k(  177) = (   0.1250000   0.1666667   0.1250000), wk =   0.0026042
        k(  178) = (   0.1250000   0.1666667   0.2500000), wk =   0.0026042
        k(  179) = (   0.1250000   0.1666667   0.3750000), wk =   0.0026042
        k(  180) = (   0.1250000   0.1666667  -0.5000000), wk =   0.0026042
        k(  181) = (   0.1250000   0.2083333   0.0000000), wk =   0.0026042
        k(  182) = (   0.1250000   0.2083333   0.1250000), wk =   0.0026042
        k(  183) = (   0.1250000   0.2083333   0.2500000), wk =   0.0026042
        k(  184) = (   0.1250000   0.2083333   0.3750000), wk =   0.0026042
        k(  185) = (   0.1250000   0.2083333  -0.5000000), wk =   0.0026042
        k(  186) = (   0.1250000   0.2500000   0.0000000), wk =   0.0026042
        k(  187) = (   0.1250000   0.2500000   0.1250000), wk =   0.0026042
        k(  188) = (   0.1250000   0.2500000   0.2500000), wk =   0.0026042
        k(  189) = (   0.1250000   0.2500000   0.3750000), wk =   0.0026042
        k(  190) = (   0.1250000   0.2500000  -0.5000000), wk =   0.0026042
        k(  191) = (   0.1250000   0.2916667   0.0000000), wk =   0.0026042
        k(  192) = (   0.1250000   0.2916667   0.1250000), wk =   0.0026042
        k(  193) = (   0.1250000   0.2916667   0.2500000), wk =   0.0026042
        k(  194) = (   0.1250000   0.2916667   0.3750000), wk =   0.0026042
        k(  195) = (   0.1250000   0.2916667  -0.5000000), wk =   0.0026042
        k(  196) = (   0.1250000   0.3333333   0.0000000), wk =   0.0026042
        k(  197) = (   0.1250000   0.3333333   0.1250000), wk =   0.0026042
        k(  198) = (   0.1250000   0.3333333   0.2500000), wk =   0.0026042
        k(  199) = (   0.1250000   0.3333333   0.3750000), wk =   0.0026042
        k(  200) = (   0.1250000   0.3333333  -0.5000000), wk =   0.0026042
        k(  201) = (   0.1250000   0.3750000   0.0000000), wk =   0.0026042
        k(  202) = (   0.1250000   0.3750000   0.1250000), wk =   0.0026042
        k(  203) = (   0.1250000   0.3750000   0.2500000), wk =   0.0026042
        k(  204) = (   0.1250000   0.3750000   0.3750000), wk =   0.0026042
        k(  205) = (   0.1250000   0.3750000  -0.5000000), wk =   0.0026042
        k(  206) = (   0.1250000   0.4166667   0.0000000), wk =   0.0026042
        k(  207) = (   0.1250000   0.4166667   0.1250000), wk =   0.0026042
        k(  208) = (   0.1250000   0.4166667   0.2500000), wk =   0.0026042
        k(  209) = (   0.1250000   0.4166667   0.3750000), wk =   0.0026042
        k(  210) = (   0.1250000   0.4166667  -0.5000000), wk =   0.0026042
        k(  211) = (   0.1666667   0.1666667   0.0000000), wk =   0.0013021
        k(  212) = (   0.1666667   0.1666667   0.1250000), wk =   0.0026042
        k(  213) = (   0.1666667   0.1666667   0.2500000), wk =   0.0026042
        k(  214) = (   0.1666667   0.1666667   0.3750000), wk =   0.0026042
        k(  215) = (   0.1666667   0.1666667  -0.5000000), wk =   0.0013021
        k(  216) = (   0.1666667   0.2083333   0.0000000), wk =   0.0026042
        k(  217) = (   0.1666667   0.2083333   0.1250000), wk =   0.0026042
        k(  218) = (   0.1666667   0.2083333   0.2500000), wk =   0.0026042
        k(  219) = (   0.1666667   0.2083333   0.3750000), wk =   0.0026042
        k(  220) = (   0.1666667   0.2083333  -0.5000000), wk =   0.0026042
        k(  221) = (   0.1666667   0.2500000   0.0000000), wk =   0.0026042
        k(  222) = (   0.1666667   0.2500000   0.1250000), wk =   0.0026042
        k(  223) = (   0.1666667   0.2500000   0.2500000), wk =   0.0026042
        k(  224) = (   0.1666667   0.2500000   0.3750000), wk =   0.0026042
        k(  225) = (   0.1666667   0.2500000  -0.5000000), wk =   0.0026042
        k(  226) = (   0.1666667   0.2916667   0.0000000), wk =   0.0026042
        k(  227) = (   0.1666667   0.2916667   0.1250000), wk =   0.0026042
        k(  228) = (   0.1666667   0.2916667   0.2500000), wk =   0.0026042
        k(  229) = (   0.1666667   0.2916667   0.3750000), wk =   0.0026042
        k(  230) = (   0.1666667   0.2916667  -0.5000000), wk =   0.0026042
        k(  231) = (   0.1666667   0.3333333   0.0000000), wk =   0.0026042
        k(  232) = (   0.1666667   0.3333333   0.1250000), wk =   0.0026042
        k(  233) = (   0.1666667   0.3333333   0.2500000), wk =   0.0026042
        k(  234) = (   0.1666667   0.3333333   0.3750000), wk =   0.0026042
        k(  235) = (   0.1666667   0.3333333  -0.5000000), wk =   0.0026042
        k(  236) = (   0.1666667   0.3750000   0.0000000), wk =   0.0026042
        k(  237) = (   0.1666667   0.3750000   0.1250000), wk =   0.0026042
        k(  238) = (   0.1666667   0.3750000   0.2500000), wk =   0.0026042
        k(  239) = (   0.1666667   0.3750000   0.3750000), wk =   0.0026042
        k(  240) = (   0.1666667   0.3750000  -0.5000000), wk =   0.0026042
        k(  241) = (   0.1666667   0.4166667   0.0000000), wk =   0.0013021
        k(  242) = (   0.1666667   0.4166667   0.1250000), wk =   0.0026042
        k(  243) = (   0.1666667   0.4166667   0.2500000), wk =   0.0026042
        k(  244) = (   0.1666667   0.4166667   0.3750000), wk =   0.0026042
        k(  245) = (   0.1666667   0.4166667  -0.5000000), wk =   0.0013021
        k(  246) = (   0.2083333   0.2083333   0.0000000), wk =   0.0013021
        k(  247) = (   0.2083333   0.2083333   0.1250000), wk =   0.0026042
        k(  248) = (   0.2083333   0.2083333   0.2500000), wk =   0.0026042
        k(  249) = (   0.2083333   0.2083333   0.3750000), wk =   0.0026042
        k(  250) = (   0.2083333   0.2083333  -0.5000000), wk =   0.0013021
        k(  251) = (   0.2083333   0.2500000   0.0000000), wk =   0.0026042
        k(  252) = (   0.2083333   0.2500000   0.1250000), wk =   0.0026042
        k(  253) = (   0.2083333   0.2500000   0.2500000), wk =   0.0026042
        k(  254) = (   0.2083333   0.2500000   0.3750000), wk =   0.0026042
        k(  255) = (   0.2083333   0.2500000  -0.5000000), wk =   0.0026042
        k(  256) = (   0.2083333   0.2916667   0.0000000), wk =   0.0026042
        k(  257) = (   0.2083333   0.2916667   0.1250000), wk =   0.0026042
        k(  258) = (   0.2083333   0.2916667   0.2500000), wk =   0.0026042
        k(  259) = (   0.2083333   0.2916667   0.3750000), wk =   0.0026042
        k(  260) = (   0.2083333   0.2916667  -0.5000000), wk =   0.0026042
        k(  261) = (   0.2083333   0.3333333   0.0000000), wk =   0.0026042
        k(  262) = (   0.2083333   0.3333333   0.1250000), wk =   0.0026042
        k(  263) = (   0.2083333   0.3333333   0.2500000), wk =   0.0026042
        k(  264) = (   0.2083333   0.3333333   0.3750000), wk =   0.0026042
        k(  265) = (   0.2083333   0.3333333  -0.5000000), wk =   0.0026042
        k(  266) = (   0.2083333   0.3750000   0.0000000), wk =   0.0026042
        k(  267) = (   0.2083333   0.3750000   0.1250000), wk =   0.0026042
        k(  268) = (   0.2083333   0.3750000   0.2500000), wk =   0.0026042
        k(  269) = (   0.2083333   0.3750000   0.3750000), wk =   0.0026042
        k(  270) = (   0.2083333   0.3750000  -0.5000000), wk =   0.0026042
        k(  271) = (   0.2500000   0.2500000   0.0000000), wk =   0.0013021
        k(  272) = (   0.2500000   0.2500000   0.1250000), wk =   0.0026042
        k(  273) = (   0.2500000   0.2500000   0.2500000), wk =   0.0026042
        k(  274) = (   0.2500000   0.2500000   0.3750000), wk =   0.0026042
        k(  275) = (   0.2500000   0.2500000  -0.5000000), wk =   0.0013021
        k(  276) = (   0.2500000   0.2916667   0.0000000), wk =   0.0026042
        k(  277) = (   0.2500000   0.2916667   0.1250000), wk =   0.0026042
        k(  278) = (   0.2500000   0.2916667   0.2500000), wk =   0.0026042
        k(  279) = (   0.2500000   0.2916667   0.3750000), wk =   0.0026042
        k(  280) = (   0.2500000   0.2916667  -0.5000000), wk =   0.0026042
        k(  281) = (   0.2500000   0.3333333   0.0000000), wk =   0.0026042
        k(  282) = (   0.2500000   0.3333333   0.1250000), wk =   0.0026042
        k(  283) = (   0.2500000   0.3333333   0.2500000), wk =   0.0026042
        k(  284) = (   0.2500000   0.3333333   0.3750000), wk =   0.0026042
        k(  285) = (   0.2500000   0.3333333  -0.5000000), wk =   0.0026042
        k(  286) = (   0.2500000   0.3750000   0.0000000), wk =   0.0013021
        k(  287) = (   0.2500000   0.3750000   0.1250000), wk =   0.0026042
        k(  288) = (   0.2500000   0.3750000   0.2500000), wk =   0.0026042
        k(  289) = (   0.2500000   0.3750000   0.3750000), wk =   0.0026042
        k(  290) = (   0.2500000   0.3750000  -0.5000000), wk =   0.0013021
        k(  291) = (   0.2916667   0.2916667   0.0000000), wk =   0.0013021
        k(  292) = (   0.2916667   0.2916667   0.1250000), wk =   0.0026042
        k(  293) = (   0.2916667   0.2916667   0.2500000), wk =   0.0026042
        k(  294) = (   0.2916667   0.2916667   0.3750000), wk =   0.0026042
        k(  295) = (   0.2916667   0.2916667  -0.5000000), wk =   0.0013021
        k(  296) = (   0.2916667   0.3333333   0.0000000), wk =   0.0026042
        k(  297) = (   0.2916667   0.3333333   0.1250000), wk =   0.0026042
        k(  298) = (   0.2916667   0.3333333   0.2500000), wk =   0.0026042
        k(  299) = (   0.2916667   0.3333333   0.3750000), wk =   0.0026042
        k(  300) = (   0.2916667   0.3333333  -0.5000000), wk =   0.0026042
        k(  301) = (   0.3333333   0.3333333   0.0000000), wk =   0.0004340
        k(  302) = (   0.3333333   0.3333333   0.1250000), wk =   0.0008681
        k(  303) = (   0.3333333   0.3333333   0.2500000), wk =   0.0008681
        k(  304) = (   0.3333333   0.3333333   0.3750000), wk =   0.0008681
        k(  305) = (   0.3333333   0.3333333  -0.5000000), wk =   0.0004340
        k(  306) = (   0.0000000  -0.0416667   0.1250000), wk =   0.0013021
        k(  307) = (   0.0000000  -0.0416667   0.2500000), wk =   0.0013021
        k(  308) = (   0.0000000  -0.0416667   0.3750000), wk =   0.0013021
        k(  309) = (   0.0000000  -0.0833333   0.1250000), wk =   0.0013021
        k(  310) = (   0.0000000  -0.0833333   0.2500000), wk =   0.0013021
        k(  311) = (   0.0000000  -0.0833333   0.3750000), wk =   0.0013021
        k(  312) = (   0.0000000  -0.1250000   0.1250000), wk =   0.0013021
        k(  313) = (   0.0000000  -0.1250000   0.2500000), wk =   0.0013021
        k(  314) = (   0.0000000  -0.1250000   0.3750000), wk =   0.0013021
        k(  315) = (   0.0000000  -0.1666667   0.1250000), wk =   0.0013021
        k(  316) = (   0.0000000  -0.1666667   0.2500000), wk =   0.0013021
        k(  317) = (   0.0000000  -0.1666667   0.3750000), wk =   0.0013021
        k(  318) = (   0.0000000  -0.2083333   0.1250000), wk =   0.0013021
        k(  319) = (   0.0000000  -0.2083333   0.2500000), wk =   0.0013021
        k(  320) = (   0.0000000  -0.2083333   0.3750000), wk =   0.0013021
        k(  321) = (   0.0000000  -0.2500000   0.1250000), wk =   0.0013021
        k(  322) = (   0.0000000  -0.2500000   0.2500000), wk =   0.0013021
        k(  323) = (   0.0000000  -0.2500000   0.3750000), wk =   0.0013021
        k(  324) = (   0.0000000  -0.2916667   0.1250000), wk =   0.0013021
        k(  325) = (   0.0000000  -0.2916667   0.2500000), wk =   0.0013021
        k(  326) = (   0.0000000  -0.2916667   0.3750000), wk =   0.0013021
        k(  327) = (   0.0000000  -0.3333333   0.1250000), wk =   0.0013021
        k(  328) = (   0.0000000  -0.3333333   0.2500000), wk =   0.0013021
        k(  329) = (   0.0000000  -0.3333333   0.3750000), wk =   0.0013021
        k(  330) = (   0.0000000  -0.3750000   0.1250000), wk =   0.0013021
        k(  331) = (   0.0000000  -0.3750000   0.2500000), wk =   0.0013021
        k(  332) = (   0.0000000  -0.3750000   0.3750000), wk =   0.0013021
        k(  333) = (   0.0000000  -0.4166667   0.1250000), wk =   0.0013021
        k(  334) = (   0.0000000  -0.4166667   0.2500000), wk =   0.0013021
        k(  335) = (   0.0000000  -0.4166667   0.3750000), wk =   0.0013021
        k(  336) = (   0.0000000  -0.4583333   0.1250000), wk =   0.0013021
        k(  337) = (   0.0000000  -0.4583333   0.2500000), wk =   0.0013021
        k(  338) = (   0.0000000  -0.4583333   0.3750000), wk =   0.0013021
        k(  339) = (  -0.0416667  -0.0833333   0.1250000), wk =   0.0026042
        k(  340) = (  -0.0416667  -0.0833333   0.2500000), wk =   0.0026042
        k(  341) = (  -0.0416667  -0.0833333   0.3750000), wk =   0.0026042
        k(  342) = (  -0.0416667  -0.1250000   0.1250000), wk =   0.0026042
        k(  343) = (  -0.0416667  -0.1250000   0.2500000), wk =   0.0026042
        k(  344) = (  -0.0416667  -0.1250000   0.3750000), wk =   0.0026042
        k(  345) = (  -0.0416667  -0.1666667   0.1250000), wk =   0.0026042
        k(  346) = (  -0.0416667  -0.1666667   0.2500000), wk =   0.0026042
        k(  347) = (  -0.0416667  -0.1666667   0.3750000), wk =   0.0026042
        k(  348) = (  -0.0416667  -0.2083333   0.1250000), wk =   0.0026042
        k(  349) = (  -0.0416667  -0.2083333   0.2500000), wk =   0.0026042
        k(  350) = (  -0.0416667  -0.2083333   0.3750000), wk =   0.0026042
        k(  351) = (  -0.0416667  -0.2500000   0.1250000), wk =   0.0026042
        k(  352) = (  -0.0416667  -0.2500000   0.2500000), wk =   0.0026042
        k(  353) = (  -0.0416667  -0.2500000   0.3750000), wk =   0.0026042
        k(  354) = (  -0.0416667  -0.2916667   0.1250000), wk =   0.0026042
        k(  355) = (  -0.0416667  -0.2916667   0.2500000), wk =   0.0026042
        k(  356) = (  -0.0416667  -0.2916667   0.3750000), wk =   0.0026042
        k(  357) = (  -0.0416667  -0.3333333   0.1250000), wk =   0.0026042
        k(  358) = (  -0.0416667  -0.3333333   0.2500000), wk =   0.0026042
        k(  359) = (  -0.0416667  -0.3333333   0.3750000), wk =   0.0026042
        k(  360) = (  -0.0416667  -0.3750000   0.1250000), wk =   0.0026042
        k(  361) = (  -0.0416667  -0.3750000   0.2500000), wk =   0.0026042
        k(  362) = (  -0.0416667  -0.3750000   0.3750000), wk =   0.0026042
        k(  363) = (  -0.0416667  -0.4166667   0.1250000), wk =   0.0026042
        k(  364) = (  -0.0416667  -0.4166667   0.2500000), wk =   0.0026042
        k(  365) = (  -0.0416667  -0.4166667   0.3750000), wk =   0.0026042
        k(  366) = (  -0.0416667  -0.4583333   0.1250000), wk =   0.0026042
        k(  367) = (  -0.0416667  -0.4583333   0.2500000), wk =   0.0026042
        k(  368) = (  -0.0416667  -0.4583333   0.3750000), wk =   0.0026042
        k(  369) = (  -0.0833333  -0.1250000   0.1250000), wk =   0.0026042
        k(  370) = (  -0.0833333  -0.1250000   0.2500000), wk =   0.0026042
        k(  371) = (  -0.0833333  -0.1250000   0.3750000), wk =   0.0026042
        k(  372) = (  -0.0833333  -0.1666667   0.1250000), wk =   0.0026042
        k(  373) = (  -0.0833333  -0.1666667   0.2500000), wk =   0.0026042
        k(  374) = (  -0.0833333  -0.1666667   0.3750000), wk =   0.0026042
        k(  375) = (  -0.0833333  -0.2083333   0.1250000), wk =   0.0026042
        k(  376) = (  -0.0833333  -0.2083333   0.2500000), wk =   0.0026042
        k(  377) = (  -0.0833333  -0.2083333   0.3750000), wk =   0.0026042
        k(  378) = (  -0.0833333  -0.2500000   0.1250000), wk =   0.0026042
        k(  379) = (  -0.0833333  -0.2500000   0.2500000), wk =   0.0026042
        k(  380) = (  -0.0833333  -0.2500000   0.3750000), wk =   0.0026042
        k(  381) = (  -0.0833333  -0.2916667   0.1250000), wk =   0.0026042
        k(  382) = (  -0.0833333  -0.2916667   0.2500000), wk =   0.0026042
        k(  383) = (  -0.0833333  -0.2916667   0.3750000), wk =   0.0026042
        k(  384) = (  -0.0833333  -0.3333333   0.1250000), wk =   0.0026042
        k(  385) = (  -0.0833333  -0.3333333   0.2500000), wk =   0.0026042
        k(  386) = (  -0.0833333  -0.3333333   0.3750000), wk =   0.0026042
        k(  387) = (  -0.0833333  -0.3750000   0.1250000), wk =   0.0026042
        k(  388) = (  -0.0833333  -0.3750000   0.2500000), wk =   0.0026042
        k(  389) = (  -0.0833333  -0.3750000   0.3750000), wk =   0.0026042
        k(  390) = (  -0.0833333  -0.4166667   0.1250000), wk =   0.0026042
        k(  391) = (  -0.0833333  -0.4166667   0.2500000), wk =   0.0026042
        k(  392) = (  -0.0833333  -0.4166667   0.3750000), wk =   0.0026042
        k(  393) = (  -0.1250000  -0.1666667   0.1250000), wk =   0.0026042
        k(  394) = (  -0.1250000  -0.1666667   0.2500000), wk =   0.0026042
        k(  395) = (  -0.1250000  -0.1666667   0.3750000), wk =   0.0026042
        k(  396) = (  -0.1250000  -0.2083333   0.1250000), wk =   0.0026042
        k(  397) = (  -0.1250000  -0.2083333   0.2500000), wk =   0.0026042
        k(  398) = (  -0.1250000  -0.2083333   0.3750000), wk =   0.0026042
        k(  399) = (  -0.1250000  -0.2500000   0.1250000), wk =   0.0026042
        k(  400) = (  -0.1250000  -0.2500000   0.2500000), wk =   0.0026042
        k(  401) = (  -0.1250000  -0.2500000   0.3750000), wk =   0.0026042
        k(  402) = (  -0.1250000  -0.2916667   0.1250000), wk =   0.0026042
        k(  403) = (  -0.1250000  -0.2916667   0.2500000), wk =   0.0026042
        k(  404) = (  -0.1250000  -0.2916667   0.3750000), wk =   0.0026042
        k(  405) = (  -0.1250000  -0.3333333   0.1250000), wk =   0.0026042
        k(  406) = (  -0.1250000  -0.3333333   0.2500000), wk =   0.0026042
        k(  407) = (  -0.1250000  -0.3333333   0.3750000), wk =   0.0026042
        k(  408) = (  -0.1250000  -0.3750000   0.1250000), wk =   0.0026042
        k(  409) = (  -0.1250000  -0.3750000   0.2500000), wk =   0.0026042
        k(  410) = (  -0.1250000  -0.3750000   0.3750000), wk =   0.0026042
        k(  411) = (  -0.1250000  -0.4166667   0.1250000), wk =   0.0026042
        k(  412) = (  -0.1250000  -0.4166667   0.2500000), wk =   0.0026042
        k(  413) = (  -0.1250000  -0.4166667   0.3750000), wk =   0.0026042
        k(  414) = (  -0.1666667  -0.2083333   0.1250000), wk =   0.0026042
        k(  415) = (  -0.1666667  -0.2083333   0.2500000), wk =   0.0026042
        k(  416) = (  -0.1666667  -0.2083333   0.3750000), wk =   0.0026042
        k(  417) = (  -0.1666667  -0.2500000   0.1250000), wk =   0.0026042
        k(  418) = (  -0.1666667  -0.2500000   0.2500000), wk =   0.0026042
        k(  419) = (  -0.1666667  -0.2500000   0.3750000), wk =   0.0026042
        k(  420) = (  -0.1666667  -0.2916667   0.1250000), wk =   0.0026042
        k(  421) = (  -0.1666667  -0.2916667   0.2500000), wk =   0.0026042
        k(  422) = (  -0.1666667  -0.2916667   0.3750000), wk =   0.0026042
        k(  423) = (  -0.1666667  -0.3333333   0.1250000), wk =   0.0026042
        k(  424) = (  -0.1666667  -0.3333333   0.2500000), wk =   0.0026042
        k(  425) = (  -0.1666667  -0.3333333   0.3750000), wk =   0.0026042
        k(  426) = (  -0.1666667  -0.3750000   0.1250000), wk =   0.0026042
        k(  427) = (  -0.1666667  -0.3750000   0.2500000), wk =   0.0026042
        k(  428) = (  -0.1666667  -0.3750000   0.3750000), wk =   0.0026042
        k(  429) = (  -0.2083333  -0.2500000   0.1250000), wk =   0.0026042
        k(  430) = (  -0.2083333  -0.2500000   0.2500000), wk =   0.0026042
        k(  431) = (  -0.2083333  -0.2500000   0.3750000), wk =   0.0026042
        k(  432) = (  -0.2083333  -0.2916667   0.1250000), wk =   0.0026042
        k(  433) = (  -0.2083333  -0.2916667   0.2500000), wk =   0.0026042
        k(  434) = (  -0.2083333  -0.2916667   0.3750000), wk =   0.0026042
        k(  435) = (  -0.2083333  -0.3333333   0.1250000), wk =   0.0026042
        k(  436) = (  -0.2083333  -0.3333333   0.2500000), wk =   0.0026042
        k(  437) = (  -0.2083333  -0.3333333   0.3750000), wk =   0.0026042
        k(  438) = (  -0.2083333  -0.3750000   0.1250000), wk =   0.0026042
        k(  439) = (  -0.2083333  -0.3750000   0.2500000), wk =   0.0026042
        k(  440) = (  -0.2083333  -0.3750000   0.3750000), wk =   0.0026042
        k(  441) = (  -0.2500000  -0.2916667   0.1250000), wk =   0.0026042
        k(  442) = (  -0.2500000  -0.2916667   0.2500000), wk =   0.0026042
        k(  443) = (  -0.2500000  -0.2916667   0.3750000), wk =   0.0026042
        k(  444) = (  -0.2500000  -0.3333333   0.1250000), wk =   0.0026042
        k(  445) = (  -0.2500000  -0.3333333   0.2500000), wk =   0.0026042
        k(  446) = (  -0.2500000  -0.3333333   0.3750000), wk =   0.0026042
        k(  447) = (  -0.2916667  -0.3333333   0.1250000), wk =   0.0026042
        k(  448) = (  -0.2916667  -0.3333333   0.2500000), wk =   0.0026042
        k(  449) = (  -0.2916667  -0.3333333   0.3750000), wk =   0.0026042

     Dense  grid:    56785 G-vectors     FFT dimensions: (  40,  40,  96)

     Smooth grid:    20183 G-vectors     FFT dimensions: (  27,  27,  72)

     Dynamical RAM for                 wfc:       0.92 MB

     Dynamical RAM for     wfc (w. buffer):       0.92 MB

     Dynamical RAM for           str. fact:       2.60 MB

     Dynamical RAM for           local pot:       0.00 MB

     Dynamical RAM for          nlocal pot:       1.61 MB

     Dynamical RAM for                qrad:       5.27 MB

     Dynamical RAM for          rho,v,vnew:      12.23 MB

     Dynamical RAM for           G-vectors:       3.40 MB

     Dynamical RAM for          h,s,v(r/c):       0.11 MB

     Dynamical RAM for          <psi|beta>:       0.02 MB

     Dynamical RAM for                 psi:       1.84 MB

     Dynamical RAM for                hpsi:       1.84 MB

     Dynamical RAM for                spsi:       1.84 MB

     Dynamical RAM for      wfcinit/wfcrot:       1.86 MB

     Dynamical RAM for           addusdens:     163.76 MB

     Estimated static dynamical RAM per process >      36.54 MB

     Estimated max dynamical RAM per process >     200.30 MB

     Check: negative core charge=   -0.000008
     Generating pointlists ...
     new r_m :   0.2765 (alat units)  1.4733 (a.u.) for type    1
     new r_m :   0.2765 (alat units)  1.4733 (a.u.) for type    2
     new r_m :   0.3228 (alat units)  1.7204 (a.u.) for type    3

     The potential is recalculated from file :
     ../Li_1x1_c6.9_d1.00/out/pw.save/charge-density

     Starting wfcs are   23 randomized atomic wfcs +    1 random wfcs
     Checking if some PAW data can be deallocated... 

     Band Structure Calculation
     Davidson diagonalization with overlap

     Computing kpt #:     1  of   898
     total cpu time spent up to now is        3.7 secs

     Computing kpt #:     2  of   898
     total cpu time spent up to now is        3.8 secs

     Computing kpt #:     3  of   898
     total cpu time spent up to now is        4.0 secs

     Computing kpt #:     4  of   898
     total cpu time spent up to now is        4.2 secs

     Computing kpt #:     5  of   898
     total cpu time spent up to now is        4.4 secs

     Computing kpt #:     6  of   898
     total cpu time spent up to now is        4.6 secs

     Computing kpt #:     7  of   898
     total cpu time spent up to now is        4.8 secs

     Computing kpt #:     8  of   898
[...]
     1.0000   1.0000   1.0000   1.0000   1.0000   1.0078   1.0833   0.9889
     0.0000   0.0000   0.0000   0.0000   0.0000   0.0000   0.0000   0.0000

          k =-0.1667-0.4330 0.0511 (  2512 PWs)   bands (ev):

   -88.4718 -51.8006 -51.7628 -51.7048 -40.7437 -12.5583 -11.3364  -0.2317
     0.5587   1.3346   2.0507   2.6891   3.7412   5.9316   6.2172   6.5117
     8.0891   8.5008   9.3175  13.3351  15.1525  17.5877  18.2380  19.4871

     occupation numbers 
     1.0000   1.0000   1.0000   1.0000   1.0000   1.0000   1.0000   1.0000
     1.0000   1.0000   1.0000   1.0000   1.0000   1.0042   1.0684   0.8474
     0.0000   0.0000   0.0000   0.0000   0.0000   0.0000   0.0000   0.0000

          k =-0.1667-0.4330 0.1022 (  2510 PWs)   bands (ev):

   -88.4718 -51.8007 -51.7628 -51.7047 -40.7437 -12.5583 -11.3365  -0.2342
     0.5550   1.3351   2.0646   2.6913   3.7341   5.9388   6.2167   6.4875
     8.1753   8.4616   9.2622  13.3645  15.1832  17.5095  18.1690  19.6768

     occupation numbers 
     1.0000   1.0000   1.0000   1.0000   1.0000   1.0000   1.0000   1.0000
     1.0000   1.0000   1.0000   1.0000   1.0000   1.0046   1.0683   0.9004
     0.0000   0.0000   0.0000   0.0000   0.0000   0.0000   0.0000   0.0000

          k =-0.1667-0.4330 0.1533 (  2508 PWs)   bands (ev):

   -88.4718 -51.8007 -51.7627 -51.7048 -40.7437 -12.5582 -11.3366  -0.2373
     0.5514   1.3354   2.0777   2.6917   3.7355   5.9398   6.2167   6.4722
     8.1995   8.4573   9.2358  13.3882  15.1566  17.4758  18.1551  19.8255

     occupation numbers 
     1.0000   1.0000   1.0000   1.0000   1.0000   1.0000   1.0000   1.0000
     1.0000   1.0000   1.0000   1.0000   1.0000   1.0047   1.0683   0.9308
     0.0000   0.0000   0.0000   0.0000   0.0000   0.0000   0.0000   0.0000

          k =-0.1667-0.4811 0.0511 (  2510 PWs)   bands (ev):

   -88.4713 -51.8048 -51.7653 -51.7039 -40.7416 -12.4650 -11.3095  -0.3932
     0.5857   1.2860   2.1928   2.6488   3.5571   5.8557   6.1981   6.5189
     8.2397   8.5446   9.6269  12.8467  15.1845  17.5352  18.0245  19.5091

     occupation numbers 
     1.0000   1.0000   1.0000   1.0000   1.0000   1.0000   1.0000   1.0000
     1.0000   1.0000   1.0000   1.0000   1.0000   1.0013   1.0622   0.8306
     0.0000   0.0000   0.0000   0.0000   0.0000   0.0000   0.0000   0.0000

          k =-0.1667-0.4811 0.1022 (  2517 PWs)   bands (ev):

   -88.4713 -51.8048 -51.7654 -51.7039 -40.7417 -12.4649 -11.3095  -0.3956
     0.5821   1.2861   2.2034   2.6505   3.5573   5.8570   6.1992   6.5022
     8.3087   8.5220   9.5621  12.8462  15.2627  17.4557  17.9772  19.6194

     occupation numbers 
     1.0000   1.0000   1.0000   1.0000   1.0000   1.0000   1.0000   1.0000
     1.0000   1.0000   1.0000   1.0000   1.0000   1.0013   1.0626   0.8688
     0.0000   0.0000   0.0000   0.0000   0.0000   0.0000   0.0000   0.0000

          k =-0.1667-0.4811 0.1533 (  2512 PWs)   bands (ev):

   -88.4713 -51.8048 -51.7653 -51.7039 -40.7416 -12.4649 -11.3096  -0.3983
     0.5784   1.2862   2.2128   2.6496   3.5658   5.8539   6.2012   6.4908
     8.3380   8.5177   9.5225  12.8421  15.2822  17.4177  17.9792  19.7025

     occupation numbers 
     1.0000   1.0000   1.0000   1.0000   1.0000   1.0000   1.0000   1.0000
     1.0000   1.0000   1.0000   1.0000   1.0000   1.0013   1.0633   0.8935
     0.0000   0.0000   0.0000   0.0000   0.0000   0.0000   0.0000   0.0000

          k =-0.1667-0.5292 0.0511 (  2512 PWs)   bands (ev):

   -88.4709 -51.8074 -51.7670 -51.7034 -40.7404 -12.4069 -11.2902  -0.5082
     0.6171   1.2644   2.3000   2.6036   3.4405   5.7794   6.2129   6.5148
     8.3630   8.5370   9.9188  12.4223  15.2721  17.3999  17.8698  19.7009

     occupation numbers 
     1.0000   1.0000   1.0000   1.0000   1.0000   1.0000   1.0000   1.0000
     1.0000   1.0000   1.0000   1.0000   1.0000   1.0003   1.0671   0.8403
     0.0000   0.0000   0.0000   0.0000   0.0000   0.0000   0.0000   0.0000

          k =-0.1667-0.5292 0.1022 (  2512 PWs)   bands (ev):

   -88.4709 -51.8073 -51.7669 -51.7034 -40.7404 -12.4069 -11.2902  -0.5105
     0.6141   1.2642   2.3070   2.6037   3.4479   5.7772   6.2149   6.5031
     8.4121   8.5276   9.8604  12.3990  15.3659  17.3342  17.8634  19.7196

     occupation numbers 
     1.0000   1.0000   1.0000   1.0000   1.0000   1.0000   1.0000   1.0000
     1.0000   1.0000   1.0000   1.0000   1.0000   1.0003   1.0677   0.8670
     0.0000   0.0000   0.0000   0.0000   0.0000   0.0000   0.0000   0.0000

          k =-0.1667-0.5292 0.1533 (  2511 PWs)   bands (ev):

   -88.4709 -51.8074 -51.7669 -51.7034 -40.7403 -12.4069 -11.2902  -0.5130
     0.6109   1.2641   2.3131   2.6020   3.4607   5.7727   6.2173   6.4936
     8.4402   8.5286   9.8163  12.3730  15.4231  17.2959  17.8795  19.7146

     occupation numbers 
     1.0000   1.0000   1.0000   1.0000   1.0000   1.0000   1.0000   1.0000
     1.0000   1.0000   1.0000   1.0000   1.0000   1.0003   1.0685   0.8876
     0.0000   0.0000   0.0000   0.0000   0.0000   0.0000   0.0000   0.0000

          k =-0.2083-0.4090 0.0511 (  2511 PWs)   bands (ev):

   -88.4718 -51.7982 -51.7649 -51.7048 -40.7438 -12.5681 -11.3348  -0.1108
     0.5304   1.3035   1.9512   2.6630   3.7982   5.9615   6.2290   6.5398
     7.9772   8.4794   9.3304  13.5881  14.8263  17.6430  18.4081  19.6727

     occupation numbers 
     1.0000   1.0000   1.0000   1.0000   1.0000   1.0000   1.0000   1.0000
     1.0000   1.0000   1.0000   1.0000   1.0000   1.0063   1.0720   0.7791
     0.0000   0.0000   0.0000   0.0000   0.0000   0.0000   0.0000   0.0000

          k =-0.2083-0.4090 0.1022 (  2512 PWs)   bands (ev):

   -88.4718 -51.7982 -51.7649 -51.7048 -40.7438 -12.5680 -11.3349  -0.1133
     0.5263   1.3036   1.9648   2.6665   3.7906   5.9701   6.2288   6.5119
     8.0551   8.4509   9.2754  13.6388  14.8107  17.5852  18.3413  19.8534

     occupation numbers 
     1.0000   1.0000   1.0000   1.0000   1.0000   1.0000   1.0000   1.0000
     1.0000   1.0000   1.0000   1.0000   1.0000   1.0071   1.0720   0.8469
     0.0000   0.0000   0.0000   0.0000   0.0000   0.0000   0.0000   0.0000

          k =-0.2083-0.4090 0.1533 (  2514 PWs)   bands (ev):

   -88.4718 -51.7982 -51.7649 -51.7048 -40.7438 -12.5679 -11.3350  -0.1161
     0.5222   1.3035   1.9782   2.6692   3.7860   5.9767   6.2287   6.4880
     8.1282   8.4165   9.2308  13.6901  14.7751  17.5378  18.3056  20.0137

     occupation numbers 
     1.0000   1.0000   1.0000   1.0000   1.0000   1.0000   1.0000   1.0000
     1.0000   1.0000   1.0000   1.0000   1.0000   1.0077   1.0720   0.8995
     0.0000   0.0000   0.0000   0.0000   0.0000   0.0000   0.0000   0.0000

          k =-0.2083-0.4571 0.0511 (  2512 PWs)   bands (ev):

   -88.4713 -51.8014 -51.7688 -51.7039 -40.7416 -12.4711 -11.3041  -0.2280
     0.5423   1.2050   2.0517   2.6620   3.6017   5.8957   6.2143   6.5566
     8.1024   8.5193   9.6475  13.1235  14.7757  17.6458  18.3166  19.6381

     occupation numbers 
     1.0000   1.0000   1.0000   1.0000   1.0000   1.0000   1.0000   1.0000
     1.0000   1.0000   1.0000   1.0000   1.0000   1.0024   1.0675   0.7357
     0.0000   0.0000   0.0000   0.0000   0.0000   0.0000   0.0000   0.0000

          k =-0.2083-0.4571 0.1022 (  2515 PWs)   bands (ev):

   -88.4713 -51.8014 -51.7687 -51.7039 -40.7416 -12.4711 -11.3041  -0.2302
     0.5379   1.2048   2.0620   2.6662   3.5987   5.8990   6.2155   6.5363
     8.1751   8.5018   9.5743  13.1346  14.8159  17.6017  18.2284  19.7780

     occupation numbers 
     1.0000   1.0000   1.0000   1.0000   1.0000   1.0000   1.0000   1.0000
     1.0000   1.0000   1.0000   1.0000   1.0000   1.0026   1.0679   0.7881
     0.0000   0.0000   0.0000   0.0000   0.0000   0.0000   0.0000   0.0000

          k =-0.2083-0.4571 0.1533 (  2515 PWs)   bands (ev):

   -88.4713 -51.8014 -51.7687 -51.7039 -40.7416 -12.4710 -11.3042  -0.2325
     0.5335   1.2046   2.0720   2.6686   3.6006   5.8995   6.2173   6.5198
     8.2406   8.4800   9.5142  13.1457  14.8256  17.5660  18.1903  19.8654

     occupation numbers 
     1.0000   1.0000   1.0000   1.0000   1.0000   1.0000   1.0000   1.0000
     1.0000   1.0000   1.0000   1.0000   1.0000   1.0026   1.0685   0.8283
     0.0000   0.0000   0.0000   0.0000   0.0000   0.0000   0.0000   0.0000

          k =-0.2083-0.5052 0.0511 (  2512 PWs)   bands (ev):

   -88.4709 -51.8035 -51.7717 -51.7032 -40.7401 -12.4040 -11.2788  -0.3322
     0.5715   1.1415   2.1281   2.6738   3.4445   5.8065   6.2482   6.5577
     8.2079   8.5222   9.9876  12.6194  14.8517  17.6351  18.0843  19.7669

     occupation numbers 
     1.0000   1.0000   1.0000   1.0000   1.0000   1.0000   1.0000   1.0000
     1.0000   1.0000   1.0000   1.0000   1.0000   1.0006   1.0771   0.7328
     0.0000   0.0000   0.0000   0.0000   0.0000   0.0000   0.0000   0.0000

          k =-0.2083-0.5052 0.1022 (  2513 PWs)   bands (ev):

   -88.4709 -51.8035 -51.7716 -51.7033 -40.7401 -12.4040 -11.2789  -0.3343
     0.5678   1.1408   2.1353   2.6771   3.4467   5.8062   6.2500   6.5434
     8.2638   8.5188   9.9142  12.6018  14.9141  17.6066  18.0404  19.7789

     occupation numbers 
     1.0000   1.0000   1.0000   1.0000   1.0000   1.0000   1.0000   1.0000
     1.0000   1.0000   1.0000   1.0000   1.0000   1.0005   1.0775   0.7700
     0.0000   0.0000   0.0000   0.0000   0.0000   0.0000   0.0000   0.0000

          k =-0.2083-0.5052 0.1533 (  2514 PWs)   bands (ev):

   -88.4709 -51.8036 -51.7716 -51.7033 -40.7401 -12.4039 -11.2789  -0.3365
     0.5641   1.1403   2.1422   2.6779   3.4537   5.8040   6.2523   6.5316
     8.3137   8.5138   9.8506  12.5843  14.9484  17.5810  18.0349  19.7791

     occupation numbers 
     1.0000   1.0000   1.0000   1.0000   1.0000   1.0000   1.0000   1.0000
     1.0000   1.0000   1.0000   1.0000   1.0000   1.0005   1.0780   0.7998
     0.0000   0.0000   0.0000   0.0000   0.0000   0.0000   0.0000   0.0000

          k =-0.2083-0.5533 0.0511 (  2508 PWs)   bands (ev):

   -88.4707 -51.8045 -51.7732 -51.7029 -40.7393 -12.3698 -11.2644  -0.3920
     0.5908   1.1158   2.1665   2.6802   3.3614   5.7493   6.2802   6.5519
     8.2786   8.5020  10.2431  12.2767  14.9062  17.6377  17.9172  19.9355

     occupation numbers 
     1.0000   1.0000   1.0000   1.0000   1.0000   1.0000   1.0000   1.0000
     1.0000   1.0000   1.0000   1.0000   1.0000   1.0002   1.0826   0.7479
     0.0000   0.0000   0.0000   0.0000   0.0000   0.0000   0.0000   0.0000

          k =-0.2083-0.5533 0.1022 (  2511 PWs)   bands (ev):

   -88.4707 -51.8045 -51.7732 -51.7030 -40.7393 -12.3698 -11.2644  -0.3941
     0.5878   1.1148   2.1720   2.6810   3.3687   5.7473   6.2818   6.5413
     8.3196   8.5080  10.1791  12.2410  14.9668  17.6137  17.9186  19.8528

     occupation numbers 
     1.0000   1.0000   1.0000   1.0000   1.0000   1.0000   1.0000   1.0000
     1.0000   1.0000   1.0000   1.0000   1.0000   1.0002   1.0827   0.7754
     0.0000   0.0000   0.0000   0.0000   0.0000   0.0000   0.0000   0.0000

          k =-0.2083-0.5533 0.1533 (  2507 PWs)   bands (ev):

   -88.4707 -51.8045 -51.7731 -51.7030 -40.7393 -12.3698 -11.2644  -0.3963
     0.5847   1.1139   2.1774   2.6807   3.3781   5.7447   6.2837   6.5314
     8.3612   8.5115  10.1189  12.2053  15.0166  17.5914  17.9340  19.7812

     occupation numbers 
     1.0000   1.0000   1.0000   1.0000   1.0000   1.0000   1.0000   1.0000
     1.0000   1.0000   1.0000   1.0000   1.0000   1.0002   1.0829   0.8001
     0.0000   0.0000   0.0000   0.0000   0.0000   0.0000   0.0000   0.0000

          k =-0.2500-0.4811 0.0511 (  2514 PWs)   bands (ev):

   -88.4708 -51.8007 -51.7749 -51.7032 -40.7400 -12.4030 -11.2725  -0.2001
     0.5370   1.0403   2.0398   2.7156   3.4486   5.8196   6.2683   6.5855
     8.1155   8.5122  10.0251  12.7787  14.5611  17.7106  18.3850  19.8306

     occupation numbers 
     1.0000   1.0000   1.0000   1.0000   1.0000   1.0000   1.0000   1.0000
     1.0000   1.0000   1.0000   1.0000   1.0000   1.0007   1.0811   0.6576
     0.0000   0.0000   0.0000   0.0000   0.0000   0.0000   0.0000   0.0000

          k =-0.2500-0.4811 0.1022 (  2514 PWs)   bands (ev):

   -88.4709 -51.8007 -51.7749 -51.7032 -40.7400 -12.4029 -11.2725  -0.2019
     0.5327   1.0396   2.0473   2.7202   3.4487   5.8200   6.2700   6.5702
     8.1717   8.5127   9.9462  12.7687  14.5991  17.6982  18.3092  19.8122

     occupation numbers 
     1.0000   1.0000   1.0000   1.0000   1.0000   1.0000   1.0000   1.0000
     1.0000   1.0000   1.0000   1.0000   1.0000   1.0007   1.0813   0.6993
     0.0000   0.0000   0.0000   0.0000   0.0000   0.0000   0.0000   0.0000

          k =-0.2500-0.4811 0.1533 (  2522 PWs)   bands (ev):

   -88.4709 -51.8007 -51.7750 -51.7033 -40.7400 -12.4029 -11.2726  -0.2038
     0.5282   1.0390   2.0548   2.7238   3.4505   5.8198   6.2719   6.5561
     8.2303   8.5093   9.8702  12.7580  14.6274  17.6854  18.2573  19.7936

     occupation numbers 
     1.0000   1.0000   1.0000   1.0000   1.0000   1.0000   1.0000   1.0000
     1.0000   1.0000   1.0000   1.0000   1.0000   1.0007   1.0816   0.7370
     0.0000   0.0000   0.0000   0.0000   0.0000   0.0000   0.0000   0.0000

          k =-0.2500-0.5292 0.0511 (  2507 PWs)   bands (ev):

   -88.4706 -51.8007 -51.7783 -51.7028 -40.7389 -12.3599 -11.2515  -0.2336
     0.5560   0.9579   2.0685   2.7627   3.3201   5.7479   6.3247   6.5817
     8.1798   8.4860  10.3681  12.3318  14.6068  17.8018  18.1799  19.7294

     occupation numbers 
     1.0000   1.0000   1.0000   1.0000   1.0000   1.0000   1.0000   1.0000
     1.0000   1.0000   1.0000   1.0000   1.0000   1.0002   1.0803   0.6681
     0.0000   0.0000   0.0000   0.0000   0.0000   0.0000   0.0000   0.0000

          k =-0.2500-0.5292 0.1022 (  2509 PWs)   bands (ev):

   -88.4706 -51.8007 -51.7783 -51.7028 -40.7389 -12.3599 -11.2515  -0.2355
     0.5528   0.9564   2.0745   2.7655   3.3234   5.7471   6.3255   6.5706
     8.2240   8.4960  10.2954  12.2997  14.6472  17.8035  18.1493  19.6697

     occupation numbers 
     1.0000   1.0000   1.0000   1.0000   1.0000   1.0000   1.0000   1.0000
     1.0000   1.0000   1.0000   1.0000   1.0000   1.0002   1.0801   0.6983
     0.0000   0.0000   0.0000   0.0000   0.0000   0.0000   0.0000   0.0000

          k =-0.2500-0.5292 0.1533 (  2515 PWs)   bands (ev):

   -88.4706 -51.8007 -51.7783 -51.7029 -40.7389 -12.3599 -11.2515  -0.2375
     0.5493   0.9550   2.0805   2.7670   3.3286   5.7458   6.3265   6.5604
     8.2684   8.5048  10.2251  12.2679  14.6783  17.7990  18.1394  19.6330

     occupation numbers 
     1.0000   1.0000   1.0000   1.0000   1.0000   1.0000   1.0000   1.0000
     1.0000   1.0000   1.0000   1.0000   1.0000   1.0002   1.0799   0.7257
     0.0000   0.0000   0.0000   0.0000   0.0000   0.0000   0.0000   0.0000

          k =-0.2917-0.5533 0.0511 (  2506 PWs)   bands (ev):

   -88.4704 -51.7965 -51.7849 -51.7025 -40.7381 -12.3336 -11.2325  -0.1255
     0.5444   0.7825   2.0457   2.8556   3.2040   5.7044   6.3955   6.5877
     8.1687   8.4452  10.7217  12.0243  14.4693  17.9688  18.3503  19.2902

     occupation numbers 
     1.0000   1.0000   1.0000   1.0000   1.0000   1.0000   1.0000   1.0000
     1.0000   1.0000   1.0000   1.0000   1.0000   1.0001   1.0402   0.6515
     0.0000   0.0000   0.0000   0.0000   0.0000   0.0000   0.0000   0.0000

          k =-0.2917-0.5533 0.1022 (  2509 PWs)   bands (ev):

   -88.4704 -51.7965 -51.7849 -51.7025 -40.7382 -12.3336 -11.2325  -0.1273
     0.5422   0.7798   2.0514   2.8574   3.2078   5.7037   6.3943   6.5797
     8.2057   8.4626  10.6557  11.9803  14.4923  17.9669  18.3421  19.2870

     occupation numbers 
     1.0000   1.0000   1.0000   1.0000   1.0000   1.0000   1.0000   1.0000
     1.0000   1.0000   1.0000   1.0000   1.0000   1.0001   1.0414   0.6735
     0.0000   0.0000   0.0000   0.0000   0.0000   0.0000   0.0000   0.0000

          k =-0.2917-0.5533 0.1533 (  2515 PWs)   bands (ev):

   -88.4704 -51.7965 -51.7850 -51.7026 -40.7382 -12.3336 -11.2325  -0.1292
     0.5400   0.7772   2.0571   2.8588   3.2119   5.7030   6.3931   6.5719
     8.2439   8.4799  10.5895  11.9362  14.5140  17.9624  18.3395  19.2855

     occupation numbers 
     1.0000   1.0000   1.0000   1.0000   1.0000   1.0000   1.0000   1.0000
     1.0000   1.0000   1.0000   1.0000   1.0000   1.0001   1.0425   0.6946
     0.0000   0.0000   0.0000   0.0000   0.0000   0.0000   0.0000   0.0000

     the Fermi energy is     6.6806 ev
     (compare with:     6.6736 eV, computed in scf)

     Writing all to output data dir ../Li_1x1_c6.9_d1.00/out/pw.save/ :
     XML data file, pseudopotentials, collected wavefunctions
 
     init_run     :     12.15s CPU      2.87s WALL (       1 calls)
     electrons    :    170.71s CPU    171.44s WALL (       1 calls)

     Called by init_run:
     wfcinit      :      0.00s CPU      0.00s WALL (       1 calls)
     wfcinit:atom :      0.68s CPU      0.74s WALL (     898 calls)
     wfcinit:wfcr :      2.11s CPU      2.15s WALL (     898 calls)
     potinit      :     11.46s CPU      2.17s WALL (       1 calls)
     hinit0       :      0.42s CPU      0.40s WALL (       1 calls)

     Called by electrons:
     c_bands      :    170.68s CPU    171.41s WALL (       1 calls)
     v_of_rho     :      0.02s CPU      0.04s WALL (       1 calls)
     v_h          :      0.01s CPU      0.00s WALL (       1 calls)
     v_xc         :      0.01s CPU      0.04s WALL (       1 calls)
     newd         :      0.06s CPU      0.07s WALL (       1 calls)
                                        0.07s GPU  (       1 calls)
     PAW_pot      :      4.24s CPU      0.54s WALL (       1 calls)

     Called by c_bands:
     init_us_2    :      0.30s CPU      0.36s WALL (     898 calls)
     cegterg      :    166.76s CPU    167.28s WALL (    3600 calls)

     Called by sum_band:

     Called by *egterg:
     cdiaghg      :     57.28s CPU     58.99s WALL (   65212 calls)
                                       58.19s GPU  (   65212 calls)
     cegterg:over :     12.87s CPU     13.23s WALL (   64314 calls)
     cegterg:upda :     12.68s CPU     12.85s WALL (   64314 calls)
     cegterg:last :      2.68s CPU      2.69s WALL (   32217 calls)
     h_psi        :     56.60s CPU     56.95s WALL (   68812 calls)
                                       56.10s GPU  (   68812 calls)
     s_psi        :     10.54s CPU     10.93s WALL (   68812 calls)
     g_psi        :      0.32s CPU      1.53s WALL (   64314 calls)
                                        0.73s GPU  (   64314 calls)

     Called by h_psi:
     h_psi:calbec :      1.58s CPU      3.23s WALL (   68812 calls)
                                        2.37s GPU  (   68812 calls)
     vloc_psi     :     38.24s CPU     37.92s WALL (   68812 calls)
                                       37.07s GPU  (   68812 calls)
     add_vuspsi   :      9.43s CPU     10.99s WALL (   68812 calls)
                                       10.13s GPU  (   68812 calls)

     General routines
     calbec       :      1.41s CPU      1.50s WALL (   68812 calls)
     fft          :      2.93s CPU      0.82s WALL (      23 calls)
                                        0.00s GPU  (      21 calls)
     ffts         :      4.26s CPU      0.76s WALL (       2 calls)
     fftw         :      3.32s CPU     10.80s WALL (  196934 calls)
                                        8.59s GPU  (  196934 calls)
     interpolate  :      7.20s CPU      1.58s WALL (       2 calls)
     davcio       :      1.08s CPU      0.24s WALL (    1796 calls)
 
     Parallel routines

     PAW routines
     PAW_pot      :      4.24s CPU      0.54s WALL (       1 calls)
 
     PWSCF        :   3m 9.93s CPU   2m55.46s WALL

 
   This run was terminated on:   2:52: 8  12Jul2026            

=------------------------------------------------------------------------------=
   JOB DONE.
=------------------------------------------------------------------------------=
Warning: ieee_divide_by_zero is signaling
Warning: ieee_inexact is signaling
FORTRAN STOP
