
     Program PWSCF v.7.3.1 starts on 12Jul2026 at  2:14: 6 

     This program is part of the open-source Quantum ESPRESSO suite
     for quantum simulation of materials; please cite
         "P. Giannozzi et al., J. Phys.:Condens. Matter 21 395502 (2009);
         "P. Giannozzi et al., J. Phys.:Condens. Matter 29 465901 (2017);
         "P. Giannozzi et al., J. Chem. Phys. 152 154105 (2020);
          URL http://www.quantum-espresso.org", 
     in publications or presentations arising from this work. More details at
     http://www.quantum-espresso.org/quote

     Parallel version (MPI & OpenMP), running on      14 processor cores
     Number of MPI processes:                 1
     Threads/MPI process:                    14

     MPI processes distributed on     1 nodes
     852406 MiB available memory on the printing compute node when the environment starts
 
     Reading input from pw.in

     Current dimensions of program PWSCF are:
     Max number of different atomic species (ntypx) = 10
     Max number of k-points (npk) =  40000
     Max angular momentum in pseudopotentials (lmaxx) =  4
     file Co.pbe-spn-kjpaw_psl.0.3.1.UPF: wavefunction(s)  3P 3D renormalized
     file O.pbe-n-kjpaw_psl.1.0.0.UPF: wavefunction(s)  2S 2P renormalized
     file Na.pbe-spn-kjpaw_psl.1.0.0.UPF: wavefunction(s)  2P renormalized
 
     Subspace diagonalization in iterative solution of the eigenvalue problem:
     a serial algorithm will be used

 
     G-vector sticks info
     --------------------
     sticks:   dense  smooth     PW     G-vecs:    dense   smooth      PW
     Sum         979     499    151                47419    16845    2747
 
     Using Slab Decomposition
 


     bravais-lattice index     =            4
     lattice parameter (alat)  =       5.4575  a.u.
     unit-cell volume          =     268.0923 (a.u.)^3
     number of atoms/cell      =            4
     number of atomic types    =            3
     number of electrons       =        38.00
     number of Kohn-Sham states=           27
     kinetic-energy cutoff     =      60.0000  Ry
     charge density cutoff     =     480.0000  Ry
     scf convergence threshold =      1.0E-08
     mixing beta               =       0.3000
     number of iterations used =            8  plain     mixing
     Exchange-correlation= SLA  PW   PBX  PBC
                           (   1   4   3   4   0   0   0)

     GPU acceleration is ACTIVE.  1 visible GPUs per MPI rank
     GPU-aware MPI enabled


     GPU used by master process:

        Device Number: 0
        Device name: NVIDIA A100-SXM4-80GB
        Compute capability : 80
        Ratio of single to double precision performance  : 2
        Memory Clock Rate (KHz): 1593000
        Memory Bus Width (bits): 5120
        Peak Memory Bandwidth (GB/s): ******

     celldm(1)=   5.457529  celldm(2)=   0.000000  celldm(3)=   1.904432
     celldm(4)=   0.000000  celldm(5)=   0.000000  celldm(6)=   0.000000

     crystal axes: (cart. coord. in units of alat)
               a(1) = (   1.000000   0.000000   0.000000 )  
               a(2) = (  -0.500000   0.866025   0.000000 )  
               a(3) = (   0.000000   0.000000   1.904432 )  

     reciprocal axes: (cart. coord. in units 2 pi/alat)
               b(1) = (  1.000000  0.577350 -0.000000 )  
               b(2) = (  0.000000  1.154701  0.000000 )  
               b(3) = (  0.000000 -0.000000  0.525091 )  


     PseudoPot. # 1 for Co read from file:
     ../../pseudo/Co.pbe-spn-kjpaw_psl.0.3.1.UPF
     MD5 check sum: 3c0a43779828c046024e4f3be63f8e67
     Pseudo is Projector augmented-wave + core cor, Zval = 17.0
     Generated using &quot;atomic&quot; code by A. Dal Corso  v.6.2.2
     Shape of augmentation charge: PSQ
     Using radial grid of 1193 points,  6 beta functions with: 
                l(1) =   0
                l(2) =   0
                l(3) =   1
                l(4) =   1
                l(5) =   2
                l(6) =   2
     Q(r) pseudized with 0 coefficients 


     PseudoPot. # 2 for O  read from file:
     ../../pseudo/O.pbe-n-kjpaw_psl.1.0.0.UPF
     MD5 check sum: e99d9cef9b487d1ca56f5b95ecd0fd7a
     Pseudo is Projector augmented-wave + core cor, Zval =  6.0
     Generated using &quot;atomic&quot; code by A. Dal Corso  v.6.3
     Shape of augmentation charge: PSQ
     Using radial grid of 1095 points,  4 beta functions with: 
                l(1) =   0
                l(2) =   0
                l(3) =   1
                l(4) =   1
     Q(r) pseudized with 0 coefficients 


     PseudoPot. # 3 for Na read from file:
     ../../pseudo/Na.pbe-spn-kjpaw_psl.1.0.0.UPF
     MD5 check sum: 05b4deb74e3932c23ab016979dc8b5d4
     Pseudo is Projector augmented-wave + core cor, Zval =  9.0
     Generated using &quot;atomic&quot; code by A. Dal Corso  v.6.3
     Shape of augmentation charge: PSQ
     Using radial grid of 1121 points,  4 beta functions with: 
                l(1) =   0
                l(2) =   0
                l(3) =   1
                l(4) =   1
     Q(r) pseudized with 0 coefficients 


     atomic species   valence    mass     pseudopotential
     Co               17.00    58.93300     Co( 1.00)
     O                 6.00    15.99900     O ( 1.00)
     Na                9.00    22.98977     Na( 1.00)

     Starting magnetic structure 
     atomic species   magnetization
     Co              0.300
     O               0.000
     Na              0.000

      6 Sym. Ops. (no inversion) found


                                    s                        frac. trans.

      isym =  1     identity                                     

 cryst.   s( 1) = (     1          0          0      )
                  (     0          1          0      )
                  (     0          0          1      )

 cart.    s( 1) = (  1.0000000  0.0000000  0.0000000 )
                  (  0.0000000  1.0000000  0.0000000 )
                  (  0.0000000  0.0000000  1.0000000 )


      isym =  2     120 deg rotation - cryst. axis [0,0,1]       

 cryst.   s( 2) = (     0          1          0      )
                  (    -1         -1          0      )
                  (     0          0          1      )

 cart.    s( 2) = ( -0.5000000 -0.8660254  0.0000000 )
                  (  0.8660254 -0.5000000  0.0000000 )
                  (  0.0000000  0.0000000  1.0000000 )


      isym =  3     120 deg rotation - cryst. axis [0,0,-1]      

 cryst.   s( 3) = (    -1         -1          0      )
                  (     1          0          0      )
                  (     0          0          1      )

 cart.    s( 3) = ( -0.5000000  0.8660254  0.0000000 )
                  ( -0.8660254 -0.5000000  0.0000000 )
                  (  0.0000000  0.0000000  1.0000000 )


      isym =  4     inv. 180 deg rotation - cart. axis [1,0,0]   

 cryst.   s( 4) = (    -1          0          0      )
                  (     1          1          0      )
                  (     0          0          1      )

 cart.    s( 4) = ( -1.0000000  0.0000000  0.0000000 )
                  (  0.0000000  1.0000000  0.0000000 )
                  (  0.0000000  0.0000000  1.0000000 )


      isym =  5     inv. 180 deg rotation - cryst. axis [0,1,0]  

 cryst.   s( 5) = (     1          1          0      )
                  (     0         -1          0      )
                  (     0          0          1      )

 cart.    s( 5) = (  0.5000000  0.8660254  0.0000000 )
                  (  0.8660254 -0.5000000  0.0000000 )
                  (  0.0000000  0.0000000  1.0000000 )


      isym =  6     inv. 180 deg rotation - cryst. axis [1,1,0]  

 cryst.   s( 6) = (     0         -1          0      )
                  (    -1          0          0      )
                  (     0          0          1      )

 cart.    s( 6) = (  0.5000000 -0.8660254  0.0000000 )
                  ( -0.8660254 -0.5000000  0.0000000 )
                  (  0.0000000  0.0000000  1.0000000 )


     point group C_3v (3m)  
     there are  3 classes
     the character table:

       E     2C3   3s_v 
A_1    1.00  1.00  1.00
A_2    1.00  1.00 -1.00
E      2.00 -1.00  0.00

     the symmetry operations in each class and the name of the first element:

     E        1
          identity                                               
     2C3      2    3
          120 deg rotation - cryst. axis [0,0,1]                 
     3s_v     4    5    6
          inv. 180 deg rotation - cart. axis [1,0,0]             

   Cartesian axes

     site n.     atom                  positions (alat units)
         1        Co     tau(   1) = (   0.0000000   0.0000000   0.0000000  )
         2        O      tau(   2) = (  -0.0000000   0.5773503   0.3324100  )
         3        O      tau(   3) = (   0.5000000   0.2886751   1.5720222  )
         4        Na     tau(   4) = (  -0.0000000   0.5773503   1.2984765  )

   Crystallographic axes

     site n.     atom                  positions (cryst. coord.)
         1        Co     tau(   1) = (  0.0000000  0.0000000  0.0000000  )
         2        O      tau(   2) = (  0.3333333  0.6666667  0.1745455  )
         3        O      tau(   3) = (  0.6666667  0.3333333  0.8254545  )
         4        Na     tau(   4) = (  0.3333333  0.6666667  0.6818182  )

     number of k points=    25  Marzari-Vanderbilt smearing, width (Ry)=  0.0200
                       cart. coord. in units 2pi/alat
        k(    1) = (   0.0000000   0.0000000   0.0000000), wk =   0.0052083
        k(    2) = (   0.0000000   0.0000000   0.1750303), wk =   0.0104167
        k(    3) = (   0.0000000   0.1443376   0.0000000), wk =   0.0312500
        k(    4) = (   0.0000000   0.1443376   0.1750303), wk =   0.0312500
        k(    5) = (   0.0000000   0.2886751   0.0000000), wk =   0.0312500
        k(    6) = (   0.0000000   0.2886751   0.1750303), wk =   0.0312500
        k(    7) = (   0.0000000   0.4330127   0.0000000), wk =   0.0312500
        k(    8) = (   0.0000000   0.4330127   0.1750303), wk =   0.0312500
        k(    9) = (   0.0000000  -0.5773503   0.0000000), wk =   0.0156250
        k(   10) = (   0.0000000  -0.5773503   0.1750303), wk =   0.0312500
        k(   11) = (   0.1250000   0.2165064   0.0000000), wk =   0.0312500
        k(   12) = (   0.1250000   0.2165064   0.1750303), wk =   0.0625000
        k(   13) = (   0.1250000   0.3608439   0.0000000), wk =   0.0625000
        k(   14) = (   0.1250000   0.3608439   0.1750303), wk =   0.0625000
        k(   15) = (   0.1250000   0.5051815   0.0000000), wk =   0.0625000
        k(   16) = (   0.1250000   0.5051815   0.1750303), wk =   0.0625000
        k(   17) = (   0.2500000   0.4330127   0.0000000), wk =   0.0312500
        k(   18) = (   0.2500000   0.4330127   0.1750303), wk =   0.0625000
        k(   19) = (   0.2500000   0.5773503   0.0000000), wk =   0.0312500
        k(   20) = (   0.2500000   0.5773503   0.1750303), wk =   0.0625000
        k(   21) = (   0.0000000  -0.1443376   0.1750303), wk =   0.0312500
        k(   22) = (   0.0000000  -0.2886751   0.1750303), wk =   0.0312500
        k(   23) = (   0.0000000  -0.4330127   0.1750303), wk =   0.0312500
        k(   24) = (  -0.1250000  -0.3608439   0.1750303), wk =   0.0625000
        k(   25) = (  -0.1250000  -0.5051815   0.1750303), wk =   0.0625000

                       cryst. coord.
        k(    1) = (   0.0000000   0.0000000   0.0000000), wk =   0.0052083
        k(    2) = (   0.0000000   0.0000000   0.3333333), wk =   0.0104167
        k(    3) = (   0.0000000   0.1250000   0.0000000), wk =   0.0312500
        k(    4) = (   0.0000000   0.1250000   0.3333333), wk =   0.0312500
        k(    5) = (   0.0000000   0.2500000   0.0000000), wk =   0.0312500
        k(    6) = (   0.0000000   0.2500000   0.3333333), wk =   0.0312500
        k(    7) = (   0.0000000   0.3750000   0.0000000), wk =   0.0312500
        k(    8) = (   0.0000000   0.3750000   0.3333333), wk =   0.0312500
        k(    9) = (   0.0000000  -0.5000000   0.0000000), wk =   0.0156250
        k(   10) = (   0.0000000  -0.5000000   0.3333333), wk =   0.0312500
        k(   11) = (   0.1250000   0.1250000   0.0000000), wk =   0.0312500
        k(   12) = (   0.1250000   0.1250000   0.3333333), wk =   0.0625000
        k(   13) = (   0.1250000   0.2500000   0.0000000), wk =   0.0625000
        k(   14) = (   0.1250000   0.2500000   0.3333333), wk =   0.0625000
        k(   15) = (   0.1250000   0.3750000   0.0000000), wk =   0.0625000
        k(   16) = (   0.1250000   0.3750000   0.3333333), wk =   0.0625000
        k(   17) = (   0.2500000   0.2500000   0.0000000), wk =   0.0312500
        k(   18) = (   0.2500000   0.2500000   0.3333333), wk =   0.0625000
        k(   19) = (   0.2500000   0.3750000   0.0000000), wk =   0.0312500
        k(   20) = (   0.2500000   0.3750000   0.3333333), wk =   0.0625000
        k(   21) = (   0.0000000  -0.1250000   0.3333333), wk =   0.0312500
        k(   22) = (   0.0000000  -0.2500000   0.3333333), wk =   0.0312500
        k(   23) = (   0.0000000  -0.3750000   0.3333333), wk =   0.0312500
        k(   24) = (  -0.1250000  -0.2500000   0.3333333), wk =   0.0625000
        k(   25) = (  -0.1250000  -0.3750000   0.3333333), wk =   0.0625000

     Dense  grid:    47419 G-vectors     FFT dimensions: (  40,  40,  75)

     Smooth grid:    16845 G-vectors     FFT dimensions: (  27,  27,  54)

     Dynamical RAM for                 wfc:       0.87 MB

     Dynamical RAM for     wfc (w. buffer):      44.21 MB

     Dynamical RAM for           str. fact:       2.17 MB

     Dynamical RAM for           local pot:       0.00 MB

     Dynamical RAM for          nlocal pot:       1.35 MB

     Dynamical RAM for                qrad:       5.27 MB

     Dynamical RAM for          rho,v,vnew:       9.83 MB

     Dynamical RAM for               rhoin:       3.28 MB

     Dynamical RAM for            rho*nmix:      23.15 MB

     Dynamical RAM for           G-vectors:       2.84 MB

     Dynamical RAM for          h,s,v(r/c):       0.13 MB

     Dynamical RAM for          <psi|beta>:       0.02 MB

     Dynamical RAM for                 psi:       1.73 MB

     Dynamical RAM for                hpsi:       1.73 MB

     Dynamical RAM for                spsi:       1.73 MB

     Dynamical RAM for      wfcinit/wfcrot:       1.75 MB

     Dynamical RAM for           addusdens:     136.75 MB

     Dynamical RAM for          addusforce:     138.21 MB

     Estimated static dynamical RAM per process >      77.34 MB

     Estimated max dynamical RAM per process >     238.71 MB

     Check: negative core charge=   -0.000009
     Generating pointlists ...
     new r_m :   0.2748 (alat units)  1.4998 (a.u.) for type    1
     new r_m :   0.2635 (alat units)  1.4383 (a.u.) for type    2
     new r_m :   0.2635 (alat units)  1.4383 (a.u.) for type    3

     Initial potential from superposition of free atoms

     starting charge      37.9934, renormalised to      38.0000
     Starting wfcs are   23 randomized atomic wfcs +    4 random wfcs
     Checking if some PAW data can be deallocated... 

     total cpu time spent up to now is        2.9 secs

     Self-consistent Calculation
[tb_dev] Currently allocated     6.54E-01 Mbytes, locked:    0 /   6
[tb_pin] Currently allocated     0.00E+00 Mbytes, locked:    0 /   0

     iteration #  1     ecut=    60.00 Ry     beta= 0.30
     Davidson diagonalization with overlap

---- Real-time Memory Report at c_bands before calling an iterative solver
           651 MiB given to the printing process from OS
             0 MiB allocation reported by mallinfo(arena+hblkhd)
        852096 MiB available memory on the node where the printing process lives
     GPU memory used/free/total (MiB): 924 / 80226 / 81151
------------------
     ethr =  1.00E-02,  avg # of iterations =  9.4

     total cpu time spent up to now is        5.0 secs

     total energy              =    -568.62478400 Ry
     estimated scf accuracy    <       1.49377752 Ry

     total magnetization       =     4.00 Bohr mag/cell
     absolute magnetization    =     4.00 Bohr mag/cell
[tb_dev] Currently allocated     3.05E-05 Mbytes, locked:    0 /   2
[tb_pin] Currently allocated     0.00E+00 Mbytes, locked:    0 /   0

     iteration #  2     ecut=    60.00 Ry     beta= 0.30
     Davidson diagonalization with overlap

---- Real-time Memory Report at c_bands before calling an iterative solver
           694 MiB given to the printing process from OS
             0 MiB allocation reported by mallinfo(arena+hblkhd)
        852349 MiB available memory on the node where the printing process lives
     GPU memory used/free/total (MiB): 936 / 80214 / 81151
------------------
     ethr =  3.93E-03,  avg # of iterations =  2.0

     total cpu time spent up to now is        6.2 secs

     total energy              =    -568.67283481 Ry
     estimated scf accuracy    <       3.28940959 Ry

     total magnetization       =     0.57 Bohr mag/cell
     absolute magnetization    =     1.27 Bohr mag/cell
[tb_dev] Currently allocated     3.05E-05 Mbytes, locked:    0 /   2
[tb_pin] Currently allocated     0.00E+00 Mbytes, locked:    0 /   0

     iteration #  3     ecut=    60.00 Ry     beta= 0.30
     Davidson diagonalization with overlap

---- Real-time Memory Report at c_bands before calling an iterative solver
           695 MiB given to the printing process from OS
             0 MiB allocation reported by mallinfo(arena+hblkhd)
        852203 MiB available memory on the node where the printing process lives
     GPU memory used/free/total (MiB): 936 / 80214 / 81151
------------------
     ethr =  3.93E-03,  avg # of iterations =  1.0

     total cpu time spent up to now is        7.2 secs

     total energy              =    -568.99890785 Ry
     estimated scf accuracy    <       0.20920036 Ry

     total magnetization       =     3.49 Bohr mag/cell
     absolute magnetization    =     3.49 Bohr mag/cell
[tb_dev] Currently allocated     3.05E-05 Mbytes, locked:    0 /   2
[tb_pin] Currently allocated     0.00E+00 Mbytes, locked:    0 /   0

     iteration #  4     ecut=    60.00 Ry     beta= 0.30
     Davidson diagonalization with overlap

---- Real-time Memory Report at c_bands before calling an iterative solver
           697 MiB given to the printing process from OS
             0 MiB allocation reported by mallinfo(arena+hblkhd)
        852184 MiB available memory on the node where the printing process lives
     GPU memory used/free/total (MiB): 936 / 80214 / 81151
------------------
     ethr =  5.51E-04,  avg # of iterations =  3.2

     total cpu time spent up to now is        8.4 secs

     total energy              =    -569.05996711 Ry
     estimated scf accuracy    <       0.13313145 Ry

     total magnetization       =     2.21 Bohr mag/cell
     absolute magnetization    =     2.30 Bohr mag/cell
[tb_dev] Currently allocated     3.05E-05 Mbytes, locked:    0 /   2
[tb_pin] Currently allocated     0.00E+00 Mbytes, locked:    0 /   0

     iteration #  5     ecut=    60.00 Ry     beta= 0.30
     Davidson diagonalization with overlap

---- Real-time Memory Report at c_bands before calling an iterative solver
           698 MiB given to the printing process from OS
             0 MiB allocation reported by mallinfo(arena+hblkhd)
        851976 MiB available memory on the node where the printing process lives
     GPU memory used/free/total (MiB): 936 / 80214 / 81151
------------------
     ethr =  3.50E-04,  avg # of iterations =  1.7

     total cpu time spent up to now is        9.5 secs

     total energy              =    -569.08748506 Ry
     estimated scf accuracy    <       0.15563707 Ry

     total magnetization       =     1.72 Bohr mag/cell
     absolute magnetization    =     1.90 Bohr mag/cell
[tb_dev] Currently allocated     3.05E-05 Mbytes, locked:    0 /   2
[tb_pin] Currently allocated     0.00E+00 Mbytes, locked:    0 /   0

     iteration #  6     ecut=    60.00 Ry     beta= 0.30
     Davidson diagonalization with overlap

---- Real-time Memory Report at c_bands before calling an iterative solver
           700 MiB given to the printing process from OS
             0 MiB allocation reported by mallinfo(arena+hblkhd)
        851975 MiB available memory on the node where the printing process lives
     GPU memory used/free/total (MiB): 936 / 80214 / 81151
------------------
     ethr =  3.50E-04,  avg # of iterations =  2.0

     total cpu time spent up to now is       10.6 secs

     total energy              =    -569.11939691 Ry
     estimated scf accuracy    <       0.12503105 Ry

     total magnetization       =     0.25 Bohr mag/cell
     absolute magnetization    =     0.78 Bohr mag/cell
[tb_dev] Currently allocated     3.05E-05 Mbytes, locked:    0 /   2
[tb_pin] Currently allocated     0.00E+00 Mbytes, locked:    0 /   0

     iteration #  7     ecut=    60.00 Ry     beta= 0.30
     Davidson diagonalization with overlap

---- Real-time Memory Report at c_bands before calling an iterative solver
           701 MiB given to the printing process from OS
             0 MiB allocation reported by mallinfo(arena+hblkhd)
        851971 MiB available memory on the node where the printing process lives
     GPU memory used/free/total (MiB): 936 / 80214 / 81151
------------------
     ethr =  3.29E-04,  avg # of iterations =  1.2

     total cpu time spent up to now is       11.6 secs

     total energy              =    -569.11801117 Ry
     estimated scf accuracy    <       0.16265991 Ry

     total magnetization       =     0.52 Bohr mag/cell
     absolute magnetization    =     0.96 Bohr mag/cell
[tb_dev] Currently allocated     3.05E-05 Mbytes, locked:    0 /   2
[tb_pin] Currently allocated     0.00E+00 Mbytes, locked:    0 /   0

     iteration #  8     ecut=    60.00 Ry     beta= 0.30
     Davidson diagonalization with overlap

---- Real-time Memory Report at c_bands before calling an iterative solver
           703 MiB given to the printing process from OS
             0 MiB allocation reported by mallinfo(arena+hblkhd)
        851979 MiB available memory on the node where the printing process lives
     GPU memory used/free/total (MiB): 936 / 80214 / 81151
------------------
     ethr =  3.29E-04,  avg # of iterations =  1.2

     total cpu time spent up to now is       12.7 secs

     total energy              =    -569.13202401 Ry
     estimated scf accuracy    <       0.15721466 Ry

     total magnetization       =     0.63 Bohr mag/cell
     absolute magnetization    =     1.02 Bohr mag/cell
[tb_dev] Currently allocated     3.05E-05 Mbytes, locked:    0 /   2
[tb_pin] Currently allocated     0.00E+00 Mbytes, locked:    0 /   0

     iteration #  9     ecut=    60.00 Ry     beta= 0.30
     Davidson diagonalization with overlap

---- Real-time Memory Report at c_bands before calling an iterative solver
           705 MiB given to the printing process from OS
             0 MiB allocation reported by mallinfo(arena+hblkhd)
        851985 MiB available memory on the node where the printing process lives
     GPU memory used/free/total (MiB): 936 / 80214 / 81151
------------------
     ethr =  3.29E-04,  avg # of iterations =  1.1

     total cpu time spent up to now is       13.7 secs

     total energy              =    -569.13297719 Ry
     estimated scf accuracy    <       0.14675575 Ry

     total magnetization       =     0.28 Bohr mag/cell
     absolute magnetization    =     0.79 Bohr mag/cell
[tb_dev] Currently allocated     3.05E-05 Mbytes, locked:    0 /   2
[tb_pin] Currently allocated     0.00E+00 Mbytes, locked:    0 /   0

     iteration # 10     ecut=    60.00 Ry     beta= 0.30
     Davidson diagonalization with overlap

---- Real-time Memory Report at c_bands before calling an iterative solver
           707 MiB given to the printing process from OS
             0 MiB allocation reported by mallinfo(arena+hblkhd)
        851975 MiB available memory on the node where the printing process lives
     GPU memory used/free/total (MiB): 936 / 80214 / 81151
------------------
     ethr =  3.29E-04,  avg # of iterations =  1.6

     total cpu time spent up to now is       14.8 secs

     total energy              =    -569.17201616 Ry
     estimated scf accuracy    <       0.06902415 Ry

     total magnetization       =    -0.00 Bohr mag/cell
     absolute magnetization    =     0.08 Bohr mag/cell
[tb_dev] Currently allocated     3.05E-05 Mbytes, locked:    0 /   2
[tb_pin] Currently allocated     0.00E+00 Mbytes, locked:    0 /   0

     iteration # 11     ecut=    60.00 Ry     beta= 0.30
     Davidson diagonalization with overlap

---- Real-time Memory Report at c_bands before calling an iterative solver
           707 MiB given to the printing process from OS
             0 MiB allocation reported by mallinfo(arena+hblkhd)
        851948 MiB available memory on the node where the printing process lives
     GPU memory used/free/total (MiB): 936 / 80214 / 81151
------------------
     ethr =  1.82E-04,  avg # of iterations =  1.4

     total cpu time spent up to now is       15.9 secs

     WARNING: integrated charge=    38.00080353, expected=    38.00000000

     total energy              =    -569.17119747 Ry
     estimated scf accuracy    <       0.00731361 Ry

     total magnetization       =     0.00 Bohr mag/cell
     absolute magnetization    =     0.17 Bohr mag/cell
[tb_dev] Currently allocated     3.05E-05 Mbytes, locked:    0 /   2
[tb_pin] Currently allocated     0.00E+00 Mbytes, locked:    0 /   0

     iteration # 12     ecut=    60.00 Ry     beta= 0.30
     Davidson diagonalization with overlap

---- Real-time Memory Report at c_bands before calling an iterative solver
           707 MiB given to the printing process from OS
             0 MiB allocation reported by mallinfo(arena+hblkhd)
        851969 MiB available memory on the node where the printing process lives
     GPU memory used/free/total (MiB): 936 / 80214 / 81151
------------------
     ethr =  1.92E-05,  avg # of iterations =  6.3
     Minimization algorithm failed to find Fermi energy: reverting to bisection
     Possible cause: smearing is larger than the electronic band-gap.

     total cpu time spent up to now is       17.5 secs

     WARNING: integrated charge=    38.00054195, expected=    38.00000000

     total energy              =    -569.17524619 Ry
     estimated scf accuracy    <       0.01152180 Ry

     total magnetization       =     0.04 Bohr mag/cell
     absolute magnetization    =     0.28 Bohr mag/cell
[tb_dev] Currently allocated     3.05E-05 Mbytes, locked:    0 /   2
[tb_pin] Currently allocated     0.00E+00 Mbytes, locked:    0 /   0

     iteration # 13     ecut=    60.00 Ry     beta= 0.30
     Davidson diagonalization with overlap

---- Real-time Memory Report at c_bands before calling an iterative solver
           707 MiB given to the printing process from OS
             0 MiB allocation reported by mallinfo(arena+hblkhd)
        851984 MiB available memory on the node where the printing process lives
     GPU memory used/free/total (MiB): 936 / 80214 / 81151
------------------
     ethr =  1.92E-05,  avg # of iterations =  1.8

     total cpu time spent up to now is       18.6 secs

     WARNING: integrated charge=    38.00046604, expected=    38.00000000

     total energy              =    -569.17804287 Ry
     estimated scf accuracy    <       0.00050843 Ry

     total magnetization       =     0.00 Bohr mag/cell
     absolute magnetization    =     0.08 Bohr mag/cell
[tb_dev] Currently allocated     3.05E-05 Mbytes, locked:    0 /   2
[tb_pin] Currently allocated     0.00E+00 Mbytes, locked:    0 /   0

     iteration # 14     ecut=    60.00 Ry     beta= 0.30
     Davidson diagonalization with overlap

---- Real-time Memory Report at c_bands before calling an iterative solver
           707 MiB given to the printing process from OS
             0 MiB allocation reported by mallinfo(arena+hblkhd)
        852403 MiB available memory on the node where the printing process lives
     GPU memory used/free/total (MiB): 936 / 80214 / 81151
------------------
     ethr =  1.34E-06,  avg # of iterations =  7.3

     total cpu time spent up to now is       20.5 secs

     WARNING: integrated charge=    38.00051490, expected=    38.00000000

     total energy              =    -569.17847518 Ry
     estimated scf accuracy    <       0.00053125 Ry

     total magnetization       =    -0.00 Bohr mag/cell
     absolute magnetization    =     0.03 Bohr mag/cell
[tb_dev] Currently allocated     3.05E-05 Mbytes, locked:    0 /   2
[tb_pin] Currently allocated     0.00E+00 Mbytes, locked:    0 /   0

     iteration # 15     ecut=    60.00 Ry     beta= 0.30
     Davidson diagonalization with overlap

---- Real-time Memory Report at c_bands before calling an iterative solver
           707 MiB given to the printing process from OS
             0 MiB allocation reported by mallinfo(arena+hblkhd)
        852257 MiB available memory on the node where the printing process lives
     GPU memory used/free/total (MiB): 936 / 80214 / 81151
------------------
     ethr =  1.34E-06,  avg # of iterations =  1.5

     total cpu time spent up to now is       21.6 secs

     WARNING: integrated charge=    38.00074326, expected=    38.00000000

     total energy              =    -569.17839555 Ry
     estimated scf accuracy    <       0.00043672 Ry

     total magnetization       =    -0.00 Bohr mag/cell
     absolute magnetization    =     0.02 Bohr mag/cell
[tb_dev] Currently allocated     3.05E-05 Mbytes, locked:    0 /   2
[tb_pin] Currently allocated     0.00E+00 Mbytes, locked:    0 /   0

     iteration # 16     ecut=    60.00 Ry     beta= 0.30
     Davidson diagonalization with overlap

---- Real-time Memory Report at c_bands before calling an iterative solver
           707 MiB given to the printing process from OS
             0 MiB allocation reported by mallinfo(arena+hblkhd)
        852166 MiB available memory on the node where the printing process lives
     GPU memory used/free/total (MiB): 936 / 80214 / 81151
------------------
     ethr =  1.15E-06,  avg # of iterations =  1.3

     total cpu time spent up to now is       22.6 secs

     WARNING: integrated charge=    38.00103925, expected=    38.00000000

     total energy              =    -569.17837576 Ry
     estimated scf accuracy    <       0.00025869 Ry

     total magnetization       =    -0.00 Bohr mag/cell
     absolute magnetization    =     0.02 Bohr mag/cell
[tb_dev] Currently allocated     3.05E-05 Mbytes, locked:    0 /   2
[tb_pin] Currently allocated     0.00E+00 Mbytes, locked:    0 /   0

     iteration # 17     ecut=    60.00 Ry     beta= 0.30
     Davidson diagonalization with overlap

---- Real-time Memory Report at c_bands before calling an iterative solver
           707 MiB given to the printing process from OS
             0 MiB allocation reported by mallinfo(arena+hblkhd)
        852167 MiB available memory on the node where the printing process lives
     GPU memory used/free/total (MiB): 936 / 80214 / 81151
------------------
     ethr =  6.81E-07,  avg # of iterations =  1.5

     total cpu time spent up to now is       23.7 secs

     WARNING: integrated charge=    38.00113112, expected=    38.00000000

     total energy              =    -569.17849631 Ry
     estimated scf accuracy    <       0.00005232 Ry

     total magnetization       =    -0.00 Bohr mag/cell
     absolute magnetization    =     0.02 Bohr mag/cell
[tb_dev] Currently allocated     3.05E-05 Mbytes, locked:    0 /   2
[tb_pin] Currently allocated     0.00E+00 Mbytes, locked:    0 /   0

     iteration # 18     ecut=    60.00 Ry     beta= 0.30
     Davidson diagonalization with overlap

---- Real-time Memory Report at c_bands before calling an iterative solver
           707 MiB given to the printing process from OS
             0 MiB allocation reported by mallinfo(arena+hblkhd)
        851965 MiB available memory on the node where the printing process lives
     GPU memory used/free/total (MiB): 936 / 80214 / 81151
------------------
     ethr =  1.38E-07,  avg # of iterations =  4.4

     total cpu time spent up to now is       25.1 secs

     WARNING: integrated charge=    38.00118878, expected=    38.00000000

     total energy              =    -569.17850616 Ry
     estimated scf accuracy    <       0.00000469 Ry

     total magnetization       =    -0.00 Bohr mag/cell
     absolute magnetization    =     0.01 Bohr mag/cell
[tb_dev] Currently allocated     3.05E-05 Mbytes, locked:    0 /   2
[tb_pin] Currently allocated     0.00E+00 Mbytes, locked:    0 /   0

     iteration # 19     ecut=    60.00 Ry     beta= 0.30
     Davidson diagonalization with overlap

---- Real-time Memory Report at c_bands before calling an iterative solver
           707 MiB given to the printing process from OS
             0 MiB allocation reported by mallinfo(arena+hblkhd)
        852393 MiB available memory on the node where the printing process lives
     GPU memory used/free/total (MiB): 936 / 80214 / 81151
------------------
     ethr =  1.23E-08,  avg # of iterations =  8.5

     total cpu time spent up to now is       27.1 secs

     WARNING: integrated charge=    38.00119529, expected=    38.00000000

     total energy              =    -569.17850941 Ry
     estimated scf accuracy    <       0.00000043 Ry

     total magnetization       =    -0.00 Bohr mag/cell
     absolute magnetization    =     0.00 Bohr mag/cell
[tb_dev] Currently allocated     3.05E-05 Mbytes, locked:    0 /   2
[tb_pin] Currently allocated     0.00E+00 Mbytes, locked:    0 /   0

     iteration # 20     ecut=    60.00 Ry     beta= 0.30
     Davidson diagonalization with overlap

---- Real-time Memory Report at c_bands before calling an iterative solver
           707 MiB given to the printing process from OS
             0 MiB allocation reported by mallinfo(arena+hblkhd)
        852026 MiB available memory on the node where the printing process lives
     GPU memory used/free/total (MiB): 936 / 80214 / 81151
------------------
     ethr =  1.13E-09,  avg # of iterations =  5.4

     total cpu time spent up to now is       28.6 secs

     WARNING: integrated charge=    38.00120703, expected=    38.00000000

     total energy              =    -569.17851060 Ry
     estimated scf accuracy    <       0.00000021 Ry

     total magnetization       =    -0.00 Bohr mag/cell
     absolute magnetization    =     0.00 Bohr mag/cell
[tb_dev] Currently allocated     3.05E-05 Mbytes, locked:    0 /   2
[tb_pin] Currently allocated     0.00E+00 Mbytes, locked:    0 /   0

     iteration # 21     ecut=    60.00 Ry     beta= 0.30
     Davidson diagonalization with overlap

---- Real-time Memory Report at c_bands before calling an iterative solver
           707 MiB given to the printing process from OS
             0 MiB allocation reported by mallinfo(arena+hblkhd)
        851977 MiB available memory on the node where the printing process lives
     GPU memory used/free/total (MiB): 936 / 80214 / 81151
------------------
     ethr =  5.64E-10,  avg # of iterations =  3.6

     total cpu time spent up to now is       30.0 secs

     WARNING: integrated charge=    38.00120767, expected=    38.00000000

     total energy              =    -569.17851001 Ry
     estimated scf accuracy    <       0.00000003 Ry

     total magnetization       =    -0.00 Bohr mag/cell
     absolute magnetization    =     0.00 Bohr mag/cell
[tb_dev] Currently allocated     3.05E-05 Mbytes, locked:    0 /   2
[tb_pin] Currently allocated     0.00E+00 Mbytes, locked:    0 /   0

     iteration # 22     ecut=    60.00 Ry     beta= 0.30
     Davidson diagonalization with overlap

---- Real-time Memory Report at c_bands before calling an iterative solver
           707 MiB given to the printing process from OS
             0 MiB allocation reported by mallinfo(arena+hblkhd)
        851767 MiB available memory on the node where the printing process lives
     GPU memory used/free/total (MiB): 936 / 80214 / 81151
------------------
     ethr =  8.44E-11,  avg # of iterations =  6.0
 
     Magnetic moment per site  (integrated on atomic sphere of radius R)
     atom   1 (R=0.275)  charge= 14.2023  magn=  0.0001
     atom   2 (R=0.264)  charge=  5.0417  magn= -0.0002
     atom   3 (R=0.264)  charge=  5.2592  magn=  0.0000
     atom   4 (R=0.264)  charge=  7.6831  magn= -0.0000

     total cpu time spent up to now is       31.6 secs

     End of self-consistent calculation

 ------ SPIN UP ------------


          k = 0.0000 0.0000 0.0000 (  2113 PWs)   bands (ev):

   -85.3175 -48.6402 -48.6402 -48.4612 -41.4342 -13.8552 -13.2629 -13.2629
   -10.0273  -8.1705   3.1569   4.0767   4.0767   7.2698   7.4079   7.4079
     8.5098   8.5098   9.6170  11.9773  11.9773  12.9260  18.5922  19.7130
    24.4945  26.7418  26.7418

     occupation numbers 
     1.0000   1.0000   1.0000   1.0000   1.0000   1.0000   1.0000   1.0000
     1.0000   1.0000   1.0000   1.0000   1.0000   1.0000   1.0000   1.0000
     1.0000   1.0000   1.0002   0.0000   0.0000   0.0000   0.0000   0.0000
     0.0000   0.0000   0.0000

          k = 0.0000 0.0000 0.1750 (  2114 PWs)   bands (ev):

   -85.3175 -48.6403 -48.6403 -48.4610 -41.4342 -13.8639 -13.2632 -13.2632
    -9.9701  -8.2299   3.3903   4.0752   4.0752   6.6828   7.4096   7.4096
     8.5101   8.5101   9.6799  11.9769  11.9769  13.8047  17.5768  19.7914
    25.1110  26.9115  26.9115

     occupation numbers 
     1.0000   1.0000   1.0000   1.0000   1.0000   1.0000   1.0000   1.0000
     1.0000   1.0000   1.0000   1.0000   1.0000   1.0000   1.0000   1.0000
     1.0000   1.0000   1.0007   0.0000   0.0000   0.0000   0.0000   0.0000
     0.0000   0.0000   0.0000

          k = 0.0000 0.1443 0.0000 (  2123 PWs)   bands (ev):

   -85.3167 -48.6492 -48.6424 -48.4597 -41.4266 -13.8667 -13.3469 -13.2804
    -9.8405  -8.1487   3.3650   3.9235   4.1750   6.4504   7.0211   7.5388
     8.7324   8.8554   9.6535  11.6000  11.8906  13.4617  19.0713  20.0861
    24.1441  25.9512  27.0973

     occupation numbers 
     1.0000   1.0000   1.0000   1.0000   1.0000   1.0000   1.0000   1.0000
     1.0000   1.0000   1.0000   1.0000   1.0000   1.0000   1.0000   1.0000
     1.0000   1.0000   1.0004   0.0000   0.0000   0.0000   0.0000   0.0000
     0.0000   0.0000   0.0000

          k = 0.0000 0.1443 0.1750 (  2102 PWs)   bands (ev):

   -85.3167 -48.6491 -48.6423 -48.4594 -41.4265 -13.8733 -13.3474 -13.2802
    -9.7906  -8.1985   3.5390   3.8950   4.1734   6.4552   7.0234   7.1394
     8.7172   8.8567   9.7471  11.4764  11.8877  14.2483  18.0870  20.3744
    24.3952  26.2291  27.2990

     occupation numbers 
     1.0000   1.0000   1.0000   1.0000   1.0000   1.0000   1.0000   1.0000
     1.0000   1.0000   1.0000   1.0000   1.0000   1.0000   1.0000   1.0000
     1.0000   1.0000   1.0021   0.0000   0.0000   0.0000   0.0000   0.0000
     0.0000   0.0000   0.0000

          k = 0.0000 0.2887 0.0000 (  2112 PWs)   bands (ev):

   -85.3148 -48.6706 -48.6475 -48.4559 -41.4079 -13.9646 -13.4505 -13.3218
    -9.3863  -8.1135   3.5612   3.9324   4.4048   5.2453   6.5176   7.5180
     8.8704   9.1804   9.6321  11.1479  11.7840  14.6160  19.7743  20.8369
    23.2780  24.9107  25.8473

     occupation numbers 
     1.0000   1.0000   1.0000   1.0000   1.0000   1.0000   1.0000   1.0000
     1.0000   1.0000   1.0000   1.0000   1.0000   1.0000   1.0000   1.0000
     1.0000   1.0000   1.0003   0.0001   0.0000   0.0000   0.0000   0.0000
     0.0000   0.0000   0.0000

          k = 0.0000 0.2887 0.1750 (  2100 PWs)   bands (ev):

   -85.3148 -48.6706 -48.6474 -48.4559 -41.4078 -13.9665 -13.4532 -13.3215
    -9.3548  -8.1396   3.4474   4.0246   4.4037   5.3585   6.5195   7.4155
     8.8326   9.1823   9.7074  10.9010  11.7787  15.1118  19.1328  21.3430
    23.1231  24.8498  25.6723

     occupation numbers 
     1.0000   1.0000   1.0000   1.0000   1.0000   1.0000   1.0000   1.0000
     1.0000   1.0000   1.0000   1.0000   1.0000   1.0000   1.0000   1.0000
     1.0000   1.0000   1.0011   0.0084   0.0000   0.0000   0.0000   0.0000
     0.0000   0.0000   0.0000

          k = 0.0000 0.4330 0.0000 (  2098 PWs)   bands (ev):

   -85.3129 -48.6920 -48.6525 -48.4522 -41.3891 -14.1345 -13.4527 -13.3626
    -8.9068  -8.1047   3.0445   4.1560   4.5956   5.2688   6.2846   6.8892
     8.8107   9.1383   9.4558  11.2909  11.8313  15.9764  19.6644  20.7499
    22.2584  24.4903  24.9500

     occupation numbers 
     1.0000   1.0000   1.0000   1.0000   1.0000   1.0000   1.0000   1.0000
     1.0000   1.0000   1.0000   1.0000   1.0000   1.0000   1.0000   1.0000
     1.0000   1.0000   1.0000   0.0000   0.0000   0.0000   0.0000   0.0000
     0.0000   0.0000   0.0000

          k = 0.0000 0.4330 0.1750 (  2109 PWs)   bands (ev):

   -85.3129 -48.6921 -48.6526 -48.4523 -41.3892 -14.1346 -13.4560 -13.3626
    -8.8969  -8.1057   2.9800   4.0930   4.5955   5.3840   6.2854   6.9746
     8.7958   9.1393   9.4660  11.1442  11.8253  16.0929  19.3814  21.0011
    22.6192  24.2503  25.0296

     occupation numbers 
     1.0000   1.0000   1.0000   1.0000   1.0000   1.0000   1.0000   1.0000
     1.0000   1.0000   1.0000   1.0000   1.0000   1.0000   1.0000   1.0000
     1.0000   1.0000   1.0000   0.0001   0.0000   0.0000   0.0000   0.0000
     0.0000   0.0000   0.0000

          k = 0.0000-0.5774 0.0000 (  2102 PWs)   bands (ev):

   -85.3121 -48.7010 -48.6546 -48.4507 -41.3814 -14.2127 -13.4397 -13.3794
    -8.6923  -8.1123   2.6900   4.3087   4.6493   5.6324   6.2627   6.4157
     8.7089   9.0388   9.3492  11.4596  11.8881  17.0720  18.7925  20.2107
    22.2194  24.4335  25.0108

     occupation numbers 
     1.0000   1.0000   1.0000   1.0000   1.0000   1.0000   1.0000   1.0000
     1.0000   1.0000   1.0000   1.0000   1.0000   1.0000   1.0000   1.0000
     1.0000   1.0000   1.0000   0.0000   0.0000   0.0000   0.0000   0.0000
     0.0000   0.0000   0.0000

          k = 0.0000-0.5774 0.1750 (  2116 PWs)   bands (ev):

   -85.3121 -48.7010 -48.6548 -48.4508 -41.3814 -14.2124 -13.4426 -13.3798
    -8.6913  -8.1043   2.6466   4.2366   4.6493   5.6574   6.2631   6.5613
     8.7004   9.0390   9.3439  11.4572  11.8818  16.6119  18.8161  21.0604
    22.1891  24.6117  25.1254

     occupation numbers 
     1.0000   1.0000   1.0000   1.0000   1.0000   1.0000   1.0000   1.0000
     1.0000   1.0000   1.0000   1.0000   1.0000   1.0000   1.0000   1.0000
     1.0000   1.0000   1.0000   0.0000   0.0000   0.0000   0.0000   0.0000
     0.0000   0.0000   0.0000

          k = 0.1250 0.2165 0.0000 (  2101 PWs)   bands (ev):

   -85.3153 -48.6633 -48.6469 -48.4570 -41.4133 -13.9214 -13.4281 -13.3202
    -9.5211  -8.1202   3.6368   3.8400   4.3121   5.5724   6.4695   7.6434
     8.8781   9.1754   9.6401  11.3162  11.6345  14.3078  19.6625  20.6919
    23.5923  25.1648  26.5603

     occupation numbers 
     1.0000   1.0000   1.0000   1.0000   1.0000   1.0000   1.0000   1.0000
     1.0000   1.0000   1.0000   1.0000   1.0000   1.0000   1.0000   1.0000
     1.0000   1.0000   1.0003   0.0000   0.0000   0.0000   0.0000   0.0000
     0.0000   0.0000   0.0000

          k = 0.1250 0.2165 0.1750 (  2101 PWs)   bands (ev):

   -85.3153 -48.6633 -48.6469 -48.4569 -41.4133 -13.9248 -13.4301 -13.3203
    -9.4824  -8.1556   3.5769   3.9387   4.3143   5.6388   6.4742   7.4457
     8.8756   9.1277   9.7099  11.1346  11.6980  14.7577  18.9570  21.2115
    23.5831  25.1957  26.4094

     occupation numbers 
     1.0000   1.0000   1.0000   1.0000   1.0000   1.0000   1.0000   1.0000
     1.0000   1.0000   1.0000   1.0000   1.0000   1.0000   1.0000   1.0000
     1.0000   1.0000   1.0012   0.0001   0.0000   0.0000   0.0000   0.0000
     0.0000   0.0000   0.0000

          k = 0.1250 0.3608 0.0000 (  2106 PWs)   bands (ev):

   -85.3135 -48.6826 -48.6543 -48.4533 -41.3947 -14.0575 -13.4532 -13.3839
    -9.0566  -8.0958   3.4518   4.0276   4.4979   5.0825   6.0768   7.2582
     8.9287   9.3099   9.4981  11.2368  11.5746  15.5241  19.9688  21.2809
    22.8230  24.2686  24.8918

     occupation numbers 
     1.0000   1.0000   1.0000   1.0000   1.0000   1.0000   1.0000   1.0000
     1.0000   1.0000   1.0000   1.0000   1.0000   1.0000   1.0000   1.0000
     1.0000   1.0000   1.0000   0.0000   0.0000   0.0000   0.0000   0.0000
     0.0000   0.0000   0.0000

          k = 0.1250 0.3608 0.1750 (  2102 PWs)   bands (ev):

   -85.3134 -48.6826 -48.6542 -48.4534 -41.3946 -14.0580 -13.4561 -13.3838
    -9.0371  -8.1078   3.3615   3.9988   4.5066   5.2288   6.0830   7.2623
     8.9227   9.2852   9.5072  11.0706  11.6264  15.6772  19.8069  21.3683
    23.1482  24.0620  25.1161

     occupation numbers 
     1.0000   1.0000   1.0000   1.0000   1.0000   1.0000   1.0000   1.0000
     1.0000   1.0000   1.0000   1.0000   1.0000   1.0000   1.0000   1.0000
     1.0000   1.0000   1.0000   0.0004   0.0000   0.0000   0.0000   0.0000
     0.0000   0.0000   0.0000

          k = 0.1250 0.5052 0.0000 (  2104 PWs)   bands (ev):

   -85.3121 -48.6961 -48.6595 -48.4507 -41.3814 -14.1717 -13.4526 -13.4158
    -8.7121  -8.0869   2.9561   4.1258   4.6366   5.5516   5.8859   6.6462
     8.8358   9.1139   9.4373  11.3989  11.6765  16.8682  19.3609  20.6917
    22.4613  24.1412  24.4365

     occupation numbers 
     1.0000   1.0000   1.0000   1.0000   1.0000   1.0000   1.0000   1.0000
     1.0000   1.0000   1.0000   1.0000   1.0000   1.0000   1.0000   1.0000
     1.0000   1.0000   1.0000   0.0000   0.0000   0.0000   0.0000   0.0000
     0.0000   0.0000   0.0000

          k = 0.1250 0.5052 0.1750 (  2107 PWs)   bands (ev):

   -85.3121 -48.6961 -48.6595 -48.4508 -41.3814 -14.1715 -13.4543 -13.4169
    -8.7097  -8.0803   2.9138   4.0654   4.6278   5.6116   5.8885   6.7380
     8.8227   9.1186   9.4267  11.3673  11.7034  16.7024  19.1928  21.1408
    22.6985  24.1153  24.7820

     occupation numbers 
     1.0000   1.0000   1.0000   1.0000   1.0000   1.0000   1.0000   1.0000
     1.0000   1.0000   1.0000   1.0000   1.0000   1.0000   1.0000   1.0000
     1.0000   1.0000   1.0000   0.0000   0.0000   0.0000   0.0000   0.0000
     0.0000   0.0000   0.0000

          k = 0.2500 0.4330 0.0000 (  2095 PWs)   bands (ev):

   -85.3121 -48.6893 -48.6661 -48.4507 -41.3814 -14.1245 -13.4949 -13.4284
    -8.7303  -8.0630   3.3831   3.9512   4.4016   5.3262   5.8508   6.7667
     8.9439   9.1566   9.5617  11.3393  11.4506  16.7372  19.8388  21.8404
    22.3943  23.1146  24.1529

     occupation numbers 
     1.0000   1.0000   1.0000   1.0000   1.0000   1.0000   1.0000   1.0000
     1.0000   1.0000   1.0000   1.0000   1.0000   1.0000   1.0000   1.0000
     1.0000   1.0000   1.0001   0.0000   0.0000   0.0000   0.0000   0.0000
     0.0000   0.0000   0.0000

          k = 0.2500 0.4330 0.1750 (  2101 PWs)   bands (ev):

   -85.3121 -48.6893 -48.6661 -48.4508 -41.3814 -14.1245 -13.4948 -13.4313
    -8.7230  -8.0622   3.3453   3.8873   4.3933   5.4234   5.8667   6.7730
     8.9484   9.1595   9.5201  11.3679  11.4904  16.5409  20.0078  21.5286
    22.8925  23.3693  24.4157

     occupation numbers 
     1.0000   1.0000   1.0000   1.0000   1.0000   1.0000   1.0000   1.0000
     1.0000   1.0000   1.0000   1.0000   1.0000   1.0000   1.0000   1.0000
     1.0000   1.0000   1.0000   0.0000   0.0000   0.0000   0.0000   0.0000
     0.0000   0.0000   0.0000

          k = 0.2500 0.5774 0.0000 (  2102 PWs)   bands (ev):

   -85.3116 -48.6899 -48.6734 -48.4497 -41.3759 -14.1427 -13.5506 -13.4176
    -8.6048  -8.0351   3.3258   3.9261   4.3224   5.4828   5.9753   6.3800
     8.7655   9.2845   9.5280  11.3911  11.4274  17.5933  19.4896  21.2931
    22.3838  23.1595  23.9615

     occupation numbers 
     1.0000   1.0000   1.0000   1.0000   1.0000   1.0000   1.0000   1.0000
     1.0000   1.0000   1.0000   1.0000   1.0000   1.0000   1.0000   1.0000
     1.0000   1.0000   1.0000   0.0000   0.0000   0.0000   0.0000   0.0000
     0.0000   0.0000   0.0000

          k = 0.2500 0.5774 0.1750 (  2105 PWs)   bands (ev):

   -85.3116 -48.6898 -48.6735 -48.4498 -41.3760 -14.1425 -13.5506 -13.4199
    -8.6044  -8.0272   3.2948   3.9024   4.2876   5.5405   5.9688   6.4002
     8.7728   9.2797   9.5103  11.4339  11.4947  17.3649  19.3956  21.5425
    22.3738  23.3926  24.4780

     occupation numbers 
     1.0000   1.0000   1.0000   1.0000   1.0000   1.0000   1.0000   1.0000
     1.0000   1.0000   1.0000   1.0000   1.0000   1.0000   1.0000   1.0000
     1.0000   1.0000   1.0000   0.0000   0.0000   0.0000   0.0000   0.0000
     0.0000   0.0000   0.0000

          k = 0.0000-0.1443 0.1750 (  2102 PWs)   bands (ev):

   -85.3167 -48.6491 -48.6423 -48.4594 -41.4265 -13.8734 -13.3473 -13.2802
    -9.7899  -8.1996   3.5528   3.8891   4.1736   6.4103   7.0222   7.1824
     8.7045   8.8565   9.7326  11.5464  11.8904  14.1597  18.1263  20.3764
    24.4591  26.3212  27.2389

     occupation numbers 
     1.0000   1.0000   1.0000   1.0000   1.0000   1.0000   1.0000   1.0000
     1.0000   1.0000   1.0000   1.0000   1.0000   1.0000   1.0000   1.0000
     1.0000   1.0000   1.0017   0.0000   0.0000   0.0000   0.0000   0.0000
     0.0000   0.0000   0.0000

          k = 0.0000-0.2887 0.1750 (  2100 PWs)   bands (ev):

   -85.3148 -48.6706 -48.6474 -48.4559 -41.4078 -13.9668 -13.4529 -13.3216
    -9.3502  -8.1456   3.4974   3.9897   4.4035   5.3569   6.5191   7.3710
     8.8219   9.1818   9.6444  11.1327  11.7809  14.8044  19.3455  21.3776
    23.4942  24.3527  26.2576

     occupation numbers 
     1.0000   1.0000   1.0000   1.0000   1.0000   1.0000   1.0000   1.0000
     1.0000   1.0000   1.0000   1.0000   1.0000   1.0000   1.0000   1.0000
     1.0000   1.0000   1.0004   0.0001   0.0000   0.0000   0.0000   0.0000
     0.0000   0.0000   0.0000

          k = 0.0000-0.4330 0.1750 (  2109 PWs)   bands (ev):

   -85.3129 -48.6921 -48.6526 -48.4524 -41.3892 -14.1350 -13.4558 -13.3626
    -8.8887  -8.1156   2.9875   4.0957   4.5948   5.4381   6.2861   6.8680
     8.7967   9.1390   9.4376  11.3261  11.8256  15.6572  19.8383  21.4502
    22.1115  24.3291  25.3884

     occupation numbers 
     1.0000   1.0000   1.0000   1.0000   1.0000   1.0000   1.0000   1.0000
     1.0000   1.0000   1.0000   1.0000   1.0000   1.0000   1.0000   1.0000
     1.0000   1.0000   1.0000   0.0000   0.0000   0.0000   0.0000   0.0000
     0.0000   0.0000   0.0000

          k =-0.1250-0.3608 0.1750 (  2102 PWs)   bands (ev):

   -85.3134 -48.6826 -48.6542 -48.4534 -41.3946 -14.0582 -13.4559 -13.3838
    -9.0330  -8.1129   3.3775   3.9916   4.5016   5.2461   6.0877   7.2088
     8.9330   9.2934   9.4612  11.2223  11.5978  15.4591  20.0053  21.5465
    23.1654  23.9033  25.0385

     occupation numbers 
     1.0000   1.0000   1.0000   1.0000   1.0000   1.0000   1.0000   1.0000
     1.0000   1.0000   1.0000   1.0000   1.0000   1.0000   1.0000   1.0000
     1.0000   1.0000   1.0000   0.0000   0.0000   0.0000   0.0000   0.0000
     0.0000   0.0000   0.0000

          k =-0.1250-0.5052 0.1750 (  2107 PWs)   bands (ev):

   -85.3121 -48.6961 -48.6595 -48.4508 -41.3814 -14.1716 -13.4541 -13.4170
    -8.7056  -8.0851   2.9125   4.0738   4.6275   5.6416   5.8904   6.6817
     8.8339   9.1154   9.4130  11.4439  11.6899  16.4515  19.4589  21.5022
    22.2733  24.2055  24.6458

     occupation numbers 
     1.0000   1.0000   1.0000   1.0000   1.0000   1.0000   1.0000   1.0000
     1.0000   1.0000   1.0000   1.0000   1.0000   1.0000   1.0000   1.0000
     1.0000   1.0000   1.0000   0.0000   0.0000   0.0000   0.0000   0.0000
     0.0000   0.0000   0.0000

 ------ SPIN DOWN ----------


          k = 0.0000 0.0000 0.0000 (  2113 PWs)   bands (ev):

   -85.3173 -48.6402 -48.6402 -48.4606 -41.4343 -13.8552 -13.2629 -13.2629
   -10.0273  -8.1708   3.1568   4.0768   4.0768   7.2695   7.4077   7.4077
     8.5102   8.5102   9.6168  11.9773  11.9773  12.9260  18.5923  19.7131
    24.4947  26.7420  26.7420

     occupation numbers 
     1.0000   1.0000   1.0000   1.0000   1.0000   1.0000   1.0000   1.0000
     1.0000   1.0000   1.0000   1.0000   1.0000   1.0000   1.0000   1.0000
     1.0000   1.0000   1.0002   0.0000   0.0000   0.0000   0.0000   0.0000
     0.0000   0.0000   0.0000

          k = 0.0000 0.0000 0.1750 (  2114 PWs)   bands (ev):

   -85.3173 -48.6403 -48.6403 -48.4604 -41.4342 -13.8639 -13.2632 -13.2632
    -9.9701  -8.2302   3.3903   4.0753   4.0753   6.6825   7.4095   7.4095
     8.5106   8.5106   9.6798  11.9768  11.9768  13.8046  17.5768  19.7916
    25.1110  26.9116  26.9116

     occupation numbers 
     1.0000   1.0000   1.0000   1.0000   1.0000   1.0000   1.0000   1.0000
     1.0000   1.0000   1.0000   1.0000   1.0000   1.0000   1.0000   1.0000
     1.0000   1.0000   1.0007   0.0000   0.0000   0.0000   0.0000   0.0000
     0.0000   0.0000   0.0000

          k = 0.0000 0.1443 0.0000 (  2123 PWs)   bands (ev):

   -85.3166 -48.6492 -48.6425 -48.4591 -41.4266 -13.8667 -13.3469 -13.2804
    -9.8405  -8.1490   3.3650   3.9235   4.1750   6.4504   7.0211   7.5386
     8.7328   8.8557   9.6534  11.6000  11.8906  13.4617  19.0714  20.0862
    24.1443  25.9514  27.0975

     occupation numbers 
     1.0000   1.0000   1.0000   1.0000   1.0000   1.0000   1.0000   1.0000
     1.0000   1.0000   1.0000   1.0000   1.0000   1.0000   1.0000   1.0000
     1.0000   1.0000   1.0004   0.0000   0.0000   0.0000   0.0000   0.0000
     0.0000   0.0000   0.0000

          k = 0.0000 0.1443 0.1750 (  2102 PWs)   bands (ev):

   -85.3165 -48.6492 -48.6424 -48.4589 -41.4265 -13.8733 -13.3474 -13.2802
    -9.7906  -8.1988   3.5390   3.8950   4.1735   6.4552   7.0233   7.1391
     8.7176   8.8570   9.7469  11.4764  11.8876  14.2482  18.0870  20.3745
    24.3953  26.2292  27.2990

     occupation numbers 
     1.0000   1.0000   1.0000   1.0000   1.0000   1.0000   1.0000   1.0000
     1.0000   1.0000   1.0000   1.0000   1.0000   1.0000   1.0000   1.0000
     1.0000   1.0000   1.0021   0.0000   0.0000   0.0000   0.0000   0.0000
     0.0000   0.0000   0.0000

          k = 0.0000 0.2887 0.0000 (  2112 PWs)   bands (ev):

   -85.3147 -48.6707 -48.6476 -48.4554 -41.4079 -13.9646 -13.4505 -13.3218
    -9.3863  -8.1138   3.5612   3.9325   4.4049   5.2452   6.5175   7.5178
     8.8706   9.1805   9.6319  11.1479  11.7841  14.6160  19.7744  20.8370
    23.2781  24.9109  25.8474

     occupation numbers 
     1.0000   1.0000   1.0000   1.0000   1.0000   1.0000   1.0000   1.0000
     1.0000   1.0000   1.0000   1.0000   1.0000   1.0000   1.0000   1.0000
     1.0000   1.0000   1.0003   0.0001   0.0000   0.0000   0.0000   0.0000
     0.0000   0.0000   0.0000

          k = 0.0000 0.2887 0.1750 (  2100 PWs)   bands (ev):

   -85.3146 -48.6706 -48.6475 -48.4553 -41.4078 -13.9665 -13.4532 -13.3215
    -9.3548  -8.1399   3.4474   4.0246   4.4038   5.3584   6.5195   7.4153
     8.8328   9.1825   9.7073  10.9011  11.7787  15.1117  19.1329  21.3431
    23.1232  24.8500  25.6724

     occupation numbers 
     1.0000   1.0000   1.0000   1.0000   1.0000   1.0000   1.0000   1.0000
     1.0000   1.0000   1.0000   1.0000   1.0000   1.0000   1.0000   1.0000
     1.0000   1.0000   1.0011   0.0084   0.0000   0.0000   0.0000   0.0000
     0.0000   0.0000   0.0000

          k = 0.0000 0.4330 0.0000 (  2098 PWs)   bands (ev):

   -85.3127 -48.6921 -48.6526 -48.4516 -41.3891 -14.1345 -13.4527 -13.3626
    -8.9067  -8.1051   3.0446   4.1560   4.5958   5.2686   6.2845   6.8890
     8.8109   9.1384   9.4558  11.2910  11.8315  15.9764  19.6645  20.7501
    22.2584  24.4905  24.9502

     occupation numbers 
     1.0000   1.0000   1.0000   1.0000   1.0000   1.0000   1.0000   1.0000
     1.0000   1.0000   1.0000   1.0000   1.0000   1.0000   1.0000   1.0000
     1.0000   1.0000   1.0000   0.0000   0.0000   0.0000   0.0000   0.0000
     0.0000   0.0000   0.0000

          k = 0.0000 0.4330 0.1750 (  2109 PWs)   bands (ev):

   -85.3127 -48.6921 -48.6526 -48.4518 -41.3892 -14.1346 -13.4560 -13.3626
    -8.8968  -8.1061   2.9801   4.0930   4.5957   5.3838   6.2853   6.9744
     8.7960   9.1393   9.4659  11.1442  11.8255  16.0929  19.3814  21.0012
    22.6193  24.2505  25.0297

     occupation numbers 
     1.0000   1.0000   1.0000   1.0000   1.0000   1.0000   1.0000   1.0000
     1.0000   1.0000   1.0000   1.0000   1.0000   1.0000   1.0000   1.0000
     1.0000   1.0000   1.0000   0.0001   0.0000   0.0000   0.0000   0.0000
     0.0000   0.0000   0.0000

          k = 0.0000-0.5774 0.0000 (  2102 PWs)   bands (ev):

   -85.3120 -48.7010 -48.6546 -48.4501 -41.3814 -14.2127 -13.4397 -13.3794
    -8.6921  -8.1128   2.6902   4.3087   4.6495   5.6322   6.2625   6.4155
     8.7090   9.0388   9.3492  11.4596  11.8884  17.0719  18.7925  20.2108
    22.2195  24.4335  25.0110

     occupation numbers 
     1.0000   1.0000   1.0000   1.0000   1.0000   1.0000   1.0000   1.0000
     1.0000   1.0000   1.0000   1.0000   1.0000   1.0000   1.0000   1.0000
     1.0000   1.0000   1.0000   0.0000   0.0000   0.0000   0.0000   0.0000
     0.0000   0.0000   0.0000

          k = 0.0000-0.5774 0.1750 (  2116 PWs)   bands (ev):

   -85.3120 -48.7010 -48.6548 -48.4503 -41.3815 -14.2123 -13.4426 -13.3798
    -8.6911  -8.1049   2.6467   4.2366   4.6496   5.6572   6.2630   6.5611
     8.7005   9.0390   9.3440  11.4572  11.8820  16.6119  18.8161  21.0605
    22.1892  24.6117  25.1256

     occupation numbers 
     1.0000   1.0000   1.0000   1.0000   1.0000   1.0000   1.0000   1.0000
     1.0000   1.0000   1.0000   1.0000   1.0000   1.0000   1.0000   1.0000
     1.0000   1.0000   1.0000   0.0000   0.0000   0.0000   0.0000   0.0000
     0.0000   0.0000   0.0000

          k = 0.1250 0.2165 0.0000 (  2101 PWs)   bands (ev):

   -85.3152 -48.6633 -48.6469 -48.4564 -41.4133 -13.9213 -13.4281 -13.3202
    -9.5211  -8.1206   3.6369   3.8400   4.3123   5.5723   6.4695   7.6432
     8.8783   9.1756   9.6400  11.3162  11.6345  14.3078  19.6626  20.6919
    23.5925  25.1650  26.5604

     occupation numbers 
     1.0000   1.0000   1.0000   1.0000   1.0000   1.0000   1.0000   1.0000
     1.0000   1.0000   1.0000   1.0000   1.0000   1.0000   1.0000   1.0000
     1.0000   1.0000   1.0003   0.0000   0.0000   0.0000   0.0000   0.0000
     0.0000   0.0000   0.0000

          k = 0.1250 0.2165 0.1750 (  2101 PWs)   bands (ev):

   -85.3152 -48.6634 -48.6470 -48.4563 -41.4133 -13.9248 -13.4301 -13.3203
    -9.4823  -8.1560   3.5770   3.9387   4.3144   5.6387   6.4742   7.4454
     8.8759   9.1279   9.7097  11.1347  11.6981  14.7577  18.9570  21.2116
    23.5832  25.1959  26.4093

     occupation numbers 
     1.0000   1.0000   1.0000   1.0000   1.0000   1.0000   1.0000   1.0000
     1.0000   1.0000   1.0000   1.0000   1.0000   1.0000   1.0000   1.0000
     1.0000   1.0000   1.0012   0.0001   0.0000   0.0000   0.0000   0.0000
     0.0000   0.0000   0.0000

          k = 0.1250 0.3608 0.0000 (  2106 PWs)   bands (ev):

   -85.3133 -48.6826 -48.6543 -48.4528 -41.3947 -14.0575 -13.4532 -13.3839
    -9.0565  -8.0962   3.4519   4.0276   4.4980   5.0823   6.0767   7.2580
     8.9288   9.3099   9.4981  11.2369  11.5748  15.5241  19.9689  21.2810
    22.8230  24.2688  24.8919

     occupation numbers 
     1.0000   1.0000   1.0000   1.0000   1.0000   1.0000   1.0000   1.0000
     1.0000   1.0000   1.0000   1.0000   1.0000   1.0000   1.0000   1.0000
     1.0000   1.0000   1.0000   0.0000   0.0000   0.0000   0.0000   0.0000
     0.0000   0.0000   0.0000

          k = 0.1250 0.3608 0.1750 (  2102 PWs)   bands (ev):

   -85.3133 -48.6826 -48.6542 -48.4528 -41.3946 -14.0579 -13.4561 -13.3838
    -9.0371  -8.1082   3.3617   3.9988   4.5068   5.2287   6.0830   7.2621
     8.9228   9.2853   9.5071  11.0708  11.6266  15.6771  19.8070  21.3683
    23.1483  24.0621  25.1161

     occupation numbers 
     1.0000   1.0000   1.0000   1.0000   1.0000   1.0000   1.0000   1.0000
     1.0000   1.0000   1.0000   1.0000   1.0000   1.0000   1.0000   1.0000
     1.0000   1.0000   1.0000   0.0004   0.0000   0.0000   0.0000   0.0000
     0.0000   0.0000   0.0000

          k = 0.1250 0.5052 0.0000 (  2104 PWs)   bands (ev):

   -85.3120 -48.6962 -48.6596 -48.4501 -41.3814 -14.1717 -13.4526 -13.4158
    -8.7119  -8.0874   2.9562   4.1259   4.6367   5.5515   5.8858   6.6460
     8.8358   9.1139   9.4375  11.3990  11.6768  16.8682  19.3609  20.6918
    22.4613  24.1414  24.4365

     occupation numbers 
     1.0000   1.0000   1.0000   1.0000   1.0000   1.0000   1.0000   1.0000
     1.0000   1.0000   1.0000   1.0000   1.0000   1.0000   1.0000   1.0000
     1.0000   1.0000   1.0000   0.0000   0.0000   0.0000   0.0000   0.0000
     0.0000   0.0000   0.0000

          k = 0.1250 0.5052 0.1750 (  2107 PWs)   bands (ev):

   -85.3120 -48.6962 -48.6595 -48.4502 -41.3814 -14.1715 -13.4543 -13.4169
    -8.7096  -8.0808   2.9139   4.0655   4.6280   5.6114   5.8884   6.7378
     8.8227   9.1186   9.4268  11.3674  11.7036  16.7024  19.1928  21.1409
    22.6986  24.1154  24.7821

     occupation numbers 
     1.0000   1.0000   1.0000   1.0000   1.0000   1.0000   1.0000   1.0000
     1.0000   1.0000   1.0000   1.0000   1.0000   1.0000   1.0000   1.0000
     1.0000   1.0000   1.0000   0.0000   0.0000   0.0000   0.0000   0.0000
     0.0000   0.0000   0.0000

          k = 0.2500 0.4330 0.0000 (  2095 PWs)   bands (ev):

   -85.3119 -48.6894 -48.6662 -48.4501 -41.3814 -14.1245 -13.4949 -13.4284
    -8.7302  -8.0635   3.3833   3.9512   4.4018   5.3262   5.8506   6.7665
     8.9438   9.1566   9.5618  11.3395  11.4507  16.7372  19.8388  21.8406
    22.3944  23.1146  24.1530

     occupation numbers 
     1.0000   1.0000   1.0000   1.0000   1.0000   1.0000   1.0000   1.0000
     1.0000   1.0000   1.0000   1.0000   1.0000   1.0000   1.0000   1.0000
     1.0000   1.0000   1.0001   0.0000   0.0000   0.0000   0.0000   0.0000
     0.0000   0.0000   0.0000

          k = 0.2500 0.4330 0.1750 (  2101 PWs)   bands (ev):

   -85.3120 -48.6893 -48.6662 -48.4503 -41.3814 -14.1245 -13.4948 -13.4313
    -8.7228  -8.0627   3.3455   3.8873   4.3934   5.4234   5.8666   6.7727
     8.9484   9.1595   9.5203  11.3681  11.4907  16.5409  20.0078  21.5287
    22.8926  23.3693  24.4158

     occupation numbers 
     1.0000   1.0000   1.0000   1.0000   1.0000   1.0000   1.0000   1.0000
     1.0000   1.0000   1.0000   1.0000   1.0000   1.0000   1.0000   1.0000
     1.0000   1.0000   1.0000   0.0000   0.0000   0.0000   0.0000   0.0000
     0.0000   0.0000   0.0000

          k = 0.2500 0.5774 0.0000 (  2102 PWs)   bands (ev):

   -85.3114 -48.6899 -48.6735 -48.4491 -41.3760 -14.1427 -13.5506 -13.4176
    -8.6047  -8.0356   3.3259   3.9263   4.3225   5.4828   5.9751   6.3797
     8.7654   9.2845   9.5281  11.3913  11.4277  17.5933  19.4896  21.2932
    22.3839  23.1595  23.9615

     occupation numbers 
     1.0000   1.0000   1.0000   1.0000   1.0000   1.0000   1.0000   1.0000
     1.0000   1.0000   1.0000   1.0000   1.0000   1.0000   1.0000   1.0000
     1.0000   1.0000   1.0000   0.0000   0.0000   0.0000   0.0000   0.0000
     0.0000   0.0000   0.0000

          k = 0.2500 0.5774 0.1750 (  2105 PWs)   bands (ev):

   -85.3114 -48.6899 -48.6735 -48.4492 -41.3760 -14.1425 -13.5507 -13.4199
    -8.6042  -8.0278   3.2950   3.9025   4.2877   5.5405   5.9686   6.3999
     8.7728   9.2797   9.5104  11.4341  11.4950  17.3649  19.3956  21.5426
    22.3739  23.3926  24.4775

     occupation numbers 
     1.0000   1.0000   1.0000   1.0000   1.0000   1.0000   1.0000   1.0000
     1.0000   1.0000   1.0000   1.0000   1.0000   1.0000   1.0000   1.0000
     1.0000   1.0000   1.0000   0.0000   0.0000   0.0000   0.0000   0.0000
     0.0000   0.0000   0.0000

          k = 0.0000-0.1443 0.1750 (  2102 PWs)   bands (ev):

   -85.3165 -48.6492 -48.6424 -48.4589 -41.4265 -13.8734 -13.3473 -13.2802
    -9.7898  -8.1999   3.5528   3.8892   4.1737   6.4102   7.0221   7.1821
     8.7049   8.8569   9.7324  11.5464  11.8904  14.1596  18.1264  20.3765
    24.4592  26.3213  27.2390

     occupation numbers 
     1.0000   1.0000   1.0000   1.0000   1.0000   1.0000   1.0000   1.0000
     1.0000   1.0000   1.0000   1.0000   1.0000   1.0000   1.0000   1.0000
     1.0000   1.0000   1.0017   0.0000   0.0000   0.0000   0.0000   0.0000
     0.0000   0.0000   0.0000

          k = 0.0000-0.2887 0.1750 (  2100 PWs)   bands (ev):

   -85.3146 -48.6706 -48.6475 -48.4553 -41.4078 -13.9668 -13.4529 -13.3216
    -9.3502  -8.1460   3.4975   3.9897   4.4037   5.3568   6.5190   7.3707
     8.8222   9.1820   9.6443  11.1327  11.7809  14.8043  19.3456  21.3777
    23.4943  24.3528  26.2577

     occupation numbers 
     1.0000   1.0000   1.0000   1.0000   1.0000   1.0000   1.0000   1.0000
     1.0000   1.0000   1.0000   1.0000   1.0000   1.0000   1.0000   1.0000
     1.0000   1.0000   1.0004   0.0001   0.0000   0.0000   0.0000   0.0000
     0.0000   0.0000   0.0000

          k = 0.0000-0.4330 0.1750 (  2109 PWs)   bands (ev):

   -85.3128 -48.6922 -48.6526 -48.4518 -41.3892 -14.1349 -13.4558 -13.3626
    -8.8886  -8.1160   2.9876   4.0957   4.5950   5.4380   6.2860   6.8678
     8.7969   9.1390   9.4375  11.3261  11.8258  15.6572  19.8383  21.4502
    22.1116  24.3292  25.3887

     occupation numbers 
     1.0000   1.0000   1.0000   1.0000   1.0000   1.0000   1.0000   1.0000
     1.0000   1.0000   1.0000   1.0000   1.0000   1.0000   1.0000   1.0000
     1.0000   1.0000   1.0000   0.0000   0.0000   0.0000   0.0000   0.0000
     0.0000   0.0000   0.0000

          k =-0.1250-0.3608 0.1750 (  2102 PWs)   bands (ev):

   -85.3133 -48.6826 -48.6542 -48.4528 -41.3946 -14.0582 -13.4559 -13.3838
    -9.0330  -8.1133   3.3776   3.9916   4.5018   5.2460   6.0876   7.2086
     8.9332   9.2935   9.4612  11.2224  11.5980  15.4591  20.0054  21.5465
    23.1655  23.9034  25.0385

     occupation numbers 
     1.0000   1.0000   1.0000   1.0000   1.0000   1.0000   1.0000   1.0000
     1.0000   1.0000   1.0000   1.0000   1.0000   1.0000   1.0000   1.0000
     1.0000   1.0000   1.0000   0.0000   0.0000   0.0000   0.0000   0.0000
     0.0000   0.0000   0.0000

          k =-0.1250-0.5052 0.1750 (  2107 PWs)   bands (ev):

   -85.3120 -48.6962 -48.6595 -48.4503 -41.3814 -14.1716 -13.4541 -13.4170
    -8.7054  -8.0857   2.9127   4.0739   4.6277   5.6415   5.8903   6.6815
     8.8339   9.1154   9.4131  11.4440  11.6902  16.4515  19.4589  21.5023
    22.2734  24.2055  24.6458

     occupation numbers 
     1.0000   1.0000   1.0000   1.0000   1.0000   1.0000   1.0000   1.0000
     1.0000   1.0000   1.0000   1.0000   1.0000   1.0000   1.0000   1.0000
     1.0000   1.0000   1.0000   0.0000   0.0000   0.0000   0.0000   0.0000
     0.0000   0.0000   0.0000

     the Fermi energy is    10.5403 ev

     WARNING: integrated charge=    38.00120487, expected=    38.00000000

!    total energy              =    -569.17851057 Ry
     total all-electron energy =     -3412.669066 Ry
     estimated scf accuracy    <          9.1E-09 Ry
     smearing contrib. (-TS)   =       0.00001821 Ry
     internal energy E=F+TS    =    -569.17852879 Ry

     The total energy is F=E-TS. E is the sum of the following terms:
     one-electron contribution =    -379.89772984 Ry
     hartree contribution      =     211.52003902 Ry
     xc contribution           =     -60.70234341 Ry
     ewald contribution        =    -218.16107347 Ry
     one-center paw contrib.   =    -121.93742108 Ry
      -> PAW hartree energy AE =     349.43355834 Ry
      -> PAW hartree energy PS =    -349.41875406 Ry
      -> PAW xc energy AE      =    -179.69123468 Ry
      -> PAW xc energy PS      =      57.73900932 Ry
      -> total E_H with PAW    =     211.53484330 Ry
      -> total E_XC with PAW   =    -182.65456877 Ry

     total magnetization       =     0.00 Bohr mag/cell
     absolute magnetization    =     0.00 Bohr mag/cell

     convergence has been achieved in  22 iterations

     Forces acting on atoms (cartesian axes, Ry/au):

     atom    1 type  1   force =     0.00000000    0.00000000    0.14546557
     atom    2 type  2   force =    -0.00000000   -0.00000000   -0.00454898
     atom    3 type  2   force =     0.00000000    0.00000000    0.12817310
     atom    4 type  3   force =     0.00000000    0.00000000   -0.26908968
     The non-local contrib.  to forces
     atom    1 type  1   force =     0.00000000    0.00000000   -0.32508247
     atom    2 type  2   force =     0.00000000    0.00000000   -1.06304985
     atom    3 type  2   force =     0.00000000    0.00000000    0.73451281
     atom    4 type  3   force =     0.00000000   -0.00000000   -0.54578739
     The ionic contribution  to forces
     atom    1 type  1   force =    -0.00000000    0.00000000   24.55088326
     atom    2 type  2   force =     0.00000000   -0.00000000   27.38958376
     atom    3 type  2   force =    -0.00000000    0.00000000  -15.88986552
     atom    4 type  3   force =     0.00000000   -0.00000000  -36.05060150
     The local contribution  to forces
     atom    1 type  1   force =     0.00000000    0.00000000  -24.08098694
     atom    2 type  2   force =     0.00000001   -0.00000001  -26.34067309
     atom    3 type  2   force =    -0.00000001    0.00000000   15.29133495
     atom    4 type  3   force =     0.00000006   -0.00000003   36.32706333
     The core correction contribution to forces
     atom    1 type  1   force =     0.00000000   -0.00000000    0.00039025
     atom    2 type  2   force =    -0.00000000    0.00000000    0.00933626
     atom    3 type  2   force =     0.00000000   -0.00000000   -0.00779727
     atom    4 type  3   force =     0.00000000   -0.00000000    0.00040451
     The Hubbard contrib.    to forces
     atom    1 type  1   force =     0.00000000    0.00000000    0.00000000
     atom    2 type  2   force =     0.00000000    0.00000000    0.00000000
     atom    3 type  2   force =     0.00000000    0.00000000    0.00000000
     atom    4 type  3   force =     0.00000000    0.00000000    0.00000000
     The SCF correction term to forces
     atom    1 type  1   force =    -0.00000000    0.00000000    0.00027200
     atom    2 type  2   force =     0.00000000   -0.00000000    0.00026448
     atom    3 type  2   force =    -0.00000000    0.00000000   -0.00000133
     atom    4 type  3   force =     0.00000000   -0.00000000   -0.00015810

     Total force =     0.331690     Total SCF correction =     0.000411

     Writing all to output data dir ./out/pw.save/ :
     XML data file, charge density, pseudopotentials, collected wavefunctions
 
     init_run     :     10.42s CPU      2.47s WALL (       1 calls)
     electrons    :    111.08s CPU     28.70s WALL (       1 calls)
     forces       :      0.60s CPU      0.57s WALL (       1 calls)

     Called by init_run:
     wfcinit      :      0.25s CPU      0.33s WALL (       1 calls)
     wfcinit:atom :      0.04s CPU      0.04s WALL (      50 calls)
     wfcinit:wfcr :      0.16s CPU      0.21s WALL (      50 calls)
     potinit      :      9.65s CPU      1.58s WALL (       1 calls)
     hinit0       :      0.44s CPU      0.44s WALL (       1 calls)

     Called by electrons:
     c_bands      :     13.26s CPU     13.43s WALL (      22 calls)
     sum_band     :      2.33s CPU      2.37s WALL (      22 calls)
     v_of_rho     :      0.33s CPU      0.16s WALL (      23 calls)
     v_h          :      0.23s CPU      0.03s WALL (      23 calls)
     v_xc         :      0.10s CPU      0.13s WALL (      24 calls)
     newd         :      0.54s CPU      0.42s WALL (      23 calls)
                                        0.42s GPU  (      23 calls)
     PAW_pot      :     98.44s CPU     12.47s WALL (      23 calls)
     mix_rho      :      0.30s CPU      0.42s WALL (      22 calls)

     Called by c_bands:
     init_us_2    :      0.92s CPU      0.92s WALL (    2300 calls)
     cegterg      :     11.67s CPU     11.83s WALL (    1100 calls)

     Called by sum_band:
     sum_band:wei :      0.03s CPU      0.03s WALL (      22 calls)
                                        0.03s GPU  (      22 calls)
     sum_band:loo :      1.46s CPU      1.48s WALL (      22 calls)
                                        1.48s GPU  (      22 calls)
     sum_band:buf :      0.15s CPU      0.18s WALL (    1100 calls)
                                        0.17s GPU  (    1100 calls)
     sum_band:ini :      0.43s CPU      0.45s WALL (    1100 calls)
                                        0.44s GPU  (    1100 calls)
     sum_band:cal :      0.04s CPU      0.06s WALL (    1100 calls)
                                        0.05s GPU  (    1100 calls)
     sum_band:bec :      0.24s CPU      0.27s WALL (    1100 calls)
                                        0.25s GPU  (    1100 calls)
     addusdens    :      0.73s CPU      0.73s WALL (      22 calls)
                                        0.73s GPU  (      22 calls)
     addusd:skk   :      0.00s CPU      0.00s WALL (      66 calls)
                                        0.00s GPU  (      66 calls)

     Called by *egterg:
     cdiaghg      :      4.15s CPU      4.30s WALL (    4762 calls)
                                        4.25s GPU  (    4762 calls)
     cegterg:over :      0.69s CPU      0.71s WALL (    3662 calls)
     cegterg:upda :      0.74s CPU      0.75s WALL (    3662 calls)
     cegterg:last :      0.13s CPU      0.12s WALL (    2057 calls)
     h_psi        :      4.09s CPU      4.25s WALL (    4812 calls)
                                        4.19s GPU  (    4812 calls)
     s_psi        :      0.76s CPU      0.79s WALL (    4812 calls)
     g_psi        :      0.02s CPU      0.09s WALL (    3662 calls)
                                        0.04s GPU  (    3662 calls)

     Called by h_psi:
     h_psi:calbec :      0.14s CPU      0.26s WALL (    4812 calls)
                                        0.20s GPU  (    4812 calls)
     vloc_psi     :      2.76s CPU      2.85s WALL (    4812 calls)
                                        2.79s GPU  (    4812 calls)
     add_vuspsi   :      0.68s CPU      0.79s WALL (    4812 calls)
                                        0.73s GPU  (    4812 calls)

     General routines
     calbec       :      0.16s CPU      0.18s WALL (    6112 calls)
     fft          :      3.23s CPU      0.62s WALL (     588 calls)
                                        0.02s GPU  (     542 calls)
     ffts         :      2.07s CPU      0.35s WALL (      90 calls)
                                        0.00s GPU  (      44 calls)
     fftw         :      0.30s CPU      0.98s WALL (   16416 calls)
                                        0.79s GPU  (   16416 calls)
     interpolate  :      5.41s CPU      0.96s WALL (      46 calls)
 
     Parallel routines

     PAW routines
     PAW_pot      :     98.44s CPU     12.47s WALL (      23 calls)
     PAW_symme    :      0.02s CPU      0.00s WALL (      45 calls)
 
     PWSCF        :   2m 2.92s CPU     32.25s WALL

 
   This run was terminated on:   2:14:38  12Jul2026            

=------------------------------------------------------------------------------=
   JOB DONE.
=------------------------------------------------------------------------------=
Warning: ieee_divide_by_zero is signaling
Warning: ieee_inexact is signaling
FORTRAN STOP
