
     Program PWSCF v.7.3.1 starts on 12Jul2026 at  2:39:51 

     This program is part of the open-source Quantum ESPRESSO suite
     for quantum simulation of materials; please cite
         "P. Giannozzi et al., J. Phys.:Condens. Matter 21 395502 (2009);
         "P. Giannozzi et al., J. Phys.:Condens. Matter 29 465901 (2017);
         "P. Giannozzi et al., J. Chem. Phys. 152 154105 (2020);
          URL http://www.quantum-espresso.org", 
     in publications or presentations arising from this work. More details at
     http://www.quantum-espresso.org/quote

     Parallel version (MPI & OpenMP), running on      14 processor cores
     Number of MPI processes:                 1
     Threads/MPI process:                    14

     MPI processes distributed on     1 nodes
     850724 MiB available memory on the printing compute node when the environment starts
 
     Reading input from pw.in

     Current dimensions of program PWSCF are:
     Max number of different atomic species (ntypx) = 10
     Max number of k-points (npk) =  40000
     Max angular momentum in pseudopotentials (lmaxx) =  4
     file Co.pbe-spn-kjpaw_psl.0.3.1.UPF: wavefunction(s)  3P 3D renormalized
     file O.pbe-n-kjpaw_psl.1.0.0.UPF: wavefunction(s)  2S 2P renormalized
     file Na.pbe-spn-kjpaw_psl.1.0.0.UPF: wavefunction(s)  2P renormalized
 
     Subspace diagonalization in iterative solution of the eigenvalue problem:
     a serial algorithm will be used

 
     G-vector sticks info
     --------------------
     sticks:   dense  smooth     PW     G-vecs:    dense   smooth      PW
     Sum         979     499    151                85601    30351    5001
 
     Using Slab Decomposition
 


     bravais-lattice index     =            4
     lattice parameter (alat)  =       5.4575  a.u.
     unit-cell volume          =     482.5661 (a.u.)^3
     number of atoms/cell      =            4
     number of atomic types    =            3
     number of electrons       =        38.00
     number of Kohn-Sham states=           27
     kinetic-energy cutoff     =      60.0000  Ry
     charge density cutoff     =     480.0000  Ry
     scf convergence threshold =      1.0E-07
     mixing beta               =       0.3000
     number of iterations used =            8  local-TF  mixing
     Exchange-correlation= SLA  PW   PBX  PBC
                           (   1   4   3   4   0   0   0)

     GPU acceleration is ACTIVE.  1 visible GPUs per MPI rank
     GPU-aware MPI enabled


     GPU used by master process:

        Device Number: 0
        Device name: NVIDIA A100-SXM4-80GB
        Compute capability : 80
        Ratio of single to double precision performance  : 2
        Memory Clock Rate (KHz): 1593000
        Memory Bus Width (bits): 5120
        Peak Memory Bandwidth (GB/s): ******

     celldm(1)=   5.457529  celldm(2)=   0.000000  celldm(3)=   3.427978
     celldm(4)=   0.000000  celldm(5)=   0.000000  celldm(6)=   0.000000

     crystal axes: (cart. coord. in units of alat)
               a(1) = (   1.000000   0.000000   0.000000 )  
               a(2) = (  -0.500000   0.866025   0.000000 )  
               a(3) = (   0.000000   0.000000   3.427978 )  

     reciprocal axes: (cart. coord. in units 2 pi/alat)
               b(1) = (  1.000000  0.577350 -0.000000 )  
               b(2) = (  0.000000  1.154701  0.000000 )  
               b(3) = (  0.000000 -0.000000  0.291717 )  


     PseudoPot. # 1 for Co read from file:
     ../../pseudo/Co.pbe-spn-kjpaw_psl.0.3.1.UPF
     MD5 check sum: 3c0a43779828c046024e4f3be63f8e67
     Pseudo is Projector augmented-wave + core cor, Zval = 17.0
     Generated using &quot;atomic&quot; code by A. Dal Corso  v.6.2.2
     Shape of augmentation charge: PSQ
     Using radial grid of 1193 points,  6 beta functions with: 
                l(1) =   0
                l(2) =   0
                l(3) =   1
                l(4) =   1
                l(5) =   2
                l(6) =   2
     Q(r) pseudized with 0 coefficients 


     PseudoPot. # 2 for O  read from file:
     ../../pseudo/O.pbe-n-kjpaw_psl.1.0.0.UPF
     MD5 check sum: e99d9cef9b487d1ca56f5b95ecd0fd7a
     Pseudo is Projector augmented-wave + core cor, Zval =  6.0
     Generated using &quot;atomic&quot; code by A. Dal Corso  v.6.3
     Shape of augmentation charge: PSQ
     Using radial grid of 1095 points,  4 beta functions with: 
                l(1) =   0
                l(2) =   0
                l(3) =   1
                l(4) =   1
     Q(r) pseudized with 0 coefficients 


     PseudoPot. # 3 for Na read from file:
     ../../pseudo/Na.pbe-spn-kjpaw_psl.1.0.0.UPF
     MD5 check sum: 05b4deb74e3932c23ab016979dc8b5d4
     Pseudo is Projector augmented-wave + core cor, Zval =  9.0
     Generated using &quot;atomic&quot; code by A. Dal Corso  v.6.3
     Shape of augmentation charge: PSQ
     Using radial grid of 1121 points,  4 beta functions with: 
                l(1) =   0
                l(2) =   0
                l(3) =   1
                l(4) =   1
     Q(r) pseudized with 0 coefficients 


     atomic species   valence    mass     pseudopotential
     Co               17.00    58.93300     Co( 1.00)
     O                 6.00    15.99900     O ( 1.00)
     Na                9.00    22.98977     Na( 1.00)

     Starting magnetic structure 
     atomic species   magnetization
     Co              0.300
     O               0.000
     Na              0.000

      6 Sym. Ops. (no inversion) found


                                    s                        frac. trans.

      isym =  1     identity                                     

 cryst.   s( 1) = (     1          0          0      )
                  (     0          1          0      )
                  (     0          0          1      )

 cart.    s( 1) = (  1.0000000  0.0000000  0.0000000 )
                  (  0.0000000  1.0000000  0.0000000 )
                  (  0.0000000  0.0000000  1.0000000 )


      isym =  2     120 deg rotation - cryst. axis [0,0,1]       

 cryst.   s( 2) = (     0          1          0      )
                  (    -1         -1          0      )
                  (     0          0          1      )

 cart.    s( 2) = ( -0.5000000 -0.8660254  0.0000000 )
                  (  0.8660254 -0.5000000  0.0000000 )
                  (  0.0000000  0.0000000  1.0000000 )


      isym =  3     120 deg rotation - cryst. axis [0,0,-1]      

 cryst.   s( 3) = (    -1         -1          0      )
                  (     1          0          0      )
                  (     0          0          1      )

 cart.    s( 3) = ( -0.5000000  0.8660254  0.0000000 )
                  ( -0.8660254 -0.5000000  0.0000000 )
                  (  0.0000000  0.0000000  1.0000000 )


      isym =  4     inv. 180 deg rotation - cart. axis [1,0,0]   

 cryst.   s( 4) = (    -1          0          0      )
                  (     1          1          0      )
                  (     0          0          1      )

 cart.    s( 4) = ( -1.0000000  0.0000000  0.0000000 )
                  (  0.0000000  1.0000000  0.0000000 )
                  (  0.0000000  0.0000000  1.0000000 )


      isym =  5     inv. 180 deg rotation - cryst. axis [0,1,0]  

 cryst.   s( 5) = (     1          1          0      )
                  (     0         -1          0      )
                  (     0          0          1      )

 cart.    s( 5) = (  0.5000000  0.8660254  0.0000000 )
                  (  0.8660254 -0.5000000  0.0000000 )
                  (  0.0000000  0.0000000  1.0000000 )


      isym =  6     inv. 180 deg rotation - cryst. axis [1,1,0]  

 cryst.   s( 6) = (     0         -1          0      )
                  (    -1          0          0      )
                  (     0          0          1      )

 cart.    s( 6) = (  0.5000000 -0.8660254  0.0000000 )
                  ( -0.8660254 -0.5000000  0.0000000 )
                  (  0.0000000  0.0000000  1.0000000 )


     point group C_3v (3m)  
     there are  3 classes
     the character table:

       E     2C3   3s_v 
A_1    1.00  1.00  1.00
A_2    1.00  1.00 -1.00
E      2.00 -1.00  0.00

     the symmetry operations in each class and the name of the first element:

     E        1
          identity                                               
     2C3      2    3
          120 deg rotation - cryst. axis [0,0,1]                 
     3s_v     4    5    6
          inv. 180 deg rotation - cart. axis [1,0,0]             

   Cartesian axes

     site n.     atom                  positions (alat units)
         1        Co     tau(   1) = (   0.0000000   0.0000000   0.0000000  )
         2        O      tau(   2) = (  -0.0000000   0.5773503   0.3324100  )
         3        O      tau(   3) = (   0.5000000   0.2886751   3.0955679  )
         4        Na     tau(   4) = (   0.0000000   0.0000000   1.7659280  )

   Crystallographic axes

     site n.     atom                  positions (cryst. coord.)
         1        Co     tau(   1) = (  0.0000000  0.0000000  0.0000000  )
         2        O      tau(   2) = (  0.3333333  0.6666667  0.0969697  )
         3        O      tau(   3) = (  0.6666667  0.3333333  0.9030303  )
         4        Na     tau(   4) = (  0.0000000  0.0000000  0.5151515  )

     number of k points=    25  Marzari-Vanderbilt smearing, width (Ry)=  0.0200
                       cart. coord. in units 2pi/alat
        k(    1) = (   0.0000000   0.0000000   0.0000000), wk =   0.0052083
        k(    2) = (   0.0000000   0.0000000   0.0972391), wk =   0.0104167
        k(    3) = (   0.0000000   0.1443376   0.0000000), wk =   0.0312500
        k(    4) = (   0.0000000   0.1443376   0.0972391), wk =   0.0312500
        k(    5) = (   0.0000000   0.2886751   0.0000000), wk =   0.0312500
        k(    6) = (   0.0000000   0.2886751   0.0972391), wk =   0.0312500
        k(    7) = (   0.0000000   0.4330127   0.0000000), wk =   0.0312500
        k(    8) = (   0.0000000   0.4330127   0.0972391), wk =   0.0312500
        k(    9) = (   0.0000000  -0.5773503   0.0000000), wk =   0.0156250
        k(   10) = (   0.0000000  -0.5773503   0.0972391), wk =   0.0312500
        k(   11) = (   0.1250000   0.2165064   0.0000000), wk =   0.0312500
        k(   12) = (   0.1250000   0.2165064   0.0972391), wk =   0.0625000
        k(   13) = (   0.1250000   0.3608439   0.0000000), wk =   0.0625000
        k(   14) = (   0.1250000   0.3608439   0.0972391), wk =   0.0625000
        k(   15) = (   0.1250000   0.5051815   0.0000000), wk =   0.0625000
        k(   16) = (   0.1250000   0.5051815   0.0972391), wk =   0.0625000
        k(   17) = (   0.2500000   0.4330127   0.0000000), wk =   0.0312500
        k(   18) = (   0.2500000   0.4330127   0.0972391), wk =   0.0625000
        k(   19) = (   0.2500000   0.5773503   0.0000000), wk =   0.0312500
        k(   20) = (   0.2500000   0.5773503   0.0972391), wk =   0.0625000
        k(   21) = (   0.0000000  -0.1443376   0.0972391), wk =   0.0312500
        k(   22) = (   0.0000000  -0.2886751   0.0972391), wk =   0.0312500
        k(   23) = (   0.0000000  -0.4330127   0.0972391), wk =   0.0312500
        k(   24) = (  -0.1250000  -0.3608439   0.0972391), wk =   0.0625000
        k(   25) = (  -0.1250000  -0.5051815   0.0972391), wk =   0.0625000

                       cryst. coord.
        k(    1) = (   0.0000000   0.0000000   0.0000000), wk =   0.0052083
        k(    2) = (   0.0000000   0.0000000   0.3333333), wk =   0.0104167
        k(    3) = (   0.0000000   0.1250000   0.0000000), wk =   0.0312500
        k(    4) = (   0.0000000   0.1250000   0.3333333), wk =   0.0312500
        k(    5) = (   0.0000000   0.2500000   0.0000000), wk =   0.0312500
        k(    6) = (   0.0000000   0.2500000   0.3333333), wk =   0.0312500
        k(    7) = (   0.0000000   0.3750000   0.0000000), wk =   0.0312500
        k(    8) = (   0.0000000   0.3750000   0.3333333), wk =   0.0312500
        k(    9) = (   0.0000000  -0.5000000   0.0000000), wk =   0.0156250
        k(   10) = (   0.0000000  -0.5000000   0.3333333), wk =   0.0312500
        k(   11) = (   0.1250000   0.1250000   0.0000000), wk =   0.0312500
        k(   12) = (   0.1250000   0.1250000   0.3333333), wk =   0.0625000
        k(   13) = (   0.1250000   0.2500000   0.0000000), wk =   0.0625000
        k(   14) = (   0.1250000   0.2500000   0.3333333), wk =   0.0625000
        k(   15) = (   0.1250000   0.3750000   0.0000000), wk =   0.0625000
        k(   16) = (   0.1250000   0.3750000   0.3333333), wk =   0.0625000
        k(   17) = (   0.2500000   0.2500000   0.0000000), wk =   0.0312500
        k(   18) = (   0.2500000   0.2500000   0.3333333), wk =   0.0625000
        k(   19) = (   0.2500000   0.3750000   0.0000000), wk =   0.0312500
        k(   20) = (   0.2500000   0.3750000   0.3333333), wk =   0.0625000
        k(   21) = (   0.0000000  -0.1250000   0.3333333), wk =   0.0312500
        k(   22) = (   0.0000000  -0.2500000   0.3333333), wk =   0.0312500
        k(   23) = (   0.0000000  -0.3750000   0.3333333), wk =   0.0312500
        k(   24) = (  -0.1250000  -0.2500000   0.3333333), wk =   0.0625000
        k(   25) = (  -0.1250000  -0.3750000   0.3333333), wk =   0.0625000

     Dense  grid:    85601 G-vectors     FFT dimensions: (  40,  40, 135)

     Smooth grid:    30351 G-vectors     FFT dimensions: (  27,  27,  96)

     Dynamical RAM for                 wfc:       1.56 MB

     Dynamical RAM for     wfc (w. buffer):      79.57 MB

     Dynamical RAM for           str. fact:       3.92 MB

     Dynamical RAM for           local pot:       0.00 MB

     Dynamical RAM for          nlocal pot:       2.43 MB

     Dynamical RAM for                qrad:       5.27 MB

     Dynamical RAM for          rho,v,vnew:      17.72 MB

     Dynamical RAM for               rhoin:       5.91 MB

     Dynamical RAM for            rho*nmix:      41.80 MB

     Dynamical RAM for           G-vectors:       5.13 MB

     Dynamical RAM for          h,s,v(r/c):       0.13 MB

     Dynamical RAM for          <psi|beta>:       0.02 MB

     Dynamical RAM for                 psi:       3.12 MB

     Dynamical RAM for                hpsi:       3.12 MB

     Dynamical RAM for                spsi:       3.12 MB

     Dynamical RAM for      wfcinit/wfcrot:       3.14 MB

     Dynamical RAM for           addusdens:     246.87 MB

     Dynamical RAM for          addusforce:     249.49 MB

     Estimated static dynamical RAM per process >     135.06 MB

     Estimated max dynamical RAM per process >     426.35 MB

     Check: negative core charge=   -0.000006
     Generating pointlists ...
     new r_m :   0.2748 (alat units)  1.4998 (a.u.) for type    1
     new r_m :   0.2748 (alat units)  1.4998 (a.u.) for type    2
     new r_m :   0.4125 (alat units)  2.2512 (a.u.) for type    3

     Initial potential from superposition of free atoms

     starting charge      37.9934, renormalised to      38.0000
     Starting wfcs are   23 randomized atomic wfcs +    4 random wfcs
     Checking if some PAW data can be deallocated... 

     total cpu time spent up to now is        3.5 secs

     Self-consistent Calculation
[tb_dev] Currently allocated     6.54E-01 Mbytes, locked:    0 /   6
[tb_pin] Currently allocated     0.00E+00 Mbytes, locked:    0 /   0

     iteration #  1     ecut=    60.00 Ry     beta= 0.30
     Davidson diagonalization with overlap

---- Real-time Memory Report at c_bands before calling an iterative solver
           712 MiB given to the printing process from OS
             0 MiB allocation reported by mallinfo(arena+hblkhd)
        849786 MiB available memory on the node where the printing process lives
     GPU memory used/free/total (MiB): 1108 / 80042 / 81151
------------------
     ethr =  1.00E-02,  avg # of iterations =  9.8

     total cpu time spent up to now is        5.9 secs

     total energy              =    -568.96100894 Ry
     estimated scf accuracy    <       2.02800638 Ry

     total magnetization       =     4.24 Bohr mag/cell
     absolute magnetization    =     4.24 Bohr mag/cell
[tb_dev] Currently allocated     3.05E-05 Mbytes, locked:    0 /   2
[tb_pin] Currently allocated     0.00E+00 Mbytes, locked:    0 /   0

     iteration #  2     ecut=    60.00 Ry     beta= 0.30
     Davidson diagonalization with overlap

---- Real-time Memory Report at c_bands before calling an iterative solver
           754 MiB given to the printing process from OS
             0 MiB allocation reported by mallinfo(arena+hblkhd)
        849678 MiB available memory on the node where the printing process lives
     GPU memory used/free/total (MiB): 1128 / 80022 / 81151
------------------
     ethr =  5.34E-03,  avg # of iterations =  1.8

     total cpu time spent up to now is        7.0 secs

     total energy              =    -569.00122329 Ry
     estimated scf accuracy    <       1.08859087 Ry

     total magnetization       =     3.63 Bohr mag/cell
     absolute magnetization    =     3.64 Bohr mag/cell
[tb_dev] Currently allocated     3.05E-05 Mbytes, locked:    0 /   2
[tb_pin] Currently allocated     0.00E+00 Mbytes, locked:    0 /   0

     iteration #  3     ecut=    60.00 Ry     beta= 0.30
     Davidson diagonalization with overlap

---- Real-time Memory Report at c_bands before calling an iterative solver
           758 MiB given to the printing process from OS
             0 MiB allocation reported by mallinfo(arena+hblkhd)
        849648 MiB available memory on the node where the printing process lives
     GPU memory used/free/total (MiB): 1128 / 80022 / 81151
------------------
     ethr =  2.86E-03,  avg # of iterations =  1.9

     total cpu time spent up to now is        8.2 secs

     total energy              =    -569.07091034 Ry
     estimated scf accuracy    <       0.85206893 Ry

     total magnetization       =     1.99 Bohr mag/cell
     absolute magnetization    =     2.03 Bohr mag/cell
[tb_dev] Currently allocated     3.05E-05 Mbytes, locked:    0 /   2
[tb_pin] Currently allocated     0.00E+00 Mbytes, locked:    0 /   0

     iteration #  4     ecut=    60.00 Ry     beta= 0.30
     Davidson diagonalization with overlap

---- Real-time Memory Report at c_bands before calling an iterative solver
           760 MiB given to the printing process from OS
             0 MiB allocation reported by mallinfo(arena+hblkhd)
        849657 MiB available memory on the node where the printing process lives
     GPU memory used/free/total (MiB): 1128 / 80022 / 81151
------------------
     ethr =  2.24E-03,  avg # of iterations =  1.2

     total cpu time spent up to now is        9.3 secs

     total energy              =    -569.04702603 Ry
     estimated scf accuracy    <       0.72090248 Ry

     total magnetization       =     3.26 Bohr mag/cell
     absolute magnetization    =     3.26 Bohr mag/cell
[tb_dev] Currently allocated     3.05E-05 Mbytes, locked:    0 /   2
[tb_pin] Currently allocated     0.00E+00 Mbytes, locked:    0 /   0

     iteration #  5     ecut=    60.00 Ry     beta= 0.30
     Davidson diagonalization with overlap

---- Real-time Memory Report at c_bands before calling an iterative solver
           762 MiB given to the printing process from OS
             0 MiB allocation reported by mallinfo(arena+hblkhd)
        849634 MiB available memory on the node where the printing process lives
     GPU memory used/free/total (MiB): 1128 / 80022 / 81151
------------------
     ethr =  1.90E-03,  avg # of iterations =  1.4

     total cpu time spent up to now is       10.4 secs

     total energy              =    -569.15870467 Ry
     estimated scf accuracy    <       0.14607011 Ry

     total magnetization       =     0.72 Bohr mag/cell
     absolute magnetization    =     1.19 Bohr mag/cell
[tb_dev] Currently allocated     3.05E-05 Mbytes, locked:    0 /   2
[tb_pin] Currently allocated     0.00E+00 Mbytes, locked:    0 /   0

     iteration #  6     ecut=    60.00 Ry     beta= 0.30
     Davidson diagonalization with overlap

---- Real-time Memory Report at c_bands before calling an iterative solver
           764 MiB given to the printing process from OS
             0 MiB allocation reported by mallinfo(arena+hblkhd)
        849627 MiB available memory on the node where the printing process lives
     GPU memory used/free/total (MiB): 1128 / 80022 / 81151
------------------
     ethr =  3.84E-04,  avg # of iterations =  5.9

     total cpu time spent up to now is       12.1 secs

     total energy              =    -569.16348619 Ry
     estimated scf accuracy    <       0.06324603 Ry

     total magnetization       =     0.73 Bohr mag/cell
     absolute magnetization    =     0.88 Bohr mag/cell
[tb_dev] Currently allocated     3.05E-05 Mbytes, locked:    0 /   2
[tb_pin] Currently allocated     0.00E+00 Mbytes, locked:    0 /   0

     iteration #  7     ecut=    60.00 Ry     beta= 0.30
     Davidson diagonalization with overlap

---- Real-time Memory Report at c_bands before calling an iterative solver
           766 MiB given to the printing process from OS
             0 MiB allocation reported by mallinfo(arena+hblkhd)
        849609 MiB available memory on the node where the printing process lives
     GPU memory used/free/total (MiB): 1128 / 80022 / 81151
------------------
     c_bands:  1 eigenvalues not converged
     ethr =  1.66E-04,  avg # of iterations =  4.6

     total cpu time spent up to now is       13.6 secs

     total energy              =    -569.16434333 Ry
     estimated scf accuracy    <       0.10555740 Ry

     total magnetization       =     0.86 Bohr mag/cell
     absolute magnetization    =     0.98 Bohr mag/cell
[tb_dev] Currently allocated     3.05E-05 Mbytes, locked:    0 /   2
[tb_pin] Currently allocated     0.00E+00 Mbytes, locked:    0 /   0

     iteration #  8     ecut=    60.00 Ry     beta= 0.30
     Davidson diagonalization with overlap

---- Real-time Memory Report at c_bands before calling an iterative solver
           767 MiB given to the printing process from OS
             0 MiB allocation reported by mallinfo(arena+hblkhd)
        849618 MiB available memory on the node where the printing process lives
     GPU memory used/free/total (MiB): 1128 / 80022 / 81151
------------------
     ethr =  1.66E-04,  avg # of iterations =  1.9

     total cpu time spent up to now is       14.8 secs

     total energy              =    -569.17310872 Ry
     estimated scf accuracy    <       0.00827201 Ry

     total magnetization       =     0.79 Bohr mag/cell
     absolute magnetization    =     0.82 Bohr mag/cell
[tb_dev] Currently allocated     3.05E-05 Mbytes, locked:    0 /   2
[tb_pin] Currently allocated     0.00E+00 Mbytes, locked:    0 /   0

     iteration #  9     ecut=    60.00 Ry     beta= 0.30
     Davidson diagonalization with overlap

---- Real-time Memory Report at c_bands before calling an iterative solver
           770 MiB given to the printing process from OS
             0 MiB allocation reported by mallinfo(arena+hblkhd)
        849613 MiB available memory on the node where the printing process lives
     GPU memory used/free/total (MiB): 1128 / 80022 / 81151
------------------
     ethr =  2.18E-05,  avg # of iterations =  8.4

     total cpu time spent up to now is       16.8 secs

     total energy              =    -569.17578506 Ry
     estimated scf accuracy    <       0.01430871 Ry

     total magnetization       =     0.82 Bohr mag/cell
     absolute magnetization    =     0.85 Bohr mag/cell
[tb_dev] Currently allocated     3.05E-05 Mbytes, locked:    0 /   2
[tb_pin] Currently allocated     0.00E+00 Mbytes, locked:    0 /   0

     iteration # 10     ecut=    60.00 Ry     beta= 0.30
     Davidson diagonalization with overlap

---- Real-time Memory Report at c_bands before calling an iterative solver
           776 MiB given to the printing process from OS
             0 MiB allocation reported by mallinfo(arena+hblkhd)
        849640 MiB available memory on the node where the printing process lives
     GPU memory used/free/total (MiB): 1128 / 80022 / 81151
------------------
     ethr =  2.18E-05,  avg # of iterations =  1.3

     total cpu time spent up to now is       17.9 secs

     total energy              =    -569.17669278 Ry
     estimated scf accuracy    <       0.00287563 Ry

     total magnetization       =     0.86 Bohr mag/cell
     absolute magnetization    =     0.89 Bohr mag/cell
[tb_dev] Currently allocated     3.05E-05 Mbytes, locked:    0 /   2
[tb_pin] Currently allocated     0.00E+00 Mbytes, locked:    0 /   0

     iteration # 11     ecut=    60.00 Ry     beta= 0.30
     Davidson diagonalization with overlap

---- Real-time Memory Report at c_bands before calling an iterative solver
           776 MiB given to the printing process from OS
             0 MiB allocation reported by mallinfo(arena+hblkhd)
        849571 MiB available memory on the node where the printing process lives
     GPU memory used/free/total (MiB): 1128 / 80022 / 81151
------------------
     ethr =  7.57E-06,  avg # of iterations =  1.6

     total cpu time spent up to now is       19.1 secs

     total energy              =    -569.17651897 Ry
     estimated scf accuracy    <       0.01126467 Ry

     total magnetization       =     0.91 Bohr mag/cell
     absolute magnetization    =     0.95 Bohr mag/cell
[tb_dev] Currently allocated     3.05E-05 Mbytes, locked:    0 /   2
[tb_pin] Currently allocated     0.00E+00 Mbytes, locked:    0 /   0

     iteration # 12     ecut=    60.00 Ry     beta= 0.30
     Davidson diagonalization with overlap

---- Real-time Memory Report at c_bands before calling an iterative solver
           776 MiB given to the printing process from OS
             0 MiB allocation reported by mallinfo(arena+hblkhd)
        849524 MiB available memory on the node where the printing process lives
     GPU memory used/free/total (MiB): 1128 / 80022 / 81151
------------------
     ethr =  7.57E-06,  avg # of iterations =  1.8

     total cpu time spent up to now is       20.2 secs

     total energy              =    -569.17685212 Ry
     estimated scf accuracy    <       0.00200951 Ry

     total magnetization       =     0.86 Bohr mag/cell
     absolute magnetization    =     0.91 Bohr mag/cell
[tb_dev] Currently allocated     3.05E-05 Mbytes, locked:    0 /   2
[tb_pin] Currently allocated     0.00E+00 Mbytes, locked:    0 /   0

     iteration # 13     ecut=    60.00 Ry     beta= 0.30
     Davidson diagonalization with overlap

---- Real-time Memory Report at c_bands before calling an iterative solver
           776 MiB given to the printing process from OS
             0 MiB allocation reported by mallinfo(arena+hblkhd)
        849537 MiB available memory on the node where the printing process lives
     GPU memory used/free/total (MiB): 1128 / 80022 / 81151
------------------
     ethr =  5.29E-06,  avg # of iterations =  1.3

     total cpu time spent up to now is       21.4 secs

     total energy              =    -569.17676161 Ry
     estimated scf accuracy    <       0.00273971 Ry

     total magnetization       =     0.87 Bohr mag/cell
     absolute magnetization    =     0.93 Bohr mag/cell
[tb_dev] Currently allocated     3.05E-05 Mbytes, locked:    0 /   2
[tb_pin] Currently allocated     0.00E+00 Mbytes, locked:    0 /   0

     iteration # 14     ecut=    60.00 Ry     beta= 0.30
     Davidson diagonalization with overlap

---- Real-time Memory Report at c_bands before calling an iterative solver
           776 MiB given to the printing process from OS
             0 MiB allocation reported by mallinfo(arena+hblkhd)
        849568 MiB available memory on the node where the printing process lives
     GPU memory used/free/total (MiB): 1128 / 80022 / 81151
------------------
     ethr =  5.29E-06,  avg # of iterations =  1.9

     total cpu time spent up to now is       22.5 secs

     total energy              =    -569.17683717 Ry
     estimated scf accuracy    <       0.00072856 Ry

     total magnetization       =     0.82 Bohr mag/cell
     absolute magnetization    =     0.90 Bohr mag/cell
[tb_dev] Currently allocated     3.05E-05 Mbytes, locked:    0 /   2
[tb_pin] Currently allocated     0.00E+00 Mbytes, locked:    0 /   0

     iteration # 15     ecut=    60.00 Ry     beta= 0.30
     Davidson diagonalization with overlap

---- Real-time Memory Report at c_bands before calling an iterative solver
           776 MiB given to the printing process from OS
             0 MiB allocation reported by mallinfo(arena+hblkhd)
        849587 MiB available memory on the node where the printing process lives
     GPU memory used/free/total (MiB): 1128 / 80022 / 81151
------------------
     ethr =  1.92E-06,  avg # of iterations =  2.1

     total cpu time spent up to now is       23.7 secs

     total energy              =    -569.17688726 Ry
     estimated scf accuracy    <       0.00018198 Ry

     total magnetization       =     0.82 Bohr mag/cell
     absolute magnetization    =     0.90 Bohr mag/cell
[tb_dev] Currently allocated     3.05E-05 Mbytes, locked:    0 /   2
[tb_pin] Currently allocated     0.00E+00 Mbytes, locked:    0 /   0

     iteration # 16     ecut=    60.00 Ry     beta= 0.30
     Davidson diagonalization with overlap

---- Real-time Memory Report at c_bands before calling an iterative solver
           776 MiB given to the printing process from OS
             0 MiB allocation reported by mallinfo(arena+hblkhd)
        849575 MiB available memory on the node where the printing process lives
     GPU memory used/free/total (MiB): 1128 / 80022 / 81151
------------------
     c_bands:  1 eigenvalues not converged
     ethr =  4.79E-07,  avg # of iterations =  3.8

     total cpu time spent up to now is       25.2 secs

     total energy              =    -569.17690940 Ry
     estimated scf accuracy    <       0.00004938 Ry

     total magnetization       =     0.82 Bohr mag/cell
     absolute magnetization    =     0.90 Bohr mag/cell
[tb_dev] Currently allocated     3.05E-05 Mbytes, locked:    0 /   2
[tb_pin] Currently allocated     0.00E+00 Mbytes, locked:    0 /   0

     iteration # 17     ecut=    60.00 Ry     beta= 0.30
     Davidson diagonalization with overlap

---- Real-time Memory Report at c_bands before calling an iterative solver
           776 MiB given to the printing process from OS
             0 MiB allocation reported by mallinfo(arena+hblkhd)
        849984 MiB available memory on the node where the printing process lives
     GPU memory used/free/total (MiB): 1128 / 80022 / 81151
------------------
     ethr =  1.30E-07,  avg # of iterations =  5.4

     total cpu time spent up to now is       26.8 secs

     total energy              =    -569.17692399 Ry
     estimated scf accuracy    <       0.00000902 Ry

     total magnetization       =     0.81 Bohr mag/cell
     absolute magnetization    =     0.90 Bohr mag/cell
[tb_dev] Currently allocated     3.05E-05 Mbytes, locked:    0 /   2
[tb_pin] Currently allocated     0.00E+00 Mbytes, locked:    0 /   0

     iteration # 18     ecut=    60.00 Ry     beta= 0.30
     Davidson diagonalization with overlap

---- Real-time Memory Report at c_bands before calling an iterative solver
           776 MiB given to the printing process from OS
             0 MiB allocation reported by mallinfo(arena+hblkhd)
        849772 MiB available memory on the node where the printing process lives
     GPU memory used/free/total (MiB): 1128 / 80022 / 81151
------------------
     ethr =  2.37E-08,  avg # of iterations =  3.7

     total cpu time spent up to now is       28.2 secs

     total energy              =    -569.17692846 Ry
     estimated scf accuracy    <       0.00000905 Ry

     total magnetization       =     0.81 Bohr mag/cell
     absolute magnetization    =     0.91 Bohr mag/cell
[tb_dev] Currently allocated     3.05E-05 Mbytes, locked:    0 /   2
[tb_pin] Currently allocated     0.00E+00 Mbytes, locked:    0 /   0

     iteration # 19     ecut=    60.00 Ry     beta= 0.30
     Davidson diagonalization with overlap

---- Real-time Memory Report at c_bands before calling an iterative solver
           776 MiB given to the printing process from OS
             0 MiB allocation reported by mallinfo(arena+hblkhd)
        849783 MiB available memory on the node where the printing process lives
     GPU memory used/free/total (MiB): 1128 / 80022 / 81151
------------------
     ethr =  2.37E-08,  avg # of iterations =  1.9

     total cpu time spent up to now is       29.4 secs

     total energy              =    -569.17693000 Ry
     estimated scf accuracy    <       0.00000034 Ry

     total magnetization       =     0.80 Bohr mag/cell
     absolute magnetization    =     0.91 Bohr mag/cell
[tb_dev] Currently allocated     3.05E-05 Mbytes, locked:    0 /   2
[tb_pin] Currently allocated     0.00E+00 Mbytes, locked:    0 /   0

     iteration # 20     ecut=    60.00 Ry     beta= 0.30
     Davidson diagonalization with overlap

---- Real-time Memory Report at c_bands before calling an iterative solver
           776 MiB given to the printing process from OS
             0 MiB allocation reported by mallinfo(arena+hblkhd)
        849590 MiB available memory on the node where the printing process lives
     GPU memory used/free/total (MiB): 1128 / 80022 / 81151
------------------
     ethr =  8.89E-10,  avg # of iterations =  7.9

     total cpu time spent up to now is       31.4 secs

     total energy              =    -569.17693119 Ry
     estimated scf accuracy    <       0.00000018 Ry

     total magnetization       =     0.80 Bohr mag/cell
     absolute magnetization    =     0.91 Bohr mag/cell
[tb_dev] Currently allocated     3.05E-05 Mbytes, locked:    0 /   2
[tb_pin] Currently allocated     0.00E+00 Mbytes, locked:    0 /   0

     iteration # 21     ecut=    60.00 Ry     beta= 0.30
     Davidson diagonalization with overlap

---- Real-time Memory Report at c_bands before calling an iterative solver
           776 MiB given to the printing process from OS
             0 MiB allocation reported by mallinfo(arena+hblkhd)
        849987 MiB available memory on the node where the printing process lives
     GPU memory used/free/total (MiB): 1128 / 80022 / 81151
------------------
     ethr =  4.68E-10,  avg # of iterations =  2.3

     total cpu time spent up to now is       32.6 secs

     total energy              =    -569.17693201 Ry
     estimated scf accuracy    <       0.00000011 Ry

     total magnetization       =     0.80 Bohr mag/cell
     absolute magnetization    =     0.91 Bohr mag/cell
[tb_dev] Currently allocated     3.05E-05 Mbytes, locked:    0 /   2
[tb_pin] Currently allocated     0.00E+00 Mbytes, locked:    0 /   0

     iteration # 22     ecut=    60.00 Ry     beta= 0.30
     Davidson diagonalization with overlap

---- Real-time Memory Report at c_bands before calling an iterative solver
           777 MiB given to the printing process from OS
             0 MiB allocation reported by mallinfo(arena+hblkhd)
        849803 MiB available memory on the node where the printing process lives
     GPU memory used/free/total (MiB): 1128 / 80022 / 81151
------------------
     ethr =  2.84E-10,  avg # of iterations =  4.9
 
     Magnetic moment per site  (integrated on atomic sphere of radius R)
     atom   1 (R=0.275)  charge= 14.0882  magn=  0.6497
     atom   2 (R=0.275)  charge=  5.2109  magn=  0.0707
     atom   3 (R=0.275)  charge=  5.2143  magn=  0.0678
     atom   4 (R=0.413)  charge=  8.2575  magn= -0.0208

     total cpu time spent up to now is       34.2 secs

     End of self-consistent calculation

 ------ SPIN UP ------------


          k = 0.0000 0.0000 0.0000 (  3803 PWs)   bands (ev):

   -92.0872 -55.2999 -55.2901 -55.2901 -49.7697 -21.6561 -21.5665 -21.5665
   -15.4262 -13.5053  -1.6658  -1.2875  -1.2875   1.2311   1.8345   2.1457
     2.1457   2.4665   2.4665   3.4758   5.6570   6.1170   6.1170   9.2131
    12.8165  12.9267  15.8028

     occupation numbers 
     1.0000   1.0000   1.0000   1.0000   1.0000   1.0000   1.0000   1.0000
     1.0000   1.0000   1.0000   1.0000   1.0000   1.0000   1.0000   1.0000
     1.0000   1.0000   1.0000   1.0826   0.0000   0.0000   0.0000   0.0000
     0.0000   0.0000   0.0000

          k = 0.0000 0.0000 0.0972 (  3796 PWs)   bands (ev):

   -92.0872 -55.2998 -55.2901 -55.2901 -49.7697 -21.6559 -21.5665 -21.5665
   -15.4262 -13.5053  -1.6600  -1.2875  -1.2875   1.0911   2.0437   2.1457
     2.1457   2.4665   2.4665   3.4338   5.5320   6.1170   6.1170   9.6519
    11.5813  13.8649  15.8823

     occupation numbers 
     1.0000   1.0000   1.0000   1.0000   1.0000   1.0000   1.0000   1.0000
     1.0000   1.0000   1.0000   1.0000   1.0000   1.0000   1.0000   1.0000
     1.0000   1.0000   1.0000   1.0746   0.0000   0.0000   0.0000   0.0000
     0.0000   0.0000   0.0000

          k = 0.0000 0.1443 0.0000 (  3787 PWs)   bands (ev):

   -92.0865 -55.2987 -55.2981 -55.2921 -49.7644 -21.6487 -21.6110 -21.5761
   -15.2546 -13.5127  -1.4773  -1.4321  -1.1715   1.2090   1.5774   1.6305
     2.1554   2.6414   2.9249   3.5463   5.5733   6.0197   6.0662   9.6910
    13.2555  13.4437  16.3279

     occupation numbers 
     1.0000   1.0000   1.0000   1.0000   1.0000   1.0000   1.0000   1.0000
     1.0000   1.0000   1.0000   1.0000   1.0000   1.0000   1.0000   1.0000
     1.0000   1.0000   1.0001   1.0717   0.0000   0.0000   0.0000   0.0000
     0.0000   0.0000   0.0000

          k = 0.0000 0.1443 0.0972 (  3806 PWs)   bands (ev):

   -92.0865 -55.2988 -55.2982 -55.2921 -49.7645 -21.6490 -21.6111 -21.5761
   -15.2546 -13.5128  -1.4750  -1.4307  -1.1715   1.2138   1.5041   1.5773
     2.3187   2.6619   2.9249   3.4990   5.6654   5.8777   6.0196  10.0577
    12.1200  14.4545  16.2077

     occupation numbers 
     1.0000   1.0000   1.0000   1.0000   1.0000   1.0000   1.0000   1.0000
     1.0000   1.0000   1.0000   1.0000   1.0000   1.0000   1.0000   1.0000
     1.0000   1.0000   1.0001   1.0831   0.0000   0.0000   0.0000   0.0000
     0.0000   0.0000   0.0000

          k = 0.0000 0.2887 0.0000 (  3786 PWs)   bands (ev):

   -92.0847 -55.3176 -55.2968 -55.2958 -49.7518 -21.7172 -21.6315 -21.5990
   -14.8040 -13.5449  -1.6644  -1.0218  -0.8950  -0.0661   1.0412   2.3244
     2.7466   2.8236   3.0990   3.4235   5.0200   5.9045   6.9398  10.8523
    13.5992  14.1234  14.7456

     occupation numbers 
     1.0000   1.0000   1.0000   1.0000   1.0000   1.0000   1.0000   1.0000
     1.0000   1.0000   1.0000   1.0000   1.0000   1.0000   1.0000   1.0000
     1.0000   1.0000   1.0027   1.0717   0.0000   0.0000   0.0000   0.0000
     0.0000   0.0000   0.0000

          k = 0.0000 0.2887 0.0972 (  3778 PWs)   bands (ev):

   -92.0847 -55.3176 -55.2967 -55.2958 -49.7518 -21.7172 -21.6315 -21.5990
   -14.8040 -13.5449  -1.6652  -1.0200  -0.8950  -0.0644   1.0412   2.2980
     2.6583   2.9792   3.0991   3.3666   5.0834   5.9045   6.8425  11.0738
    13.3436  13.6437  15.6351

     occupation numbers 
     1.0000   1.0000   1.0000   1.0000   1.0000   1.0000   1.0000   1.0000
     1.0000   1.0000   1.0000   1.0000   1.0000   1.0000   1.0000   1.0000
     1.0000   1.0004   1.0027   1.0528   0.0000   0.0000   0.0000   0.0000
     0.0000   0.0000   0.0000

          k = 0.0000 0.4330 0.0000 (  3780 PWs)   bands (ev):

   -92.0830 -55.3371 -55.3014 -55.2930 -49.7391 -21.8214 -21.6219 -21.6142
   -14.2592 -13.6310  -2.1090  -1.0139  -0.6784  -0.0087   0.8979   1.8520
     2.6167   2.8079   3.1093   4.6103   5.2156   5.9448   8.4956  10.1421
    12.6171  13.7992  15.3729

     occupation numbers 
     1.0000   1.0000   1.0000   1.0000   1.0000   1.0000   1.0000   1.0000
     1.0000   1.0000   1.0000   1.0000   1.0000   1.0000   1.0000   1.0000
     1.0000   1.0000   1.0032   0.0000   0.0000   0.0000   0.0000   0.0000
     0.0000   0.0000   0.0000

          k = 0.0000 0.4330 0.0972 (  3794 PWs)   bands (ev):

   -92.0830 -55.3371 -55.3015 -55.2930 -49.7391 -21.8216 -21.6220 -21.6143
   -14.2592 -13.6310  -2.1092  -1.0142  -0.6784  -0.0078   0.8979   1.8529
     2.6164   2.8079   3.1107   4.5619   5.2765   5.9448   8.4635  10.1382
    12.7017  13.8725  14.8827

     occupation numbers 
     1.0000   1.0000   1.0000   1.0000   1.0000   1.0000   1.0000   1.0000
     1.0000   1.0000   1.0000   1.0000   1.0000   1.0000   1.0000   1.0000
     1.0000   1.0000   1.0033   0.0000   0.0000   0.0000   0.0000   0.0000
     0.0000   0.0000   0.0000

          k = 0.0000-0.5774 0.0000 (  3798 PWs)   bands (ev):

   -92.0823 -55.3452 -55.3034 -55.2918 -49.7339 -21.8643 -21.6315 -21.6070
   -13.8754 -13.8097  -2.4887  -0.8018  -0.6349   0.1304   0.9936   1.6336
     2.3327   2.5520   3.0230   5.3898   5.9936   6.5023   7.7933  10.4264
    11.2463  14.4513  14.6899

     occupation numbers 
     1.0000   1.0000   1.0000   1.0000   1.0000   1.0000   1.0000   1.0000
     1.0000   1.0000   1.0000   1.0000   1.0000   1.0000   1.0000   1.0000
     1.0000   1.0000   1.0008   0.0000   0.0000   0.0000   0.0000   0.0000
     0.0000   0.0000   0.0000

          k = 0.0000-0.5774 0.0972 (  3790 PWs)   bands (ev):

   -92.0822 -55.3452 -55.3034 -55.2918 -49.7339 -21.8642 -21.6314 -21.6071
   -13.8754 -13.8097  -2.4887  -0.8019  -0.6348   0.1305   0.9938   1.6344
     2.3326   2.5520   3.0228   5.3865   5.9936   6.5083   7.7828  10.4282
    11.3053  14.1158  14.8749

     occupation numbers 
     1.0000   1.0000   1.0000   1.0000   1.0000   1.0000   1.0000   1.0000
     1.0000   1.0000   1.0000   1.0000   1.0000   1.0000   1.0000   1.0000
     1.0000   1.0000   1.0008   0.0000   0.0000   0.0000   0.0000   0.0000
     0.0000   0.0000   0.0000

          k = 0.1250 0.2165 0.0000 (  3789 PWs)   bands (ev):

   -92.0852 -55.3111 -55.2969 -55.2960 -49.7555 -21.6815 -21.6366 -21.5973
   -14.9434 -13.5317  -1.5779  -1.1369  -1.0079   0.3953   0.8936   2.3780
     2.4845   2.6495   3.2238   3.4691   5.2185   5.7695   6.6433  10.5088
    13.9031  14.3317  14.8740

     occupation numbers 
     1.0000   1.0000   1.0000   1.0000   1.0000   1.0000   1.0000   1.0000
     1.0000   1.0000   1.0000   1.0000   1.0000   1.0000   1.0000   1.0000
     1.0000   1.0000   1.0145   1.0818   0.0000   0.0000   0.0000   0.0000
     0.0000   0.0000   0.0000

          k = 0.1250 0.2165 0.0972 (  3785 PWs)   bands (ev):

   -92.0852 -55.3110 -55.2969 -55.2960 -49.7555 -21.6813 -21.6366 -21.5973
   -14.9434 -13.5317  -1.5789  -1.1344  -1.0077   0.3973   0.8936   2.2158
     2.6460   2.6690   3.2473   3.4308   5.2654   5.7402   6.5760  10.7208
    13.0795  14.8656  15.3258

     occupation numbers 
     1.0000   1.0000   1.0000   1.0000   1.0000   1.0000   1.0000   1.0000
     1.0000   1.0000   1.0000   1.0000   1.0000   1.0000   1.0000   1.0000
     1.0000   1.0000   1.0188   1.0737   0.0000   0.0000   0.0000   0.0000
     0.0000   0.0000   0.0000

          k = 0.1250 0.3608 0.0000 (  3780 PWs)   bands (ev):

   -92.0835 -55.3285 -55.3029 -55.2938 -49.7428 -21.7752 -21.6313 -21.6193
   -14.4468 -13.5829  -1.6976  -1.1972  -0.6345  -0.1027   0.4962   2.1467
     2.6828   2.9856   3.3631   3.9231   5.1636   5.6595   7.8699  11.5805
    12.1223  14.7287  15.4768

     occupation numbers 
     1.0000   1.0000   1.0000   1.0000   1.0000   1.0000   1.0000   1.0000
     1.0000   1.0000   1.0000   1.0000   1.0000   1.0000   1.0000   1.0000
     1.0000   1.0004   1.0516   0.2913   0.0000   0.0000   0.0000   0.0000
     0.0000   0.0000   0.0000

          k = 0.1250 0.3608 0.0972 (  3782 PWs)   bands (ev):

   -92.0835 -55.3285 -55.3029 -55.2938 -49.7428 -21.7752 -21.6313 -21.6193
   -14.4468 -13.5829  -1.6979  -1.1973  -0.6343  -0.1014   0.4962   2.1456
     2.6825   2.9908   3.3526   3.9104   5.2123   5.6429   7.8399  11.6147
    12.1692  14.3637  15.8465

     occupation numbers 
     1.0000   1.0000   1.0000   1.0000   1.0000   1.0000   1.0000   1.0000
     1.0000   1.0000   1.0000   1.0000   1.0000   1.0000   1.0000   1.0000
     1.0000   1.0004   1.0480   0.3192   0.0000   0.0000   0.0000   0.0000
     0.0000   0.0000   0.0000

          k = 0.1250 0.5052 0.0000 (  3784 PWs)   bands (ev):

   -92.0822 -55.3408 -55.3077 -55.2918 -49.7339 -21.8401 -21.6559 -21.6071
   -13.9852 -13.7001  -2.2003  -1.1851  -0.3447   0.1455   0.4890   1.5660
     2.4278   2.7170   3.2446   5.3420   5.7199   5.9881   8.8870   9.7848
    12.5773  13.4865  15.1906

     occupation numbers 
     1.0000   1.0000   1.0000   1.0000   1.0000   1.0000   1.0000   1.0000
     1.0000   1.0000   1.0000   1.0000   1.0000   1.0000   1.0000   1.0000
     1.0000   1.0000   1.0182   0.0000   0.0000   0.0000   0.0000   0.0000
     0.0000   0.0000   0.0000

          k = 0.1250 0.5052 0.0972 (  3793 PWs)   bands (ev):

   -92.0823 -55.3408 -55.3077 -55.2919 -49.7339 -21.8402 -21.6559 -21.6072
   -13.9852 -13.7001  -2.2003  -1.1852  -0.3448   0.1458   0.4890   1.5665
     2.4278   2.7172   3.2441   5.3288   5.7370   5.9850   8.8816   9.7851
    12.6186  13.4769  15.2379

     occupation numbers 
     1.0000   1.0000   1.0000   1.0000   1.0000   1.0000   1.0000   1.0000
     1.0000   1.0000   1.0000   1.0000   1.0000   1.0000   1.0000   1.0000
     1.0000   1.0000   1.0181   0.0000   0.0000   0.0000   0.0000   0.0000
     0.0000   0.0000   0.0000

          k = 0.2500 0.4330 0.0000 (  3781 PWs)   bands (ev):

   -92.0822 -55.3347 -55.3137 -55.2919 -49.7339 -21.8066 -21.6897 -21.6072
   -14.0417 -13.6440  -1.6348  -1.5197  -0.5620   0.1547   0.2320   1.5649
     2.4802   2.8410   3.4459   5.3213   5.3990   5.7139   9.4802  10.1157
    12.4720  14.5928  14.8524

     occupation numbers 
     1.0000   1.0000   1.0000   1.0000   1.0000   1.0000   1.0000   1.0000
     1.0000   1.0000   1.0000   1.0000   1.0000   1.0000   1.0000   1.0000
     1.0000   1.0000   1.0776   0.0000   0.0000   0.0000   0.0000   0.0000
     0.0000   0.0000   0.0000

          k = 0.2500 0.4330 0.0972 (  3790 PWs)   bands (ev):

   -92.0823 -55.3347 -55.3138 -55.2919 -49.7339 -21.8066 -21.6898 -21.6072
   -14.0417 -13.6440  -1.6349  -1.5198  -0.5620   0.1545   0.2326   1.5648
     2.4802   2.8414   3.4442   5.3454   5.3897   5.6952   9.5006  10.1129
    12.4442  14.5534  14.9109

     occupation numbers 
     1.0000   1.0000   1.0000   1.0000   1.0000   1.0000   1.0000   1.0000
     1.0000   1.0000   1.0000   1.0000   1.0000   1.0000   1.0000   1.0000
     1.0000   1.0000   1.0772   0.0000   0.0000   0.0000   0.0000   0.0000
     0.0000   0.0000   0.0000

          k = 0.2500 0.5774 0.0000 (  3794 PWs)   bands (ev):

   -92.0817 -55.3352 -55.3204 -55.2910 -49.7302 -21.8080 -21.7257 -21.6020
   -13.8020 -13.7326  -1.7933  -1.4297  -0.7068   0.2904   0.4688   1.1258
     2.1933   3.0496   3.3255   5.3873   5.4210   7.3903   8.4089  11.5207
    12.0187  12.1845  14.6456

     occupation numbers 
     1.0000   1.0000   1.0000   1.0000   1.0000   1.0000   1.0000   1.0000
     1.0000   1.0000   1.0000   1.0000   1.0000   1.0000   1.0000   1.0000
     1.0000   1.0013   1.0391   0.0000   0.0000   0.0000   0.0000   0.0000
     0.0000   0.0000   0.0000

          k = 0.2500 0.5774 0.0972 (  3783 PWs)   bands (ev):

   -92.0817 -55.3352 -55.3203 -55.2910 -49.7302 -21.8079 -21.7256 -21.6021
   -13.8020 -13.7325  -1.7932  -1.4297  -0.7067   0.2904   0.4689   1.1258
     2.1933   3.0497   3.3252   5.3880   5.4232   7.3842   8.4038  11.5422
    12.0150  12.2109  14.6609

     occupation numbers 
     1.0000   1.0000   1.0000   1.0000   1.0000   1.0000   1.0000   1.0000
     1.0000   1.0000   1.0000   1.0000   1.0000   1.0000   1.0000   1.0000
     1.0000   1.0013   1.0390   0.0000   0.0000   0.0000   0.0000   0.0000
     0.0000   0.0000   0.0000

          k = 0.0000-0.1443 0.0972 (  3806 PWs)   bands (ev):

   -92.0865 -55.2988 -55.2981 -55.2921 -49.7645 -21.6490 -21.6111 -21.5761
   -15.2546 -13.5128  -1.4732  -1.4325  -1.1715   1.2051   1.5170   1.5774
     2.3139   2.6611   2.9249   3.5046   5.5760   5.9722   6.0197  10.0257
    12.1562  14.4488  16.1965

     occupation numbers 
     1.0000   1.0000   1.0000   1.0000   1.0000   1.0000   1.0000   1.0000
     1.0000   1.0000   1.0000   1.0000   1.0000   1.0000   1.0000   1.0000
     1.0000   1.0000   1.0001   1.0827   0.0000   0.0000   0.0000   0.0000
     0.0000   0.0000   0.0000

          k = 0.0000-0.2887 0.0972 (  3778 PWs)   bands (ev):

   -92.0847 -55.3176 -55.2967 -55.2958 -49.7518 -21.7172 -21.6315 -21.5990
   -14.8039 -13.5449  -1.6649  -1.0206  -0.8950  -0.0639   1.0412   2.2859
     2.6794   2.9472   3.0990   3.4153   5.0155   5.9045   6.9147  10.9505
    13.4867  13.6951  15.6110

     occupation numbers 
     1.0000   1.0000   1.0000   1.0000   1.0000   1.0000   1.0000   1.0000
     1.0000   1.0000   1.0000   1.0000   1.0000   1.0000   1.0000   1.0000
     1.0000   1.0002   1.0027   1.0692   0.0000   0.0000   0.0000   0.0000
     0.0000   0.0000   0.0000

          k = 0.0000-0.4330 0.0972 (  3794 PWs)   bands (ev):

   -92.0830 -55.3371 -55.3014 -55.2930 -49.7391 -21.8216 -21.6220 -21.6143
   -14.2592 -13.6310  -2.1092  -1.0142  -0.6784  -0.0075   0.8979   1.8515
     2.6174   2.8079   3.1062   4.6185   5.2036   5.9448   8.5240  10.1329
    12.5081  13.9066  15.1230

     occupation numbers 
     1.0000   1.0000   1.0000   1.0000   1.0000   1.0000   1.0000   1.0000
     1.0000   1.0000   1.0000   1.0000   1.0000   1.0000   1.0000   1.0000
     1.0000   1.0000   1.0031   0.0000   0.0000   0.0000   0.0000   0.0000
     0.0000   0.0000   0.0000

          k =-0.1250-0.3608 0.0972 (  3782 PWs)   bands (ev):

   -92.0835 -55.3285 -55.3029 -55.2938 -49.7428 -21.7752 -21.6313 -21.6193
   -14.4468 -13.5829  -1.6979  -1.1973  -0.6345  -0.1009   0.4961   2.1438
     2.6835   2.9923   3.3384   3.9455   5.1641   5.6555   7.8735  11.5630
    12.1357  14.5533  15.8861

     occupation numbers 
     1.0000   1.0000   1.0000   1.0000   1.0000   1.0000   1.0000   1.0000
     1.0000   1.0000   1.0000   1.0000   1.0000   1.0000   1.0000   1.0000
     1.0000   1.0005   1.0433   0.2454   0.0000   0.0000   0.0000   0.0000
     0.0000   0.0000   0.0000

          k =-0.1250-0.5052 0.0972 (  3793 PWs)   bands (ev):

   -92.0823 -55.3408 -55.3077 -55.2919 -49.7339 -21.8402 -21.6559 -21.6072
   -13.9852 -13.7001  -2.2003  -1.1852  -0.3448   0.1458   0.4891   1.5661
     2.4279   2.7172   3.2436   5.3488   5.7245   5.9708   8.8824   9.8194
    12.6062  13.3440  15.2958

     occupation numbers 
     1.0000   1.0000   1.0000   1.0000   1.0000   1.0000   1.0000   1.0000
     1.0000   1.0000   1.0000   1.0000   1.0000   1.0000   1.0000   1.0000
     1.0000   1.0000   1.0180   0.0000   0.0000   0.0000   0.0000   0.0000
     0.0000   0.0000   0.0000

 ------ SPIN DOWN ----------


          k = 0.0000 0.0000 0.0000 (  3803 PWs)   bands (ev):

   -91.2904 -54.5703 -54.5703 -54.4092 -49.7783 -21.6630 -21.5763 -21.5763
   -15.3132 -13.3828  -1.3153  -1.0320  -1.0320   1.1396   2.0068   2.5513
     2.5513   2.8191   2.8191   4.3768   5.5998   6.4588   6.4588   9.2296
    12.8996  13.0137  15.8608

     occupation numbers 
     1.0000   1.0000   1.0000   1.0000   1.0000   1.0000   1.0000   1.0000
     1.0000   1.0000   1.0000   1.0000   1.0000   1.0000   1.0000   1.0000
     1.0000   1.0000   1.0000   0.0008   0.0000   0.0000   0.0000   0.0000
     0.0000   0.0000   0.0000

          k = 0.0000 0.0000 0.0972 (  3796 PWs)   bands (ev):

   -91.2904 -54.5703 -54.5703 -54.4091 -49.7783 -21.6629 -21.5763 -21.5763
   -15.3132 -13.3828  -1.3065  -1.0320  -1.0320   1.0202   2.1937   2.5512
     2.5512   2.8191   2.8191   4.3166   5.4918   6.4588   6.4588   9.6618
    11.6648  13.9516  15.9660

     occupation numbers 
     1.0000   1.0000   1.0000   1.0000   1.0000   1.0000   1.0000   1.0000
     1.0000   1.0000   1.0000   1.0000   1.0000   1.0000   1.0000   1.0000
     1.0000   1.0000   1.0000   0.0023   0.0000   0.0000   0.0000   0.0000
     0.0000   0.0000   0.0000

          k = 0.0000 0.1443 0.0000 (  3787 PWs)   bands (ev):

   -91.2897 -54.5786 -54.5723 -54.4078 -49.7730 -21.6556 -21.6211 -21.5860
   -15.1409 -13.3895  -1.2038  -1.1145  -0.9237   1.4264   1.5792   1.9084
     2.3330   3.1937   3.3741   4.3991   5.7457   6.1856   6.3522   9.7010
    13.3318  13.5345  16.3955

     occupation numbers 
     1.0000   1.0000   1.0000   1.0000   1.0000   1.0000   1.0000   1.0000
     1.0000   1.0000   1.0000   1.0000   1.0000   1.0000   1.0000   1.0000
     1.0000   1.0101   1.0554   0.0005   0.0000   0.0000   0.0000   0.0000
     0.0000   0.0000   0.0000

          k = 0.0000 0.1443 0.0972 (  3806 PWs)   bands (ev):

   -91.2897 -54.5787 -54.5724 -54.4079 -49.7731 -21.6558 -21.6213 -21.5860
   -15.1409 -13.3896  -1.2052  -1.1075  -0.9237   1.4280   1.4746   1.9084
     2.4846   3.2018   3.3741   4.3442   5.8183   6.0258   6.3522  10.0651
    12.2005  14.5421  16.2972

     occupation numbers 
     1.0000   1.0000   1.0000   1.0000   1.0000   1.0000   1.0000   1.0000
     1.0000   1.0000   1.0000   1.0000   1.0000   1.0000   1.0000   1.0000
     1.0000   1.0112   1.0554   0.0014   0.0000   0.0000   0.0000   0.0000
     0.0000   0.0000   0.0000

          k = 0.0000 0.2887 0.0000 (  3786 PWs)   bands (ev):

   -91.2878 -54.5989 -54.5772 -54.4049 -49.7603 -21.7280 -21.6383 -21.6090
   -14.6881 -13.4201  -1.4406  -0.7359  -0.6654   0.1842   1.3133   2.5602
     2.7006   3.3732   3.6587   4.2352   5.3886   6.2171   6.8979  10.8507
    13.4924  14.1761  14.8412

     occupation numbers 
     1.0000   1.0000   1.0000   1.0000   1.0000   1.0000   1.0000   1.0000
     1.0000   1.0000   1.0000   1.0000   1.0000   1.0000   1.0000   1.0000
     1.0000   1.0551   0.9478   0.0087   0.0000   0.0000   0.0000   0.0000
     0.0000   0.0000   0.0000

          k = 0.0000 0.2887 0.0972 (  3778 PWs)   bands (ev):

   -91.2878 -54.5989 -54.5771 -54.4048 -49.7603 -21.7280 -21.6383 -21.6090
   -14.6881 -13.4201  -1.4416  -0.7338  -0.6654   0.1877   1.3133   2.4499
     2.7973   3.3989   3.6587   4.2061   5.4717   6.2172   6.7771  11.0730
    13.3975  13.5442  15.7254

     occupation numbers 
     1.0000   1.0000   1.0000   1.0000   1.0000   1.0000   1.0000   1.0000
     1.0000   1.0000   1.0000   1.0000   1.0000   1.0000   1.0000   1.0000
     1.0000   1.0639   0.9477   0.0134   0.0000   0.0000   0.0000   0.0000
     0.0000   0.0000   0.0000

          k = 0.0000 0.4330 0.0000 (  3780 PWs)   bands (ev):

   -91.2860 -54.6191 -54.5820 -54.4018 -49.7476 -21.8329 -21.6320 -21.6209
   -14.1400 -13.5054  -1.9192  -0.8729  -0.4540   0.3498   1.0698   2.0671
     3.3584   3.4909   3.8685   4.5157   5.6167   6.2538   8.4276  10.0351
    12.6090  13.7430  15.4177

     occupation numbers 
     1.0000   1.0000   1.0000   1.0000   1.0000   1.0000   1.0000   1.0000
     1.0000   1.0000   1.0000   1.0000   1.0000   1.0000   1.0000   1.0000
     1.0500   1.0833   0.4206   0.0000   0.0000   0.0000   0.0000   0.0000
     0.0000   0.0000   0.0000

          k = 0.0000 0.4330 0.0972 (  3794 PWs)   bands (ev):

   -91.2860 -54.6192 -54.5821 -54.4019 -49.7476 -21.8330 -21.6321 -21.6209
   -14.1400 -13.5054  -1.9194  -0.8733  -0.4540   0.3510   1.0697   2.0683
     3.3563   3.4908   3.8731   4.4824   5.6655   6.2537   8.3893  10.0313
    12.6909  13.8179  14.9341

     occupation numbers 
     1.0000   1.0000   1.0000   1.0000   1.0000   1.0000   1.0000   1.0000
     1.0000   1.0000   1.0000   1.0000   1.0000   1.0000   1.0000   1.0000
     1.0493   1.0833   0.4089   0.0001   0.0000   0.0000   0.0000   0.0000
     0.0000   0.0000   0.0000

          k = 0.0000-0.5774 0.0000 (  3798 PWs)   bands (ev):

   -91.2853 -54.6276 -54.5841 -54.4006 -49.7424 -21.8760 -21.6417 -21.6136
   -13.7555 -13.6830  -2.3171  -0.7001  -0.4039   0.4949   1.0763   1.8090
     3.2349   3.3200   3.7188   5.8105   6.3060   6.3772   7.7020  10.3344
    11.1964  14.4249  14.7135

     occupation numbers 
     1.0000   1.0000   1.0000   1.0000   1.0000   1.0000   1.0000   1.0000
     1.0000   1.0000   1.0000   1.0000   1.0000   1.0000   1.0000   1.0000
     1.0164   1.0374   0.8206   0.0000   0.0000   0.0000   0.0000   0.0000
     0.0000   0.0000   0.0000

          k = 0.0000-0.5774 0.0972 (  3790 PWs)   bands (ev):

   -91.2853 -54.6276 -54.5840 -54.4006 -49.7424 -21.8760 -21.6415 -21.6137
   -13.7555 -13.6830  -2.3171  -0.7002  -0.4039   0.4950   1.0764   1.8099
     3.2346   3.3200   3.7185   5.7997   6.3061   6.3922   7.6904  10.3349
    11.2550  14.1066  14.8987

     occupation numbers 
     1.0000   1.0000   1.0000   1.0000   1.0000   1.0000   1.0000   1.0000
     1.0000   1.0000   1.0000   1.0000   1.0000   1.0000   1.0000   1.0000
     1.0163   1.0374   0.8212   0.0000   0.0000   0.0000   0.0000   0.0000
     0.0000   0.0000   0.0000

          k = 0.1250 0.2165 0.0000 (  3789 PWs)   bands (ev):

   -91.2884 -54.5921 -54.5767 -54.4057 -49.7641 -21.6920 -21.6433 -21.6073
   -14.8282 -13.4073  -1.3514  -0.8296  -0.7518   0.6156   1.1736   2.3113
     2.6470   3.3156   3.7189   4.3071   5.5375   6.0969   6.6167  10.5111
    13.9643  14.4289  14.7477

     occupation numbers 
     1.0000   1.0000   1.0000   1.0000   1.0000   1.0000   1.0000   1.0000
     1.0000   1.0000   1.0000   1.0000   1.0000   1.0000   1.0000   1.0000
     1.0000   1.0361   0.8204   0.0027   0.0000   0.0000   0.0000   0.0000
     0.0000   0.0000   0.0000

          k = 0.1250 0.2165 0.0972 (  3785 PWs)   bands (ev):

   -91.2884 -54.5920 -54.5767 -54.4058 -49.7641 -21.6919 -21.6434 -21.6073
   -14.8282 -13.4073  -1.3525  -0.8277  -0.7500   0.6195   1.1735   2.1923
     2.7797   3.3157   3.7356   4.2766   5.6069   6.0422   6.5513  10.7230
    13.1554  14.7396  15.4062

     occupation numbers 
     1.0000   1.0000   1.0000   1.0000   1.0000   1.0000   1.0000   1.0000
     1.0000   1.0000   1.0000   1.0000   1.0000   1.0000   1.0000   1.0000
     1.0000   1.0361   0.7791   0.0045   0.0000   0.0000   0.0000   0.0000
     0.0000   0.0000   0.0000

          k = 0.1250 0.3608 0.0000 (  3780 PWs)   bands (ev):

   -91.2866 -54.6102 -54.5836 -54.4027 -49.7513 -21.7864 -21.6415 -21.6260
   -14.3289 -13.4572  -1.4883  -1.0219  -0.4111   0.2228   0.7148   2.3552
     3.3843   3.7438   3.8377   4.0253   5.5334   5.9792   7.8090  11.5072
    12.0674  14.7549  15.5435

     occupation numbers 
     1.0000   1.0000   1.0000   1.0000   1.0000   1.0000   1.0000   1.0000
     1.0000   1.0000   1.0000   1.0000   1.0000   1.0000   1.0000   1.0000
     1.0589   0.7579   0.5019   0.1208   0.0000   0.0000   0.0000   0.0000
     0.0000   0.0000   0.0000

          k = 0.1250 0.3608 0.0972 (  3782 PWs)   bands (ev):

   -91.2866 -54.6102 -54.5836 -54.4027 -49.7513 -21.7864 -21.6415 -21.6260
   -14.3289 -13.4572  -1.4888  -1.0220  -0.4109   0.2251   0.7148   2.3526
     3.3826   3.7080   3.8812   4.0066   5.5851   5.9599   7.7722  11.5341
    12.1215  14.4157  15.8340

     occupation numbers 
     1.0000   1.0000   1.0000   1.0000   1.0000   1.0000   1.0000   1.0000
     1.0000   1.0000   1.0000   1.0000   1.0000   1.0000   1.0000   1.0000
     1.0584   0.8461   0.3885   0.1446   0.0000   0.0000   0.0000   0.0000
     0.0000   0.0000   0.0000

          k = 0.1250 0.5052 0.0000 (  3784 PWs)   bands (ev):

   -91.2853 -54.6230 -54.5886 -54.4006 -49.7423 -21.8517 -21.6662 -21.6136
   -13.8642 -13.5746  -2.0274  -1.0276  -0.1504   0.4227   0.6931   1.7715
     3.3814   3.4377   3.8643   5.6932   5.8763   6.0856   8.7800   9.7080
    12.5121  13.4555  15.1848

     occupation numbers 
     1.0000   1.0000   1.0000   1.0000   1.0000   1.0000   1.0000   1.0000
     1.0000   1.0000   1.0000   1.0000   1.0000   1.0000   1.0000   1.0000
     1.0579   1.0756   0.4313   0.0000   0.0000   0.0000   0.0000   0.0000
     0.0000   0.0000   0.0000

          k = 0.1250 0.5052 0.0972 (  3793 PWs)   bands (ev):

   -91.2853 -54.6230 -54.5886 -54.4006 -49.7424 -21.8517 -21.6662 -21.6138
   -13.8642 -13.5746  -2.0274  -1.0277  -0.1505   0.4229   0.6931   1.7722
     3.3811   3.4379   3.8637   5.6500   5.9455   6.0613   8.7746   9.7075
    12.5518  13.4437  15.2453

     occupation numbers 
     1.0000   1.0000   1.0000   1.0000   1.0000   1.0000   1.0000   1.0000
     1.0000   1.0000   1.0000   1.0000   1.0000   1.0000   1.0000   1.0000
     1.0579   1.0756   0.4331   0.0000   0.0000   0.0000   0.0000   0.0000
     0.0000   0.0000   0.0000

          k = 0.2500 0.4330 0.0000 (  3781 PWs)   bands (ev):

   -91.2853 -54.6166 -54.5948 -54.4006 -49.7424 -21.8180 -21.7002 -21.6138
   -13.9210 -13.5180  -1.4797  -1.3196  -0.4223   0.3607   0.5712   1.7706
     3.4525   3.5529   4.0374   5.4530   5.7567   5.8149   9.4054   9.9886
    12.4316  14.5689  14.7886

     occupation numbers 
     1.0000   1.0000   1.0000   1.0000   1.0000   1.0000   1.0000   1.0000
     1.0000   1.0000   1.0000   1.0000   1.0000   1.0000   1.0000   1.0000
     1.0790   1.0685   0.1070   0.0000   0.0000   0.0000   0.0000   0.0000
     0.0000   0.0000   0.0000

          k = 0.2500 0.4330 0.0972 (  3790 PWs)   bands (ev):

   -91.2853 -54.6166 -54.5949 -54.4006 -49.7424 -21.8180 -21.7004 -21.6138
   -13.9210 -13.5180  -1.4797  -1.3198  -0.4223   0.3605   0.5720   1.7705
     3.4525   3.5535   4.0342   5.4758   5.7349   5.8112   9.4256   9.9857
    12.4038  14.5221  14.8532

     occupation numbers 
     1.0000   1.0000   1.0000   1.0000   1.0000   1.0000   1.0000   1.0000
     1.0000   1.0000   1.0000   1.0000   1.0000   1.0000   1.0000   1.0000
     1.0790   1.0682   0.1104   0.0000   0.0000   0.0000   0.0000   0.0000
     0.0000   0.0000   0.0000

          k = 0.2500 0.5774 0.0000 (  3794 PWs)   bands (ev):

   -91.2848 -54.6172 -54.6018 -54.3997 -49.7386 -21.8193 -21.7365 -21.6086
   -13.6798 -13.6066  -1.6276  -1.2621  -0.5783   0.5103   0.7816   1.2979
     3.2488   3.7257   3.9573   5.7506   5.7604   7.2664   8.2948  11.4274
    11.9692  12.1259  14.5859

     occupation numbers 
     1.0000   1.0000   1.0000   1.0000   1.0000   1.0000   1.0000   1.0000
     1.0000   1.0000   1.0000   1.0000   1.0000   1.0000   1.0000   1.0000
     1.0191   0.8038   0.2231   0.0000   0.0000   0.0000   0.0000   0.0000
     0.0000   0.0000   0.0000

          k = 0.2500 0.5774 0.0972 (  3783 PWs)   bands (ev):

   -91.2847 -54.6171 -54.6017 -54.3997 -49.7386 -21.8192 -21.7364 -21.6086
   -13.6798 -13.6066  -1.6276  -1.2621  -0.5782   0.5103   0.7816   1.2980
     3.2488   3.7258   3.9569   5.7513   5.7639   7.2590   8.2891  11.4492
    11.9648  12.1528  14.6033

     occupation numbers 
     1.0000   1.0000   1.0000   1.0000   1.0000   1.0000   1.0000   1.0000
     1.0000   1.0000   1.0000   1.0000   1.0000   1.0000   1.0000   1.0000
     1.0191   0.8035   0.2239   0.0000   0.0000   0.0000   0.0000   0.0000
     0.0000   0.0000   0.0000

          k = 0.0000-0.1443 0.0972 (  3806 PWs)   bands (ev):

   -91.2897 -54.5787 -54.5724 -54.4079 -49.7731 -21.6558 -21.6213 -21.5860
   -15.1409 -13.3896  -1.2043  -1.1083  -0.9237   1.3817   1.5276   1.9084
     2.4743   3.2065   3.3741   4.3489   5.7214   6.1267   6.3522  10.0323
    12.2382  14.5338  16.2868

     occupation numbers 
     1.0000   1.0000   1.0000   1.0000   1.0000   1.0000   1.0000   1.0000
     1.0000   1.0000   1.0000   1.0000   1.0000   1.0000   1.0000   1.0000
     1.0000   1.0118   1.0554   0.0013   0.0000   0.0000   0.0000   0.0000
     0.0000   0.0000   0.0000

          k = 0.0000-0.2887 0.0972 (  3778 PWs)   bands (ev):

   -91.2878 -54.5989 -54.5771 -54.4048 -49.7603 -21.7280 -21.6383 -21.6090
   -14.6881 -13.4201  -1.4413  -0.7344  -0.6654   0.1882   1.3133   2.4336
     2.8162   3.4024   3.6587   4.2271   5.3829   6.2172   6.8698  10.9487
    13.4702  13.6742  15.6808

     occupation numbers 
     1.0000   1.0000   1.0000   1.0000   1.0000   1.0000   1.0000   1.0000
     1.0000   1.0000   1.0000   1.0000   1.0000   1.0000   1.0000   1.0000
     1.0000   1.0651   0.9478   0.0098   0.0000   0.0000   0.0000   0.0000
     0.0000   0.0000   0.0000

          k = 0.0000-0.4330 0.0972 (  3794 PWs)   bands (ev):

   -91.2860 -54.6192 -54.5821 -54.4019 -49.7476 -21.8330 -21.6321 -21.6209
   -14.1400 -13.5054  -1.9194  -0.8733  -0.4540   0.3516   1.0697   2.0660
     3.3570   3.4908   3.8633   4.5242   5.6091   6.2537   8.4543  10.0262
    12.5000  13.8435  15.2114

     occupation numbers 
     1.0000   1.0000   1.0000   1.0000   1.0000   1.0000   1.0000   1.0000
     1.0000   1.0000   1.0000   1.0000   1.0000   1.0000   1.0000   1.0000
     1.0495   1.0833   0.4340   0.0000   0.0000   0.0000   0.0000   0.0000
     0.0000   0.0000   0.0000

          k =-0.1250-0.3608 0.0972 (  3782 PWs)   bands (ev):

   -91.2866 -54.6102 -54.5836 -54.4027 -49.7513 -21.7864 -21.6415 -21.6260
   -14.3289 -13.4572  -1.4887  -1.0220  -0.4111   0.2257   0.7147   2.3497
     3.3850   3.7217   3.8269   4.0652   5.5351   5.9746   7.8098  11.4918
    12.0787  14.6152  15.8708

     occupation numbers 
     1.0000   1.0000   1.0000   1.0000   1.0000   1.0000   1.0000   1.0000
     1.0000   1.0000   1.0000   1.0000   1.0000   1.0000   1.0000   1.0000
     1.0592   0.8136   0.5316   0.0798   0.0000   0.0000   0.0000   0.0000
     0.0000   0.0000   0.0000

          k =-0.1250-0.5052 0.0972 (  3793 PWs)   bands (ev):

   -91.2853 -54.6230 -54.5886 -54.4006 -49.7424 -21.8517 -21.6662 -21.6138
   -13.8642 -13.5746  -2.0274  -1.0277  -0.1505   0.4229   0.6933   1.7717
     3.3813   3.4379   3.8629   5.7204   5.8522   6.0772   8.7751   9.7416
    12.5415  13.3173  15.2812

     occupation numbers 
     1.0000   1.0000   1.0000   1.0000   1.0000   1.0000   1.0000   1.0000
     1.0000   1.0000   1.0000   1.0000   1.0000   1.0000   1.0000   1.0000
     1.0579   1.0756   0.4350   0.0000   0.0000   0.0000   0.0000   0.0000
     0.0000   0.0000   0.0000

     the Fermi energy is     3.8764 ev

!    total energy              =    -569.17693346 Ry
     total all-electron energy =     -3412.667489 Ry
     estimated scf accuracy    <       0.00000005 Ry
     smearing contrib. (-TS)   =       0.00226291 Ry
     internal energy E=F+TS    =    -569.17919637 Ry

     The total energy is F=E-TS. E is the sum of the following terms:
     one-electron contribution =    -677.37683356 Ry
     hartree contribution      =     351.14289565 Ry
     xc contribution           =     -59.96205887 Ry
     ewald contribution        =     -61.02436323 Ry
     one-center paw contrib.   =    -121.95883637 Ry
      -> PAW hartree energy AE =     342.18066054 Ry
      -> PAW hartree energy PS =    -342.18682317 Ry
      -> PAW xc energy AE      =    -178.87935823 Ry
      -> PAW xc energy PS      =      56.92668449 Ry
      -> total E_H with PAW    =     351.13673303 Ry
      -> total E_XC with PAW   =    -181.91473261 Ry

     total magnetization       =     0.80 Bohr mag/cell
     absolute magnetization    =     0.92 Bohr mag/cell

     convergence has been achieved in  22 iterations

     Forces acting on atoms (cartesian axes, Ry/au):

     atom    1 type  1   force =     0.00000000    0.00000000    0.00278644
     atom    2 type  2   force =     0.00000000    0.00000000   -0.02407178
     atom    3 type  2   force =    -0.00000000   -0.00000000    0.01904878
     atom    4 type  3   force =     0.00000000    0.00000000    0.00223656
     The non-local contrib.  to forces
     atom    1 type  1   force =     0.00000000    0.00000000    0.00123722
     atom    2 type  2   force =     0.00000000    0.00000000   -1.18009885
     atom    3 type  2   force =     0.00000000    0.00000000    1.14179141
     atom    4 type  3   force =     0.00000000    0.00000000    0.01084258
     The ionic contribution  to forces
     atom    1 type  1   force =    -0.00000000    0.00000000    2.26010376
     atom    2 type  2   force =     0.00000000   -0.00000000   35.81609472
     atom    3 type  2   force =    -0.00000000    0.00000000  -34.22441181
     atom    4 type  3   force =     0.00000000   -0.00000000   -3.85178667
     The local contribution  to forces
     atom    1 type  1   force =    -0.00000000   -0.00000000   -2.25876226
     atom    2 type  2   force =     0.00000001   -0.00000001  -34.67040040
     atom    3 type  2   force =    -0.00000001    0.00000001   33.11151409
     atom    4 type  3   force =    -0.00000000   -0.00000000    3.84322164
     The core correction contribution to forces
     atom    1 type  1   force =     0.00000000   -0.00000000   -0.00000027
     atom    2 type  2   force =    -0.00000000    0.00000000    0.01039691
     atom    3 type  2   force =     0.00000000   -0.00000000   -0.01001580
     atom    4 type  3   force =     0.00000000   -0.00000000   -0.00000964
     The Hubbard contrib.    to forces
     atom    1 type  1   force =     0.00000000    0.00000000    0.00000000
     atom    2 type  2   force =     0.00000000    0.00000000    0.00000000
     atom    3 type  2   force =     0.00000000    0.00000000    0.00000000
     atom    4 type  3   force =     0.00000000    0.00000000    0.00000000
     The SCF correction term to forces
     atom    1 type  1   force =     0.00000000    0.00000000    0.00020548
     atom    2 type  2   force =     0.00000000   -0.00000000   -0.00006666
     atom    3 type  2   force =    -0.00000000    0.00000000    0.00016839
     atom    4 type  3   force =    -0.00000000    0.00000000   -0.00003385

     Total force =     0.030904     Total SCF correction =     0.000276

     Writing all to output data dir ./out/pw.save/ :
     XML data file, charge density, pseudopotentials, collected wavefunctions
 
     init_run     :     13.43s CPU      3.09s WALL (       1 calls)
     electrons    :    119.75s CPU     30.64s WALL (       1 calls)
     forces       :      0.82s CPU      0.56s WALL (       1 calls)

     Called by init_run:
     wfcinit      :      0.28s CPU      0.34s WALL (       1 calls)
     wfcinit:atom :      0.04s CPU      0.04s WALL (      50 calls)
     wfcinit:wfcr :      0.17s CPU      0.20s WALL (      50 calls)
     potinit      :     12.60s CPU      2.16s WALL (       1 calls)
     hinit0       :      0.45s CPU      0.44s WALL (       1 calls)

     Called by electrons:
     c_bands      :     14.50s CPU     14.48s WALL (      22 calls)
     sum_band     :      2.54s CPU      2.46s WALL (      22 calls)
     v_of_rho     :      0.41s CPU      0.25s WALL (      23 calls)
     v_h          :      0.28s CPU      0.05s WALL (      23 calls)
     v_xc         :      0.14s CPU      0.21s WALL (      24 calls)
     newd         :      0.54s CPU      0.42s WALL (      23 calls)
                                        0.42s GPU  (      23 calls)
     PAW_pot      :    104.81s CPU     12.85s WALL (      23 calls)
     mix_rho      :      0.78s CPU      0.73s WALL (      22 calls)

     Called by c_bands:
     init_us_2    :      0.95s CPU      0.88s WALL (    2300 calls)
     cegterg      :     12.51s CPU     12.55s WALL (    1100 calls)

     Called by sum_band:
     sum_band:wei :      0.03s CPU      0.03s WALL (      22 calls)
                                        0.03s GPU  (      22 calls)
     sum_band:loo :      1.61s CPU      1.52s WALL (      22 calls)
                                        1.52s GPU  (      22 calls)
     sum_band:buf :      0.22s CPU      0.24s WALL (    1100 calls)
                                        0.23s GPU  (    1100 calls)
     sum_band:ini :      0.44s CPU      0.43s WALL (    1100 calls)
                                        0.41s GPU  (    1100 calls)
     sum_band:cal :      0.04s CPU      0.07s WALL (    1100 calls)
                                        0.05s GPU  (    1100 calls)
     sum_band:bec :      0.23s CPU      0.25s WALL (    1100 calls)
                                        0.23s GPU  (    1100 calls)
     addusdens    :      0.73s CPU      0.73s WALL (      22 calls)
                                        0.73s GPU  (      22 calls)
     addusd:skk   :      0.00s CPU      0.00s WALL (      66 calls)
                                        0.00s GPU  (      66 calls)

     Called by *egterg:
     cdiaghg      :      4.20s CPU      4.34s WALL (    4940 calls)
                                        4.28s GPU  (    4940 calls)
     cegterg:over :      1.12s CPU      1.16s WALL (    3840 calls)
     cegterg:upda :      0.72s CPU      0.72s WALL (    3840 calls)
     cegterg:last :      0.15s CPU      0.14s WALL (    2093 calls)
     h_psi        :      4.61s CPU      4.63s WALL (    4990 calls)
                                        4.57s GPU  (    4990 calls)
     s_psi        :      0.75s CPU      0.79s WALL (    4990 calls)
     g_psi        :      0.02s CPU      0.10s WALL (    3840 calls)
                                        0.05s GPU  (    3840 calls)

     Called by h_psi:
     h_psi:calbec :      0.15s CPU      0.29s WALL (    4990 calls)
                                        0.23s GPU  (    4990 calls)
     vloc_psi     :      3.24s CPU      3.17s WALL (    4990 calls)
                                        3.11s GPU  (    4990 calls)
     add_vuspsi   :      0.68s CPU      0.81s WALL (    4990 calls)
                                        0.75s GPU  (    4990 calls)

     General routines
     calbec       :      0.17s CPU      0.20s WALL (    6290 calls)
     fft          :      3.77s CPU      0.66s WALL (     588 calls)
                                        0.02s GPU  (     542 calls)
     ffts         :      4.67s CPU      0.87s WALL (     925 calls)
                                        0.02s GPU  (     879 calls)
     fftw         :      0.30s CPU      1.16s WALL (   16714 calls)
                                        0.97s GPU  (   16714 calls)
     interpolate  :      8.62s CPU      1.51s WALL (      46 calls)
 
     Parallel routines

     PAW routines
     PAW_pot      :    104.81s CPU     12.85s WALL (      23 calls)
     PAW_symme    :      0.02s CPU      0.00s WALL (      45 calls)
 
     PWSCF        :   2m14.89s CPU     34.82s WALL

 
   This run was terminated on:   2:40:26  12Jul2026            

=------------------------------------------------------------------------------=
   JOB DONE.
=------------------------------------------------------------------------------=
Warning: ieee_divide_by_zero is signaling
Warning: ieee_inexact is signaling
FORTRAN STOP
