
     Program PWSCF v.7.3.1 starts on 12Jul2026 at  6:36:16 

     This program is part of the open-source Quantum ESPRESSO suite
     for quantum simulation of materials; please cite
         "P. Giannozzi et al., J. Phys.:Condens. Matter 21 395502 (2009);
         "P. Giannozzi et al., J. Phys.:Condens. Matter 29 465901 (2017);
         "P. Giannozzi et al., J. Chem. Phys. 152 154105 (2020);
          URL http://www.quantum-espresso.org", 
     in publications or presentations arising from this work. More details at
     http://www.quantum-espresso.org/quote

     Parallel version (MPI & OpenMP), running on      14 processor cores
     Number of MPI processes:                 1
     Threads/MPI process:                    14

     MPI processes distributed on     1 nodes
     1357953 MiB available memory on the printing compute node when the environment starts
 
     Reading input from pw.in

     Current dimensions of program PWSCF are:
     Max number of different atomic species (ntypx) = 10
     Max number of k-points (npk) =  40000
     Max angular momentum in pseudopotentials (lmaxx) =  4
     file Co.pbe-spn-kjpaw_psl.0.3.1.UPF: wavefunction(s)  3P 3D renormalized
     file O.pbe-n-kjpaw_psl.1.0.0.UPF: wavefunction(s)  2S 2P renormalized
     file Na.pbe-spn-kjpaw_psl.1.0.0.UPF: wavefunction(s)  2P renormalized
     file H.pbe-kjpaw_psl.1.0.0.UPF: wavefunction(s)  1S renormalized
 
     Subspace diagonalization in iterative solution of the eigenvalue problem:
     a serial algorithm will be used

 
     G-vector sticks info
     --------------------
     sticks:   dense  smooth     PW     G-vecs:    dense   smooth      PW
     Sum        2941    1483    421               256907    90927   13645
 
     Using Slab Decomposition
 


     bravais-lattice index     =            4
     lattice parameter (alat)  =       9.4527  a.u.
     unit-cell volume          =    1447.6983 (a.u.)^3
     number of atoms/cell      =           22
     number of atomic types    =            4
     number of electrons       =       128.00
     number of Kohn-Sham states=           85
     kinetic-energy cutoff     =      60.0000  Ry
     charge density cutoff     =     480.0000  Ry
     scf convergence threshold =      1.0E-07
     mixing beta               =       0.3000
     number of iterations used =            8  local-TF  mixing
     Exchange-correlation= SLA  PW   PBX  PBC
                           (   1   4   3   4   0   0   0)

     GPU acceleration is ACTIVE.  1 visible GPUs per MPI rank
     GPU-aware MPI enabled


     GPU used by master process:

        Device Number: 0
        Device name: NVIDIA A100-SXM4-80GB
        Compute capability : 80
        Ratio of single to double precision performance  : 2
        Memory Clock Rate (KHz): 1593000
        Memory Bus Width (bits): 5120
        Peak Memory Bandwidth (GB/s): ******

     celldm(1)=   9.452718  celldm(2)=   0.000000  celldm(3)=   1.979144
     celldm(4)=   0.000000  celldm(5)=   0.000000  celldm(6)=   0.000000

     crystal axes: (cart. coord. in units of alat)
               a(1) = (   1.000000   0.000000   0.000000 )  
               a(2) = (  -0.500000   0.866025   0.000000 )  
               a(3) = (   0.000000   0.000000   1.979144 )  

     reciprocal axes: (cart. coord. in units 2 pi/alat)
               b(1) = (  1.000000  0.577350 -0.000000 )  
               b(2) = (  0.000000  1.154701  0.000000 )  
               b(3) = (  0.000000 -0.000000  0.505269 )  


     PseudoPot. # 1 for Co read from file:
     ../../pseudo/Co.pbe-spn-kjpaw_psl.0.3.1.UPF
     MD5 check sum: 3c0a43779828c046024e4f3be63f8e67
     Pseudo is Projector augmented-wave + core cor, Zval = 17.0
     Generated using &quot;atomic&quot; code by A. Dal Corso  v.6.2.2
     Shape of augmentation charge: PSQ
     Using radial grid of 1193 points,  6 beta functions with: 
                l(1) =   0
                l(2) =   0
                l(3) =   1
                l(4) =   1
                l(5) =   2
                l(6) =   2
     Q(r) pseudized with 0 coefficients 


     PseudoPot. # 2 for O  read from file:
     ../../pseudo/O.pbe-n-kjpaw_psl.1.0.0.UPF
     MD5 check sum: e99d9cef9b487d1ca56f5b95ecd0fd7a
     Pseudo is Projector augmented-wave + core cor, Zval =  6.0
     Generated using &quot;atomic&quot; code by A. Dal Corso  v.6.3
     Shape of augmentation charge: PSQ
     Using radial grid of 1095 points,  4 beta functions with: 
                l(1) =   0
                l(2) =   0
                l(3) =   1
                l(4) =   1
     Q(r) pseudized with 0 coefficients 


     PseudoPot. # 3 for Na read from file:
     ../../pseudo/Na.pbe-spn-kjpaw_psl.1.0.0.UPF
     MD5 check sum: 05b4deb74e3932c23ab016979dc8b5d4
     Pseudo is Projector augmented-wave + core cor, Zval =  9.0
     Generated using &quot;atomic&quot; code by A. Dal Corso  v.6.3
     Shape of augmentation charge: PSQ
     Using radial grid of 1121 points,  4 beta functions with: 
                l(1) =   0
                l(2) =   0
                l(3) =   1
                l(4) =   1
     Q(r) pseudized with 0 coefficients 


     PseudoPot. # 4 for H  read from file:
     ../../pseudo/H.pbe-kjpaw_psl.1.0.0.UPF
     MD5 check sum: d81a744832360e4a8af0b0b5b123bc2a
     Pseudo is Projector augmented-wave, Zval =  1.0
     Generated using &quot;atomic&quot; code by A. Dal Corso  v.6.3MaX
     Shape of augmentation charge: PSQ
     Using radial grid of  929 points,  2 beta functions with: 
                l(1) =   0
                l(2) =   0
     Q(r) pseudized with 0 coefficients 


     atomic species   valence    mass     pseudopotential
     Co               17.00    58.93300     Co( 1.00)
     O                 6.00    15.99900     O ( 1.00)
     Na                9.00    22.98977     Na( 1.00)
     H                 1.00     1.00800     H ( 1.00)

     Starting magnetic structure 
     atomic species   magnetization
     Co              0.300
     O               0.000
     Na              0.000
     H               0.000

     No symmetry found


                                    s                        frac. trans.

      isym =  1     identity                                     

 cryst.   s( 1) = (     1          0          0      )
                  (     0          1          0      )
                  (     0          0          1      )

 cart.    s( 1) = (  1.0000000  0.0000000  0.0000000 )
                  (  0.0000000  1.0000000  0.0000000 )
                  (  0.0000000  0.0000000  1.0000000 )


     point group C_1 (1)    
     there are  1 classes
     the character table:

       E    
A      1.00

     the symmetry operations in each class and the name of the first element:

     E        1
          identity                                               

   Cartesian axes

     site n.     atom                  positions (alat units)
         1        Co     tau(   1) = (   0.0000000   0.0000000   0.0000000  )
         2        Co     tau(   2) = (  -0.0000000   0.5773503   0.0000000  )
         3        Co     tau(   3) = (   0.5000000   0.2886751   0.0000000  )
         4        O      tau(   4) = (   0.1666667   0.2886751   0.1919170  )
         5        O      tau(   5) = (   0.6666667   0.0000000   0.1919170  )
         6        O      tau(   6) = (  -0.3333333   0.5773503   0.1919170  )
         7        O      tau(   7) = (   0.3333333   0.0000000   1.7872269  )
         8        O      tau(   8) = (   0.3333333   0.5773503   1.7872269  )
         9        O      tau(   9) = (  -0.1666667   0.2886751   1.7872269  )
        10        Na     tau(  10) = (   0.0000000   0.0000000   1.0495460  )
        11        O      tau(  11) = (   0.3333333   0.0000000   0.7496757  )
        12        H      tau(  12) = (   0.5188487   0.0262772   0.7885490  )
        13        H      tau(  13) = (  -0.1727349   0.8397482   0.5602285  )
        14        O      tau(  14) = (  -0.1666667   0.2886751   0.7496757  )
        15        H      tau(  15) = (   0.7178189   0.4361976   0.7885490  )
        16        H      tau(  16) = (  -0.1408758   0.2965585   0.5602285  )
        17        O      tau(  17) = (  -0.0000000   0.5773503   1.2294682  )
        18        H      tau(  18) = (  -0.0756623   0.7513118   1.2043644  )
        19        H      tau(  19) = (   0.0756623   0.5828359   1.4051461  )
        20        O      tau(  20) = (   0.5000000   0.2886751   1.2294682  )
        21        H      tau(  21) = (   0.6128239   0.4411814   1.2043644  )
        22        H      tau(  22) = (   0.5425818   0.2258925   1.4051461  )

     --------------------------------------------
     DFT-D3 Dispersion Correction (3-body terms):
     --------------------------------------------
       Reference C6 values for interpolation: 

         atom   Coordination number   C6
         H          0.912             6.05
         H          0.000            15.18
         O          0.000            31.01
         O          0.993            25.63
         O          1.989            20.74
         Na         0.000          3216.06
         Na         0.968           372.21
         Co         0.000          1065.56
         Co         1.715           373.09
         Co         2.926           296.13
         Co         7.779           236.57

       Values used:

         atom   Coordination number  R0_AB[au]  C6      C8
         Co         6.737            3.243    236.57  20800.86
         Co         6.735            3.243    236.57  20800.86
         Co         6.734            3.243    236.57  20800.86
         O          2.704            2.345     20.74    418.58
         O          2.704            2.345     20.74    418.58
         O          2.704            2.345     20.74    418.58
         O          2.708            2.345     20.74    418.58
         O          2.708            2.345     20.74    418.58
         O          2.708            2.345     20.74    418.58
         Na         4.290            3.504    372.21  48432.19
         O          2.988            2.345     20.74    418.58
         H          1.103            2.062      6.11     73.91
         H          1.031            2.062      6.16     74.41
         O          2.989            2.345     20.74    418.58
         H          1.102            2.062      6.11     73.91
         H          1.031            2.062      6.16     74.41
         O          2.477            2.345     20.74    418.61
         H          1.458            2.062      6.06     73.23
         H          1.024            2.062      6.16     74.47
         O          2.477            2.345     20.74    418.61
         H          1.458            2.062      6.06     73.23
         H          1.024            2.062      6.16     74.47

         Molecular C6 ( Ry / a.u.^6 ) =     16111.40


   Crystallographic axes

     site n.     atom                  positions (cryst. coord.)
         1        Co     tau(   1) = (  0.0000000  0.0000000  0.0000000  )
         2        Co     tau(   2) = (  0.3333333  0.6666667  0.0000000  )
         3        Co     tau(   3) = (  0.6666667  0.3333333  0.0000000  )
         4        O      tau(   4) = (  0.3333333  0.3333333  0.0969697  )
         5        O      tau(   5) = (  0.6666667  0.0000000  0.0969697  )
         6        O      tau(   6) = (  0.0000000  0.6666667  0.0969697  )
         7        O      tau(   7) = (  0.3333333  0.0000000  0.9030303  )
         8        O      tau(   8) = (  0.6666667  0.6666667  0.9030303  )
         9        O      tau(   9) = ( -0.0000000  0.3333333  0.9030303  )
        10        Na     tau(  10) = (  0.0000000  0.0000000  0.5303030  )
        11        O      tau(  11) = (  0.3333333  0.0000000  0.3787879  )
        12        H      tau(  12) = (  0.5340199  0.0303423  0.3984293  )
        13        H      tau(  13) = (  0.3120939  0.9696577  0.2830660  )
        14        O      tau(  14) = ( -0.0000000  0.3333333  0.3787879  )
        15        H      tau(  15) = (  0.9696577  0.5036776  0.3984293  )
        16        H      tau(  16) = (  0.0303423  0.3424362  0.2830660  )
        17        O      tau(  17) = (  0.3333333  0.6666667  0.6212121  )
        18        H      tau(  18) = (  0.3581077  0.8675401  0.6085279  )
        19        H      tau(  19) = (  0.4121628  0.6730009  0.7099767  )
        20        O      tau(  20) = (  0.6666667  0.3333333  0.6212121  )
        21        H      tau(  21) = (  0.8675401  0.5094324  0.6085279  )
        22        H      tau(  22) = (  0.6730009  0.2608382  0.7099767  )

     number of k points=    40  Marzari-Vanderbilt smearing, width (Ry)=  0.0200
                       cart. coord. in units 2pi/alat
        k(    1) = (   0.0000000   0.0000000   0.0000000), wk =   0.0138889
        k(    2) = (   0.0000000   0.0000000  -0.2526345), wk =   0.0138889
        k(    3) = (   0.0000000   0.1924501   0.0000000), wk =   0.0277778
        k(    4) = (   0.0000000   0.1924501  -0.2526345), wk =   0.0277778
        k(    5) = (   0.0000000   0.3849002   0.0000000), wk =   0.0277778
        k(    6) = (   0.0000000   0.3849002  -0.2526345), wk =   0.0277778
        k(    7) = (   0.0000000  -0.5773503   0.0000000), wk =   0.0138889
        k(    8) = (   0.0000000  -0.5773503  -0.2526345), wk =   0.0138889
        k(    9) = (   0.1666667   0.2886751   0.0000000), wk =   0.0277778
        k(   10) = (   0.1666667   0.2886751  -0.2526345), wk =   0.0277778
        k(   11) = (   0.1666667   0.4811252   0.0000000), wk =   0.0277778
        k(   12) = (   0.1666667   0.4811252  -0.2526345), wk =   0.0277778
        k(   13) = (   0.3333333   0.5773503   0.0000000), wk =   0.0277778
        k(   14) = (   0.3333333   0.5773503  -0.2526345), wk =   0.0277778
        k(   15) = (  -0.1666667   0.0962250   0.0000000), wk =   0.0277778
        k(   16) = (   0.1666667   0.0962250   0.0000000), wk =   0.0277778
        k(   17) = (  -0.1666667   0.0962250  -0.2526345), wk =   0.0277778
        k(   18) = (   0.1666667   0.0962250  -0.2526345), wk =   0.0277778
        k(   19) = (  -0.3333333   0.1924501   0.0000000), wk =   0.0277778
        k(   20) = (   0.3333333   0.1924501   0.0000000), wk =   0.0277778
        k(   21) = (  -0.3333333   0.1924501  -0.2526345), wk =   0.0277778
        k(   22) = (   0.3333333   0.1924501  -0.2526345), wk =   0.0277778
        k(   23) = (   0.5000000  -0.2886751   0.0000000), wk =   0.0138889
        k(   24) = (  -0.5000000  -0.2886751   0.0000000), wk =   0.0138889
        k(   25) = (   0.5000000  -0.2886751  -0.2526345), wk =   0.0138889
        k(   26) = (  -0.5000000  -0.2886751  -0.2526345), wk =   0.0138889
        k(   27) = (  -0.1666667   0.2886751   0.0000000), wk =   0.0277778
        k(   28) = (   0.3333333   0.0000000   0.0000000), wk =   0.0277778
        k(   29) = (  -0.1666667   0.2886751   0.2526345), wk =   0.0277778
        k(   30) = (   0.3333333   0.0000000  -0.2526345), wk =   0.0277778
        k(   31) = (  -0.1666667   0.4811252   0.0000000), wk =   0.0277778
        k(   32) = (  -0.3333333   0.3849002   0.0000000), wk =   0.0277778
        k(   33) = (   0.5000000   0.0962250   0.0000000), wk =   0.0277778
        k(   34) = (  -0.3333333  -0.3849002   0.0000000), wk =   0.0277778
        k(   35) = (   0.5000000  -0.0962250   0.0000000), wk =   0.0277778
        k(   36) = (  -0.1666667   0.4811252   0.2526345), wk =   0.0277778
        k(   37) = (  -0.3333333   0.3849002  -0.2526345), wk =   0.0277778
        k(   38) = (   0.5000000   0.0962250  -0.2526345), wk =   0.0277778
        k(   39) = (  -0.3333333  -0.3849002   0.2526345), wk =   0.0277778
        k(   40) = (   0.5000000  -0.0962250   0.2526345), wk =   0.0277778

                       cryst. coord.
        k(    1) = (   0.0000000   0.0000000   0.0000000), wk =   0.0138889
        k(    2) = (   0.0000000   0.0000000  -0.5000000), wk =   0.0138889
        k(    3) = (   0.0000000   0.1666667   0.0000000), wk =   0.0277778
        k(    4) = (   0.0000000   0.1666667  -0.5000000), wk =   0.0277778
        k(    5) = (   0.0000000   0.3333333   0.0000000), wk =   0.0277778
        k(    6) = (   0.0000000   0.3333333  -0.5000000), wk =   0.0277778
        k(    7) = (   0.0000000  -0.5000000   0.0000000), wk =   0.0138889
        k(    8) = (   0.0000000  -0.5000000  -0.5000000), wk =   0.0138889
        k(    9) = (   0.1666667   0.1666667   0.0000000), wk =   0.0277778
        k(   10) = (   0.1666667   0.1666667  -0.5000000), wk =   0.0277778
        k(   11) = (   0.1666667   0.3333333   0.0000000), wk =   0.0277778
        k(   12) = (   0.1666667   0.3333333  -0.5000000), wk =   0.0277778
        k(   13) = (   0.3333333   0.3333333   0.0000000), wk =   0.0277778
        k(   14) = (   0.3333333   0.3333333  -0.5000000), wk =   0.0277778
        k(   15) = (  -0.1666667   0.1666667   0.0000000), wk =   0.0277778
        k(   16) = (   0.1666667  -0.0000000   0.0000000), wk =   0.0277778
        k(   17) = (  -0.1666667   0.1666667  -0.5000000), wk =   0.0277778
        k(   18) = (   0.1666667  -0.0000000  -0.5000000), wk =   0.0277778
        k(   19) = (  -0.3333333   0.3333333   0.0000000), wk =   0.0277778
        k(   20) = (   0.3333333  -0.0000000   0.0000000), wk =   0.0277778
        k(   21) = (  -0.3333333   0.3333333  -0.5000000), wk =   0.0277778
        k(   22) = (   0.3333333  -0.0000000  -0.5000000), wk =   0.0277778
        k(   23) = (   0.5000000  -0.5000000   0.0000000), wk =   0.0138889
        k(   24) = (  -0.5000000   0.0000000   0.0000000), wk =   0.0138889
        k(   25) = (   0.5000000  -0.5000000  -0.5000000), wk =   0.0138889
        k(   26) = (  -0.5000000   0.0000000  -0.5000000), wk =   0.0138889
        k(   27) = (  -0.1666667   0.3333333   0.0000000), wk =   0.0277778
        k(   28) = (   0.3333333  -0.1666667   0.0000000), wk =   0.0277778
        k(   29) = (  -0.1666667   0.3333333   0.5000000), wk =   0.0277778
        k(   30) = (   0.3333333  -0.1666667  -0.5000000), wk =   0.0277778
        k(   31) = (  -0.1666667   0.5000000   0.0000000), wk =   0.0277778
        k(   32) = (  -0.3333333   0.5000000   0.0000000), wk =   0.0277778
        k(   33) = (   0.5000000  -0.1666667   0.0000000), wk =   0.0277778
        k(   34) = (  -0.3333333  -0.1666667   0.0000000), wk =   0.0277778
        k(   35) = (   0.5000000  -0.3333333   0.0000000), wk =   0.0277778
        k(   36) = (  -0.1666667   0.5000000   0.5000000), wk =   0.0277778
        k(   37) = (  -0.3333333   0.5000000  -0.5000000), wk =   0.0277778
        k(   38) = (   0.5000000  -0.1666667  -0.5000000), wk =   0.0277778
        k(   39) = (  -0.3333333  -0.1666667   0.5000000), wk =   0.0277778
        k(   40) = (   0.5000000  -0.3333333   0.5000000), wk =   0.0277778

     Dense  grid:   256907 G-vectors     FFT dimensions: (  72,  72, 135)

     Smooth grid:    90927 G-vectors     FFT dimensions: (  48,  48,  96)

     Dynamical RAM for                 wfc:      14.74 MB

     Dynamical RAM for     wfc (w. buffer):    1193.65 MB

     Dynamical RAM for           str. fact:      15.68 MB

     Dynamical RAM for           local pot:       0.00 MB

     Dynamical RAM for          nlocal pot:      27.39 MB

     Dynamical RAM for                qrad:       7.03 MB

     Dynamical RAM for          rho,v,vnew:      55.56 MB

     Dynamical RAM for               rhoin:      18.52 MB

     Dynamical RAM for            rho*nmix:     125.44 MB

     Dynamical RAM for           G-vectors:      15.39 MB

     Dynamical RAM for          h,s,v(r/c):       1.32 MB

     Dynamical RAM for          <psi|beta>:       0.20 MB

     Dynamical RAM for                 psi:      29.47 MB

     Dynamical RAM for                hpsi:      29.47 MB

     Dynamical RAM for                spsi:      29.47 MB

     Dynamical RAM for      wfcinit/wfcrot:      29.64 MB

     Dynamical RAM for           addusdens:     772.26 MB

     Dynamical RAM for          addusforce:     842.90 MB

     Estimated static dynamical RAM per process >       1.35 GB

     Estimated max dynamical RAM per process >       2.30 GB

     Check: negative core charge=   -0.000006
     Generating pointlists ...
     new r_m :   0.1587 (alat units)  1.4998 (a.u.) for type    1
     new r_m :   0.0789 (alat units)  0.7461 (a.u.) for type    2
     new r_m :   0.1850 (alat units)  1.7483 (a.u.) for type    3
     new r_m :   0.0789 (alat units)  0.7461 (a.u.) for type    4

     Initial potential from superposition of free atoms

     starting charge     127.9928, renormalised to     128.0000
     Starting wfcs are   83 randomized atomic wfcs +    2 random wfcs
     Checking if some PAW data can be deallocated... 

     total cpu time spent up to now is        7.3 secs

     Self-consistent Calculation
[tb_dev] Currently allocated     1.27E+00 Mbytes, locked:    0 /   6
[tb_pin] Currently allocated     0.00E+00 Mbytes, locked:    0 /   0

     iteration #  1     ecut=    60.00 Ry     beta= 0.30
     Davidson diagonalization with overlap

---- Real-time Memory Report at c_bands before calling an iterative solver
          1948 MiB given to the printing process from OS
             0 MiB allocation reported by mallinfo(arena+hblkhd)
       1356374 MiB available memory on the node where the printing process lives
     GPU memory used/free/total (MiB): 2068 / 79082 / 81151
------------------
     ethr =  1.00E-02,  avg # of iterations =  8.5

     total cpu time spent up to now is       16.5 secs

     total energy              =   -1664.68571452 Ry
     estimated scf accuracy    <       7.56936984 Ry

     total magnetization       =    14.00 Bohr mag/cell
     absolute magnetization    =    14.01 Bohr mag/cell
[tb_dev] Currently allocated     1.68E-04 Mbytes, locked:    0 /   2
[tb_pin] Currently allocated     0.00E+00 Mbytes, locked:    0 /   0

     iteration #  2     ecut=    60.00 Ry     beta= 0.30
     Davidson diagonalization with overlap

---- Real-time Memory Report at c_bands before calling an iterative solver
          2013 MiB given to the printing process from OS
             0 MiB allocation reported by mallinfo(arena+hblkhd)
       1357183 MiB available memory on the node where the printing process lives
     GPU memory used/free/total (MiB): 2124 / 79026 / 81151
------------------
     ethr =  5.91E-03,  avg # of iterations =  2.0

     total cpu time spent up to now is       21.8 secs

     total energy              =   -1664.89938652 Ry
     estimated scf accuracy    <       1.68588062 Ry

     total magnetization       =    10.77 Bohr mag/cell
     absolute magnetization    =    10.78 Bohr mag/cell
[tb_dev] Currently allocated     1.68E-04 Mbytes, locked:    0 /   2
[tb_pin] Currently allocated     0.00E+00 Mbytes, locked:    0 /   0

     iteration #  3     ecut=    60.00 Ry     beta= 0.30
     Davidson diagonalization with overlap

---- Real-time Memory Report at c_bands before calling an iterative solver
          2025 MiB given to the printing process from OS
             0 MiB allocation reported by mallinfo(arena+hblkhd)
       1361553 MiB available memory on the node where the printing process lives
     GPU memory used/free/total (MiB): 2124 / 79026 / 81151
------------------
     ethr =  1.32E-03,  avg # of iterations =  2.8

     total cpu time spent up to now is       27.8 secs

     total energy              =   -1665.24031324 Ry
     estimated scf accuracy    <       2.40231127 Ry

     total magnetization       =     4.06 Bohr mag/cell
     absolute magnetization    =     4.81 Bohr mag/cell
[tb_dev] Currently allocated     1.68E-04 Mbytes, locked:    0 /   2
[tb_pin] Currently allocated     0.00E+00 Mbytes, locked:    0 /   0

     iteration #  4     ecut=    60.00 Ry     beta= 0.30
     Davidson diagonalization with overlap

---- Real-time Memory Report at c_bands before calling an iterative solver
          2036 MiB given to the printing process from OS
             0 MiB allocation reported by mallinfo(arena+hblkhd)
       1362071 MiB available memory on the node where the printing process lives
     GPU memory used/free/total (MiB): 2124 / 79026 / 81151
------------------
     ethr =  1.32E-03,  avg # of iterations =  1.2

     total cpu time spent up to now is       32.8 secs

     total energy              =   -1665.39117592 Ry
     estimated scf accuracy    <       0.66847814 Ry

     total magnetization       =     6.29 Bohr mag/cell
     absolute magnetization    =     6.50 Bohr mag/cell
[tb_dev] Currently allocated     1.68E-04 Mbytes, locked:    0 /   2
[tb_pin] Currently allocated     0.00E+00 Mbytes, locked:    0 /   0

     iteration #  5     ecut=    60.00 Ry     beta= 0.30
     Davidson diagonalization with overlap

---- Real-time Memory Report at c_bands before calling an iterative solver
          2041 MiB given to the printing process from OS
             0 MiB allocation reported by mallinfo(arena+hblkhd)
       1361628 MiB available memory on the node where the printing process lives
     GPU memory used/free/total (MiB): 2124 / 79026 / 81151
------------------
     ethr =  5.22E-04,  avg # of iterations =  2.3

     total cpu time spent up to now is       38.3 secs

     total energy              =   -1665.48553172 Ry
     estimated scf accuracy    <       0.80072973 Ry

     total magnetization       =     3.36 Bohr mag/cell
     absolute magnetization    =     4.41 Bohr mag/cell
[tb_dev] Currently allocated     1.68E-04 Mbytes, locked:    0 /   2
[tb_pin] Currently allocated     0.00E+00 Mbytes, locked:    0 /   0

     iteration #  6     ecut=    60.00 Ry     beta= 0.30
     Davidson diagonalization with overlap

---- Real-time Memory Report at c_bands before calling an iterative solver
          2049 MiB given to the printing process from OS
             0 MiB allocation reported by mallinfo(arena+hblkhd)
       1355387 MiB available memory on the node where the printing process lives
     GPU memory used/free/total (MiB): 2124 / 79026 / 81151
------------------
     ethr =  5.22E-04,  avg # of iterations =  1.3

     total cpu time spent up to now is       43.4 secs

     total energy              =   -1665.63944860 Ry
     estimated scf accuracy    <       0.39335334 Ry

     total magnetization       =     2.30 Bohr mag/cell
     absolute magnetization    =     3.73 Bohr mag/cell
[tb_dev] Currently allocated     1.68E-04 Mbytes, locked:    0 /   2
[tb_pin] Currently allocated     0.00E+00 Mbytes, locked:    0 /   0

     iteration #  7     ecut=    60.00 Ry     beta= 0.30
     Davidson diagonalization with overlap

---- Real-time Memory Report at c_bands before calling an iterative solver
          2057 MiB given to the printing process from OS
             0 MiB allocation reported by mallinfo(arena+hblkhd)
       1346179 MiB available memory on the node where the printing process lives
     GPU memory used/free/total (MiB): 2124 / 79026 / 81151
------------------
     ethr =  3.07E-04,  avg # of iterations =  3.1

     total cpu time spent up to now is       49.2 secs

     total energy              =   -1665.62366738 Ry
     estimated scf accuracy    <       1.09682294 Ry

     total magnetization       =     2.32 Bohr mag/cell
     absolute magnetization    =     2.64 Bohr mag/cell
[tb_dev] Currently allocated     1.68E-04 Mbytes, locked:    0 /   2
[tb_pin] Currently allocated     0.00E+00 Mbytes, locked:    0 /   0

     iteration #  8     ecut=    60.00 Ry     beta= 0.30
     Davidson diagonalization with overlap

---- Real-time Memory Report at c_bands before calling an iterative solver
          2063 MiB given to the printing process from OS
             0 MiB allocation reported by mallinfo(arena+hblkhd)
       1336153 MiB available memory on the node where the printing process lives
     GPU memory used/free/total (MiB): 2124 / 79026 / 81151
------------------
     ethr =  3.07E-04,  avg # of iterations =  2.1

     total cpu time spent up to now is       54.7 secs

     total energy              =   -1665.62486729 Ry
     estimated scf accuracy    <       0.36121200 Ry

     total magnetization       =     2.06 Bohr mag/cell
     absolute magnetization    =     2.59 Bohr mag/cell
[tb_dev] Currently allocated     1.68E-04 Mbytes, locked:    0 /   2
[tb_pin] Currently allocated     0.00E+00 Mbytes, locked:    0 /   0

     iteration #  9     ecut=    60.00 Ry     beta= 0.30
     Davidson diagonalization with overlap

---- Real-time Memory Report at c_bands before calling an iterative solver
          2072 MiB given to the printing process from OS
             0 MiB allocation reported by mallinfo(arena+hblkhd)
       1326797 MiB available memory on the node where the printing process lives
     GPU memory used/free/total (MiB): 2124 / 79026 / 81151
------------------
     ethr =  2.82E-04,  avg # of iterations =  1.6

     total cpu time spent up to now is       60.3 secs

     total energy              =   -1665.62854341 Ry
     estimated scf accuracy    <       0.17525489 Ry

     total magnetization       =     2.02 Bohr mag/cell
     absolute magnetization    =     2.55 Bohr mag/cell
[tb_dev] Currently allocated     1.68E-04 Mbytes, locked:    0 /   2
[tb_pin] Currently allocated     0.00E+00 Mbytes, locked:    0 /   0

     iteration # 10     ecut=    60.00 Ry     beta= 0.30
     Davidson diagonalization with overlap

---- Real-time Memory Report at c_bands before calling an iterative solver
          2080 MiB given to the printing process from OS
             0 MiB allocation reported by mallinfo(arena+hblkhd)
       1325891 MiB available memory on the node where the printing process lives
     GPU memory used/free/total (MiB): 2124 / 79026 / 81151
------------------
     c_bands:  1 eigenvalues not converged
     c_bands:  1 eigenvalues not converged
     ethr =  1.37E-04,  avg # of iterations =  6.9

     total cpu time spent up to now is       68.0 secs

     total energy              =   -1665.64188225 Ry
     estimated scf accuracy    <       0.03357149 Ry

     total magnetization       =     2.27 Bohr mag/cell
     absolute magnetization    =     2.36 Bohr mag/cell
[tb_dev] Currently allocated     1.68E-04 Mbytes, locked:    0 /   2
[tb_pin] Currently allocated     0.00E+00 Mbytes, locked:    0 /   0

     iteration # 11     ecut=    60.00 Ry     beta= 0.30
     Davidson diagonalization with overlap

---- Real-time Memory Report at c_bands before calling an iterative solver
          2080 MiB given to the printing process from OS
             0 MiB allocation reported by mallinfo(arena+hblkhd)
       1324027 MiB available memory on the node where the printing process lives
     GPU memory used/free/total (MiB): 2124 / 79026 / 81151
------------------
     c_bands:  1 eigenvalues not converged
     c_bands:  1 eigenvalues not converged
     c_bands:  1 eigenvalues not converged
     c_bands:  1 eigenvalues not converged
     c_bands:  2 eigenvalues not converged
     c_bands:  1 eigenvalues not converged
     c_bands:  2 eigenvalues not converged
     c_bands:  1 eigenvalues not converged
     c_bands:  1 eigenvalues not converged
     c_bands:  1 eigenvalues not converged
     c_bands:  1 eigenvalues not converged
     c_bands:  1 eigenvalues not converged
     c_bands:  1 eigenvalues not converged
     c_bands:  1 eigenvalues not converged
     c_bands:  1 eigenvalues not converged
     c_bands:  1 eigenvalues not converged
     c_bands:  2 eigenvalues not converged
     c_bands:  1 eigenvalues not converged
     c_bands:  1 eigenvalues not converged
     c_bands:  1 eigenvalues not converged
     c_bands:  1 eigenvalues not converged
     c_bands:  1 eigenvalues not converged
     c_bands:  1 eigenvalues not converged
     c_bands:  1 eigenvalues not converged
     c_bands:  1 eigenvalues not converged
     c_bands:  2 eigenvalues not converged
     c_bands:  1 eigenvalues not converged
     ethr =  2.62E-05,  avg # of iterations = 15.8

     total cpu time spent up to now is       79.9 secs

     total energy              =   -1665.63572031 Ry
     estimated scf accuracy    <       0.02644908 Ry

     total magnetization       =     2.31 Bohr mag/cell
     absolute magnetization    =     2.37 Bohr mag/cell
[tb_dev] Currently allocated     1.68E-04 Mbytes, locked:    0 /   2
[tb_pin] Currently allocated     0.00E+00 Mbytes, locked:    0 /   0

     iteration # 12     ecut=    60.00 Ry     beta= 0.30
     Davidson diagonalization with overlap

---- Real-time Memory Report at c_bands before calling an iterative solver
          2083 MiB given to the printing process from OS
             0 MiB allocation reported by mallinfo(arena+hblkhd)
       1322741 MiB available memory on the node where the printing process lives
     GPU memory used/free/total (MiB): 2124 / 79026 / 81151
------------------
     c_bands:  1 eigenvalues not converged
     c_bands:  1 eigenvalues not converged
     c_bands:  1 eigenvalues not converged
     c_bands:  1 eigenvalues not converged
     c_bands:  1 eigenvalues not converged
     ethr =  2.07E-05,  avg # of iterations =  4.6

     total cpu time spent up to now is       87.0 secs

     total energy              =   -1665.63508914 Ry
     estimated scf accuracy    <       0.04389168 Ry

     total magnetization       =     2.20 Bohr mag/cell
     absolute magnetization    =     2.27 Bohr mag/cell
[tb_dev] Currently allocated     1.68E-04 Mbytes, locked:    0 /   2
[tb_pin] Currently allocated     0.00E+00 Mbytes, locked:    0 /   0

     iteration # 13     ecut=    60.00 Ry     beta= 0.30
     Davidson diagonalization with overlap

---- Real-time Memory Report at c_bands before calling an iterative solver
          2083 MiB given to the printing process from OS
             0 MiB allocation reported by mallinfo(arena+hblkhd)
       1320880 MiB available memory on the node where the printing process lives
     GPU memory used/free/total (MiB): 2124 / 79026 / 81151
------------------
     c_bands:  1 eigenvalues not converged
     c_bands:  1 eigenvalues not converged
     c_bands:  1 eigenvalues not converged
     c_bands:  1 eigenvalues not converged
     c_bands:  1 eigenvalues not converged
     c_bands:  1 eigenvalues not converged
     c_bands:  1 eigenvalues not converged
     c_bands:  1 eigenvalues not converged
     c_bands:  1 eigenvalues not converged
     ethr =  2.07E-05,  avg # of iterations =  9.0

     total cpu time spent up to now is       96.1 secs

     total energy              =   -1665.63920055 Ry
     estimated scf accuracy    <       0.01532606 Ry

     total magnetization       =     2.25 Bohr mag/cell
     absolute magnetization    =     2.28 Bohr mag/cell
[tb_dev] Currently allocated     1.68E-04 Mbytes, locked:    0 /   2
[tb_pin] Currently allocated     0.00E+00 Mbytes, locked:    0 /   0

     iteration # 14     ecut=    60.00 Ry     beta= 0.30
     Davidson diagonalization with overlap

---- Real-time Memory Report at c_bands before calling an iterative solver
          2083 MiB given to the printing process from OS
             0 MiB allocation reported by mallinfo(arena+hblkhd)
       1318974 MiB available memory on the node where the printing process lives
     GPU memory used/free/total (MiB): 2124 / 79026 / 81151
------------------
     c_bands:  1 eigenvalues not converged
     c_bands:  1 eigenvalues not converged
     c_bands:  1 eigenvalues not converged
     c_bands:  1 eigenvalues not converged
     c_bands:  1 eigenvalues not converged
     ethr =  1.20E-05,  avg # of iterations =  4.4

     total cpu time spent up to now is      102.8 secs

     total energy              =   -1665.63705166 Ry
     estimated scf accuracy    <       0.01137742 Ry

     total magnetization       =     2.20 Bohr mag/cell
     absolute magnetization    =     2.24 Bohr mag/cell
[tb_dev] Currently allocated     1.68E-04 Mbytes, locked:    0 /   2
[tb_pin] Currently allocated     0.00E+00 Mbytes, locked:    0 /   0

     iteration # 15     ecut=    60.00 Ry     beta= 0.30
     Davidson diagonalization with overlap

---- Real-time Memory Report at c_bands before calling an iterative solver
          2084 MiB given to the printing process from OS
             0 MiB allocation reported by mallinfo(arena+hblkhd)
       1336318 MiB available memory on the node where the printing process lives
     GPU memory used/free/total (MiB): 2124 / 79026 / 81151
------------------
     c_bands:  1 eigenvalues not converged
     c_bands:  1 eigenvalues not converged
     c_bands:  1 eigenvalues not converged
     c_bands:  1 eigenvalues not converged
     c_bands:  1 eigenvalues not converged
     c_bands:  1 eigenvalues not converged
     c_bands:  1 eigenvalues not converged
     c_bands:  1 eigenvalues not converged
     c_bands:  1 eigenvalues not converged
     c_bands:  1 eigenvalues not converged
     c_bands:  2 eigenvalues not converged
     ethr =  8.89E-06,  avg # of iterations = 11.6

     total cpu time spent up to now is      112.8 secs

     total energy              =   -1665.63711032 Ry
     estimated scf accuracy    <       0.00442130 Ry

     total magnetization       =     2.34 Bohr mag/cell
     absolute magnetization    =     2.37 Bohr mag/cell
[tb_dev] Currently allocated     1.68E-04 Mbytes, locked:    0 /   2
[tb_pin] Currently allocated     0.00E+00 Mbytes, locked:    0 /   0

     iteration # 16     ecut=    60.00 Ry     beta= 0.30
     Davidson diagonalization with overlap

---- Real-time Memory Report at c_bands before calling an iterative solver
          2084 MiB given to the printing process from OS
             0 MiB allocation reported by mallinfo(arena+hblkhd)
       1336471 MiB available memory on the node where the printing process lives
     GPU memory used/free/total (MiB): 2124 / 79026 / 81151
------------------
     c_bands:  1 eigenvalues not converged
     c_bands:  1 eigenvalues not converged
     c_bands:  1 eigenvalues not converged
     c_bands:  1 eigenvalues not converged
     c_bands:  1 eigenvalues not converged
     c_bands:  1 eigenvalues not converged
     c_bands:  2 eigenvalues not converged
     c_bands:  1 eigenvalues not converged
     c_bands:  1 eigenvalues not converged
     c_bands:  1 eigenvalues not converged
     c_bands:  1 eigenvalues not converged
     c_bands:  1 eigenvalues not converged
     c_bands:  1 eigenvalues not converged
     c_bands:  1 eigenvalues not converged
     c_bands:  2 eigenvalues not converged
     c_bands:  1 eigenvalues not converged
     c_bands:  1 eigenvalues not converged
     c_bands:  1 eigenvalues not converged
     c_bands:  1 eigenvalues not converged
     c_bands:  1 eigenvalues not converged
     c_bands:  1 eigenvalues not converged
     c_bands:  1 eigenvalues not converged
     c_bands:  1 eigenvalues not converged
     c_bands:  1 eigenvalues not converged
     c_bands:  1 eigenvalues not converged
     c_bands:  2 eigenvalues not converged
     c_bands:  2 eigenvalues not converged
     c_bands:  1 eigenvalues not converged
     c_bands:  1 eigenvalues not converged
     c_bands:  1 eigenvalues not converged
     c_bands:  1 eigenvalues not converged
     c_bands:  1 eigenvalues not converged
     c_bands:  1 eigenvalues not converged
     c_bands:  1 eigenvalues not converged
     c_bands:  1 eigenvalues not converged
     ethr =  3.45E-06,  avg # of iterations = 15.2

     total cpu time spent up to now is      124.8 secs

     total energy              =   -1665.63797914 Ry
     estimated scf accuracy    <       0.00161085 Ry

     total magnetization       =     2.31 Bohr mag/cell
     absolute magnetization    =     2.35 Bohr mag/cell
[tb_dev] Currently allocated     1.68E-04 Mbytes, locked:    0 /   2
[tb_pin] Currently allocated     0.00E+00 Mbytes, locked:    0 /   0

     iteration # 17     ecut=    60.00 Ry     beta= 0.30
     Davidson diagonalization with overlap

---- Real-time Memory Report at c_bands before calling an iterative solver
          2084 MiB given to the printing process from OS
             0 MiB allocation reported by mallinfo(arena+hblkhd)
       1356149 MiB available memory on the node where the printing process lives
     GPU memory used/free/total (MiB): 2124 / 79026 / 81151
------------------
     c_bands:  1 eigenvalues not converged
     c_bands:  1 eigenvalues not converged
     c_bands:  1 eigenvalues not converged
     c_bands:  1 eigenvalues not converged
     ethr =  1.26E-06,  avg # of iterations =  5.3

     total cpu time spent up to now is      132.1 secs

     total energy              =   -1665.63782156 Ry
     estimated scf accuracy    <       0.00127267 Ry

     total magnetization       =     2.31 Bohr mag/cell
     absolute magnetization    =     2.35 Bohr mag/cell
[tb_dev] Currently allocated     1.68E-04 Mbytes, locked:    0 /   2
[tb_pin] Currently allocated     0.00E+00 Mbytes, locked:    0 /   0

     iteration # 18     ecut=    60.00 Ry     beta= 0.30
     Davidson diagonalization with overlap

---- Real-time Memory Report at c_bands before calling an iterative solver
          2084 MiB given to the printing process from OS
             0 MiB allocation reported by mallinfo(arena+hblkhd)
       1355621 MiB available memory on the node where the printing process lives
     GPU memory used/free/total (MiB): 2124 / 79026 / 81151
------------------
     ethr =  9.94E-07,  avg # of iterations =  2.1

     total cpu time spent up to now is      138.0 secs

     total energy              =   -1665.63794427 Ry
     estimated scf accuracy    <       0.00057910 Ry

     total magnetization       =     2.30 Bohr mag/cell
     absolute magnetization    =     2.34 Bohr mag/cell
[tb_dev] Currently allocated     1.68E-04 Mbytes, locked:    0 /   2
[tb_pin] Currently allocated     0.00E+00 Mbytes, locked:    0 /   0

     iteration # 19     ecut=    60.00 Ry     beta= 0.30
     Davidson diagonalization with overlap

---- Real-time Memory Report at c_bands before calling an iterative solver
          2084 MiB given to the printing process from OS
             0 MiB allocation reported by mallinfo(arena+hblkhd)
       1355297 MiB available memory on the node where the printing process lives
     GPU memory used/free/total (MiB): 2124 / 79026 / 81151
------------------
     ethr =  4.52E-07,  avg # of iterations =  5.5

     total cpu time spent up to now is      145.7 secs

     total energy              =   -1665.63810795 Ry
     estimated scf accuracy    <       0.00035057 Ry

     total magnetization       =     2.31 Bohr mag/cell
     absolute magnetization    =     2.35 Bohr mag/cell
[tb_dev] Currently allocated     1.68E-04 Mbytes, locked:    0 /   2
[tb_pin] Currently allocated     0.00E+00 Mbytes, locked:    0 /   0

     iteration # 20     ecut=    60.00 Ry     beta= 0.30
     Davidson diagonalization with overlap

---- Real-time Memory Report at c_bands before calling an iterative solver
          2084 MiB given to the printing process from OS
             0 MiB allocation reported by mallinfo(arena+hblkhd)
       1354145 MiB available memory on the node where the printing process lives
     GPU memory used/free/total (MiB): 2124 / 79026 / 81151
------------------
     c_bands:  1 eigenvalues not converged
     c_bands:  1 eigenvalues not converged
     ethr =  2.74E-07,  avg # of iterations =  6.4

     total cpu time spent up to now is      153.7 secs

     total energy              =   -1665.63809468 Ry
     estimated scf accuracy    <       0.00033704 Ry

     total magnetization       =     2.30 Bohr mag/cell
     absolute magnetization    =     2.35 Bohr mag/cell
[tb_dev] Currently allocated     1.68E-04 Mbytes, locked:    0 /   2
[tb_pin] Currently allocated     0.00E+00 Mbytes, locked:    0 /   0

     iteration # 21     ecut=    60.00 Ry     beta= 0.30
     Davidson diagonalization with overlap

---- Real-time Memory Report at c_bands before calling an iterative solver
          2084 MiB given to the printing process from OS
             0 MiB allocation reported by mallinfo(arena+hblkhd)
       1352716 MiB available memory on the node where the printing process lives
     GPU memory used/free/total (MiB): 2124 / 79026 / 81151
------------------
     ethr =  2.63E-07,  avg # of iterations =  2.1

     total cpu time spent up to now is      159.5 secs

     total energy              =   -1665.63812628 Ry
     estimated scf accuracy    <       0.00007119 Ry

     total magnetization       =     2.30 Bohr mag/cell
     absolute magnetization    =     2.35 Bohr mag/cell
[tb_dev] Currently allocated     1.68E-04 Mbytes, locked:    0 /   2
[tb_pin] Currently allocated     0.00E+00 Mbytes, locked:    0 /   0

     iteration # 22     ecut=    60.00 Ry     beta= 0.30
     Davidson diagonalization with overlap

---- Real-time Memory Report at c_bands before calling an iterative solver
          2084 MiB given to the printing process from OS
             0 MiB allocation reported by mallinfo(arena+hblkhd)
       1351316 MiB available memory on the node where the printing process lives
     GPU memory used/free/total (MiB): 2124 / 79026 / 81151
------------------
     ethr =  5.56E-08,  avg # of iterations =  6.0

     total cpu time spent up to now is      167.6 secs

     total energy              =   -1665.63814098 Ry
     estimated scf accuracy    <       0.00014361 Ry

     total magnetization       =     2.30 Bohr mag/cell
     absolute magnetization    =     2.34 Bohr mag/cell
[tb_dev] Currently allocated     1.68E-04 Mbytes, locked:    0 /   2
[tb_pin] Currently allocated     0.00E+00 Mbytes, locked:    0 /   0

     iteration # 23     ecut=    60.00 Ry     beta= 0.30
     Davidson diagonalization with overlap

---- Real-time Memory Report at c_bands before calling an iterative solver
          2084 MiB given to the printing process from OS
             0 MiB allocation reported by mallinfo(arena+hblkhd)
       1342548 MiB available memory on the node where the printing process lives
     GPU memory used/free/total (MiB): 2124 / 79026 / 81151
------------------
     ethr =  5.56E-08,  avg # of iterations =  2.4

     total cpu time spent up to now is      173.5 secs

     total energy              =   -1665.63814585 Ry
     estimated scf accuracy    <       0.00002860 Ry

     total magnetization       =     2.30 Bohr mag/cell
     absolute magnetization    =     2.34 Bohr mag/cell
[tb_dev] Currently allocated     1.68E-04 Mbytes, locked:    0 /   2
[tb_pin] Currently allocated     0.00E+00 Mbytes, locked:    0 /   0

     iteration # 24     ecut=    60.00 Ry     beta= 0.30
     Davidson diagonalization with overlap

---- Real-time Memory Report at c_bands before calling an iterative solver
          2084 MiB given to the printing process from OS
             0 MiB allocation reported by mallinfo(arena+hblkhd)
       1332626 MiB available memory on the node where the printing process lives
     GPU memory used/free/total (MiB): 2124 / 79026 / 81151
------------------
     ethr =  2.23E-08,  avg # of iterations =  4.1

     total cpu time spent up to now is      180.5 secs

     total energy              =   -1665.63815434 Ry
     estimated scf accuracy    <       0.00001599 Ry

     total magnetization       =     2.30 Bohr mag/cell
     absolute magnetization    =     2.34 Bohr mag/cell
[tb_dev] Currently allocated     1.68E-04 Mbytes, locked:    0 /   2
[tb_pin] Currently allocated     0.00E+00 Mbytes, locked:    0 /   0

     iteration # 25     ecut=    60.00 Ry     beta= 0.30
     Davidson diagonalization with overlap

---- Real-time Memory Report at c_bands before calling an iterative solver
          2084 MiB given to the printing process from OS
             0 MiB allocation reported by mallinfo(arena+hblkhd)
       1319991 MiB available memory on the node where the printing process lives
     GPU memory used/free/total (MiB): 2124 / 79026 / 81151
------------------
     ethr =  1.25E-08,  avg # of iterations =  3.8

     total cpu time spent up to now is      186.9 secs

     total energy              =   -1665.63815651 Ry
     estimated scf accuracy    <       0.00000644 Ry

     total magnetization       =     2.30 Bohr mag/cell
     absolute magnetization    =     2.34 Bohr mag/cell
[tb_dev] Currently allocated     1.68E-04 Mbytes, locked:    0 /   2
[tb_pin] Currently allocated     0.00E+00 Mbytes, locked:    0 /   0

     iteration # 26     ecut=    60.00 Ry     beta= 0.30
     Davidson diagonalization with overlap

---- Real-time Memory Report at c_bands before calling an iterative solver
          2084 MiB given to the printing process from OS
             0 MiB allocation reported by mallinfo(arena+hblkhd)
       1348840 MiB available memory on the node where the printing process lives
     GPU memory used/free/total (MiB): 2124 / 79026 / 81151
------------------
     ethr =  5.03E-09,  avg # of iterations =  4.8

     total cpu time spent up to now is      193.8 secs

     total energy              =   -1665.63815641 Ry
     estimated scf accuracy    <       0.00000871 Ry

     total magnetization       =     2.30 Bohr mag/cell
     absolute magnetization    =     2.34 Bohr mag/cell
[tb_dev] Currently allocated     1.68E-04 Mbytes, locked:    0 /   2
[tb_pin] Currently allocated     0.00E+00 Mbytes, locked:    0 /   0

     iteration # 27     ecut=    60.00 Ry     beta= 0.30
     Davidson diagonalization with overlap

---- Real-time Memory Report at c_bands before calling an iterative solver
          2084 MiB given to the printing process from OS
             0 MiB allocation reported by mallinfo(arena+hblkhd)
       1336788 MiB available memory on the node where the printing process lives
     GPU memory used/free/total (MiB): 2124 / 79026 / 81151
------------------
     ethr =  5.03E-09,  avg # of iterations =  1.9

     total cpu time spent up to now is      199.1 secs

     total energy              =   -1665.63815540 Ry
     estimated scf accuracy    <       0.00000371 Ry

     total magnetization       =     2.30 Bohr mag/cell
     absolute magnetization    =     2.34 Bohr mag/cell
[tb_dev] Currently allocated     1.68E-04 Mbytes, locked:    0 /   2
[tb_pin] Currently allocated     0.00E+00 Mbytes, locked:    0 /   0

     iteration # 28     ecut=    60.00 Ry     beta= 0.30
     Davidson diagonalization with overlap

---- Real-time Memory Report at c_bands before calling an iterative solver
          2084 MiB given to the printing process from OS
             0 MiB allocation reported by mallinfo(arena+hblkhd)
       1327420 MiB available memory on the node where the printing process lives
     GPU memory used/free/total (MiB): 2124 / 79026 / 81151
------------------
     ethr =  2.90E-09,  avg # of iterations =  3.1

     total cpu time spent up to now is      205.2 secs

     total energy              =   -1665.63815623 Ry
     estimated scf accuracy    <       0.00000060 Ry

     total magnetization       =     2.30 Bohr mag/cell
     absolute magnetization    =     2.34 Bohr mag/cell
[tb_dev] Currently allocated     1.68E-04 Mbytes, locked:    0 /   2
[tb_pin] Currently allocated     0.00E+00 Mbytes, locked:    0 /   0

     iteration # 29     ecut=    60.00 Ry     beta= 0.30
     Davidson diagonalization with overlap

---- Real-time Memory Report at c_bands before calling an iterative solver
          2084 MiB given to the printing process from OS
             0 MiB allocation reported by mallinfo(arena+hblkhd)
       1316748 MiB available memory on the node where the printing process lives
     GPU memory used/free/total (MiB): 2124 / 79026 / 81151
------------------
     ethr =  4.72E-10,  avg # of iterations =  7.7

     total cpu time spent up to now is      213.5 secs

     total energy              =   -1665.63815652 Ry
     estimated scf accuracy    <       0.00000036 Ry

     total magnetization       =     2.30 Bohr mag/cell
     absolute magnetization    =     2.34 Bohr mag/cell
[tb_dev] Currently allocated     1.68E-04 Mbytes, locked:    0 /   2
[tb_pin] Currently allocated     0.00E+00 Mbytes, locked:    0 /   0

     iteration # 30     ecut=    60.00 Ry     beta= 0.30
     Davidson diagonalization with overlap

---- Real-time Memory Report at c_bands before calling an iterative solver
          2084 MiB given to the printing process from OS
             0 MiB allocation reported by mallinfo(arena+hblkhd)
       1347327 MiB available memory on the node where the printing process lives
     GPU memory used/free/total (MiB): 2124 / 79026 / 81151
------------------
     ethr =  2.82E-10,  avg # of iterations =  2.1

     total cpu time spent up to now is      218.9 secs

     total energy              =   -1665.63815654 Ry
     estimated scf accuracy    <       0.00000020 Ry

     total magnetization       =     2.30 Bohr mag/cell
     absolute magnetization    =     2.34 Bohr mag/cell
[tb_dev] Currently allocated     1.68E-04 Mbytes, locked:    0 /   2
[tb_pin] Currently allocated     0.00E+00 Mbytes, locked:    0 /   0

     iteration # 31     ecut=    60.00 Ry     beta= 0.30
     Davidson diagonalization with overlap

---- Real-time Memory Report at c_bands before calling an iterative solver
          2084 MiB given to the printing process from OS
             0 MiB allocation reported by mallinfo(arena+hblkhd)
       1338512 MiB available memory on the node where the printing process lives
     GPU memory used/free/total (MiB): 2124 / 79026 / 81151
------------------
     ethr =  1.58E-10,  avg # of iterations =  5.0

     total cpu time spent up to now is      225.8 secs

     total energy              =   -1665.63815656 Ry
     estimated scf accuracy    <       0.00000014 Ry

     total magnetization       =     2.30 Bohr mag/cell
     absolute magnetization    =     2.34 Bohr mag/cell
[tb_dev] Currently allocated     1.68E-04 Mbytes, locked:    0 /   2
[tb_pin] Currently allocated     0.00E+00 Mbytes, locked:    0 /   0

     iteration # 32     ecut=    60.00 Ry     beta= 0.30
     Davidson diagonalization with overlap

---- Real-time Memory Report at c_bands before calling an iterative solver
          2084 MiB given to the printing process from OS
             0 MiB allocation reported by mallinfo(arena+hblkhd)
       1327207 MiB available memory on the node where the printing process lives
     GPU memory used/free/total (MiB): 2124 / 79026 / 81151
------------------
     ethr =  1.10E-10,  avg # of iterations =  2.4
 
     Magnetic moment per site  (integrated on atomic sphere of radius R)
     atom   1 (R=0.159)  charge= 14.0974  magn=  0.5954
     atom   2 (R=0.159)  charge= 14.1001  magn=  0.5902
     atom   3 (R=0.159)  charge= 14.0991  magn=  0.5891
     atom   4 (R=0.079)  charge=  1.8585  magn=  0.0272
     atom   5 (R=0.079)  charge=  1.8585  magn=  0.0258
     atom   6 (R=0.079)  charge=  1.8591  magn=  0.0256
     atom   7 (R=0.079)  charge=  1.8592  magn=  0.0236
     atom   8 (R=0.079)  charge=  1.8593  magn=  0.0254
     atom   9 (R=0.079)  charge=  1.8589  magn=  0.0249
     atom  10 (R=0.185)  charge=  7.8852  magn=  0.0001
     atom  11 (R=0.079)  charge=  1.9175  magn=  0.0005
     atom  12 (R=0.079)  charge=  0.3955  magn=  0.0000
     atom  13 (R=0.079)  charge=  0.3895  magn=  0.0000
     atom  14 (R=0.079)  charge=  1.9158  magn=  0.0006
     atom  15 (R=0.079)  charge=  0.4000  magn=  0.0000
     atom  16 (R=0.079)  charge=  0.3892  magn=  0.0000
     atom  17 (R=0.079)  charge=  1.9105  magn=  0.0005
     atom  18 (R=0.079)  charge=  0.4029  magn=  0.0000
     atom  19 (R=0.079)  charge=  0.3908  magn=  0.0000
     atom  20 (R=0.079)  charge=  1.9130  magn=  0.0005
     atom  21 (R=0.079)  charge=  0.4002  magn=  0.0000
     atom  22 (R=0.079)  charge=  0.3919  magn=  0.0000

     total cpu time spent up to now is      231.3 secs

     End of self-consistent calculation

 ------ SPIN UP ------------


          k = 0.0000 0.0000 0.0000 ( 11393 PWs)   bands (ev):

   -91.5206 -91.5115 -91.5081 -54.7647 -54.7607 -54.7563 -54.7560 -54.7468
   -54.7364 -54.7319 -54.7189 -54.7185 -48.0261 -19.9804 -19.9630 -19.9091
   -17.7821 -17.1951 -17.1550 -16.6790 -15.0193 -13.3562 -13.3505 -13.3345
   -13.3250 -13.1230  -5.5287  -5.3989  -4.6683  -4.5534  -1.8551  -1.7089
    -1.5520  -1.2818  -1.1373  -1.1038  -1.0728  -1.0529  -1.0359  -0.8224
    -0.8183  -0.6972  -0.6769   0.3834   0.7364   0.8593   0.9098   0.9152
     0.9511   0.9604   1.2851   1.2887   1.4908   2.3130   2.6617   2.6659
     2.6950   2.6971   2.8595   2.8679   3.7421   3.7455   3.7509   3.7579
     3.9138   5.8225   5.8392   5.8486   5.8594   6.4606   6.5880   6.5929
     8.7245  10.5171  11.3977  11.4471  12.7329  12.8920  13.3377  13.4432
    13.8008  14.1663  14.5576  14.7836  15.2510

     occupation numbers 
     1.0000   1.0000   1.0000   1.0000   1.0000   1.0000   1.0000   1.0000
     1.0000   1.0000   1.0000   1.0000   1.0000   1.0000   1.0000   1.0000
     1.0000   1.0000   1.0000   1.0000   1.0000   1.0000   1.0000   1.0000
     1.0000   1.0000   1.0000   1.0000   1.0000   1.0000   1.0000   1.0000
     1.0000   1.0000   1.0000   1.0000   1.0000   1.0000   1.0000   1.0000
     1.0000   1.0000   1.0000   1.0000   1.0000   1.0000   1.0000   1.0000
     1.0000   1.0000   1.0000   1.0000   1.0000   1.0000   1.0000   1.0000
     1.0000   1.0000   1.0000   1.0000   1.0197   1.0205   1.0216   1.0232
     1.0718   0.0000   0.0000   0.0000   0.0000   0.0000   0.0000   0.0000
     0.0000   0.0000   0.0000   0.0000   0.0000   0.0000   0.0000   0.0000
     0.0000   0.0000   0.0000   0.0000   0.0000

          k = 0.0000 0.0000-0.2526 ( 11446 PWs)   bands (ev):

   -91.5206 -91.5115 -91.5081 -54.7647 -54.7608 -54.7563 -54.7560 -54.7469
   -54.7365 -54.7320 -54.7190 -54.7186 -48.0262 -19.9806 -19.9631 -19.9093
   -17.7818 -17.1957 -17.1550 -16.6790 -15.0184 -13.3562 -13.3505 -13.3345
   -13.3250 -13.1240  -5.5226  -5.3908  -4.6850  -4.5537  -1.8461  -1.6752
    -1.5678  -1.4653  -1.1097  -1.0905  -1.0633  -1.0439  -0.9264  -0.8226
    -0.8184  -0.6867  -0.6675   0.4050   0.7442   0.8307   0.9033   0.9112
     0.9376   0.9545   1.2876   1.3268   1.4913   2.2302   2.6616   2.6653
     2.6949   2.6971   2.8595   2.8679   3.7426   3.7464   3.7506   3.7575
     3.9336   5.8209   5.8397   5.8481   5.8590   6.5852   6.5917   6.6043
     8.4496  10.8118  11.1098  11.8297  12.4236  12.9474  13.3688  13.4802
    13.7809  14.1425  14.3963  14.9798  15.1986

     occupation numbers 
     1.0000   1.0000   1.0000   1.0000   1.0000   1.0000   1.0000   1.0000
     1.0000   1.0000   1.0000   1.0000   1.0000   1.0000   1.0000   1.0000
     1.0000   1.0000   1.0000   1.0000   1.0000   1.0000   1.0000   1.0000
     1.0000   1.0000   1.0000   1.0000   1.0000   1.0000   1.0000   1.0000
     1.0000   1.0000   1.0000   1.0000   1.0000   1.0000   1.0000   1.0000
     1.0000   1.0000   1.0000   1.0000   1.0000   1.0000   1.0000   1.0000
     1.0000   1.0000   1.0000   1.0000   1.0000   1.0000   1.0000   1.0000
     1.0000   1.0000   1.0000   1.0000   1.0198   1.0206   1.0216   1.0231
     1.0771   0.0000   0.0000   0.0000   0.0000   0.0000   0.0000   0.0000
     0.0000   0.0000   0.0000   0.0000   0.0000   0.0000   0.0000   0.0000
     0.0000   0.0000   0.0000   0.0000   0.0000

          k = 0.0000 0.1925 0.0000 ( 11360 PWs)   bands (ev):

   -91.5204 -91.5115 -91.5083 -54.7696 -54.7647 -54.7521 -54.7473 -54.7445
   -54.7363 -54.7322 -54.7236 -54.7196 -48.0261 -19.9813 -19.9637 -19.9089
   -17.7410 -17.2012 -17.1629 -16.7121 -14.9163 -13.4934 -13.4066 -13.3295
   -13.2707 -13.1252  -5.6238  -5.3017  -4.6975  -4.5019  -1.8888  -1.7142
    -1.5712  -1.4323  -1.3163  -1.2298  -1.0724  -1.0276  -0.9555  -0.8901
    -0.7547  -0.3175  -0.1383   0.2400   0.6217   0.6423   0.7413   0.8627
     0.8936   0.9651   1.4004   1.6104   1.6859   2.0239   2.1258   2.5445
     2.7438   2.8115   3.0919   3.2923   3.4961   3.5084   3.8384   3.9065
     3.9694   5.8255   5.8710   5.8880   5.9419   6.3065   6.5085   6.8022
     8.9966  10.5142  11.3346  11.5343  12.2211  12.6576  12.9683  13.3495
    13.6817  14.3261  14.7010  14.8999  15.1625

     occupation numbers 
     1.0000   1.0000   1.0000   1.0000   1.0000   1.0000   1.0000   1.0000
     1.0000   1.0000   1.0000   1.0000   1.0000   1.0000   1.0000   1.0000
     1.0000   1.0000   1.0000   1.0000   1.0000   1.0000   1.0000   1.0000
     1.0000   1.0000   1.0000   1.0000   1.0000   1.0000   1.0000   1.0000
     1.0000   1.0000   1.0000   1.0000   1.0000   1.0000   1.0000   1.0000
     1.0000   1.0000   1.0000   1.0000   1.0000   1.0000   1.0000   1.0000
     1.0000   1.0000   1.0000   1.0000   1.0000   1.0000   1.0000   1.0000
     1.0000   1.0000   1.0000   1.0000   1.0006   1.0007   1.0466   1.0696
     1.0829   0.0000   0.0000   0.0000   0.0000   0.0000   0.0000   0.0000
     0.0000   0.0000   0.0000   0.0000   0.0000   0.0000   0.0000   0.0000
     0.0000   0.0000   0.0000   0.0000   0.0000

          k = 0.0000 0.1925-0.2526 ( 11384 PWs)   bands (ev):

   -91.5204 -91.5115 -91.5083 -54.7696 -54.7647 -54.7522 -54.7473 -54.7445
   -54.7363 -54.7322 -54.7237 -54.7196 -48.0261 -19.9813 -19.9638 -19.9089
   -17.7407 -17.2012 -17.1634 -16.7122 -14.9155 -13.4934 -13.4066 -13.3295
   -13.2707 -13.1260  -5.6198  -5.2942  -4.7078  -4.5055  -1.8742  -1.6955
    -1.5970  -1.4844  -1.3549  -1.2489  -1.0618  -0.9655  -0.9194  -0.8782
    -0.7548  -0.3118  -0.1412   0.2636   0.5854   0.6351   0.7595   0.8688
     0.9059   0.9572   1.3886   1.6101   1.6873   2.0252   2.1209   2.5009
     2.7438   2.8115   3.0920   3.2909   3.4959   3.5085   3.8392   3.9070
     3.9864   5.8246   5.8705   5.8888   5.9405   6.2811   6.5152   6.9342
     8.7497  10.7929  11.0269  11.8746  12.2068  12.6003  12.9767  13.3077
    13.6530  14.2329  14.6748  14.8846  15.2407

     occupation numbers 
     1.0000   1.0000   1.0000   1.0000   1.0000   1.0000   1.0000   1.0000
     1.0000   1.0000   1.0000   1.0000   1.0000   1.0000   1.0000   1.0000
     1.0000   1.0000   1.0000   1.0000   1.0000   1.0000   1.0000   1.0000
     1.0000   1.0000   1.0000   1.0000   1.0000   1.0000   1.0000   1.0000
     1.0000   1.0000   1.0000   1.0000   1.0000   1.0000   1.0000   1.0000
     1.0000   1.0000   1.0000   1.0000   1.0000   1.0000   1.0000   1.0000
     1.0000   1.0000   1.0000   1.0000   1.0000   1.0000   1.0000   1.0000
     1.0000   1.0000   1.0000   1.0000   1.0006   1.0007   1.0469   1.0697
     1.0832   0.0000   0.0000   0.0000   0.0000   0.0000   0.0000   0.0000
     0.0000   0.0000   0.0000   0.0000   0.0000   0.0000   0.0000   0.0000
     0.0000   0.0000   0.0000   0.0000   0.0000

          k = 0.0000 0.3849 0.0000 ( 11350 PWs)   bands (ev):

   -91.5200 -91.5114 -91.5087 -54.7749 -54.7625 -54.7494 -54.7404 -54.7380
   -54.7355 -54.7343 -54.7323 -54.7227 -48.0261 -19.9833 -19.9649 -19.9084
   -17.6306 -17.3152 -17.0854 -16.7983 -14.6297 -13.8092 -13.4508 -13.3757
   -13.2079 -13.1353  -5.7242  -5.2070  -4.7141  -4.4317  -1.9934  -1.9201
    -1.6128  -1.4544  -1.3738  -1.0990  -1.0683  -1.0162  -0.7575  -0.7045
    -0.5932  -0.1085  -0.0029   0.2111   0.4340   0.5168   0.5957   0.9084
     1.0003   1.0201   1.0980   1.3903   1.5020   1.8903   2.2486   2.8372
     2.8449   3.1636   3.2325   3.2412   3.2773   3.6540   3.6918   3.9521
     3.9606   5.8112   5.8197   5.8696   5.8868   6.2662   6.2887   7.5827
     9.5865  10.1063  11.3356  11.4908  11.7766  12.1919  12.6799  12.9717
    13.5221  14.2608  14.5518  14.8375  15.2139

     occupation numbers 
     1.0000   1.0000   1.0000   1.0000   1.0000   1.0000   1.0000   1.0000
     1.0000   1.0000   1.0000   1.0000   1.0000   1.0000   1.0000   1.0000
     1.0000   1.0000   1.0000   1.0000   1.0000   1.0000   1.0000   1.0000
     1.0000   1.0000   1.0000   1.0000   1.0000   1.0000   1.0000   1.0000
     1.0000   1.0000   1.0000   1.0000   1.0000   1.0000   1.0000   1.0000
     1.0000   1.0000   1.0000   1.0000   1.0000   1.0000   1.0000   1.0000
     1.0000   1.0000   1.0000   1.0000   1.0000   1.0000   1.0000   1.0000
     1.0000   1.0000   1.0000   1.0000   1.0000   1.0069   1.0112   1.0808
     1.0820   0.0000   0.0000   0.0000   0.0000   0.0000   0.0000   0.0000
     0.0000   0.0000   0.0000   0.0000   0.0000   0.0000   0.0000   0.0000
     0.0000   0.0000   0.0000   0.0000   0.0000

          k = 0.0000 0.3849-0.2526 ( 11352 PWs)   bands (ev):

   -91.5200 -91.5114 -91.5087 -54.7749 -54.7625 -54.7494 -54.7404 -54.7381
   -54.7356 -54.7343 -54.7323 -54.7227 -48.0261 -19.9833 -19.9649 -19.9085
   -17.6304 -17.3152 -17.0857 -16.7984 -14.6292 -13.8092 -13.4508 -13.3757
   -13.2079 -13.1358  -5.7225  -5.2034  -4.7165  -4.4359  -1.9929  -1.9158
    -1.6157  -1.5035  -1.3201  -1.1004  -1.0681  -1.0491  -0.7247  -0.7045
    -0.5935  -0.1094   0.0007   0.2005   0.4661   0.5299   0.5798   0.8917
     0.9977   1.0174   1.1168   1.3752   1.5013   1.8845   2.2483   2.8338
     2.8396   3.1636   3.2322   3.2413   3.2771   3.6512   3.6929   3.9570
     3.9630   5.7957   5.8202   5.8693   5.8853   6.2659   6.2963   7.6453
     9.4462  10.1460  11.2882  11.4821  11.8371  12.3976  12.6728  13.0005
    13.4285  14.1887  14.4908  14.7620  15.3037

     occupation numbers 
     1.0000   1.0000   1.0000   1.0000   1.0000   1.0000   1.0000   1.0000
     1.0000   1.0000   1.0000   1.0000   1.0000   1.0000   1.0000   1.0000
     1.0000   1.0000   1.0000   1.0000   1.0000   1.0000   1.0000   1.0000
     1.0000   1.0000   1.0000   1.0000   1.0000   1.0000   1.0000   1.0000
     1.0000   1.0000   1.0000   1.0000   1.0000   1.0000   1.0000   1.0000
     1.0000   1.0000   1.0000   1.0000   1.0000   1.0000   1.0000   1.0000
     1.0000   1.0000   1.0000   1.0000   1.0000   1.0000   1.0000   1.0000
     1.0000   1.0000   1.0000   1.0000   1.0000   1.0067   1.0113   1.0815
     1.0823   0.0000   0.0000   0.0000   0.0000   0.0000   0.0000   0.0000
     0.0000   0.0000   0.0000   0.0000   0.0000   0.0000   0.0000   0.0000
     0.0000   0.0000   0.0000   0.0000   0.0000

          k = 0.0000-0.5774 0.0000 ( 11352 PWs)   bands (ev):

   -91.5199 -91.5113 -91.5090 -54.7769 -54.7543 -54.7498 -54.7483 -54.7362
   -54.7351 -54.7327 -54.7311 -54.7257 -48.0261 -19.9844 -19.9653 -19.9082
   -17.5090 -17.4389 -17.0165 -16.8711 -14.2285 -14.2233 -13.4669 -13.4008
   -13.1640 -13.1589  -5.7621  -5.1772  -4.7119  -4.4021  -2.1206  -1.9563
    -1.6088  -1.4598  -1.3871  -1.0971  -1.0580  -0.6997  -0.6754  -0.4563
    -0.3275  -0.3168  -0.1803   0.0048   0.3608   0.3748   0.5493   0.8782
     0.9376   0.9388   1.1311   1.3741   1.4168   1.9916   2.7447   2.7653
     2.8409   3.1138   3.1884   3.1918   3.5469   3.6915   3.7028   3.8637
     3.8797   5.6645   5.6736   5.8803   6.0130   6.0488   6.4670   8.1372
     9.5262  10.1868  11.1452  11.2321  11.7363  12.2285  12.4341  12.9922
    13.3715  14.1314  14.4365  14.6495  15.2169

     occupation numbers 
     1.0000   1.0000   1.0000   1.0000   1.0000   1.0000   1.0000   1.0000
     1.0000   1.0000   1.0000   1.0000   1.0000   1.0000   1.0000   1.0000
     1.0000   1.0000   1.0000   1.0000   1.0000   1.0000   1.0000   1.0000
     1.0000   1.0000   1.0000   1.0000   1.0000   1.0000   1.0000   1.0000
     1.0000   1.0000   1.0000   1.0000   1.0000   1.0000   1.0000   1.0000
     1.0000   1.0000   1.0000   1.0000   1.0000   1.0000   1.0000   1.0000
     1.0000   1.0000   1.0000   1.0000   1.0000   1.0000   1.0000   1.0000
     1.0000   1.0000   1.0000   1.0000   1.0014   1.0111   1.0127   1.0553
     1.0608   0.0000   0.0000   0.0000   0.0000   0.0000   0.0000   0.0000
     0.0000   0.0000   0.0000   0.0000   0.0000   0.0000   0.0000   0.0000
     0.0000   0.0000   0.0000   0.0000   0.0000

          k = 0.0000-0.5774-0.2526 ( 11344 PWs)   bands (ev):

   -91.5199 -91.5113 -91.5090 -54.7768 -54.7543 -54.7498 -54.7483 -54.7363
   -54.7351 -54.7327 -54.7311 -54.7256 -48.0261 -19.9844 -19.9653 -19.9082
   -17.5090 -17.4388 -17.0167 -16.8712 -14.2283 -14.2230 -13.4669 -13.4008
   -13.1642 -13.1591  -5.7612  -5.1762  -4.7106  -4.4061  -2.1206  -1.9635
    -1.5684  -1.5288  -1.3273  -1.1079  -1.0738  -0.6953  -0.6736  -0.4741
    -0.3259  -0.3124  -0.1799  -0.0070   0.3821   0.3939   0.5752   0.8254
     0.9372   0.9513   1.1447   1.3550   1.4194   1.9854   2.7471   2.7661
     2.8417   3.1138   3.1885   3.1917   3.5479   3.6914   3.7032   3.8629
     3.8784   5.6598   5.6689   5.8781   6.0161   6.0528   6.4670   8.1483
     9.5549  10.1457  11.1137  11.2309  11.6721  12.2986  12.5094  13.0886
    13.3734  14.1962  14.3340  14.4811  15.2090

     occupation numbers 
     1.0000   1.0000   1.0000   1.0000   1.0000   1.0000   1.0000   1.0000
     1.0000   1.0000   1.0000   1.0000   1.0000   1.0000   1.0000   1.0000
     1.0000   1.0000   1.0000   1.0000   1.0000   1.0000   1.0000   1.0000
     1.0000   1.0000   1.0000   1.0000   1.0000   1.0000   1.0000   1.0000
     1.0000   1.0000   1.0000   1.0000   1.0000   1.0000   1.0000   1.0000
     1.0000   1.0000   1.0000   1.0000   1.0000   1.0000   1.0000   1.0000
     1.0000   1.0000   1.0000   1.0000   1.0000   1.0000   1.0000   1.0000
     1.0000   1.0000   1.0000   1.0000   1.0014   1.0111   1.0128   1.0550
     1.0604   0.0000   0.0000   0.0000   0.0000   0.0000   0.0000   0.0000
     0.0000   0.0000   0.0000   0.0000   0.0000   0.0000   0.0000   0.0000
     0.0000   0.0000   0.0000   0.0000   0.0000

          k = 0.1667 0.2887 0.0000 ( 11373 PWs)   bands (ev):

   -91.5201 -91.5114 -91.5086 -54.7712 -54.7671 -54.7497 -54.7414 -54.7394
   -54.7358 -54.7338 -54.7303 -54.7216 -48.0261 -19.9816 -19.9642 -19.9097
   -17.6539 -17.2930 -17.0959 -16.7868 -14.7213 -13.6109 -13.6023 -13.2671
   -13.2592 -13.1313  -5.7274  -5.1873  -4.6765  -4.4868  -1.8709  -1.7805
    -1.5951  -1.5421  -1.4418  -1.3650  -1.0316  -0.8848  -0.8638  -0.8375
    -0.6263  -0.0058   0.0315   0.2254   0.5325   0.5795   0.7210   0.7401
     0.9206   1.0786   1.1788   1.2652   1.8343   1.9316   1.9578   2.7192
     2.9700   2.9733   3.2028   3.3136   3.3179   3.5269   3.8519   3.8550
     3.9828   5.8094   5.8292   5.8613   6.0543   6.0719   6.4401   7.3656
     9.3730  10.4284  11.0360  11.4349  11.9679  12.4163  12.6841  13.0882
    13.8581  14.0959  14.3960  15.0052  15.2116

     occupation numbers 
     1.0000   1.0000   1.0000   1.0000   1.0000   1.0000   1.0000   1.0000
     1.0000   1.0000   1.0000   1.0000   1.0000   1.0000   1.0000   1.0000
     1.0000   1.0000   1.0000   1.0000   1.0000   1.0000   1.0000   1.0000
     1.0000   1.0000   1.0000   1.0000   1.0000   1.0000   1.0000   1.0000
     1.0000   1.0000   1.0000   1.0000   1.0000   1.0000   1.0000   1.0000
     1.0000   1.0000   1.0000   1.0000   1.0000   1.0000   1.0000   1.0000
     1.0000   1.0000   1.0000   1.0000   1.0000   1.0000   1.0000   1.0000
     1.0000   1.0000   1.0000   1.0000   1.0000   1.0010   1.0512   1.0523
     1.0833   0.0000   0.0000   0.0000   0.0000   0.0000   0.0000   0.0000
     0.0000   0.0000   0.0000   0.0000   0.0000   0.0000   0.0000   0.0000
     0.0000   0.0000   0.0000   0.0000   0.0000

          k = 0.1667 0.2887-0.2526 ( 11348 PWs)   bands (ev):

   -91.5201 -91.5114 -91.5086 -54.7711 -54.7670 -54.7497 -54.7413 -54.7394
   -54.7357 -54.7338 -54.7303 -54.7216 -48.0261 -19.9815 -19.9641 -19.9097
   -17.6537 -17.2930 -17.0962 -16.7868 -14.7208 -13.6109 -13.6023 -13.2671
   -13.2592 -13.1319  -5.7256  -5.1825  -4.6818  -4.4888  -1.8423  -1.7700
    -1.6460  -1.6086  -1.4358  -1.3002  -1.0449  -0.8907  -0.8747  -0.7904
    -0.6264  -0.0032   0.0303   0.2255   0.5384   0.5874   0.7165   0.7451
     0.9260   1.0663   1.1971   1.2354   1.8343   1.9295   1.9565   2.7068
     2.9699   2.9733   3.1980   3.3136   3.3178   3.5270   3.8532   3.8563
     3.9915   5.8090   5.8228   5.8507   6.0546   6.0722   6.4400   7.4566
     9.2053  10.4340  11.0018  11.7029  11.8652  12.4057  12.8922  13.0442
    13.7801  13.8952  14.4060  15.0153  15.1567

     occupation numbers 
     1.0000   1.0000   1.0000   1.0000   1.0000   1.0000   1.0000   1.0000
     1.0000   1.0000   1.0000   1.0000   1.0000   1.0000   1.0000   1.0000
     1.0000   1.0000   1.0000   1.0000   1.0000   1.0000   1.0000   1.0000
     1.0000   1.0000   1.0000   1.0000   1.0000   1.0000   1.0000   1.0000
     1.0000   1.0000   1.0000   1.0000   1.0000   1.0000   1.0000   1.0000
     1.0000   1.0000   1.0000   1.0000   1.0000   1.0000   1.0000   1.0000
     1.0000   1.0000   1.0000   1.0000   1.0000   1.0000   1.0000   1.0000
     1.0000   1.0000   1.0000   1.0000   1.0000   1.0010   1.0517   1.0528
     1.0830   0.0000   0.0000   0.0000   0.0000   0.0000   0.0000   0.0000
     0.0000   0.0000   0.0000   0.0000   0.0000   0.0000   0.0000   0.0000
     0.0000   0.0000   0.0000   0.0000   0.0000

          k = 0.1667 0.4811 0.0000 ( 11356 PWs)   bands (ev):

   -91.5199 -91.5112 -91.5090 -54.7731 -54.7610 -54.7508 -54.7457 -54.7365
   -54.7352 -54.7322 -54.7314 -54.7244 -48.0261 -19.9839 -19.9650 -19.9090
   -17.5197 -17.4280 -17.0134 -16.8747 -14.3765 -13.9684 -13.6792 -13.2737
   -13.1946 -13.1513  -5.7652  -5.1590  -4.7040  -4.4304  -1.9920  -1.8953
    -1.6091  -1.5025  -1.4070  -1.1806  -1.1519  -0.7686  -0.6244  -0.5971
    -0.4316  -0.1697  -0.1419   0.0633   0.3218   0.3561   0.5332   0.8843
     0.9687   1.0885   1.2283   1.3627   1.4025   2.0654   2.4351   2.7729
     3.0088   3.2066   3.2210   3.2494   3.4196   3.6341   3.6618   3.8336
     3.8578   5.5366   5.6467   5.7871   6.1701   6.3120   6.3859   8.0613
     9.5557  10.2651  10.7557  11.4075  11.8596  12.0677  12.5979  12.9818
    13.5794  14.0282  14.2928  14.8086  15.3432

     occupation numbers 
     1.0000   1.0000   1.0000   1.0000   1.0000   1.0000   1.0000   1.0000
     1.0000   1.0000   1.0000   1.0000   1.0000   1.0000   1.0000   1.0000
     1.0000   1.0000   1.0000   1.0000   1.0000   1.0000   1.0000   1.0000
     1.0000   1.0000   1.0000   1.0000   1.0000   1.0000   1.0000   1.0000
     1.0000   1.0000   1.0000   1.0000   1.0000   1.0000   1.0000   1.0000
     1.0000   1.0000   1.0000   1.0000   1.0000   1.0000   1.0000   1.0000
     1.0000   1.0000   1.0000   1.0000   1.0000   1.0000   1.0000   1.0000
     1.0000   1.0000   1.0000   1.0000   1.0001   1.0053   1.0077   1.0450
     1.0533   0.0000   0.0000   0.0000   0.0000   0.0000   0.0000   0.0000
     0.0000   0.0000   0.0000   0.0000   0.0000   0.0000   0.0000   0.0000
     0.0000   0.0000   0.0000   0.0000   0.0000

          k = 0.1667 0.4811-0.2526 ( 11352 PWs)   bands (ev):

   -91.5199 -91.5112 -91.5090 -54.7731 -54.7611 -54.7508 -54.7456 -54.7365
   -54.7352 -54.7322 -54.7314 -54.7244 -48.0261 -19.9838 -19.9650 -19.9090
   -17.5196 -17.4279 -17.0136 -16.8747 -14.3761 -13.9683 -13.6792 -13.2737
   -13.1947 -13.1516  -5.7646  -5.1583  -4.7040  -4.4317  -1.9731  -1.9172
    -1.5949  -1.5575  -1.3643  -1.1710  -1.1505  -0.7767  -0.6389  -0.5927
    -0.4317  -0.1684  -0.1423   0.0501   0.3410   0.3706   0.5566   0.8620
     0.9667   1.0907   1.2218   1.3634   1.3941   2.0622   2.4362   2.7735
     3.0089   3.2065   3.2210   3.2486   3.4192   3.6356   3.6613   3.8343
     3.8596   5.5288   5.6450   5.7853   6.1708   6.3130   6.3859   8.0849
     9.5775  10.1953  10.7270  11.3790  11.9507  12.1314  12.6163  13.0201
    13.5591  13.8826  14.2177  15.1264  15.3174

     occupation numbers 
     1.0000   1.0000   1.0000   1.0000   1.0000   1.0000   1.0000   1.0000
     1.0000   1.0000   1.0000   1.0000   1.0000   1.0000   1.0000   1.0000
     1.0000   1.0000   1.0000   1.0000   1.0000   1.0000   1.0000   1.0000
     1.0000   1.0000   1.0000   1.0000   1.0000   1.0000   1.0000   1.0000
     1.0000   1.0000   1.0000   1.0000   1.0000   1.0000   1.0000   1.0000
     1.0000   1.0000   1.0000   1.0000   1.0000   1.0000   1.0000   1.0000
     1.0000   1.0000   1.0000   1.0000   1.0000   1.0000   1.0000   1.0000
     1.0000   1.0000   1.0000   1.0000   1.0001   1.0054   1.0076   1.0452
     1.0539   0.0000   0.0000   0.0000   0.0000   0.0000   0.0000   0.0000
     0.0000   0.0000   0.0000   0.0000   0.0000   0.0000   0.0000   0.0000
     0.0000   0.0000   0.0000   0.0000   0.0000

          k = 0.3333 0.5774 0.0000 ( 11370 PWs)   bands (ev):

   -91.5198 -91.5111 -91.5093 -54.7657 -54.7632 -54.7582 -54.7467 -54.7359
   -54.7353 -54.7312 -54.7291 -54.7251 -48.0261 -19.9862 -19.9645 -19.9091
   -17.5508 -17.3916 -17.0302 -16.8576 -14.0345 -14.0277 -14.0214 -13.1988
   -13.1915 -13.1882  -5.7350  -5.1604  -4.7352  -4.4756  -2.0879  -1.7529
    -1.6049  -1.4702  -1.4168  -1.2929  -1.0006  -0.6447  -0.6290  -0.5933
    -0.2794  -0.2747  -0.2699   0.0482   0.2037   0.2593   0.3404   0.6914
     1.0343   1.3191   1.3317   1.3363   1.5354   2.4234   2.4463   2.4555
     3.1992   3.2060   3.2078   3.4588   3.4604   3.4610   3.6909   3.6949
     3.7009   5.5493   5.5637   5.5852   6.3841   6.3927   6.3954   8.2740
     9.5112   9.9589  10.8191  11.2700  11.8019  12.4137  12.6466  12.8366
    13.5865  13.9847  14.3977  15.1295  15.3335

     occupation numbers 
     1.0000   1.0000   1.0000   1.0000   1.0000   1.0000   1.0000   1.0000
     1.0000   1.0000   1.0000   1.0000   1.0000   1.0000   1.0000   1.0000
     1.0000   1.0000   1.0000   1.0000   1.0000   1.0000   1.0000   1.0000
     1.0000   1.0000   1.0000   1.0000   1.0000   1.0000   1.0000   1.0000
     1.0000   1.0000   1.0000   1.0000   1.0000   1.0000   1.0000   1.0000
     1.0000   1.0000   1.0000   1.0000   1.0000   1.0000   1.0000   1.0000
     1.0000   1.0000   1.0000   1.0000   1.0000   1.0000   1.0000   1.0000
     1.0000   1.0000   1.0000   1.0003   1.0003   1.0003   1.0110   1.0116
     1.0125   0.0000   0.0000   0.0000   0.0000   0.0000   0.0000   0.0000
     0.0000   0.0000   0.0000   0.0000   0.0000   0.0000   0.0000   0.0000
     0.0000   0.0000   0.0000   0.0000   0.0000

          k = 0.3333 0.5774-0.2526 ( 11340 PWs)   bands (ev):

   -91.5198 -91.5111 -91.5092 -54.7657 -54.7632 -54.7582 -54.7466 -54.7359
   -54.7352 -54.7312 -54.7290 -54.7250 -48.0261 -19.9861 -19.9644 -19.9090
   -17.5507 -17.3915 -17.0303 -16.8576 -14.0342 -14.0276 -14.0215 -13.1990
   -13.1917 -13.1882  -5.7352  -5.1619  -4.7347  -4.4731  -2.0827  -1.7661
    -1.6124  -1.4696  -1.4064  -1.2551  -1.0302  -0.6508  -0.6371  -0.6143
    -0.2791  -0.2745  -0.2698   0.0338   0.2439   0.2695   0.3693   0.6828
     1.0126   1.3180   1.3317   1.3364   1.5310   2.4223   2.4474   2.4566
     3.1992   3.2053   3.2076   3.4589   3.4604   3.4610   3.6915   3.6968
     3.7036   5.5441   5.5593   5.5821   6.3841   6.3927   6.3955   8.2716
     9.5384   9.9578  10.8380  11.2742  11.7352  12.4083  12.6162  12.9477
    13.5329  13.9826  14.4105  15.1775  15.4672

     occupation numbers 
     1.0000   1.0000   1.0000   1.0000   1.0000   1.0000   1.0000   1.0000
     1.0000   1.0000   1.0000   1.0000   1.0000   1.0000   1.0000   1.0000
     1.0000   1.0000   1.0000   1.0000   1.0000   1.0000   1.0000   1.0000
     1.0000   1.0000   1.0000   1.0000   1.0000   1.0000   1.0000   1.0000
     1.0000   1.0000   1.0000   1.0000   1.0000   1.0000   1.0000   1.0000
     1.0000   1.0000   1.0000   1.0000   1.0000   1.0000   1.0000   1.0000
     1.0000   1.0000   1.0000   1.0000   1.0000   1.0000   1.0000   1.0000
     1.0000   1.0000   1.0000   1.0003   1.0003   1.0003   1.0111   1.0119
     1.0129   0.0000   0.0000   0.0000   0.0000   0.0000   0.0000   0.0000
     0.0000   0.0000   0.0000   0.0000   0.0000   0.0000   0.0000   0.0000
     0.0000   0.0000   0.0000   0.0000   0.0000

          k =-0.1667 0.0962 0.0000 ( 11360 PWs)   bands (ev):

   -91.5204 -91.5115 -91.5083 -54.7691 -54.7655 -54.7512 -54.7482 -54.7443
   -54.7364 -54.7323 -54.7232 -54.7199 -48.0261 -19.9826 -19.9632 -19.9088
   -17.7573 -17.1909 -17.1669 -16.6963 -14.9163 -13.4931 -13.4069 -13.3296
   -13.2707 -13.1251  -5.5289  -5.3906  -4.6992  -4.5436  -1.9651  -1.7340
    -1.5433  -1.4450  -1.2582  -1.2140  -1.0395  -1.0086  -0.9665  -0.8657
[...]

     the Fermi energy is     4.3663 ev

!    total energy              =   -1665.63815653 Ry
     total all-electron energy =    -10200.260490 Ry
     estimated scf accuracy    <       0.00000006 Ry
     smearing contrib. (-TS)   =       0.00984747 Ry
     internal energy E=F+TS    =   -1665.64800399 Ry

     The total energy is F=E-TS. E is the sum of the following terms:
     one-electron contribution =   -1720.24422489 Ry
     hartree contribution      =     910.49753253 Ry
     xc contribution           =    -186.39667467 Ry
     ewald contribution        =    -295.52756117 Ry
     DFT-D3 Dispersion         =      -0.12109963 Ry
     one-center paw contrib.   =    -373.85597616 Ry
      -> PAW hartree energy AE =    1006.81117929 Ry
      -> PAW hartree energy PS =   -1004.39251285 Ry
      -> PAW xc energy AE      =    -554.14812346 Ry
      -> PAW xc energy PS      =     177.87348086 Ry
      -> total E_H with PAW    =     912.91619898 Ry
      -> total E_XC with PAW   =    -562.67131728 Ry

     total magnetization       =     2.30 Bohr mag/cell
     absolute magnetization    =     2.34 Bohr mag/cell

     convergence has been achieved in  32 iterations

     Forces acting on atoms (cartesian axes, Ry/au):

     atom    1 type  1   force =    -0.00173544    0.00129204   -0.00074085
     atom    2 type  1   force =     0.00129581   -0.00047804    0.00367310
     atom    3 type  1   force =    -0.00061786   -0.00032409    0.00543051
     atom    4 type  2   force =    -0.00431531   -0.00310003   -0.02111226
     atom    5 type  2   force =    -0.00134555    0.00212106   -0.02121640
     atom    6 type  2   force =     0.00404434    0.00175165   -0.01672170
     atom    7 type  2   force =     0.00389625    0.00152821    0.01247627
     atom    8 type  2   force =    -0.00421663    0.00209163    0.01179334
     atom    9 type  2   force =    -0.00243587   -0.00312965    0.01560463
     atom   10 type  3   force =    -0.01444780    0.02649999    0.00597962
     atom   11 type  2   force =    -0.03730049   -0.01315617    0.03056608
     atom   12 type  4   force =     0.03471243    0.01548531   -0.00192914
     atom   13 type  4   force =    -0.00506296   -0.00238356   -0.04742794
     atom   14 type  2   force =    -0.00247752   -0.03647741    0.02921584
     atom   15 type  4   force =    -0.00566596    0.02271409   -0.00600940
     atom   16 type  4   force =     0.01046162   -0.00061733   -0.04778985
     atom   17 type  2   force =    -0.00657822   -0.02143155   -0.04109331
     atom   18 type  4   force =     0.00744984    0.03490047   -0.00122167
     atom   19 type  4   force =     0.01318709   -0.00773522    0.05615216
     atom   20 type  2   force =    -0.03644599   -0.02963561   -0.03550808
     atom   21 type  4   force =     0.03931297    0.00587549    0.01317705
     atom   22 type  4   force =     0.00828527    0.00420871    0.05670201
     The non-local contrib.  to forces
     atom    1 type  1   force =    -0.00051015    0.01252394    0.01122549
     atom    2 type  1   force =    -0.00103396    0.00170851   -0.00527054
     atom    3 type  1   force =     0.00891214   -0.01646545   -0.01418906
     atom    4 type  2   force =    -0.03497690   -0.02763721   -1.13231099
     atom    5 type  2   force =    -0.01418725    0.01944797   -1.13508774
     atom    6 type  2   force =     0.04049390    0.01189959   -1.09442652
     atom    7 type  2   force =     0.03801838    0.01262725    1.07131773
     atom    8 type  2   force =    -0.04187699    0.00484637    1.06211008
     atom    9 type  2   force =    -0.02751803   -0.00838194    1.09452599
     atom   10 type  3   force =    -0.04097016   -0.33352951    0.39142874
     atom   11 type  2   force =     1.53489562   -0.21359560   -1.21153483
     atom   12 type  4   force =    -0.11072563   -0.01746906   -0.02451046
     atom   13 type  4   force =     0.00576095    0.01537538    0.11528685
     atom   14 type  2   force =    -1.00252360    1.26940283   -1.28541619
     atom   15 type  4   force =     0.06799767   -0.08842425   -0.02446247
     atom   16 type  4   force =    -0.01754381   -0.00286236    0.11534669
     atom   17 type  2   force =    -0.17331552    1.79196274    1.42556667
     atom   18 type  4   force =     0.04377119   -0.10342994    0.01755444
     atom   19 type  4   force =    -0.04722947    0.00031957   -0.10645373
     atom   20 type  2   force =     1.51117031    0.80584673    1.32974919
     atom   21 type  4   force =    -0.06764537   -0.08901519    0.01545595
     atom   22 type  4   force =    -0.02338086    0.03957292   -0.10668435
     The ionic contribution  to forces
     atom    1 type  1   force =    -0.15046495   -0.29414141    0.99413434
     atom    2 type  1   force =     0.36593655   -0.06250264    1.81717438
     atom    3 type  1   force =    -0.23790651    0.36397528    1.88259662
     atom    4 type  2   force =     0.28683823    0.42419181   33.02809066
     atom    5 type  2   force =     0.26013568   -0.41397812   32.99824854
     atom    6 type  2   force =    -0.53362943   -0.01690312   32.92693079
     atom    7 type  2   force =    -0.42872479    0.00537787  -31.91579026
     atom    8 type  2   force =     0.23534337    0.23915327  -31.86180450
     atom    9 type  2   force =     0.24240368   -0.25204938  -31.95623106
     atom   10 type  3   force =    -1.61172551   -1.85731977   -2.10715490
     atom   11 type  2   force =    -1.23408772    0.39781839   10.37582692
     atom   12 type  4   force =     3.10284049    0.20742817    1.87017663
     atom   13 type  4   force =    -0.12533744   -0.43173621    0.16217375
     atom   14 type  2   force =     1.08269952   -0.90805589   10.49142030
     atom   15 type  4   force =    -2.22354725    2.46059283    1.84910210
     atom   16 type  4   force =     0.51699047    0.13525622    0.17191662
     atom   17 type  2   force =     1.09791534   -3.27919339  -13.10752628
     atom   18 type  4   force =    -1.13232203    2.61855937   -1.90821345
     atom   19 type  4   force =     1.37629674   -0.02960905   -0.38517166
     atom   20 type  2   force =    -3.11907247   -0.67713021  -13.01959711
     atom   21 type  4   force =     1.55458258    2.44819815   -1.98854542
     atom   22 type  4   force =     0.67483543   -1.07793216   -0.31775703
     The local contribution  to forces
     atom    1 type  1   force =     0.14923088    0.28295849   -1.00574991
     atom    2 type  1   force =    -0.36348025    0.06026921   -1.80816121
     atom    3 type  1   force =     0.22837493   -0.34787607   -1.86294204
     atom    4 type  2   force =    -0.25667218   -0.39978643  -31.92756901
     atom    5 type  2   force =    -0.24752343    0.39671238  -31.89523492
     atom    6 type  2   force =     0.49775147    0.00692394  -31.85952166
     atom    7 type  2   force =     0.39513151   -0.01635347   30.86723431
     atom    8 type  2   force =    -0.19843625   -0.24194001   30.82156813
     atom    9 type  2   force =    -0.21764267    0.25733052   30.88780480
     atom   10 type  3   force =     1.63804821    2.21790386    1.72052299
     atom   11 type  2   force =    -0.32725393   -0.19984733   -9.14221170
     atom   12 type  4   force =    -2.95703330   -0.17401922   -1.84696424
     atom   13 type  4   force =     0.11423589    0.41376813   -0.32375633
     atom   14 type  2   force =    -0.09062836   -0.38902685   -9.18619938
     atom   15 type  4   force =     2.14998922   -2.34909643   -1.83002230
     atom   16 type  4   force =    -0.48885029   -0.13322289   -0.33393742
     atom   17 type  2   force =    -0.93320034    1.47948153   11.65125088
     atom   18 type  4   force =     1.09613580   -2.47961787    1.88869040
     atom   19 type  4   force =    -1.31547891    0.02166703    0.54687676
     atom   20 type  2   force =     1.58286443   -0.15248235   11.66367246
     atom   21 type  4   force =    -1.44697467   -2.35314931    1.98565529
     atom   22 type  4   force =    -0.64308180    1.04229544    0.48020564
     The core correction contribution to forces
     atom    1 type  1   force =     0.00000622   -0.00008223   -0.00003854
     atom    2 type  1   force =     0.00000406   -0.00001226    0.00001120
     atom    3 type  1   force =    -0.00005385    0.00009853    0.00005283
     atom    4 type  2   force =     0.00031247    0.00023803    0.01000706
     atom    5 type  2   force =     0.00011759   -0.00016171    0.01004420
     atom    6 type  2   force =    -0.00034925   -0.00010786    0.00964043
     atom    7 type  2   force =    -0.00033865   -0.00012555   -0.00941088
     atom    8 type  2   force =     0.00038629   -0.00004919   -0.00931518
     atom    9 type  2   force =     0.00025070    0.00008355   -0.00964267
     atom   10 type  3   force =     0.00003180    0.00014582   -0.00020044
     atom   11 type  2   force =    -0.01150258    0.00196956    0.00907508
     atom   12 type  4   force =     0.00000000    0.00000000    0.00000000
     atom   13 type  4   force =     0.00000000    0.00000000    0.00000000
     atom   14 type  2   force =     0.00794409   -0.00955117    0.00974468
     atom   15 type  4   force =     0.00000000    0.00000000    0.00000000
     atom   16 type  4   force =     0.00000000    0.00000000    0.00000000
     atom   17 type  2   force =     0.00161440   -0.01377387   -0.01085537
     atom   18 type  4   force =     0.00000000    0.00000000    0.00000000
     atom   19 type  4   force =     0.00000000    0.00000000    0.00000000
     atom   20 type  2   force =    -0.01149477   -0.00630340   -0.00991880
     atom   21 type  4   force =     0.00000000    0.00000000    0.00000000
     atom   22 type  4   force =     0.00000000    0.00000000    0.00000000
     The Hubbard contrib.    to forces
     atom    1 type  1   force =     0.00000000    0.00000000    0.00000000
     atom    2 type  1   force =     0.00000000    0.00000000    0.00000000
     atom    3 type  1   force =     0.00000000    0.00000000    0.00000000
     atom    4 type  2   force =     0.00000000    0.00000000    0.00000000
     atom    5 type  2   force =     0.00000000    0.00000000    0.00000000
     atom    6 type  2   force =     0.00000000    0.00000000    0.00000000
     atom    7 type  2   force =     0.00000000    0.00000000    0.00000000
     atom    8 type  2   force =     0.00000000    0.00000000    0.00000000
     atom    9 type  2   force =     0.00000000    0.00000000    0.00000000
     atom   10 type  3   force =     0.00000000    0.00000000    0.00000000
     atom   11 type  2   force =     0.00000000    0.00000000    0.00000000
     atom   12 type  4   force =     0.00000000    0.00000000    0.00000000
     atom   13 type  4   force =     0.00000000    0.00000000    0.00000000
     atom   14 type  2   force =     0.00000000    0.00000000    0.00000000
     atom   15 type  4   force =     0.00000000    0.00000000    0.00000000
     atom   16 type  4   force =     0.00000000    0.00000000    0.00000000
     atom   17 type  2   force =     0.00000000    0.00000000    0.00000000
     atom   18 type  4   force =     0.00000000    0.00000000    0.00000000
     atom   19 type  4   force =     0.00000000    0.00000000    0.00000000
     atom   20 type  2   force =     0.00000000    0.00000000    0.00000000
     atom   21 type  4   force =     0.00000000    0.00000000    0.00000000
     atom   22 type  4   force =     0.00000000    0.00000000    0.00000000
     The SCF correction term to forces
     atom    1 type  1   force =     0.00000269    0.00000086    0.00011699
     atom    2 type  1   force =     0.00000651   -0.00000528    0.00014739
     atom    3 type  1   force =    -0.00000467    0.00000570    0.00014004
     atom    4 type  2   force =     0.00005102   -0.00011372   -0.00012160
     atom    5 type  2   force =     0.00007619    0.00009818   -0.00011977
     atom    6 type  2   force =    -0.00012791    0.00001690   -0.00012560
     atom    7 type  2   force =    -0.00008965    0.00010149    0.00020865
     atom    8 type  2   force =     0.00013301    0.00002072    0.00020920
     atom    9 type  2   force =    -0.00004237   -0.00012210    0.00020454
     atom   10 type  3   force =     0.00001893    0.00007449   -0.00012248
     atom   11 type  2   force =    -0.00005658    0.00001961   -0.00008311
     atom   12 type  4   force =     0.00000339    0.00000082   -0.00001413
     atom   13 type  4   force =    -0.00000411    0.00000312   -0.00001417
     atom   14 type  2   force =     0.00003627   -0.00005702   -0.00007200
     atom   15 type  4   force =    -0.00000184    0.00000254   -0.00001339
     atom   16 type  4   force =     0.00000114   -0.00000527   -0.00001398
     atom   17 type  2   force =    -0.00000041   -0.00001035    0.00000117
     atom   18 type  4   force =    -0.00001108    0.00001016   -0.00000468
     atom   19 type  4   force =     0.00000642   -0.00000053    0.00001826
     atom   20 type  2   force =     0.00000430    0.00000509    0.00001693
     atom   21 type  4   force =     0.00000374    0.00001396   -0.00000270
     atom   22 type  4   force =     0.00000376   -0.00000285    0.00002471

     DFT-D3 dispersion contribution to forces:
     atom    1 type  1   force =     0.00000104    0.00003423   -0.00042894
     atom    2 type  1   force =    -0.00013594    0.00006626   -0.00022783
     atom    3 type  1   force =     0.00006127   -0.00006025   -0.00022760
     atom    4 type  2   force =     0.00013322    0.00000932    0.00079190
     atom    5 type  2   force =     0.00003683    0.00000419    0.00093359
     atom    6 type  2   force =    -0.00009328   -0.00007595    0.00078115
     atom    7 type  2   force =    -0.00009938   -0.00009754   -0.00108300
     atom    8 type  2   force =     0.00023512    0.00006231   -0.00097410
     atom    9 type  2   force =     0.00011398    0.00001155   -0.00105668
     atom   10 type  3   force =     0.00015009   -0.00077306    0.00150600
     atom   11 type  2   force =     0.00070586    0.00048103   -0.00050599
     atom   12 type  4   force =    -0.00037135   -0.00045357   -0.00061665
     atom   13 type  4   force =     0.00028291    0.00020786   -0.00111776
     atom   14 type  2   force =    -0.00000427    0.00081252   -0.00026129
     atom   15 type  4   force =    -0.00010260   -0.00035877   -0.00061306
     atom   16 type  4   force =    -0.00013472    0.00021880   -0.00110148
     atom   17 type  2   force =     0.00040948    0.00010361    0.00046991
     atom   18 type  4   force =    -0.00012287   -0.00061941    0.00075192
     atom   19 type  4   force =    -0.00040653   -0.00011041    0.00088282
     atom   20 type  2   force =     0.00008338    0.00043037    0.00056954
     atom   21 type  4   force =    -0.00065215   -0.00017028    0.00061422
     atom   22 type  4   force =    -0.00009010    0.00027720    0.00091333

     Total force =     0.172024     Total SCF correction =     0.000611

     DFT-D3 dispersion Force =     0.004344

     Writing all to output data dir ./out/pw.save/ :
     XML data file, charge density, pseudopotentials, collected wavefunctions
 
     init_run     :     21.98s CPU      6.75s WALL (       1 calls)
     electrons    :    591.58s CPU    224.10s WALL (       1 calls)
     forces       :      4.83s CPU      3.92s WALL (       1 calls)
     force_dftd3  :      1.05s CPU      1.06s WALL (       1 calls)

     Called by init_run:
     wfcinit      :      1.77s CPU      2.24s WALL (       1 calls)
     wfcinit:atom :      0.20s CPU      0.20s WALL (      80 calls)
     wfcinit:wfcr :      1.05s CPU      1.09s WALL (      80 calls)
     potinit      :     19.30s CPU      3.54s WALL (       1 calls)
     hinit0       :      0.71s CPU      0.69s WALL (       1 calls)

     Called by electrons:
     c_bands      :    143.15s CPU    143.60s WALL (      32 calls)
     sum_band     :     20.38s CPU     20.30s WALL (      32 calls)
     v_of_rho     :      0.80s CPU      0.55s WALL (      33 calls)
     v_h          :      0.46s CPU      0.13s WALL (      33 calls)
     v_xc         :      0.35s CPU      0.42s WALL (      34 calls)
     newd         :      0.86s CPU      0.77s WALL (      33 calls)
                                        0.77s GPU  (      33 calls)
     PAW_pot      :    432.82s CPU     57.03s WALL (      33 calls)
     mix_rho      :      1.92s CPU      1.92s WALL (      32 calls)
     energy_dftd3 :      0.80s CPU      0.80s WALL (       1 calls)

     Called by c_bands:
     init_us_2    :      5.14s CPU      5.06s WALL (    5280 calls)
     cegterg      :    113.01s CPU    113.39s WALL (    2560 calls)

     Called by sum_band:
     sum_band:wei :      0.19s CPU      0.19s WALL (      32 calls)
                                        0.19s GPU  (      32 calls)
     sum_band:loo :     18.54s CPU     18.42s WALL (      32 calls)
                                       18.42s GPU  (      32 calls)
     sum_band:buf :      5.75s CPU      5.88s WALL (    2560 calls)
                                        5.84s GPU  (    2560 calls)
     sum_band:ini :      2.51s CPU      2.51s WALL (    2560 calls)
                                        2.48s GPU  (    2560 calls)
     sum_band:cal :      0.22s CPU      0.54s WALL (    2560 calls)
                                        0.50s GPU  (    2560 calls)
     sum_band:bec :      2.51s CPU      2.56s WALL (    2560 calls)
                                        2.52s GPU  (    2560 calls)
     addusdens    :      1.35s CPU      1.36s WALL (      32 calls)
                                        1.36s GPU  (      32 calls)
     addusd:skk   :      0.03s CPU      0.03s WALL (     128 calls)
                                        0.03s GPU  (     128 calls)

     Called by *egterg:
     cdiaghg      :     40.31s CPU     40.70s WALL (   15103 calls)
                                       40.51s GPU  (   15103 calls)
     cegterg:over :      5.45s CPU      5.49s WALL (   12543 calls)
     cegterg:upda :      5.64s CPU      5.65s WALL (   12543 calls)
     cegterg:last :      1.30s CPU      1.30s WALL (    5300 calls)
     h_psi        :     46.52s CPU     46.95s WALL (   15183 calls)
                                       46.75s GPU  (   15183 calls)
     s_psi        :      9.59s CPU      9.70s WALL (   15183 calls)
     g_psi        :      0.07s CPU      0.65s WALL (   12543 calls)
                                        0.47s GPU  (   12543 calls)

     Called by h_psi:
     h_psi:calbec :      0.55s CPU      1.77s WALL (   15183 calls)
                                        1.59s GPU  (   15183 calls)
     vloc_psi     :     33.63s CPU     33.59s WALL (   15183 calls)
                                       33.41s GPU  (   15183 calls)
     add_vuspsi   :      9.18s CPU     10.41s WALL (   15183 calls)
                                       10.22s GPU  (   15183 calls)

     General routines
     calbec       :      0.69s CPU      0.74s WALL (   18063 calls)
     fft          :      6.08s CPU      1.13s WALL (     838 calls)
                                        0.05s GPU  (     772 calls)
     ffts         :      2.84s CPU      0.90s WALL (    1643 calls)
                                        0.05s GPU  (    1577 calls)
     fftw         :      1.76s CPU     21.64s WALL (  103518 calls)
                                       20.48s GPU  (  103518 calls)
     interpolate  :      9.36s CPU      2.06s WALL (      66 calls)
 
     Parallel routines

     PAW routines
     PAW_pot      :    432.82s CPU     57.03s WALL (      33 calls)
 
     PWSCF        :  10m19.97s CPU   3m55.90s WALL

 
   This run was terminated on:   6:40:12  12Jul2026            

=------------------------------------------------------------------------------=
   JOB DONE.
=------------------------------------------------------------------------------=
Warning: ieee_divide_by_zero is signaling
Warning: ieee_inexact is signaling
FORTRAN STOP
