
     Program PWSCF v.7.3.1 starts on 12Jul2026 at  2:13: 7 

     This program is part of the open-source Quantum ESPRESSO suite
     for quantum simulation of materials; please cite
         "P. Giannozzi et al., J. Phys.:Condens. Matter 21 395502 (2009);
         "P. Giannozzi et al., J. Phys.:Condens. Matter 29 465901 (2017);
         "P. Giannozzi et al., J. Chem. Phys. 152 154105 (2020);
          URL http://www.quantum-espresso.org", 
     in publications or presentations arising from this work. More details at
     http://www.quantum-espresso.org/quote

     Parallel version (MPI & OpenMP), running on      14 processor cores
     Number of MPI processes:                 1
     Threads/MPI process:                    14

     MPI processes distributed on     1 nodes
     853790 MiB available memory on the printing compute node when the environment starts
 
     Reading input from pw.in

     Current dimensions of program PWSCF are:
     Max number of different atomic species (ntypx) = 10
     Max number of k-points (npk) =  40000
     Max angular momentum in pseudopotentials (lmaxx) =  4
     file Co.pbe-spn-kjpaw_psl.0.3.1.UPF: wavefunction(s)  3P 3D renormalized
     file O.pbe-n-kjpaw_psl.1.0.0.UPF: wavefunction(s)  2S 2P renormalized
     file Na.pbe-spn-kjpaw_psl.1.0.0.UPF: wavefunction(s)  2P renormalized
 
     Subspace diagonalization in iterative solution of the eigenvalue problem:
     a serial algorithm will be used

 
     G-vector sticks info
     --------------------
     sticks:   dense  smooth     PW     G-vecs:    dense   smooth      PW
     Sum         979     499    151                47419    16845    2747
 
     Using Slab Decomposition
 


     bravais-lattice index     =            4
     lattice parameter (alat)  =       5.4575  a.u.
     unit-cell volume          =     268.0923 (a.u.)^3
     number of atoms/cell      =            4
     number of atomic types    =            3
     number of electrons       =        38.00
     number of Kohn-Sham states=           27
     kinetic-energy cutoff     =      60.0000  Ry
     charge density cutoff     =     480.0000  Ry
     scf convergence threshold =      1.0E-08
     mixing beta               =       0.3000
     number of iterations used =            8  plain     mixing
     Exchange-correlation= SLA  PW   PBX  PBC
                           (   1   4   3   4   0   0   0)

     GPU acceleration is ACTIVE.  1 visible GPUs per MPI rank
     GPU-aware MPI enabled


     GPU used by master process:

        Device Number: 0
        Device name: NVIDIA A100-SXM4-80GB
        Compute capability : 80
        Ratio of single to double precision performance  : 2
        Memory Clock Rate (KHz): 1593000
        Memory Bus Width (bits): 5120
        Peak Memory Bandwidth (GB/s): ******

     celldm(1)=   5.457529  celldm(2)=   0.000000  celldm(3)=   1.904432
     celldm(4)=   0.000000  celldm(5)=   0.000000  celldm(6)=   0.000000

     crystal axes: (cart. coord. in units of alat)
               a(1) = (   1.000000   0.000000   0.000000 )  
               a(2) = (  -0.500000   0.866025   0.000000 )  
               a(3) = (   0.000000   0.000000   1.904432 )  

     reciprocal axes: (cart. coord. in units 2 pi/alat)
               b(1) = (  1.000000  0.577350 -0.000000 )  
               b(2) = (  0.000000  1.154701  0.000000 )  
               b(3) = (  0.000000 -0.000000  0.525091 )  


     PseudoPot. # 1 for Co read from file:
     ../../pseudo/Co.pbe-spn-kjpaw_psl.0.3.1.UPF
     MD5 check sum: 3c0a43779828c046024e4f3be63f8e67
     Pseudo is Projector augmented-wave + core cor, Zval = 17.0
     Generated using &quot;atomic&quot; code by A. Dal Corso  v.6.2.2
     Shape of augmentation charge: PSQ
     Using radial grid of 1193 points,  6 beta functions with: 
                l(1) =   0
                l(2) =   0
                l(3) =   1
                l(4) =   1
                l(5) =   2
                l(6) =   2
     Q(r) pseudized with 0 coefficients 


     PseudoPot. # 2 for O  read from file:
     ../../pseudo/O.pbe-n-kjpaw_psl.1.0.0.UPF
     MD5 check sum: e99d9cef9b487d1ca56f5b95ecd0fd7a
     Pseudo is Projector augmented-wave + core cor, Zval =  6.0
     Generated using &quot;atomic&quot; code by A. Dal Corso  v.6.3
     Shape of augmentation charge: PSQ
     Using radial grid of 1095 points,  4 beta functions with: 
                l(1) =   0
                l(2) =   0
                l(3) =   1
                l(4) =   1
     Q(r) pseudized with 0 coefficients 


     PseudoPot. # 3 for Na read from file:
     ../../pseudo/Na.pbe-spn-kjpaw_psl.1.0.0.UPF
     MD5 check sum: 05b4deb74e3932c23ab016979dc8b5d4
     Pseudo is Projector augmented-wave + core cor, Zval =  9.0
     Generated using &quot;atomic&quot; code by A. Dal Corso  v.6.3
     Shape of augmentation charge: PSQ
     Using radial grid of 1121 points,  4 beta functions with: 
                l(1) =   0
                l(2) =   0
                l(3) =   1
                l(4) =   1
     Q(r) pseudized with 0 coefficients 


     atomic species   valence    mass     pseudopotential
     Co               17.00    58.93300     Co( 1.00)
     O                 6.00    15.99900     O ( 1.00)
     Na                9.00    22.98977     Na( 1.00)

     Starting magnetic structure 
     atomic species   magnetization
     Co              0.300
     O               0.000
     Na              0.000

      6 Sym. Ops. (no inversion) found


                                    s                        frac. trans.

      isym =  1     identity                                     

 cryst.   s( 1) = (     1          0          0      )
                  (     0          1          0      )
                  (     0          0          1      )

 cart.    s( 1) = (  1.0000000  0.0000000  0.0000000 )
                  (  0.0000000  1.0000000  0.0000000 )
                  (  0.0000000  0.0000000  1.0000000 )


      isym =  2     120 deg rotation - cryst. axis [0,0,1]       

 cryst.   s( 2) = (     0          1          0      )
                  (    -1         -1          0      )
                  (     0          0          1      )

 cart.    s( 2) = ( -0.5000000 -0.8660254  0.0000000 )
                  (  0.8660254 -0.5000000  0.0000000 )
                  (  0.0000000  0.0000000  1.0000000 )


      isym =  3     120 deg rotation - cryst. axis [0,0,-1]      

 cryst.   s( 3) = (    -1         -1          0      )
                  (     1          0          0      )
                  (     0          0          1      )

 cart.    s( 3) = ( -0.5000000  0.8660254  0.0000000 )
                  ( -0.8660254 -0.5000000  0.0000000 )
                  (  0.0000000  0.0000000  1.0000000 )


      isym =  4     inv. 180 deg rotation - cart. axis [1,0,0]   

 cryst.   s( 4) = (    -1          0          0      )
                  (     1          1          0      )
                  (     0          0          1      )

 cart.    s( 4) = ( -1.0000000  0.0000000  0.0000000 )
                  (  0.0000000  1.0000000  0.0000000 )
                  (  0.0000000  0.0000000  1.0000000 )


      isym =  5     inv. 180 deg rotation - cryst. axis [0,1,0]  

 cryst.   s( 5) = (     1          1          0      )
                  (     0         -1          0      )
                  (     0          0          1      )

 cart.    s( 5) = (  0.5000000  0.8660254  0.0000000 )
                  (  0.8660254 -0.5000000  0.0000000 )
                  (  0.0000000  0.0000000  1.0000000 )


      isym =  6     inv. 180 deg rotation - cryst. axis [1,1,0]  

 cryst.   s( 6) = (     0         -1          0      )
                  (    -1          0          0      )
                  (     0          0          1      )

 cart.    s( 6) = (  0.5000000 -0.8660254  0.0000000 )
                  ( -0.8660254 -0.5000000  0.0000000 )
                  (  0.0000000  0.0000000  1.0000000 )


     point group C_3v (3m)  
     there are  3 classes
     the character table:

       E     2C3   3s_v 
A_1    1.00  1.00  1.00
A_2    1.00  1.00 -1.00
E      2.00 -1.00  0.00

     the symmetry operations in each class and the name of the first element:

     E        1
          identity                                               
     2C3      2    3
          120 deg rotation - cryst. axis [0,0,1]                 
     3s_v     4    5    6
          inv. 180 deg rotation - cart. axis [1,0,0]             

   Cartesian axes

     site n.     atom                  positions (alat units)
         1        Co     tau(   1) = (   0.0000000   0.0000000   0.0000000  )
         2        O      tau(   2) = (  -0.0000000   0.5773503   0.3324100  )
         3        O      tau(   3) = (   0.5000000   0.2886751   1.5720222  )
         4        Na     tau(   4) = (  -0.0000000   0.5773503   1.1253463  )

   Crystallographic axes

     site n.     atom                  positions (cryst. coord.)
         1        Co     tau(   1) = (  0.0000000  0.0000000  0.0000000  )
         2        O      tau(   2) = (  0.3333333  0.6666667  0.1745455  )
         3        O      tau(   3) = (  0.6666667  0.3333333  0.8254545  )
         4        Na     tau(   4) = (  0.3333333  0.6666667  0.5909091  )

     number of k points=    25  Marzari-Vanderbilt smearing, width (Ry)=  0.0200
                       cart. coord. in units 2pi/alat
        k(    1) = (   0.0000000   0.0000000   0.0000000), wk =   0.0052083
        k(    2) = (   0.0000000   0.0000000   0.1750303), wk =   0.0104167
        k(    3) = (   0.0000000   0.1443376   0.0000000), wk =   0.0312500
        k(    4) = (   0.0000000   0.1443376   0.1750303), wk =   0.0312500
        k(    5) = (   0.0000000   0.2886751   0.0000000), wk =   0.0312500
        k(    6) = (   0.0000000   0.2886751   0.1750303), wk =   0.0312500
        k(    7) = (   0.0000000   0.4330127   0.0000000), wk =   0.0312500
        k(    8) = (   0.0000000   0.4330127   0.1750303), wk =   0.0312500
        k(    9) = (   0.0000000  -0.5773503   0.0000000), wk =   0.0156250
        k(   10) = (   0.0000000  -0.5773503   0.1750303), wk =   0.0312500
        k(   11) = (   0.1250000   0.2165064   0.0000000), wk =   0.0312500
        k(   12) = (   0.1250000   0.2165064   0.1750303), wk =   0.0625000
        k(   13) = (   0.1250000   0.3608439   0.0000000), wk =   0.0625000
        k(   14) = (   0.1250000   0.3608439   0.1750303), wk =   0.0625000
        k(   15) = (   0.1250000   0.5051815   0.0000000), wk =   0.0625000
        k(   16) = (   0.1250000   0.5051815   0.1750303), wk =   0.0625000
        k(   17) = (   0.2500000   0.4330127   0.0000000), wk =   0.0312500
        k(   18) = (   0.2500000   0.4330127   0.1750303), wk =   0.0625000
        k(   19) = (   0.2500000   0.5773503   0.0000000), wk =   0.0312500
        k(   20) = (   0.2500000   0.5773503   0.1750303), wk =   0.0625000
        k(   21) = (   0.0000000  -0.1443376   0.1750303), wk =   0.0312500
        k(   22) = (   0.0000000  -0.2886751   0.1750303), wk =   0.0312500
        k(   23) = (   0.0000000  -0.4330127   0.1750303), wk =   0.0312500
        k(   24) = (  -0.1250000  -0.3608439   0.1750303), wk =   0.0625000
        k(   25) = (  -0.1250000  -0.5051815   0.1750303), wk =   0.0625000

                       cryst. coord.
        k(    1) = (   0.0000000   0.0000000   0.0000000), wk =   0.0052083
        k(    2) = (   0.0000000   0.0000000   0.3333333), wk =   0.0104167
        k(    3) = (   0.0000000   0.1250000   0.0000000), wk =   0.0312500
        k(    4) = (   0.0000000   0.1250000   0.3333333), wk =   0.0312500
        k(    5) = (   0.0000000   0.2500000   0.0000000), wk =   0.0312500
        k(    6) = (   0.0000000   0.2500000   0.3333333), wk =   0.0312500
        k(    7) = (   0.0000000   0.3750000   0.0000000), wk =   0.0312500
        k(    8) = (   0.0000000   0.3750000   0.3333333), wk =   0.0312500
        k(    9) = (   0.0000000  -0.5000000   0.0000000), wk =   0.0156250
        k(   10) = (   0.0000000  -0.5000000   0.3333333), wk =   0.0312500
        k(   11) = (   0.1250000   0.1250000   0.0000000), wk =   0.0312500
        k(   12) = (   0.1250000   0.1250000   0.3333333), wk =   0.0625000
        k(   13) = (   0.1250000   0.2500000   0.0000000), wk =   0.0625000
        k(   14) = (   0.1250000   0.2500000   0.3333333), wk =   0.0625000
        k(   15) = (   0.1250000   0.3750000   0.0000000), wk =   0.0625000
        k(   16) = (   0.1250000   0.3750000   0.3333333), wk =   0.0625000
        k(   17) = (   0.2500000   0.2500000   0.0000000), wk =   0.0312500
        k(   18) = (   0.2500000   0.2500000   0.3333333), wk =   0.0625000
        k(   19) = (   0.2500000   0.3750000   0.0000000), wk =   0.0312500
        k(   20) = (   0.2500000   0.3750000   0.3333333), wk =   0.0625000
        k(   21) = (   0.0000000  -0.1250000   0.3333333), wk =   0.0312500
        k(   22) = (   0.0000000  -0.2500000   0.3333333), wk =   0.0312500
        k(   23) = (   0.0000000  -0.3750000   0.3333333), wk =   0.0312500
        k(   24) = (  -0.1250000  -0.2500000   0.3333333), wk =   0.0625000
        k(   25) = (  -0.1250000  -0.3750000   0.3333333), wk =   0.0625000

     Dense  grid:    47419 G-vectors     FFT dimensions: (  40,  40,  75)

     Smooth grid:    16845 G-vectors     FFT dimensions: (  27,  27,  54)

     Dynamical RAM for                 wfc:       0.87 MB

     Dynamical RAM for     wfc (w. buffer):      44.21 MB

     Dynamical RAM for           str. fact:       2.17 MB

     Dynamical RAM for           local pot:       0.00 MB

     Dynamical RAM for          nlocal pot:       1.35 MB

     Dynamical RAM for                qrad:       5.27 MB

     Dynamical RAM for          rho,v,vnew:       9.83 MB

     Dynamical RAM for               rhoin:       3.28 MB

     Dynamical RAM for            rho*nmix:      23.15 MB

     Dynamical RAM for           G-vectors:       2.84 MB

     Dynamical RAM for          h,s,v(r/c):       0.13 MB

     Dynamical RAM for          <psi|beta>:       0.02 MB

     Dynamical RAM for                 psi:       1.73 MB

     Dynamical RAM for                hpsi:       1.73 MB

     Dynamical RAM for                spsi:       1.73 MB

     Dynamical RAM for      wfcinit/wfcrot:       1.75 MB

     Dynamical RAM for           addusdens:     136.75 MB

     Dynamical RAM for          addusforce:     138.21 MB

     Estimated static dynamical RAM per process >      77.34 MB

     Estimated max dynamical RAM per process >     238.71 MB

     Check: negative core charge=   -0.000009
     Generating pointlists ...
     new r_m :   0.2748 (alat units)  1.4998 (a.u.) for type    1
     new r_m :   0.2748 (alat units)  1.4998 (a.u.) for type    2
     new r_m :   0.3011 (alat units)  1.6433 (a.u.) for type    3

     Initial potential from superposition of free atoms

     starting charge      37.9934, renormalised to      38.0000
     Starting wfcs are   23 randomized atomic wfcs +    4 random wfcs
     Checking if some PAW data can be deallocated... 

     total cpu time spent up to now is        2.9 secs

     Self-consistent Calculation
[tb_dev] Currently allocated     6.54E-01 Mbytes, locked:    0 /   6
[tb_pin] Currently allocated     0.00E+00 Mbytes, locked:    0 /   0

     iteration #  1     ecut=    60.00 Ry     beta= 0.30
     Davidson diagonalization with overlap

---- Real-time Memory Report at c_bands before calling an iterative solver
           652 MiB given to the printing process from OS
             0 MiB allocation reported by mallinfo(arena+hblkhd)
        852564 MiB available memory on the node where the printing process lives
     GPU memory used/free/total (MiB): 924 / 80226 / 81151
------------------
     ethr =  1.00E-02,  avg # of iterations =  9.0

     total cpu time spent up to now is        4.8 secs

     total energy              =    -568.80257250 Ry
     estimated scf accuracy    <       1.43804500 Ry

     total magnetization       =     4.00 Bohr mag/cell
     absolute magnetization    =     4.00 Bohr mag/cell
[tb_dev] Currently allocated     3.05E-05 Mbytes, locked:    0 /   2
[tb_pin] Currently allocated     0.00E+00 Mbytes, locked:    0 /   0

     iteration #  2     ecut=    60.00 Ry     beta= 0.30
     Davidson diagonalization with overlap

---- Real-time Memory Report at c_bands before calling an iterative solver
           695 MiB given to the printing process from OS
             0 MiB allocation reported by mallinfo(arena+hblkhd)
        852410 MiB available memory on the node where the printing process lives
     GPU memory used/free/total (MiB): 936 / 80214 / 81151
------------------
     ethr =  3.78E-03,  avg # of iterations =  2.1

     total cpu time spent up to now is        5.9 secs

     total energy              =    -568.89951263 Ry
     estimated scf accuracy    <       2.45668035 Ry

     total magnetization       =     0.84 Bohr mag/cell
     absolute magnetization    =     1.38 Bohr mag/cell
[tb_dev] Currently allocated     3.05E-05 Mbytes, locked:    0 /   2
[tb_pin] Currently allocated     0.00E+00 Mbytes, locked:    0 /   0

     iteration #  3     ecut=    60.00 Ry     beta= 0.30
     Davidson diagonalization with overlap

---- Real-time Memory Report at c_bands before calling an iterative solver
           697 MiB given to the printing process from OS
             0 MiB allocation reported by mallinfo(arena+hblkhd)
        852401 MiB available memory on the node where the printing process lives
     GPU memory used/free/total (MiB): 936 / 80214 / 81151
------------------
     ethr =  3.78E-03,  avg # of iterations =  1.0

     total cpu time spent up to now is        6.9 secs

     total energy              =    -569.16894176 Ry
     estimated scf accuracy    <       0.18892001 Ry

     total magnetization       =     3.65 Bohr mag/cell
     absolute magnetization    =     3.65 Bohr mag/cell
[tb_dev] Currently allocated     3.05E-05 Mbytes, locked:    0 /   2
[tb_pin] Currently allocated     0.00E+00 Mbytes, locked:    0 /   0

     iteration #  4     ecut=    60.00 Ry     beta= 0.30
     Davidson diagonalization with overlap

---- Real-time Memory Report at c_bands before calling an iterative solver
           698 MiB given to the printing process from OS
             0 MiB allocation reported by mallinfo(arena+hblkhd)
        852387 MiB available memory on the node where the printing process lives
     GPU memory used/free/total (MiB): 936 / 80214 / 81151
------------------
     ethr =  4.97E-04,  avg # of iterations =  3.2

     total cpu time spent up to now is        8.2 secs

     total energy              =    -569.22895695 Ry
     estimated scf accuracy    <       0.11043134 Ry

     total magnetization       =     2.48 Bohr mag/cell
     absolute magnetization    =     2.51 Bohr mag/cell
[tb_dev] Currently allocated     3.05E-05 Mbytes, locked:    0 /   2
[tb_pin] Currently allocated     0.00E+00 Mbytes, locked:    0 /   0

     iteration #  5     ecut=    60.00 Ry     beta= 0.30
     Davidson diagonalization with overlap

---- Real-time Memory Report at c_bands before calling an iterative solver
           699 MiB given to the printing process from OS
             0 MiB allocation reported by mallinfo(arena+hblkhd)
        852365 MiB available memory on the node where the printing process lives
     GPU memory used/free/total (MiB): 936 / 80214 / 81151
------------------
     ethr =  2.91E-04,  avg # of iterations =  2.1

     total cpu time spent up to now is        9.3 secs

     total energy              =    -569.24926440 Ry
     estimated scf accuracy    <       0.11885416 Ry

     total magnetization       =     2.04 Bohr mag/cell
     absolute magnetization    =     2.13 Bohr mag/cell
[tb_dev] Currently allocated     3.05E-05 Mbytes, locked:    0 /   2
[tb_pin] Currently allocated     0.00E+00 Mbytes, locked:    0 /   0

     iteration #  6     ecut=    60.00 Ry     beta= 0.30
     Davidson diagonalization with overlap

---- Real-time Memory Report at c_bands before calling an iterative solver
           700 MiB given to the printing process from OS
             0 MiB allocation reported by mallinfo(arena+hblkhd)
        852390 MiB available memory on the node where the printing process lives
     GPU memory used/free/total (MiB): 936 / 80214 / 81151
------------------
     ethr =  2.91E-04,  avg # of iterations =  1.6

     total cpu time spent up to now is       10.3 secs

     total energy              =    -569.25198133 Ry
     estimated scf accuracy    <       0.08288934 Ry

     total magnetization       =     0.70 Bohr mag/cell
     absolute magnetization    =     1.00 Bohr mag/cell
[tb_dev] Currently allocated     3.05E-05 Mbytes, locked:    0 /   2
[tb_pin] Currently allocated     0.00E+00 Mbytes, locked:    0 /   0

     iteration #  7     ecut=    60.00 Ry     beta= 0.30
     Davidson diagonalization with overlap

---- Real-time Memory Report at c_bands before calling an iterative solver
           702 MiB given to the printing process from OS
             0 MiB allocation reported by mallinfo(arena+hblkhd)
        852381 MiB available memory on the node where the printing process lives
     GPU memory used/free/total (MiB): 936 / 80214 / 81151
------------------
     ethr =  2.18E-04,  avg # of iterations =  1.2

     total cpu time spent up to now is       11.4 secs

     total energy              =    -569.25342669 Ry
     estimated scf accuracy    <       0.08707259 Ry

     total magnetization       =     1.48 Bohr mag/cell
     absolute magnetization    =     1.60 Bohr mag/cell
[tb_dev] Currently allocated     3.05E-05 Mbytes, locked:    0 /   2
[tb_pin] Currently allocated     0.00E+00 Mbytes, locked:    0 /   0

     iteration #  8     ecut=    60.00 Ry     beta= 0.30
     Davidson diagonalization with overlap

---- Real-time Memory Report at c_bands before calling an iterative solver
           703 MiB given to the printing process from OS
             0 MiB allocation reported by mallinfo(arena+hblkhd)
        852364 MiB available memory on the node where the printing process lives
     GPU memory used/free/total (MiB): 936 / 80214 / 81151
------------------
     ethr =  2.18E-04,  avg # of iterations =  1.1

     total cpu time spent up to now is       12.4 secs

     total energy              =    -569.17958215 Ry
     estimated scf accuracy    <       0.07044312 Ry

     total magnetization       =     1.75 Bohr mag/cell
     absolute magnetization    =     1.84 Bohr mag/cell
[tb_dev] Currently allocated     3.05E-05 Mbytes, locked:    0 /   2
[tb_pin] Currently allocated     0.00E+00 Mbytes, locked:    0 /   0

     iteration #  9     ecut=    60.00 Ry     beta= 0.30
     Davidson diagonalization with overlap

---- Real-time Memory Report at c_bands before calling an iterative solver
           705 MiB given to the printing process from OS
             0 MiB allocation reported by mallinfo(arena+hblkhd)
        852356 MiB available memory on the node where the printing process lives
     GPU memory used/free/total (MiB): 936 / 80214 / 81151
------------------
     ethr =  1.85E-04,  avg # of iterations =  1.3

     total cpu time spent up to now is       13.4 secs

     total energy              =    -569.22994395 Ry
     estimated scf accuracy    <       0.07738110 Ry

     total magnetization       =     3.20 Bohr mag/cell
     absolute magnetization    =     3.21 Bohr mag/cell
[tb_dev] Currently allocated     3.05E-05 Mbytes, locked:    0 /   2
[tb_pin] Currently allocated     0.00E+00 Mbytes, locked:    0 /   0

     iteration # 10     ecut=    60.00 Ry     beta= 0.30
     Davidson diagonalization with overlap

---- Real-time Memory Report at c_bands before calling an iterative solver
           706 MiB given to the printing process from OS
             0 MiB allocation reported by mallinfo(arena+hblkhd)
        852340 MiB available memory on the node where the printing process lives
     GPU memory used/free/total (MiB): 936 / 80214 / 81151
------------------
     ethr =  1.85E-04,  avg # of iterations =  1.4

     total cpu time spent up to now is       14.4 secs

     total energy              =    -569.25162262 Ry
     estimated scf accuracy    <       0.07754803 Ry

     total magnetization       =     1.15 Bohr mag/cell
     absolute magnetization    =     1.35 Bohr mag/cell
[tb_dev] Currently allocated     3.05E-05 Mbytes, locked:    0 /   2
[tb_pin] Currently allocated     0.00E+00 Mbytes, locked:    0 /   0

     iteration # 11     ecut=    60.00 Ry     beta= 0.30
     Davidson diagonalization with overlap

---- Real-time Memory Report at c_bands before calling an iterative solver
           706 MiB given to the printing process from OS
             0 MiB allocation reported by mallinfo(arena+hblkhd)
        852314 MiB available memory on the node where the printing process lives
     GPU memory used/free/total (MiB): 936 / 80214 / 81151
------------------
     ethr =  1.85E-04,  avg # of iterations =  1.2

     total cpu time spent up to now is       15.5 secs

     total energy              =    -569.27537543 Ry
     estimated scf accuracy    <       0.04209273 Ry

     total magnetization       =     1.81 Bohr mag/cell
     absolute magnetization    =     1.94 Bohr mag/cell
[tb_dev] Currently allocated     3.05E-05 Mbytes, locked:    0 /   2
[tb_pin] Currently allocated     0.00E+00 Mbytes, locked:    0 /   0

     iteration # 12     ecut=    60.00 Ry     beta= 0.30
     Davidson diagonalization with overlap

---- Real-time Memory Report at c_bands before calling an iterative solver
           706 MiB given to the printing process from OS
             0 MiB allocation reported by mallinfo(arena+hblkhd)
        852304 MiB available memory on the node where the printing process lives
     GPU memory used/free/total (MiB): 936 / 80214 / 81151
------------------
     ethr =  1.11E-04,  avg # of iterations =  1.9

     total cpu time spent up to now is       16.5 secs

     total energy              =    -569.05855910 Ry
     estimated scf accuracy    <       0.08290865 Ry

     total magnetization       =     0.59 Bohr mag/cell
     absolute magnetization    =     1.00 Bohr mag/cell
[tb_dev] Currently allocated     3.05E-05 Mbytes, locked:    0 /   2
[tb_pin] Currently allocated     0.00E+00 Mbytes, locked:    0 /   0

     iteration # 13     ecut=    60.00 Ry     beta= 0.30
     Davidson diagonalization with overlap

---- Real-time Memory Report at c_bands before calling an iterative solver
           706 MiB given to the printing process from OS
             0 MiB allocation reported by mallinfo(arena+hblkhd)
        852298 MiB available memory on the node where the printing process lives
     GPU memory used/free/total (MiB): 936 / 80214 / 81151
------------------
     ethr =  1.11E-04,  avg # of iterations =  6.6

     negative rho (up, down):  9.395E-05 0.000E+00

     total cpu time spent up to now is       18.3 secs

     total energy              =    -569.65093671 Ry
     estimated scf accuracy    <       2.24732613 Ry

     total magnetization       =    -3.81 Bohr mag/cell
     absolute magnetization    =     3.84 Bohr mag/cell
[tb_dev] Currently allocated     3.05E-05 Mbytes, locked:    0 /   2
[tb_pin] Currently allocated     0.00E+00 Mbytes, locked:    0 /   0

     iteration # 14     ecut=    60.00 Ry     beta= 0.30
     Davidson diagonalization with overlap

---- Real-time Memory Report at c_bands before calling an iterative solver
           706 MiB given to the printing process from OS
             0 MiB allocation reported by mallinfo(arena+hblkhd)
        852272 MiB available memory on the node where the printing process lives
     GPU memory used/free/total (MiB): 936 / 80214 / 81151
------------------
     ethr =  1.11E-04,  avg # of iterations =  1.9

     negative rho (up, down):  3.274E-04 0.000E+00

     total cpu time spent up to now is       19.3 secs

     total energy              =    -569.68879100 Ry
     estimated scf accuracy    <       3.03496228 Ry

     total magnetization       =    -4.28 Bohr mag/cell
     absolute magnetization    =     4.33 Bohr mag/cell
[tb_dev] Currently allocated     3.05E-05 Mbytes, locked:    0 /   2
[tb_pin] Currently allocated     0.00E+00 Mbytes, locked:    0 /   0

     iteration # 15     ecut=    60.00 Ry     beta= 0.30
     Davidson diagonalization with overlap

---- Real-time Memory Report at c_bands before calling an iterative solver
           706 MiB given to the printing process from OS
             0 MiB allocation reported by mallinfo(arena+hblkhd)
        852257 MiB available memory on the node where the printing process lives
     GPU memory used/free/total (MiB): 936 / 80214 / 81151
------------------
     ethr =  1.11E-04,  avg # of iterations =  1.7

     total cpu time spent up to now is       20.4 secs

     total energy              =    -569.63862353 Ry
     estimated scf accuracy    <       3.63991445 Ry

     total magnetization       =    -4.40 Bohr mag/cell
     absolute magnetization    =     4.51 Bohr mag/cell
[tb_dev] Currently allocated     3.05E-05 Mbytes, locked:    0 /   2
[tb_pin] Currently allocated     0.00E+00 Mbytes, locked:    0 /   0

     iteration # 16     ecut=    60.00 Ry     beta= 0.30
     Davidson diagonalization with overlap

---- Real-time Memory Report at c_bands before calling an iterative solver
           706 MiB given to the printing process from OS
             0 MiB allocation reported by mallinfo(arena+hblkhd)
        852248 MiB available memory on the node where the printing process lives
     GPU memory used/free/total (MiB): 936 / 80214 / 81151
------------------
     ethr =  1.11E-04,  avg # of iterations =  1.2

     total cpu time spent up to now is       21.3 secs

     total energy              =    -569.42033949 Ry
     estimated scf accuracy    <       2.67104893 Ry

     total magnetization       =    -4.23 Bohr mag/cell
     absolute magnetization    =     4.26 Bohr mag/cell
[tb_dev] Currently allocated     3.05E-05 Mbytes, locked:    0 /   2
[tb_pin] Currently allocated     0.00E+00 Mbytes, locked:    0 /   0

     iteration # 17     ecut=    60.00 Ry     beta= 0.30
     Davidson diagonalization with overlap

---- Real-time Memory Report at c_bands before calling an iterative solver
           706 MiB given to the printing process from OS
             0 MiB allocation reported by mallinfo(arena+hblkhd)
        852268 MiB available memory on the node where the printing process lives
     GPU memory used/free/total (MiB): 936 / 80214 / 81151
------------------
     ethr =  1.11E-04,  avg # of iterations =  3.0

     total cpu time spent up to now is       22.6 secs

     total energy              =    -569.30616281 Ry
     estimated scf accuracy    <       1.45513782 Ry

     total magnetization       =    -3.61 Bohr mag/cell
     absolute magnetization    =     3.64 Bohr mag/cell
[tb_dev] Currently allocated     3.05E-05 Mbytes, locked:    0 /   2
[tb_pin] Currently allocated     0.00E+00 Mbytes, locked:    0 /   0

     iteration # 18     ecut=    60.00 Ry     beta= 0.30
     Davidson diagonalization with overlap

---- Real-time Memory Report at c_bands before calling an iterative solver
           706 MiB given to the printing process from OS
             0 MiB allocation reported by mallinfo(arena+hblkhd)
        852268 MiB available memory on the node where the printing process lives
     GPU memory used/free/total (MiB): 936 / 80214 / 81151
------------------
     ethr =  1.11E-04,  avg # of iterations =  3.1

     total cpu time spent up to now is       23.7 secs

     total energy              =    -568.83610742 Ry
     estimated scf accuracy    <       0.64917160 Ry

     total magnetization       =    -0.76 Bohr mag/cell
     absolute magnetization    =     0.92 Bohr mag/cell
[tb_dev] Currently allocated     3.05E-05 Mbytes, locked:    0 /   2
[tb_pin] Currently allocated     0.00E+00 Mbytes, locked:    0 /   0

     iteration # 19     ecut=    60.00 Ry     beta= 0.30
     Davidson diagonalization with overlap

---- Real-time Memory Report at c_bands before calling an iterative solver
           706 MiB given to the printing process from OS
             0 MiB allocation reported by mallinfo(arena+hblkhd)
        852253 MiB available memory on the node where the printing process lives
     GPU memory used/free/total (MiB): 936 / 80214 / 81151
------------------
     ethr =  1.11E-04,  avg # of iterations =  7.3

     total cpu time spent up to now is       25.7 secs

     total energy              =    -569.24944910 Ry
     estimated scf accuracy    <       0.21078189 Ry

     total magnetization       =     2.01 Bohr mag/cell
     absolute magnetization    =     2.12 Bohr mag/cell
[tb_dev] Currently allocated     3.05E-05 Mbytes, locked:    0 /   2
[tb_pin] Currently allocated     0.00E+00 Mbytes, locked:    0 /   0

     iteration # 20     ecut=    60.00 Ry     beta= 0.30
     Davidson diagonalization with overlap

---- Real-time Memory Report at c_bands before calling an iterative solver
           706 MiB given to the printing process from OS
             0 MiB allocation reported by mallinfo(arena+hblkhd)
        852241 MiB available memory on the node where the printing process lives
     GPU memory used/free/total (MiB): 936 / 80214 / 81151
------------------
     ethr =  1.11E-04,  avg # of iterations =  1.1

     total cpu time spent up to now is       26.7 secs

     total energy              =    -569.26366881 Ry
     estimated scf accuracy    <       0.18009498 Ry

     total magnetization       =     1.88 Bohr mag/cell
     absolute magnetization    =     2.00 Bohr mag/cell
[tb_dev] Currently allocated     3.05E-05 Mbytes, locked:    0 /   2
[tb_pin] Currently allocated     0.00E+00 Mbytes, locked:    0 /   0

     iteration # 21     ecut=    60.00 Ry     beta= 0.30
     Davidson diagonalization with overlap

---- Real-time Memory Report at c_bands before calling an iterative solver
           706 MiB given to the printing process from OS
             0 MiB allocation reported by mallinfo(arena+hblkhd)
        852263 MiB available memory on the node where the printing process lives
     GPU memory used/free/total (MiB): 936 / 80214 / 81151
------------------
     ethr =  1.11E-04,  avg # of iterations =  1.6

     total cpu time spent up to now is       27.7 secs

     total energy              =    -569.25209057 Ry
     estimated scf accuracy    <       0.15792925 Ry

     total magnetization       =     0.20 Bohr mag/cell
     absolute magnetization    =     0.83 Bohr mag/cell
[tb_dev] Currently allocated     3.05E-05 Mbytes, locked:    0 /   2
[tb_pin] Currently allocated     0.00E+00 Mbytes, locked:    0 /   0

     iteration # 22     ecut=    60.00 Ry     beta= 0.30
     Davidson diagonalization with overlap

---- Real-time Memory Report at c_bands before calling an iterative solver
           706 MiB given to the printing process from OS
             0 MiB allocation reported by mallinfo(arena+hblkhd)
        852264 MiB available memory on the node where the printing process lives
     GPU memory used/free/total (MiB): 936 / 80214 / 81151
------------------
     ethr =  1.11E-04,  avg # of iterations =  3.9

     total cpu time spent up to now is       29.0 secs

     total energy              =    -569.33557899 Ry
     estimated scf accuracy    <       0.19513218 Ry

     total magnetization       =    -0.01 Bohr mag/cell
     absolute magnetization    =     0.17 Bohr mag/cell
[tb_dev] Currently allocated     3.05E-05 Mbytes, locked:    0 /   2
[tb_pin] Currently allocated     0.00E+00 Mbytes, locked:    0 /   0

     iteration # 23     ecut=    60.00 Ry     beta= 0.30
     Davidson diagonalization with overlap

---- Real-time Memory Report at c_bands before calling an iterative solver
           706 MiB given to the printing process from OS
             0 MiB allocation reported by mallinfo(arena+hblkhd)
        852265 MiB available memory on the node where the printing process lives
     GPU memory used/free/total (MiB): 936 / 80214 / 81151
------------------
     ethr =  1.11E-04,  avg # of iterations =  1.0

     total cpu time spent up to now is       30.0 secs

     WARNING: integrated charge=    38.00145376, expected=    38.00000000

     total energy              =    -569.31002599 Ry
     estimated scf accuracy    <       0.07924855 Ry

     total magnetization       =     0.01 Bohr mag/cell
     absolute magnetization    =     0.18 Bohr mag/cell
[tb_dev] Currently allocated     3.05E-05 Mbytes, locked:    0 /   2
[tb_pin] Currently allocated     0.00E+00 Mbytes, locked:    0 /   0

     iteration # 24     ecut=    60.00 Ry     beta= 0.30
     Davidson diagonalization with overlap

---- Real-time Memory Report at c_bands before calling an iterative solver
           706 MiB given to the printing process from OS
             0 MiB allocation reported by mallinfo(arena+hblkhd)
        852263 MiB available memory on the node where the printing process lives
     GPU memory used/free/total (MiB): 936 / 80214 / 81151
------------------
     ethr =  1.11E-04,  avg # of iterations =  1.6
     Minimization algorithm failed to find Fermi energy: reverting to bisection
     Possible cause: smearing is larger than the electronic band-gap.

     total cpu time spent up to now is       31.0 secs

     WARNING: integrated charge=    38.00106698, expected=    38.00000000

     total energy              =    -569.31521338 Ry
     estimated scf accuracy    <       0.04019413 Ry

     total magnetization       =     0.03 Bohr mag/cell
     absolute magnetization    =     0.39 Bohr mag/cell
[tb_dev] Currently allocated     3.05E-05 Mbytes, locked:    0 /   2
[tb_pin] Currently allocated     0.00E+00 Mbytes, locked:    0 /   0

     iteration # 25     ecut=    60.00 Ry     beta= 0.30
     Davidson diagonalization with overlap

---- Real-time Memory Report at c_bands before calling an iterative solver
           706 MiB given to the printing process from OS
             0 MiB allocation reported by mallinfo(arena+hblkhd)
        852268 MiB available memory on the node where the printing process lives
     GPU memory used/free/total (MiB): 936 / 80214 / 81151
------------------
     ethr =  1.06E-04,  avg # of iterations =  1.0

     total cpu time spent up to now is       32.0 secs

     WARNING: integrated charge=    37.98743371, expected=    38.00000000

     total energy              =    -569.29336454 Ry
     estimated scf accuracy    <       0.05002795 Ry

     total magnetization       =     0.01 Bohr mag/cell
     absolute magnetization    =     0.45 Bohr mag/cell
[tb_dev] Currently allocated     3.05E-05 Mbytes, locked:    0 /   2
[tb_pin] Currently allocated     0.00E+00 Mbytes, locked:    0 /   0

     iteration # 26     ecut=    60.00 Ry     beta= 0.30
     Davidson diagonalization with overlap

---- Real-time Memory Report at c_bands before calling an iterative solver
           706 MiB given to the printing process from OS
             0 MiB allocation reported by mallinfo(arena+hblkhd)
        852270 MiB available memory on the node where the printing process lives
     GPU memory used/free/total (MiB): 936 / 80214 / 81151
------------------
     ethr =  1.06E-04,  avg # of iterations =  1.2

     total cpu time spent up to now is       33.0 secs

     WARNING: integrated charge=    37.99242960, expected=    38.00000000

     total energy              =    -569.31780069 Ry
     estimated scf accuracy    <       0.07531599 Ry

     total magnetization       =     0.10 Bohr mag/cell
     absolute magnetization    =     0.53 Bohr mag/cell
[tb_dev] Currently allocated     3.05E-05 Mbytes, locked:    0 /   2
[tb_pin] Currently allocated     0.00E+00 Mbytes, locked:    0 /   0

     iteration # 27     ecut=    60.00 Ry     beta= 0.30
     Davidson diagonalization with overlap

---- Real-time Memory Report at c_bands before calling an iterative solver
           706 MiB given to the printing process from OS
             0 MiB allocation reported by mallinfo(arena+hblkhd)
        852267 MiB available memory on the node where the printing process lives
     GPU memory used/free/total (MiB): 936 / 80214 / 81151
------------------
     ethr =  1.06E-04,  avg # of iterations =  1.1
     Minimization algorithm failed to find Fermi energy: reverting to bisection
     Possible cause: smearing is larger than the electronic band-gap.

     total cpu time spent up to now is       34.0 secs

     WARNING: integrated charge=    37.99410335, expected=    38.00000000

     total energy              =    -569.17225416 Ry
     estimated scf accuracy    <       0.01958047 Ry

     total magnetization       =     0.06 Bohr mag/cell
     absolute magnetization    =     0.31 Bohr mag/cell
[tb_dev] Currently allocated     3.05E-05 Mbytes, locked:    0 /   2
[tb_pin] Currently allocated     0.00E+00 Mbytes, locked:    0 /   0

     iteration # 28     ecut=    60.00 Ry     beta= 0.30
     Davidson diagonalization with overlap

---- Real-time Memory Report at c_bands before calling an iterative solver
           706 MiB given to the printing process from OS
             0 MiB allocation reported by mallinfo(arena+hblkhd)
        852269 MiB available memory on the node where the printing process lives
     GPU memory used/free/total (MiB): 936 / 80214 / 81151
------------------
     ethr =  5.15E-05,  avg # of iterations =  3.6

     total cpu time spent up to now is       35.3 secs

     WARNING: integrated charge=    37.99956323, expected=    38.00000000

     total energy              =    -569.25945531 Ry
     estimated scf accuracy    <       0.11664575 Ry

     total magnetization       =     2.00 Bohr mag/cell
     absolute magnetization    =     2.06 Bohr mag/cell
[tb_dev] Currently allocated     3.05E-05 Mbytes, locked:    0 /   2
[tb_pin] Currently allocated     0.00E+00 Mbytes, locked:    0 /   0

     iteration # 29     ecut=    60.00 Ry     beta= 0.30
     Davidson diagonalization with overlap

---- Real-time Memory Report at c_bands before calling an iterative solver
           706 MiB given to the printing process from OS
             0 MiB allocation reported by mallinfo(arena+hblkhd)
        852272 MiB available memory on the node where the printing process lives
     GPU memory used/free/total (MiB): 936 / 80214 / 81151
------------------
     ethr =  5.15E-05,  avg # of iterations =  1.6

     total cpu time spent up to now is       36.3 secs

     WARNING: integrated charge=    37.99792018, expected=    38.00000000

     total energy              =    -569.29527052 Ry
     estimated scf accuracy    <       0.13113471 Ry

     total magnetization       =     0.56 Bohr mag/cell
     absolute magnetization    =     0.88 Bohr mag/cell
[tb_dev] Currently allocated     3.05E-05 Mbytes, locked:    0 /   2
[tb_pin] Currently allocated     0.00E+00 Mbytes, locked:    0 /   0

     iteration # 30     ecut=    60.00 Ry     beta= 0.30
     Davidson diagonalization with overlap

---- Real-time Memory Report at c_bands before calling an iterative solver
           706 MiB given to the printing process from OS
             0 MiB allocation reported by mallinfo(arena+hblkhd)
        852273 MiB available memory on the node where the printing process lives
     GPU memory used/free/total (MiB): 936 / 80214 / 81151
------------------
     ethr =  5.15E-05,  avg # of iterations =  1.5

     total cpu time spent up to now is       37.3 secs

     WARNING: integrated charge=    37.99977899, expected=    38.00000000

     total energy              =    -569.30279512 Ry
     estimated scf accuracy    <       0.11466260 Ry

     total magnetization       =     0.17 Bohr mag/cell
     absolute magnetization    =     0.62 Bohr mag/cell
[tb_dev] Currently allocated     3.05E-05 Mbytes, locked:    0 /   2
[tb_pin] Currently allocated     0.00E+00 Mbytes, locked:    0 /   0

     iteration # 31     ecut=    60.00 Ry     beta= 0.30
     Davidson diagonalization with overlap

---- Real-time Memory Report at c_bands before calling an iterative solver
           706 MiB given to the printing process from OS
             0 MiB allocation reported by mallinfo(arena+hblkhd)
        852278 MiB available memory on the node where the printing process lives
     GPU memory used/free/total (MiB): 936 / 80214 / 81151
------------------
     ethr =  5.15E-05,  avg # of iterations =  1.4

     total cpu time spent up to now is       38.4 secs

     WARNING: integrated charge=    38.00256362, expected=    38.00000000

     total energy              =    -569.27109836 Ry
     estimated scf accuracy    <       0.08816157 Ry

     total magnetization       =     0.11 Bohr mag/cell
     absolute magnetization    =     0.56 Bohr mag/cell
[tb_dev] Currently allocated     3.05E-05 Mbytes, locked:    0 /   2
[tb_pin] Currently allocated     0.00E+00 Mbytes, locked:    0 /   0

     iteration # 32     ecut=    60.00 Ry     beta= 0.30
     Davidson diagonalization with overlap

---- Real-time Memory Report at c_bands before calling an iterative solver
           706 MiB given to the printing process from OS
             0 MiB allocation reported by mallinfo(arena+hblkhd)
        852278 MiB available memory on the node where the printing process lives
     GPU memory used/free/total (MiB): 936 / 80214 / 81151
------------------
     ethr =  5.15E-05,  avg # of iterations =  1.1

     total cpu time spent up to now is       39.4 secs

     WARNING: integrated charge=    38.00615186, expected=    38.00000000

     total energy              =    -569.20257253 Ry
     estimated scf accuracy    <       0.13590097 Ry

     total magnetization       =     0.70 Bohr mag/cell
     absolute magnetization    =     0.97 Bohr mag/cell
[tb_dev] Currently allocated     3.05E-05 Mbytes, locked:    0 /   2
[tb_pin] Currently allocated     0.00E+00 Mbytes, locked:    0 /   0

     iteration # 33     ecut=    60.00 Ry     beta= 0.30
     Davidson diagonalization with overlap

---- Real-time Memory Report at c_bands before calling an iterative solver
           706 MiB given to the printing process from OS
             0 MiB allocation reported by mallinfo(arena+hblkhd)
        852278 MiB available memory on the node where the printing process lives
     GPU memory used/free/total (MiB): 936 / 80214 / 81151
------------------
     ethr =  5.15E-05,  avg # of iterations =  2.0

     total cpu time spent up to now is       40.4 secs

     WARNING: integrated charge=    38.00484038, expected=    38.00000000

     total energy              =    -569.24891742 Ry
     estimated scf accuracy    <       0.05412599 Ry

     total magnetization       =     2.53 Bohr mag/cell
     absolute magnetization    =     2.57 Bohr mag/cell
[tb_dev] Currently allocated     3.05E-05 Mbytes, locked:    0 /   2
[tb_pin] Currently allocated     0.00E+00 Mbytes, locked:    0 /   0

     iteration # 34     ecut=    60.00 Ry     beta= 0.30
     Davidson diagonalization with overlap

---- Real-time Memory Report at c_bands before calling an iterative solver
           706 MiB given to the printing process from OS
             0 MiB allocation reported by mallinfo(arena+hblkhd)
        852273 MiB available memory on the node where the printing process lives
     GPU memory used/free/total (MiB): 936 / 80214 / 81151
------------------
     ethr =  5.15E-05,  avg # of iterations =  1.2

     total cpu time spent up to now is       41.4 secs

     WARNING: integrated charge=    38.00229345, expected=    38.00000000

     total energy              =    -569.26426618 Ry
     estimated scf accuracy    <       0.06195239 Ry

     total magnetization       =     1.52 Bohr mag/cell
     absolute magnetization    =     1.65 Bohr mag/cell
[tb_dev] Currently allocated     3.05E-05 Mbytes, locked:    0 /   2
[tb_pin] Currently allocated     0.00E+00 Mbytes, locked:    0 /   0

     iteration # 35     ecut=    60.00 Ry     beta= 0.30
     Davidson diagonalization with overlap

---- Real-time Memory Report at c_bands before calling an iterative solver
           706 MiB given to the printing process from OS
             0 MiB allocation reported by mallinfo(arena+hblkhd)
        852275 MiB available memory on the node where the printing process lives
     GPU memory used/free/total (MiB): 936 / 80214 / 81151
------------------
     ethr =  5.15E-05,  avg # of iterations =  1.0

     total cpu time spent up to now is       42.4 secs

     WARNING: integrated charge=    37.99656171, expected=    38.00000000

     total energy              =    -569.27356390 Ry
     estimated scf accuracy    <       0.11946936 Ry

     total magnetization       =     1.10 Bohr mag/cell
     absolute magnetization    =     1.28 Bohr mag/cell
[tb_dev] Currently allocated     3.05E-05 Mbytes, locked:    0 /   2
[tb_pin] Currently allocated     0.00E+00 Mbytes, locked:    0 /   0

     iteration # 36     ecut=    60.00 Ry     beta= 0.30
     Davidson diagonalization with overlap

---- Real-time Memory Report at c_bands before calling an iterative solver
           706 MiB given to the printing process from OS
             0 MiB allocation reported by mallinfo(arena+hblkhd)
        852227 MiB available memory on the node where the printing process lives
     GPU memory used/free/total (MiB): 936 / 80214 / 81151
------------------
     ethr =  5.15E-05,  avg # of iterations =  1.0

     total cpu time spent up to now is       43.4 secs

     WARNING: integrated charge=    37.98732991, expected=    38.00000000

     total energy              =    -568.81265664 Ry
     estimated scf accuracy    <       0.08862964 Ry

     total magnetization       =     0.56 Bohr mag/cell
     absolute magnetization    =     0.90 Bohr mag/cell
[tb_dev] Currently allocated     3.05E-05 Mbytes, locked:    0 /   2
[tb_pin] Currently allocated     0.00E+00 Mbytes, locked:    0 /   0

     iteration # 37     ecut=    60.00 Ry     beta= 0.30
     Davidson diagonalization with overlap

---- Real-time Memory Report at c_bands before calling an iterative solver
           706 MiB given to the printing process from OS
             0 MiB allocation reported by mallinfo(arena+hblkhd)
        852649 MiB available memory on the node where the printing process lives
     GPU memory used/free/total (MiB): 936 / 80214 / 81151
------------------
     c_bands:  1 eigenvalues not converged
     ethr =  5.15E-05,  avg # of iterations =  8.3

     negative rho (up, down):  1.942E-01 0.000E+00

     total cpu time spent up to now is       45.4 secs

     WARNING: integrated charge=    37.98756112, expected=    38.00000000

     total energy              =    -568.54990780 Ry
     estimated scf accuracy    <       1.98934312 Ry

     total magnetization       =    -4.14 Bohr mag/cell
     absolute magnetization    =     4.17 Bohr mag/cell
[tb_dev] Currently allocated     3.05E-05 Mbytes, locked:    0 /   2
[tb_pin] Currently allocated     0.00E+00 Mbytes, locked:    0 /   0

     iteration # 38     ecut=    60.00 Ry     beta= 0.30
     Davidson diagonalization with overlap

---- Real-time Memory Report at c_bands before calling an iterative solver
           706 MiB given to the printing process from OS
             0 MiB allocation reported by mallinfo(arena+hblkhd)
        852416 MiB available memory on the node where the printing process lives
     GPU memory used/free/total (MiB): 936 / 80214 / 81151
------------------
     ethr =  5.15E-05,  avg # of iterations =  8.4

     total cpu time spent up to now is       47.3 secs

     WARNING: integrated charge=    37.99860162, expected=    38.00000000

     total energy              =    -567.65044290 Ry
     estimated scf accuracy    <       6.24904694 Ry

     total magnetization       =    -5.02 Bohr mag/cell
     absolute magnetization    =     5.09 Bohr mag/cell
[tb_dev] Currently allocated     3.05E-05 Mbytes, locked:    0 /   2
[tb_pin] Currently allocated     0.00E+00 Mbytes, locked:    0 /   0

     iteration # 39     ecut=    60.00 Ry     beta= 0.30
     Davidson diagonalization with overlap

---- Real-time Memory Report at c_bands before calling an iterative solver
           706 MiB given to the printing process from OS
             0 MiB allocation reported by mallinfo(arena+hblkhd)
        852197 MiB available memory on the node where the printing process lives
     GPU memory used/free/total (MiB): 936 / 80214 / 81151
------------------
     c_bands:  1 eigenvalues not converged
     c_bands:  1 eigenvalues not converged
     c_bands:  1 eigenvalues not converged
     c_bands:  1 eigenvalues not converged
     ethr =  5.15E-05,  avg # of iterations = 11.5

     total cpu time spent up to now is       49.7 secs

     WARNING: integrated charge=    38.00199887, expected=    38.00000000

     total energy              =    -569.27209280 Ry
     estimated scf accuracy    <       0.17779510 Ry

     total magnetization       =     0.79 Bohr mag/cell
     absolute magnetization    =     1.06 Bohr mag/cell
[tb_dev] Currently allocated     3.05E-05 Mbytes, locked:    0 /   2
[tb_pin] Currently allocated     0.00E+00 Mbytes, locked:    0 /   0

     iteration # 40     ecut=    60.00 Ry     beta= 0.30
     Davidson diagonalization with overlap

---- Real-time Memory Report at c_bands before calling an iterative solver
           706 MiB given to the printing process from OS
             0 MiB allocation reported by mallinfo(arena+hblkhd)
        852160 MiB available memory on the node where the printing process lives
     GPU memory used/free/total (MiB): 936 / 80214 / 81151
------------------
     ethr =  5.15E-05,  avg # of iterations =  1.6

     total cpu time spent up to now is       50.8 secs

     WARNING: integrated charge=    38.00169286, expected=    38.00000000

     total energy              =    -569.29349136 Ry
     estimated scf accuracy    <       0.18662876 Ry

     total magnetization       =     0.91 Bohr mag/cell
     absolute magnetization    =     1.16 Bohr mag/cell
[tb_dev] Currently allocated     3.05E-05 Mbytes, locked:    0 /   2
[tb_pin] Currently allocated     0.00E+00 Mbytes, locked:    0 /   0

     iteration # 41     ecut=    60.00 Ry     beta= 0.30
     Davidson diagonalization with overlap

---- Real-time Memory Report at c_bands before calling an iterative solver
           706 MiB given to the printing process from OS
             0 MiB allocation reported by mallinfo(arena+hblkhd)
        852141 MiB available memory on the node where the printing process lives
     GPU memory used/free/total (MiB): 936 / 80214 / 81151
------------------
     ethr =  5.15E-05,  avg # of iterations =  1.8

     total cpu time spent up to now is       51.8 secs

     WARNING: integrated charge=    38.00133061, expected=    38.00000000

     total energy              =    -569.32861752 Ry
     estimated scf accuracy    <       0.08410724 Ry

     total magnetization       =     0.01 Bohr mag/cell
     absolute magnetization    =     0.45 Bohr mag/cell
[tb_dev] Currently allocated     3.05E-05 Mbytes, locked:    0 /   2
[tb_pin] Currently allocated     0.00E+00 Mbytes, locked:    0 /   0

     iteration # 42     ecut=    60.00 Ry     beta= 0.30
     Davidson diagonalization with overlap

---- Real-time Memory Report at c_bands before calling an iterative solver
           706 MiB given to the printing process from OS
             0 MiB allocation reported by mallinfo(arena+hblkhd)
        852122 MiB available memory on the node where the printing process lives
     GPU memory used/free/total (MiB): 936 / 80214 / 81151
------------------
     ethr =  5.15E-05,  avg # of iterations =  1.5
     Minimization algorithm failed to find Fermi energy: reverting to bisection
     Possible cause: smearing is larger than the electronic band-gap.

     total cpu time spent up to now is       52.9 secs

     WARNING: integrated charge=    38.00095634, expected=    38.00000000

     total energy              =    -569.32338257 Ry
     estimated scf accuracy    <       0.04536469 Ry

     total magnetization       =     0.03 Bohr mag/cell
     absolute magnetization    =     0.34 Bohr mag/cell
[tb_dev] Currently allocated     3.05E-05 Mbytes, locked:    0 /   2
[tb_pin] Currently allocated     0.00E+00 Mbytes, locked:    0 /   0

     iteration # 43     ecut=    60.00 Ry     beta= 0.30
     Davidson diagonalization with overlap

---- Real-time Memory Report at c_bands before calling an iterative solver
           706 MiB given to the printing process from OS
             0 MiB allocation reported by mallinfo(arena+hblkhd)
        852117 MiB available memory on the node where the printing process lives
     GPU memory used/free/total (MiB): 936 / 80214 / 81151
------------------
     ethr =  5.15E-05,  avg # of iterations =  1.1
     Minimization algorithm failed to find Fermi energy: reverting to bisection
     Possible cause: smearing is larger than the electronic band-gap.

     total cpu time spent up to now is       53.8 secs

     WARNING: integrated charge=    37.99888265, expected=    38.00000000

     total energy              =    -569.33074165 Ry
     estimated scf accuracy    <       0.05606215 Ry

     total magnetization       =     0.00 Bohr mag/cell
     absolute magnetization    =     0.38 Bohr mag/cell
[tb_dev] Currently allocated     3.05E-05 Mbytes, locked:    0 /   2
[tb_pin] Currently allocated     0.00E+00 Mbytes, locked:    0 /   0

     iteration # 44     ecut=    60.00 Ry     beta= 0.30
     Davidson diagonalization with overlap

---- Real-time Memory Report at c_bands before calling an iterative solver
           706 MiB given to the printing process from OS
             0 MiB allocation reported by mallinfo(arena+hblkhd)
        852122 MiB available memory on the node where the printing process lives
     GPU memory used/free/total (MiB): 936 / 80214 / 81151
------------------
     ethr =  5.15E-05,  avg # of iterations =  1.5

     total cpu time spent up to now is       54.9 secs

     WARNING: integrated charge=    38.00026743, expected=    38.00000000

     total energy              =    -569.32741628 Ry
     estimated scf accuracy    <       0.00948623 Ry

     total magnetization       =     0.00 Bohr mag/cell
     absolute magnetization    =     0.17 Bohr mag/cell
[tb_dev] Currently allocated     3.05E-05 Mbytes, locked:    0 /   2
[tb_pin] Currently allocated     0.00E+00 Mbytes, locked:    0 /   0

     iteration # 45     ecut=    60.00 Ry     beta= 0.30
     Davidson diagonalization with overlap

---- Real-time Memory Report at c_bands before calling an iterative solver
           706 MiB given to the printing process from OS
             0 MiB allocation reported by mallinfo(arena+hblkhd)
        852116 MiB available memory on the node where the printing process lives
     GPU memory used/free/total (MiB): 936 / 80214 / 81151
------------------
     ethr =  2.50E-05,  avg # of iterations =  1.4
     Minimization algorithm failed to find Fermi energy: reverting to bisection
     Possible cause: smearing is larger than the electronic band-gap.

     total cpu time spent up to now is       55.9 secs

     WARNING: integrated charge=    38.00135071, expected=    38.00000000

     total energy              =    -569.33299576 Ry
     estimated scf accuracy    <       0.00998082 Ry

     total magnetization       =     0.08 Bohr mag/cell
     absolute magnetization    =     0.21 Bohr mag/cell
[tb_dev] Currently allocated     3.05E-05 Mbytes, locked:    0 /   2
[tb_pin] Currently allocated     0.00E+00 Mbytes, locked:    0 /   0

     iteration # 46     ecut=    60.00 Ry     beta= 0.30
     Davidson diagonalization with overlap

---- Real-time Memory Report at c_bands before calling an iterative solver
           706 MiB given to the printing process from OS
             0 MiB allocation reported by mallinfo(arena+hblkhd)
        852110 MiB available memory on the node where the printing process lives
     GPU memory used/free/total (MiB): 936 / 80214 / 81151
------------------
     ethr =  2.50E-05,  avg # of iterations =  1.1

     total cpu time spent up to now is       56.9 secs

     WARNING: integrated charge=    38.00421446, expected=    38.00000000

     total energy              =    -569.32921457 Ry
     estimated scf accuracy    <       0.00756022 Ry

     total magnetization       =     0.00 Bohr mag/cell
     absolute magnetization    =     0.13 Bohr mag/cell
[tb_dev] Currently allocated     3.05E-05 Mbytes, locked:    0 /   2
[tb_pin] Currently allocated     0.00E+00 Mbytes, locked:    0 /   0

     iteration # 47     ecut=    60.00 Ry     beta= 0.30
     Davidson diagonalization with overlap

---- Real-time Memory Report at c_bands before calling an iterative solver
           706 MiB given to the printing process from OS
             0 MiB allocation reported by mallinfo(arena+hblkhd)
        852119 MiB available memory on the node where the printing process lives
     GPU memory used/free/total (MiB): 936 / 80214 / 81151
------------------
     ethr =  1.99E-05,  avg # of iterations =  1.2

     total cpu time spent up to now is       57.8 secs

     WARNING: integrated charge=    37.99946909, expected=    38.00000000

     total energy              =    -569.33165146 Ry
     estimated scf accuracy    <       0.00427847 Ry

     total magnetization       =    -0.00 Bohr mag/cell
     absolute magnetization    =     0.06 Bohr mag/cell
[tb_dev] Currently allocated     3.05E-05 Mbytes, locked:    0 /   2
[tb_pin] Currently allocated     0.00E+00 Mbytes, locked:    0 /   0

     iteration # 48     ecut=    60.00 Ry     beta= 0.30
     Davidson diagonalization with overlap

---- Real-time Memory Report at c_bands before calling an iterative solver
           706 MiB given to the printing process from OS
             0 MiB allocation reported by mallinfo(arena+hblkhd)
        852687 MiB available memory on the node where the printing process lives
     GPU memory used/free/total (MiB): 936 / 80214 / 81151
------------------
     ethr =  1.13E-05,  avg # of iterations =  2.9

     total cpu time spent up to now is       59.0 secs

     WARNING: integrated charge=    37.99943092, expected=    38.00000000

     total energy              =    -569.32845155 Ry
     estimated scf accuracy    <       0.00289515 Ry

     total magnetization       =    -0.00 Bohr mag/cell
     absolute magnetization    =     0.08 Bohr mag/cell
[tb_dev] Currently allocated     3.05E-05 Mbytes, locked:    0 /   2
[tb_pin] Currently allocated     0.00E+00 Mbytes, locked:    0 /   0

     iteration # 49     ecut=    60.00 Ry     beta= 0.30
     Davidson diagonalization with overlap

---- Real-time Memory Report at c_bands before calling an iterative solver
           706 MiB given to the printing process from OS
             0 MiB allocation reported by mallinfo(arena+hblkhd)
        852391 MiB available memory on the node where the printing process lives
     GPU memory used/free/total (MiB): 936 / 80214 / 81151
------------------
     ethr =  7.62E-06,  avg # of iterations =  1.7
     Minimization algorithm failed to find Fermi energy: reverting to bisection
     Possible cause: smearing is larger than the electronic band-gap.

     total cpu time spent up to now is       60.1 secs

     WARNING: integrated charge=    38.00036664, expected=    38.00000000

     total energy              =    -569.33337270 Ry
     estimated scf accuracy    <       0.00289163 Ry

     total magnetization       =     0.11 Bohr mag/cell
     absolute magnetization    =     0.16 Bohr mag/cell
[tb_dev] Currently allocated     3.05E-05 Mbytes, locked:    0 /   2
[tb_pin] Currently allocated     0.00E+00 Mbytes, locked:    0 /   0

     iteration # 50     ecut=    60.00 Ry     beta= 0.30
     Davidson diagonalization with overlap

---- Real-time Memory Report at c_bands before calling an iterative solver
           706 MiB given to the printing process from OS
             0 MiB allocation reported by mallinfo(arena+hblkhd)
        852292 MiB available memory on the node where the printing process lives
     GPU memory used/free/total (MiB): 936 / 80214 / 81151
------------------
     ethr =  7.61E-06,  avg # of iterations =  1.4

     total cpu time spent up to now is       61.1 secs

     WARNING: integrated charge=    38.00068654, expected=    38.00000000

     total energy              =    -569.33266136 Ry
     estimated scf accuracy    <       0.00038342 Ry

     total magnetization       =    -0.00 Bohr mag/cell
     absolute magnetization    =     0.02 Bohr mag/cell
[tb_dev] Currently allocated     3.05E-05 Mbytes, locked:    0 /   2
[tb_pin] Currently allocated     0.00E+00 Mbytes, locked:    0 /   0

     iteration # 51     ecut=    60.00 Ry     beta= 0.30
     Davidson diagonalization with overlap

---- Real-time Memory Report at c_bands before calling an iterative solver
           706 MiB given to the printing process from OS
             0 MiB allocation reported by mallinfo(arena+hblkhd)
        852263 MiB available memory on the node where the printing process lives
     GPU memory used/free/total (MiB): 936 / 80214 / 81151
------------------
     ethr =  1.01E-06,  avg # of iterations =  4.1

     total cpu time spent up to now is       62.4 secs

     WARNING: integrated charge=    38.00118550, expected=    38.00000000

     total energy              =    -569.33290457 Ry
     estimated scf accuracy    <       0.00022941 Ry

     total magnetization       =    -0.00 Bohr mag/cell
     absolute magnetization    =     0.01 Bohr mag/cell
[tb_dev] Currently allocated     3.05E-05 Mbytes, locked:    0 /   2
[tb_pin] Currently allocated     0.00E+00 Mbytes, locked:    0 /   0

     iteration # 52     ecut=    60.00 Ry     beta= 0.30
     Davidson diagonalization with overlap

---- Real-time Memory Report at c_bands before calling an iterative solver
           706 MiB given to the printing process from OS
             0 MiB allocation reported by mallinfo(arena+hblkhd)
        852069 MiB available memory on the node where the printing process lives
     GPU memory used/free/total (MiB): 936 / 80214 / 81151
------------------
     ethr =  6.04E-07,  avg # of iterations =  1.5

     total cpu time spent up to now is       63.4 secs

     WARNING: integrated charge=    38.00109067, expected=    38.00000000

     total energy              =    -569.33298355 Ry
     estimated scf accuracy    <       0.00018782 Ry

     total magnetization       =    -0.00 Bohr mag/cell
     absolute magnetization    =     0.01 Bohr mag/cell
[tb_dev] Currently allocated     3.05E-05 Mbytes, locked:    0 /   2
[tb_pin] Currently allocated     0.00E+00 Mbytes, locked:    0 /   0

     iteration # 53     ecut=    60.00 Ry     beta= 0.30
     Davidson diagonalization with overlap

---- Real-time Memory Report at c_bands before calling an iterative solver
           706 MiB given to the printing process from OS
             0 MiB allocation reported by mallinfo(arena+hblkhd)
        852431 MiB available memory on the node where the printing process lives
     GPU memory used/free/total (MiB): 936 / 80214 / 81151
------------------
     ethr =  4.94E-07,  avg # of iterations =  1.2

     total cpu time spent up to now is       64.4 secs

     WARNING: integrated charge=    38.00127527, expected=    38.00000000

     total energy              =    -569.33309588 Ry
     estimated scf accuracy    <       0.00010410 Ry

     total magnetization       =    -0.00 Bohr mag/cell
     absolute magnetization    =     0.01 Bohr mag/cell
[tb_dev] Currently allocated     3.05E-05 Mbytes, locked:    0 /   2
[tb_pin] Currently allocated     0.00E+00 Mbytes, locked:    0 /   0

     iteration # 54     ecut=    60.00 Ry     beta= 0.30
     Davidson diagonalization with overlap

---- Real-time Memory Report at c_bands before calling an iterative solver
           706 MiB given to the printing process from OS
             0 MiB allocation reported by mallinfo(arena+hblkhd)
        852296 MiB available memory on the node where the printing process lives
     GPU memory used/free/total (MiB): 936 / 80214 / 81151
------------------
     ethr =  2.74E-07,  avg # of iterations =  1.5

     total cpu time spent up to now is       65.4 secs

     WARNING: integrated charge=    38.00183443, expected=    38.00000000

     total energy              =    -569.33312101 Ry
     estimated scf accuracy    <       0.00009310 Ry

     total magnetization       =    -0.00 Bohr mag/cell
     absolute magnetization    =     0.01 Bohr mag/cell
[tb_dev] Currently allocated     3.05E-05 Mbytes, locked:    0 /   2
[tb_pin] Currently allocated     0.00E+00 Mbytes, locked:    0 /   0

     iteration # 55     ecut=    60.00 Ry     beta= 0.30
     Davidson diagonalization with overlap

---- Real-time Memory Report at c_bands before calling an iterative solver
           706 MiB given to the printing process from OS
             0 MiB allocation reported by mallinfo(arena+hblkhd)
        852196 MiB available memory on the node where the printing process lives
     GPU memory used/free/total (MiB): 936 / 80214 / 81151
------------------
     ethr =  2.45E-07,  avg # of iterations =  1.3

     total cpu time spent up to now is       66.4 secs

     WARNING: integrated charge=    38.00282138, expected=    38.00000000

     total energy              =    -569.33315270 Ry
     estimated scf accuracy    <       0.00004127 Ry

     total magnetization       =    -0.00 Bohr mag/cell
     absolute magnetization    =     0.01 Bohr mag/cell
[tb_dev] Currently allocated     3.05E-05 Mbytes, locked:    0 /   2
[tb_pin] Currently allocated     0.00E+00 Mbytes, locked:    0 /   0

     iteration # 56     ecut=    60.00 Ry     beta= 0.30
     Davidson diagonalization with overlap

---- Real-time Memory Report at c_bands before calling an iterative solver
           706 MiB given to the printing process from OS
             0 MiB allocation reported by mallinfo(arena+hblkhd)
        852165 MiB available memory on the node where the printing process lives
     GPU memory used/free/total (MiB): 936 / 80214 / 81151
------------------
     ethr =  1.09E-07,  avg # of iterations =  1.8

     total cpu time spent up to now is       67.5 secs

     WARNING: integrated charge=    38.00347077, expected=    38.00000000

     total energy              =    -569.33314760 Ry
     estimated scf accuracy    <       0.00001898 Ry

     total magnetization       =    -0.00 Bohr mag/cell
     absolute magnetization    =     0.01 Bohr mag/cell
[tb_dev] Currently allocated     3.05E-05 Mbytes, locked:    0 /   2
[tb_pin] Currently allocated     0.00E+00 Mbytes, locked:    0 /   0

     iteration # 57     ecut=    60.00 Ry     beta= 0.30
     Davidson diagonalization with overlap

---- Real-time Memory Report at c_bands before calling an iterative solver
           706 MiB given to the printing process from OS
             0 MiB allocation reported by mallinfo(arena+hblkhd)
        851975 MiB available memory on the node where the printing process lives
     GPU memory used/free/total (MiB): 936 / 80214 / 81151
------------------
     ethr =  5.00E-08,  avg # of iterations =  2.0

     total cpu time spent up to now is       68.5 secs

     WARNING: integrated charge=    38.00433850, expected=    38.00000000

     total energy              =    -569.33313032 Ry
     estimated scf accuracy    <       0.00001025 Ry

     total magnetization       =    -0.00 Bohr mag/cell
     absolute magnetization    =     0.01 Bohr mag/cell
[tb_dev] Currently allocated     3.05E-05 Mbytes, locked:    0 /   2
[tb_pin] Currently allocated     0.00E+00 Mbytes, locked:    0 /   0

     iteration # 58     ecut=    60.00 Ry     beta= 0.30
     Davidson diagonalization with overlap

---- Real-time Memory Report at c_bands before calling an iterative solver
           706 MiB given to the printing process from OS
             0 MiB allocation reported by mallinfo(arena+hblkhd)
        851977 MiB available memory on the node where the printing process lives
     GPU memory used/free/total (MiB): 936 / 80214 / 81151
------------------
     ethr =  2.70E-08,  avg # of iterations =  3.0

     total cpu time spent up to now is       69.7 secs

     WARNING: integrated charge=    38.00446997, expected=    38.00000000

     total energy              =    -569.33309516 Ry
     estimated scf accuracy    <       0.00000087 Ry

     total magnetization       =    -0.00 Bohr mag/cell
     absolute magnetization    =     0.01 Bohr mag/cell
[tb_dev] Currently allocated     3.05E-05 Mbytes, locked:    0 /   2
[tb_pin] Currently allocated     0.00E+00 Mbytes, locked:    0 /   0

     iteration # 59     ecut=    60.00 Ry     beta= 0.30
     Davidson diagonalization with overlap

---- Real-time Memory Report at c_bands before calling an iterative solver
           706 MiB given to the printing process from OS
             0 MiB allocation reported by mallinfo(arena+hblkhd)
        851971 MiB available memory on the node where the printing process lives
     GPU memory used/free/total (MiB): 936 / 80214 / 81151
------------------
     ethr =  2.30E-09,  avg # of iterations =  9.5

     total cpu time spent up to now is       71.6 secs

     WARNING: integrated charge=    38.00418436, expected=    38.00000000

     total energy              =    -569.33308570 Ry
     estimated scf accuracy    <       0.00000038 Ry

     total magnetization       =    -0.00 Bohr mag/cell
     absolute magnetization    =     0.00 Bohr mag/cell
[tb_dev] Currently allocated     3.05E-05 Mbytes, locked:    0 /   2
[tb_pin] Currently allocated     0.00E+00 Mbytes, locked:    0 /   0

     iteration # 60     ecut=    60.00 Ry     beta= 0.30
     Davidson diagonalization with overlap

---- Real-time Memory Report at c_bands before calling an iterative solver
           706 MiB given to the printing process from OS
             0 MiB allocation reported by mallinfo(arena+hblkhd)
        851986 MiB available memory on the node where the printing process lives
     GPU memory used/free/total (MiB): 936 / 80214 / 81151
------------------
     ethr =  1.00E-09,  avg # of iterations =  2.1

     total cpu time spent up to now is       72.7 secs

     WARNING: integrated charge=    38.00411902, expected=    38.00000000

     total energy              =    -569.33309235 Ry
     estimated scf accuracy    <       0.00000011 Ry

     total magnetization       =    -0.00 Bohr mag/cell
     absolute magnetization    =     0.00 Bohr mag/cell
[tb_dev] Currently allocated     3.05E-05 Mbytes, locked:    0 /   2
[tb_pin] Currently allocated     0.00E+00 Mbytes, locked:    0 /   0

     iteration # 61     ecut=    60.00 Ry     beta= 0.30
     Davidson diagonalization with overlap

---- Real-time Memory Report at c_bands before calling an iterative solver
           706 MiB given to the printing process from OS
             0 MiB allocation reported by mallinfo(arena+hblkhd)
        851960 MiB available memory on the node where the printing process lives
     GPU memory used/free/total (MiB): 936 / 80214 / 81151
------------------
     ethr =  2.90E-10,  avg # of iterations =  3.6

     total cpu time spent up to now is       74.0 secs

     WARNING: integrated charge=    38.00404314, expected=    38.00000000

     total energy              =    -569.33309352 Ry
     estimated scf accuracy    <       0.00000005 Ry

     total magnetization       =    -0.00 Bohr mag/cell
     absolute magnetization    =     0.00 Bohr mag/cell
[tb_dev] Currently allocated     3.05E-05 Mbytes, locked:    0 /   2
[tb_pin] Currently allocated     0.00E+00 Mbytes, locked:    0 /   0

     iteration # 62     ecut=    60.00 Ry     beta= 0.30
     Davidson diagonalization with overlap

---- Real-time Memory Report at c_bands before calling an iterative solver
           706 MiB given to the printing process from OS
             0 MiB allocation reported by mallinfo(arena+hblkhd)
        851948 MiB available memory on the node where the printing process lives
     GPU memory used/free/total (MiB): 936 / 80214 / 81151
------------------
     ethr =  1.25E-10,  avg # of iterations =  3.1

     total cpu time spent up to now is       75.2 secs

     WARNING: integrated charge=    38.00405438, expected=    38.00000000

     total energy              =    -569.33309316 Ry
     estimated scf accuracy    <       0.00000002 Ry

     total magnetization       =    -0.00 Bohr mag/cell
     absolute magnetization    =     0.00 Bohr mag/cell
[tb_dev] Currently allocated     3.05E-05 Mbytes, locked:    0 /   2
[tb_pin] Currently allocated     0.00E+00 Mbytes, locked:    0 /   0

     iteration # 63     ecut=    60.00 Ry     beta= 0.30
     Davidson diagonalization with overlap

---- Real-time Memory Report at c_bands before calling an iterative solver
           706 MiB given to the printing process from OS
             0 MiB allocation reported by mallinfo(arena+hblkhd)
        851971 MiB available memory on the node where the printing process lives
     GPU memory used/free/total (MiB): 936 / 80214 / 81151
------------------
     ethr =  4.21E-11,  avg # of iterations =  4.7
 
     Magnetic moment per site  (integrated on atomic sphere of radius R)
     atom   1 (R=0.275)  charge= 14.1731  magn= -0.0001
     atom   2 (R=0.275)  charge=  5.2736  magn=  0.0000
     atom   3 (R=0.275)  charge=  5.3762  magn=  0.0000
     atom   4 (R=0.301)  charge=  7.8740  magn=  0.0000

     total cpu time spent up to now is       76.5 secs

     End of self-consistent calculation

 ------ SPIN UP ------------


          k = 0.0000 0.0000 0.0000 (  2113 PWs)   bands (ev):

   -84.9114 -48.2154 -48.2154 -48.0631 -41.6700 -13.7097 -13.4944 -13.4944
    -9.8690  -7.8764   3.4784   4.7240   4.7240   7.4863   7.9102   7.9102
     9.0004   9.0004  10.0118  12.3780  12.3780  12.7597  18.1826  19.8596
    24.5219  26.9374  26.9374

     occupation numbers 
     1.0000   1.0000   1.0000   1.0000   1.0000   1.0000   1.0000   1.0000
     1.0000   1.0000   1.0000   1.0000   1.0000   1.0000   1.0000   1.0000
     1.0000   1.0000   1.0005   0.0000   0.0000   0.0000   0.0000   0.0000
     0.0000   0.0000   0.0000

          k = 0.0000 0.0000 0.1750 (  2114 PWs)   bands (ev):

   -84.9114 -48.2155 -48.2155 -48.0629 -41.6700 -13.7265 -13.4947 -13.4947
    -9.7537  -8.0005   3.8141   4.7204   4.7204   6.7647   7.9176   7.9176
     9.0003   9.0003  10.1099  12.3735  12.3735  13.6201  17.3784  19.7000
    25.2340  27.2585  27.2585

     occupation numbers 
     1.0000   1.0000   1.0000   1.0000   1.0000   1.0000   1.0000   1.0000
     1.0000   1.0000   1.0000   1.0000   1.0000   1.0000   1.0000   1.0000
     1.0000   1.0000   1.0026   0.0000   0.0000   0.0000   0.0000   0.0000
     0.0000   0.0000   0.0000

          k = 0.0000 0.1443 0.0000 (  2123 PWs)   bands (ev):

   -84.9106 -48.2241 -48.2176 -48.0618 -41.6643 -13.6995 -13.5425 -13.5055
    -9.7014  -7.8745   3.7029   4.4849   4.8141   6.8945   7.4707   7.7672
     9.2181   9.3641  10.0485  11.9496  12.2824  13.3256  18.7657  20.2554
    24.2736  25.6387  27.3615

     occupation numbers 
     1.0000   1.0000   1.0000   1.0000   1.0000   1.0000   1.0000   1.0000
     1.0000   1.0000   1.0000   1.0000   1.0000   1.0000   1.0000   1.0000
     1.0000   1.0000   1.0010   0.0000   0.0000   0.0000   0.0000   0.0000
     0.0000   0.0000   0.0000

          k = 0.0000 0.1443 0.1750 (  2102 PWs)   bands (ev):

   -84.9106 -48.2241 -48.2175 -48.0616 -41.6642 -13.7126 -13.5429 -13.5053
    -9.5994  -7.9818   3.9709   4.4200   4.8114   6.9055   7.2906   7.4754
     9.2057   9.3650  10.1762  11.7801  12.2786  14.1192  17.9353  20.3732
    24.5557  26.2678  26.7608

     occupation numbers 
     1.0000   1.0000   1.0000   1.0000   1.0000   1.0000   1.0000   1.0000
[...]

          k = 0.0000 0.4330 0.0000 (  2098 PWs)   bands (ev):

   -84.9071 -48.2659 -48.2275 -48.0558 -41.6364 -13.8602 -13.5572 -13.5450
    -8.7913  -7.8966   3.4255   4.4101   5.1767   5.4607   6.6033   7.1596
     9.2404   9.6172   9.8987  11.6383  12.2146  15.7697  19.5794  20.4585
    22.4197  24.1780  25.4159

     occupation numbers 
     1.0000   1.0000   1.0000   1.0000   1.0000   1.0000   1.0000   1.0000
     1.0000   1.0000   1.0000   1.0000   1.0000   1.0000   1.0000   1.0000
     1.0000   1.0000   1.0001   0.0000   0.0000   0.0000   0.0000   0.0000
     0.0000   0.0000   0.0000

          k = 0.0000 0.4330 0.1750 (  2109 PWs)   bands (ev):

   -84.9071 -48.2660 -48.2276 -48.0560 -41.6365 -13.8600 -13.5572 -13.5491
    -8.7697  -7.9094   3.3333   4.3412   5.1802   5.5964   6.5982   7.2924
     9.2201   9.6173   9.9081  11.4680  12.2140  15.8491  19.2323  20.7469
    22.9291  24.0452  25.3117

     occupation numbers 
     1.0000   1.0000   1.0000   1.0000   1.0000   1.0000   1.0000   1.0000
     1.0000   1.0000   1.0000   1.0000   1.0000   1.0000   1.0000   1.0000
     1.0000   1.0000   1.0001   0.0002   0.0000   0.0000   0.0000   0.0000
     0.0000   0.0000   0.0000

          k = 0.0000-0.5774 0.0000 (  2102 PWs)   bands (ev):

   -84.9063 -48.2746 -48.2295 -48.0544 -41.6307 -13.9106 -13.5677 -13.5259
    -8.5662  -7.9171   3.0167   4.4865   5.2077   5.8345   6.5637   6.6907
     9.1338   9.5171   9.8126  11.8313  12.2693  16.7440  18.5952  20.0641
    22.5855  24.1341  25.4270

     occupation numbers 
     1.0000   1.0000   1.0000   1.0000   1.0000   1.0000   1.0000   1.0000
     1.0000   1.0000   1.0000   1.0000   1.0000   1.0000   1.0000   1.0000
     1.0000   1.0000   1.0000   0.0000   0.0000   0.0000   0.0000   0.0000
     0.0000   0.0000   0.0000

          k = 0.0000-0.5774 0.1750 (  2116 PWs)   bands (ev):

   -84.9063 -48.2746 -48.2298 -48.0546 -41.6307 -13.9100 -13.5682 -13.5288
    -8.5641  -7.9096   2.9543   4.4116   5.2115   5.8438   6.5580   6.9013
     9.1212   9.5172   9.8042  11.8329  12.2680  16.3054  18.4355  21.0625
    22.4481  24.6934  25.2799

     occupation numbers 
     1.0000   1.0000   1.0000   1.0000   1.0000   1.0000   1.0000   1.0000
     1.0000   1.0000   1.0000   1.0000   1.0000   1.0000   1.0000   1.0000
     1.0000   1.0000   1.0000   0.0000   0.0000   0.0000   0.0000   0.0000
     0.0000   0.0000   0.0000

          k = 0.1250 0.2165 0.0000 (  2101 PWs)   bands (ev):

   -84.9095 -48.2379 -48.2220 -48.0601 -41.6544 -13.7158 -13.5808 -13.5297
    -9.4029  -7.8740   4.0672   4.2491   4.9167   5.9265   6.8280   7.9047
     9.3657   9.6664  10.0480  11.6639  11.9661  14.1800  19.5427  20.8765
    23.3887  24.8002  26.5883

     occupation numbers 
     1.0000   1.0000   1.0000   1.0000   1.0000   1.0000   1.0000   1.0000
     1.0000   1.0000   1.0000   1.0000   1.0000   1.0000   1.0000   1.0000
     1.0000   1.0000   1.0010   0.0000   0.0000   0.0000   0.0000   0.0000
     0.0000   0.0000   0.0000

          k = 0.1250 0.2165 0.1750 (  2101 PWs)   bands (ev):

   -84.9095 -48.2380 -48.2220 -48.0600 -41.6544 -13.7213 -13.5850 -13.5298
    -9.3220  -7.9553   4.0154   4.3625   4.9242   6.0127   6.8337   7.6666
     9.3656   9.6127  10.1349  11.4306  12.0544  14.6113  18.9147  21.3581
    23.3278  25.0876  25.8371

     occupation numbers 
     1.0000   1.0000   1.0000   1.0000   1.0000   1.0000   1.0000   1.0000
     1.0000   1.0000   1.0000   1.0000   1.0000   1.0000   1.0000   1.0000
     1.0000   1.0000   1.0038   0.0003   0.0000   0.0000   0.0000   0.0000
     0.0000   0.0000   0.0000

          k = 0.1250 0.3608 0.0000 (  2106 PWs)   bands (ev):

   -84.9076 -48.2567 -48.2292 -48.0568 -41.6405 -13.8055 -13.5757 -13.5523
    -8.9479  -7.8792   3.8729   4.3612   5.0675   5.2990   6.3491   7.5179
     9.3964   9.7739   9.9435  11.5716  11.9167  15.3476  19.9811  21.2809
    22.4222  24.0437  25.5180

     occupation numbers 
     1.0000   1.0000   1.0000   1.0000   1.0000   1.0000   1.0000   1.0000
     1.0000   1.0000   1.0000   1.0000   1.0000   1.0000   1.0000   1.0000
     1.0000   1.0000   1.0001   0.0000   0.0000   0.0000   0.0000   0.0000
     0.0000   0.0000   0.0000

          k = 0.1250 0.3608 0.1750 (  2102 PWs)   bands (ev):

   -84.9076 -48.2567 -48.2291 -48.0569 -41.6405 -13.8057 -13.5767 -13.5557
    -8.9062  -7.9146   3.7370   4.3338   5.0986   5.4815   6.3542   7.5367
     9.3883   9.7464   9.9483  11.3797  11.9784  15.4798  19.8330  21.1350
    23.2246  23.8670  25.1960

     occupation numbers 
     1.0000   1.0000   1.0000   1.0000   1.0000   1.0000   1.0000   1.0000
     1.0000   1.0000   1.0000   1.0000   1.0000   1.0000   1.0000   1.0000
     1.0000   1.0000   1.0002   0.0009   0.0000   0.0000   0.0000   0.0000
     0.0000   0.0000   0.0000

          k = 0.1250 0.5052 0.0000 (  2104 PWs)   bands (ev):

   -84.9063 -48.2699 -48.2344 -48.0545 -41.6307 -13.8794 -13.6020 -13.5244
    -8.5951  -7.8882   3.2914   4.3783   5.1408   5.7806   6.1515   6.8622
     9.2877   9.5885   9.8955  11.7585  12.0248  16.5797  19.0808  20.6580
    22.8454  23.8369  25.1655

     occupation numbers 
     1.0000   1.0000   1.0000   1.0000   1.0000   1.0000   1.0000   1.0000
     1.0000   1.0000   1.0000   1.0000   1.0000   1.0000   1.0000   1.0000
     1.0000   1.0000   1.0001   0.0000   0.0000   0.0000   0.0000   0.0000
     0.0000   0.0000   0.0000

          k = 0.1250 0.5052 0.1750 (  2107 PWs)   bands (ev):

   -84.9063 -48.2699 -48.2343 -48.0546 -41.6307 -13.8789 -13.6019 -13.5274
    -8.5899  -7.8840   3.2284   4.3088   5.1382   5.8307   6.1596   7.0027
     9.2732   9.5938   9.8790  11.7282  12.0594  16.4046  18.8352  21.2121
    22.9974  24.2132  25.0838

     occupation numbers 
     1.0000   1.0000   1.0000   1.0000   1.0000   1.0000   1.0000   1.0000
     1.0000   1.0000   1.0000   1.0000   1.0000   1.0000   1.0000   1.0000
     1.0000   1.0000   1.0000   0.0000   0.0000   0.0000   0.0000   0.0000
     0.0000   0.0000   0.0000

          k = 0.2500 0.4330 0.0000 (  2095 PWs)   bands (ev):

   -84.9063 -48.2633 -48.2408 -48.0545 -41.6307 -13.8381 -13.6449 -13.5238
    -8.6216  -7.8615   3.7361   4.2457   4.8501   5.6267   6.0157   6.9815
     9.4014   9.6359  10.0179  11.6499  11.8060  16.4676  19.5214  21.7643
    22.5251  23.5536  24.9498

     occupation numbers 
     1.0000   1.0000   1.0000   1.0000   1.0000   1.0000   1.0000   1.0000
     1.0000   1.0000   1.0000   1.0000   1.0000   1.0000   1.0000   1.0000
     1.0000   1.0000   1.0006   0.0000   0.0000   0.0000   0.0000   0.0000
     0.0000   0.0000   0.0000

          k = 0.2500 0.4330 0.1750 (  2101 PWs)   bands (ev):

   -84.9063 -48.2633 -48.2407 -48.0546 -41.6307 -13.8379 -13.6448 -13.5270
    -8.6060  -7.8690   3.6693   4.1742   4.8490   5.7452   6.0423   7.0001
     9.4071   9.6412   9.9645  11.7151  11.8264  16.2721  19.5440  21.7287
    23.1246  23.8865  24.7180

     occupation numbers 
     1.0000   1.0000   1.0000   1.0000   1.0000   1.0000   1.0000   1.0000
     1.0000   1.0000   1.0000   1.0000   1.0000   1.0000   1.0000   1.0000
     1.0000   1.0000   1.0002   0.0000   0.0000   0.0000   0.0000   0.0000
     0.0000   0.0000   0.0000

          k = 0.2500 0.5774 0.0000 (  2102 PWs)   bands (ev):

   -84.9058 -48.2638 -48.2479 -48.0536 -41.6266 -13.8391 -13.6874 -13.5108
    -8.4940  -7.8387   3.6456   4.2494   4.6539   5.8153   6.1567   6.5392
     9.2276   9.7719   9.9726  11.7349  11.7520  17.2475  18.8799  21.6565
    22.9064  23.6093  24.7259

     occupation numbers 
     1.0000   1.0000   1.0000   1.0000   1.0000   1.0000   1.0000   1.0000
     1.0000   1.0000   1.0000   1.0000   1.0000   1.0000   1.0000   1.0000
     1.0000   1.0000   1.0002   0.0000   0.0000   0.0000   0.0000   0.0000
     0.0000   0.0000   0.0000

          k = 0.2500 0.5774 0.1750 (  2105 PWs)   bands (ev):

   -84.9058 -48.2638 -48.2479 -48.0537 -41.6266 -13.8388 -13.6874 -13.5131
    -8.4932  -7.8308   3.5913   4.2136   4.6314   5.8590   6.1660   6.5903
     9.2360   9.7707   9.9450  11.7911  11.8299  17.0618  18.7216  22.1640
    23.0153  23.7187  24.5773

     occupation numbers 
     1.0000   1.0000   1.0000   1.0000   1.0000   1.0000   1.0000   1.0000
     1.0000   1.0000   1.0000   1.0000   1.0000   1.0000   1.0000   1.0000
     1.0000   1.0000   1.0001   0.0000   0.0000   0.0000   0.0000   0.0000
     0.0000   0.0000   0.0000

          k = 0.0000-0.1443 0.1750 (  2102 PWs)   bands (ev):

   -84.9108 -48.2241 -48.2176 -48.0622 -41.6642 -13.7127 -13.5428 -13.5053
    -9.5979  -7.9836   3.9804   4.4229   4.8099   6.8328   7.3536   7.4772
     9.1928   9.3657  10.1575  11.8778  12.2777  14.0014  18.0002  20.3627
    24.5842  26.2195  26.8908

     occupation numbers 
     1.0000   1.0000   1.0000   1.0000   1.0000   1.0000   1.0000   1.0000
     1.0000   1.0000   1.0000   1.0000   1.0000   1.0000   1.0000   1.0000
     1.0000   1.0000   1.0053   0.0000   0.0000   0.0000   0.0000   0.0000
     0.0000   0.0000   0.0000

          k = 0.0000-0.2887 0.1750 (  2100 PWs)   bands (ev):

   -84.9089 -48.2450 -48.2225 -48.0591 -41.6503 -13.7487 -13.5864 -13.5313
    -9.1963  -7.9518   3.9209   4.3933   5.0173   5.6520   6.8976   7.6149
     9.2671   9.6784  10.0598  11.4415  12.1634  14.6155  19.3730  21.5223
    22.8916  24.4192  26.0380

     occupation numbers 
     1.0000   1.0000   1.0000   1.0000   1.0000   1.0000   1.0000   1.0000
     1.0000   1.0000   1.0000   1.0000   1.0000   1.0000   1.0000   1.0000
     1.0000   1.0000   1.0012   0.0003   0.0000   0.0000   0.0000   0.0000
     0.0000   0.0000   0.0000

          k = 0.0000-0.4330 0.1750 (  2109 PWs)   bands (ev):

   -84.9071 -48.2660 -48.2276 -48.0560 -41.6365 -13.8604 -13.5572 -13.5493
    -8.7529  -7.9285   3.3408   4.3408   5.1760   5.6844   6.6043   7.1462
     9.2230   9.6173   9.8749  11.6798  12.2117  15.4120  19.6060  21.3651
    22.1163  24.5651  25.4373

     occupation numbers 
     1.0000   1.0000   1.0000   1.0000   1.0000   1.0000   1.0000   1.0000
     1.0000   1.0000   1.0000   1.0000   1.0000   1.0000   1.0000   1.0000
     1.0000   1.0000   1.0000   0.0000   0.0000   0.0000   0.0000   0.0000
     0.0000   0.0000   0.0000

          k =-0.1250-0.3608 0.1750 (  2102 PWs)   bands (ev):

   -84.9076 -48.2567 -48.2291 -48.0569 -41.6405 -13.8060 -13.5766 -13.5559
    -8.8978  -7.9243   3.7538   4.3230   5.0904   5.5194   6.3596   7.4624
     9.4019   9.7571   9.8936  11.5653  11.9341  15.2532  20.0553  21.3879
    22.8099  24.1206  25.3461

     occupation numbers 
     1.0000   1.0000   1.0000   1.0000   1.0000   1.0000   1.0000   1.0000
     1.0000   1.0000   1.0000   1.0000   1.0000   1.0000   1.0000   1.0000
     1.0000   1.0000   1.0000   0.0000   0.0000   0.0000   0.0000   0.0000
     0.0000   0.0000   0.0000

          k =-0.1250-0.5052 0.1750 (  2107 PWs)   bands (ev):

   -84.9063 -48.2699 -48.2343 -48.0546 -41.6307 -13.8791 -13.6019 -13.5274
    -8.5814  -7.8934   3.2266   4.3162   5.1392   5.8746   6.1661   6.9268
     9.2853   9.5906   9.8626  11.8192  12.0387  16.1758  19.0322  21.6705
    22.4148  24.6175  25.0290

     occupation numbers 
     1.0000   1.0000   1.0000   1.0000   1.0000   1.0000   1.0000   1.0000
     1.0000   1.0000   1.0000   1.0000   1.0000   1.0000   1.0000   1.0000
     1.0000   1.0000   1.0000   0.0000   0.0000   0.0000   0.0000   0.0000
     0.0000   0.0000   0.0000

     the Fermi energy is    10.8898 ev

     WARNING: integrated charge=    38.00410968, expected=    38.00000000

!    total energy              =    -569.33309289 Ry
     total all-electron energy =     -3412.823648 Ry
     estimated scf accuracy    <          4.8E-09 Ry
     smearing contrib. (-TS)   =       0.00006242 Ry
     internal energy E=F+TS    =    -569.33315531 Ry

     The total energy is F=E-TS. E is the sum of the following terms:
     one-electron contribution =    -327.71209688 Ry
     hartree contribution      =     185.66481974 Ry
     xc contribution           =     -60.50712678 Ry
     ewald contribution        =    -244.85449963 Ry
     one-center paw contrib.   =    -121.92425176 Ry
      -> PAW hartree energy AE =     347.30039304 Ry
      -> PAW hartree energy PS =    -347.27822722 Ry
      -> PAW xc energy AE      =    -179.44624514 Ry
      -> PAW xc energy PS      =      57.49982755 Ry
      -> total E_H with PAW    =     185.68698557 Ry
      -> total E_XC with PAW   =    -182.45354437 Ry

     total magnetization       =    -0.00 Bohr mag/cell
     absolute magnetization    =     0.00 Bohr mag/cell

     convergence has been achieved in  63 iterations

     Forces acting on atoms (cartesian axes, Ry/au):

     atom    1 type  1   force =     0.00000000    0.00000000    0.06041802
     atom    2 type  2   force =     0.00000000    0.00000000    0.00385656
     atom    3 type  2   force =     0.00000000    0.00000000    0.00439064
     atom    4 type  3   force =     0.00000000    0.00000000   -0.06866522
     The non-local contrib.  to forces
     atom    1 type  1   force =     0.00000000    0.00000000   -0.11176021
     atom    2 type  2   force =    -0.00000000   -0.00000000   -0.81208128
     atom    3 type  2   force =    -0.00000000   -0.00000000    0.52787011
     atom    4 type  3   force =     0.00000000    0.00000000   -0.28414207
     The ionic contribution  to forces
     atom    1 type  1   force =    -0.00000000    0.00000000   12.85321326
     atom    2 type  2   force =     0.00000000   -0.00000000   22.11400452
     atom    3 type  2   force =    -0.00000000    0.00000000  -15.65907185
     atom    4 type  3   force =     0.00000000   -0.00000000  -19.30814593
     The local contribution  to forces
     atom    1 type  1   force =     0.00000000   -0.00000000  -12.68107821
     atom    2 type  2   force =     0.00000001   -0.00000001  -21.30522510
     atom    3 type  2   force =    -0.00000001    0.00000001   15.14073584
     atom    4 type  3   force =     0.00000006   -0.00000004   19.52348631
     The core correction contribution to forces
     atom    1 type  1   force =     0.00000000   -0.00000000   -0.00001590
     atom    2 type  2   force =    -0.00000000    0.00000000    0.00718486
     atom    3 type  2   force =     0.00000000   -0.00000000   -0.00514907
     atom    4 type  3   force =     0.00000000   -0.00000000    0.00017366
     The Hubbard contrib.    to forces
     atom    1 type  1   force =     0.00000000    0.00000000    0.00000000
     atom    2 type  2   force =     0.00000000    0.00000000    0.00000000
     atom    3 type  2   force =     0.00000000    0.00000000    0.00000000
     atom    4 type  3   force =     0.00000000    0.00000000    0.00000000
     The SCF correction term to forces
     atom    1 type  1   force =     0.00000000   -0.00000000    0.00006473
     atom    2 type  2   force =     0.00000000   -0.00000000   -0.00002079
     atom    3 type  2   force =    -0.00000000    0.00000000    0.00001125
     atom    4 type  3   force =     0.00000000   -0.00000000   -0.00003155

     Total force =     0.091648     Total SCF correction =     0.000076

     Writing all to output data dir ./out/pw.save/ :
     XML data file, charge density, pseudopotentials, collected wavefunctions
 
     init_run     :     10.17s CPU      2.42s WALL (       1 calls)
     electrons    :    288.20s CPU     73.66s WALL (       1 calls)
     forces       :      0.81s CPU      0.55s WALL (       1 calls)

     Called by init_run:
     wfcinit      :      0.26s CPU      0.30s WALL (       1 calls)
     wfcinit:atom :      0.04s CPU      0.04s WALL (      50 calls)
     wfcinit:wfcr :      0.16s CPU      0.19s WALL (      50 calls)
     potinit      :      9.38s CPU      1.58s WALL (       1 calls)
     hinit0       :      0.45s CPU      0.43s WALL (       1 calls)

     Called by electrons:
     c_bands      :     32.83s CPU     32.42s WALL (      63 calls)
     sum_band     :      6.76s CPU      6.57s WALL (      63 calls)
     v_of_rho     :      0.96s CPU      0.39s WALL (      64 calls)
     v_h          :      0.68s CPU      0.08s WALL (      64 calls)
     v_xc         :      0.28s CPU      0.32s WALL (      65 calls)
     newd         :      1.45s CPU      1.00s WALL (      64 calls)
                                        1.00s GPU  (      64 calls)
     PAW_pot      :    248.21s CPU     32.69s WALL (      64 calls)
     mix_rho      :      1.01s CPU      0.97s WALL (      63 calls)

     Called by c_bands:
     init_us_2    :      2.61s CPU      2.49s WALL (    6400 calls)
     cegterg      :     28.27s CPU     28.03s WALL (    3150 calls)

     Called by sum_band:
     sum_band:wei :      0.09s CPU      0.09s WALL (      63 calls)
                                        0.09s GPU  (      63 calls)
     sum_band:loo :      4.26s CPU      4.07s WALL (      63 calls)
                                        4.07s GPU  (      63 calls)
     sum_band:buf :      0.38s CPU      0.44s WALL (    3150 calls)
                                        0.40s GPU  (    3150 calls)
     sum_band:ini :      1.27s CPU      1.26s WALL (    3150 calls)
                                        1.23s GPU  (    3150 calls)
     sum_band:cal :      0.12s CPU      0.18s WALL (    3150 calls)
                                        0.15s GPU  (    3150 calls)
     sum_band:bec :      0.68s CPU      0.73s WALL (    3150 calls)
                                        0.69s GPU  (    3150 calls)
     addusdens    :      2.07s CPU      2.07s WALL (      63 calls)
                                        2.07s GPU  (      63 calls)
     addusd:skk   :      0.01s CPU      0.01s WALL (     189 calls)
                                        0.01s GPU  (     189 calls)

     Called by *egterg:
     cdiaghg      :      9.61s CPU      9.92s WALL (   11325 calls)
                                        9.78s GPU  (   11325 calls)
     cegterg:over :      1.36s CPU      1.40s WALL (    8175 calls)
     cegterg:upda :      1.94s CPU      1.95s WALL (    8175 calls)
     cegterg:last :      0.35s CPU      0.33s WALL (    5747 calls)
     h_psi        :     10.40s CPU     10.14s WALL (   11375 calls)
                                       10.00s GPU  (   11375 calls)
     s_psi        :      1.76s CPU      1.82s WALL (   11375 calls)
     g_psi        :      0.04s CPU      0.20s WALL (    8175 calls)
                                        0.09s GPU  (    8175 calls)

     Called by h_psi:
     h_psi:calbec :      0.29s CPU      0.59s WALL (   11375 calls)
                                        0.45s GPU  (   11375 calls)
     vloc_psi     :      7.30s CPU      6.89s WALL (   11375 calls)
                                        6.75s GPU  (   11375 calls)
     add_vuspsi   :      1.58s CPU      1.85s WALL (   11375 calls)
                                        1.71s GPU  (   11375 calls)

     General routines
     calbec       :      0.33s CPU      0.37s WALL (   14725 calls)
     fft          :      3.70s CPU      0.69s WALL (    1613 calls)
                                        0.05s GPU  (    1485 calls)
     ffts         :      2.13s CPU      0.35s WALL (     254 calls)
                                        0.00s GPU  (     126 calls)
     fftw         :      0.71s CPU      2.36s WALL (   42738 calls)
                                        1.87s GPU  (   42738 calls)
     interpolate  :      6.07s CPU      1.02s WALL (     128 calls)
 
     Parallel routines

     PAW routines
     PAW_pot      :    248.21s CPU     32.69s WALL (      64 calls)
     PAW_symme    :      0.07s CPU      0.01s WALL (     127 calls)
 
     PWSCF        :   5m 0.01s CPU   1m17.15s WALL

 
   This run was terminated on:   2:14:24  12Jul2026            

=------------------------------------------------------------------------------=
   JOB DONE.
=------------------------------------------------------------------------------=
Warning: ieee_divide_by_zero is signaling
Warning: ieee_inexact is signaling
FORTRAN STOP
