
     Program PWSCF v.7.3.1 starts on 12Jul2026 at  3:50: 0 

     This program is part of the open-source Quantum ESPRESSO suite
     for quantum simulation of materials; please cite
         "P. Giannozzi et al., J. Phys.:Condens. Matter 21 395502 (2009);
         "P. Giannozzi et al., J. Phys.:Condens. Matter 29 465901 (2017);
         "P. Giannozzi et al., J. Chem. Phys. 152 154105 (2020);
          URL http://www.quantum-espresso.org", 
     in publications or presentations arising from this work. More details at
     http://www.quantum-espresso.org/quote

     Parallel version (MPI & OpenMP), running on      14 processor cores
     Number of MPI processes:                 1
     Threads/MPI process:                    14

     MPI processes distributed on     1 nodes
     843613 MiB available memory on the printing compute node when the environment starts
 
     Reading input from pw.in

     Current dimensions of program PWSCF are:
     Max number of different atomic species (ntypx) = 10
     Max number of k-points (npk) =  40000
     Max angular momentum in pseudopotentials (lmaxx) =  4
     file Co.pbe-spn-kjpaw_psl.0.3.1.UPF: wavefunction(s)  3P 3D renormalized
     file O.pbe-n-kjpaw_psl.1.0.0.UPF: wavefunction(s)  2S 2P renormalized
     file Na.pbe-spn-kjpaw_psl.1.0.0.UPF: wavefunction(s)  2P renormalized
 
     Subspace diagonalization in iterative solution of the eigenvalue problem:
     a serial algorithm will be used

 
     G-vector sticks info
     --------------------
     sticks:   dense  smooth     PW     G-vecs:    dense   smooth      PW
     Sum         979     499    151                47419    16845    2747
 
     Using Slab Decomposition
 


     bravais-lattice index     =            4
     lattice parameter (alat)  =       5.4575  a.u.
     unit-cell volume          =     268.0923 (a.u.)^3
     number of atoms/cell      =            4
     number of atomic types    =            3
     number of electrons       =        38.00
     number of Kohn-Sham states=           27
     kinetic-energy cutoff     =      60.0000  Ry
     charge density cutoff     =     480.0000  Ry
     scf convergence threshold =      1.0E-07
     mixing beta               =       0.3000
     number of iterations used =            8  local-TF  mixing
     Exchange-correlation= SLA  PW   PBX  PBC
                           (   1   4   3   4   0   0   0)

     GPU acceleration is ACTIVE.  1 visible GPUs per MPI rank
     GPU-aware MPI enabled


     GPU used by master process:

        Device Number: 0
        Device name: NVIDIA A100-SXM4-80GB
        Compute capability : 80
        Ratio of single to double precision performance  : 2
        Memory Clock Rate (KHz): 1593000
        Memory Bus Width (bits): 5120
        Peak Memory Bandwidth (GB/s): ******

     celldm(1)=   5.457529  celldm(2)=   0.000000  celldm(3)=   1.904432
     celldm(4)=   0.000000  celldm(5)=   0.000000  celldm(6)=   0.000000

     crystal axes: (cart. coord. in units of alat)
               a(1) = (   1.000000   0.000000   0.000000 )  
               a(2) = (  -0.500000   0.866025   0.000000 )  
               a(3) = (   0.000000   0.000000   1.904432 )  

     reciprocal axes: (cart. coord. in units 2 pi/alat)
               b(1) = (  1.000000  0.577350 -0.000000 )  
               b(2) = (  0.000000  1.154701  0.000000 )  
               b(3) = (  0.000000 -0.000000  0.525091 )  


     PseudoPot. # 1 for Co read from file:
     ../../pseudo/Co.pbe-spn-kjpaw_psl.0.3.1.UPF
     MD5 check sum: 3c0a43779828c046024e4f3be63f8e67
     Pseudo is Projector augmented-wave + core cor, Zval = 17.0
     Generated using &quot;atomic&quot; code by A. Dal Corso  v.6.2.2
     Shape of augmentation charge: PSQ
     Using radial grid of 1193 points,  6 beta functions with: 
                l(1) =   0
                l(2) =   0
                l(3) =   1
                l(4) =   1
                l(5) =   2
                l(6) =   2
     Q(r) pseudized with 0 coefficients 


     PseudoPot. # 2 for O  read from file:
     ../../pseudo/O.pbe-n-kjpaw_psl.1.0.0.UPF
     MD5 check sum: e99d9cef9b487d1ca56f5b95ecd0fd7a
     Pseudo is Projector augmented-wave + core cor, Zval =  6.0
     Generated using &quot;atomic&quot; code by A. Dal Corso  v.6.3
     Shape of augmentation charge: PSQ
     Using radial grid of 1095 points,  4 beta functions with: 
                l(1) =   0
                l(2) =   0
                l(3) =   1
                l(4) =   1
     Q(r) pseudized with 0 coefficients 


     PseudoPot. # 3 for Na read from file:
     ../../pseudo/Na.pbe-spn-kjpaw_psl.1.0.0.UPF
     MD5 check sum: 05b4deb74e3932c23ab016979dc8b5d4
     Pseudo is Projector augmented-wave + core cor, Zval =  9.0
     Generated using &quot;atomic&quot; code by A. Dal Corso  v.6.3
     Shape of augmentation charge: PSQ
     Using radial grid of 1121 points,  4 beta functions with: 
                l(1) =   0
                l(2) =   0
                l(3) =   1
                l(4) =   1
     Q(r) pseudized with 0 coefficients 


     atomic species   valence    mass     pseudopotential
     Co               17.00    58.93300     Co( 1.00)
     O                 6.00    15.99900     O ( 1.00)
     Na                9.00    22.98977     Na( 1.00)

     Starting magnetic structure 
     atomic species   magnetization
     Co              0.300
     O               0.000
     Na              0.000

      6 Sym. Ops. (no inversion) found


                                    s                        frac. trans.

      isym =  1     identity                                     

 cryst.   s( 1) = (     1          0          0      )
                  (     0          1          0      )
                  (     0          0          1      )

 cart.    s( 1) = (  1.0000000  0.0000000  0.0000000 )
                  (  0.0000000  1.0000000  0.0000000 )
                  (  0.0000000  0.0000000  1.0000000 )


      isym =  2     120 deg rotation - cryst. axis [0,0,1]       

 cryst.   s( 2) = (     0          1          0      )
                  (    -1         -1          0      )
                  (     0          0          1      )

 cart.    s( 2) = ( -0.5000000 -0.8660254  0.0000000 )
                  (  0.8660254 -0.5000000  0.0000000 )
                  (  0.0000000  0.0000000  1.0000000 )


      isym =  3     120 deg rotation - cryst. axis [0,0,-1]      

 cryst.   s( 3) = (    -1         -1          0      )
                  (     1          0          0      )
                  (     0          0          1      )

 cart.    s( 3) = ( -0.5000000  0.8660254  0.0000000 )
                  ( -0.8660254 -0.5000000  0.0000000 )
                  (  0.0000000  0.0000000  1.0000000 )


      isym =  4     inv. 180 deg rotation - cart. axis [1,0,0]   

 cryst.   s( 4) = (    -1          0          0      )
                  (     1          1          0      )
                  (     0          0          1      )

 cart.    s( 4) = ( -1.0000000  0.0000000  0.0000000 )
                  (  0.0000000  1.0000000  0.0000000 )
                  (  0.0000000  0.0000000  1.0000000 )


      isym =  5     inv. 180 deg rotation - cryst. axis [0,1,0]  

 cryst.   s( 5) = (     1          1          0      )
                  (     0         -1          0      )
                  (     0          0          1      )

 cart.    s( 5) = (  0.5000000  0.8660254  0.0000000 )
                  (  0.8660254 -0.5000000  0.0000000 )
                  (  0.0000000  0.0000000  1.0000000 )


      isym =  6     inv. 180 deg rotation - cryst. axis [1,1,0]  

 cryst.   s( 6) = (     0         -1          0      )
                  (    -1          0          0      )
                  (     0          0          1      )

 cart.    s( 6) = (  0.5000000 -0.8660254  0.0000000 )
                  ( -0.8660254 -0.5000000  0.0000000 )
                  (  0.0000000  0.0000000  1.0000000 )


     point group C_3v (3m)  
     there are  3 classes
     the character table:

       E     2C3   3s_v 
A_1    1.00  1.00  1.00
A_2    1.00  1.00 -1.00
E      2.00 -1.00  0.00

     the symmetry operations in each class and the name of the first element:

     E        1
          identity                                               
     2C3      2    3
          120 deg rotation - cryst. axis [0,0,1]                 
     3s_v     4    5    6
          inv. 180 deg rotation - cart. axis [1,0,0]             

   Cartesian axes

     site n.     atom                  positions (alat units)
         1        Co     tau(   1) = (   0.0000000   0.0000000   0.0000000  )
         2        O      tau(   2) = (  -0.0000000   0.5773503   0.3324100  )
         3        O      tau(   3) = (   0.5000000   0.2886751   1.5720222  )
         4        Na     tau(   4) = (   0.0000000   0.0000000   1.2119114  )

   Crystallographic axes

     site n.     atom                  positions (cryst. coord.)
         1        Co     tau(   1) = (  0.0000000  0.0000000  0.0000000  )
         2        O      tau(   2) = (  0.3333333  0.6666667  0.1745455  )
         3        O      tau(   3) = (  0.6666667  0.3333333  0.8254545  )
         4        Na     tau(   4) = (  0.0000000  0.0000000  0.6363636  )

     number of k points=    25  Marzari-Vanderbilt smearing, width (Ry)=  0.0200
                       cart. coord. in units 2pi/alat
        k(    1) = (   0.0000000   0.0000000   0.0000000), wk =   0.0052083
        k(    2) = (   0.0000000   0.0000000   0.1750303), wk =   0.0104167
        k(    3) = (   0.0000000   0.1443376   0.0000000), wk =   0.0312500
        k(    4) = (   0.0000000   0.1443376   0.1750303), wk =   0.0312500
        k(    5) = (   0.0000000   0.2886751   0.0000000), wk =   0.0312500
        k(    6) = (   0.0000000   0.2886751   0.1750303), wk =   0.0312500
        k(    7) = (   0.0000000   0.4330127   0.0000000), wk =   0.0312500
        k(    8) = (   0.0000000   0.4330127   0.1750303), wk =   0.0312500
        k(    9) = (   0.0000000  -0.5773503   0.0000000), wk =   0.0156250
        k(   10) = (   0.0000000  -0.5773503   0.1750303), wk =   0.0312500
        k(   11) = (   0.1250000   0.2165064   0.0000000), wk =   0.0312500
        k(   12) = (   0.1250000   0.2165064   0.1750303), wk =   0.0625000
        k(   13) = (   0.1250000   0.3608439   0.0000000), wk =   0.0625000
        k(   14) = (   0.1250000   0.3608439   0.1750303), wk =   0.0625000
        k(   15) = (   0.1250000   0.5051815   0.0000000), wk =   0.0625000
        k(   16) = (   0.1250000   0.5051815   0.1750303), wk =   0.0625000
        k(   17) = (   0.2500000   0.4330127   0.0000000), wk =   0.0312500
        k(   18) = (   0.2500000   0.4330127   0.1750303), wk =   0.0625000
        k(   19) = (   0.2500000   0.5773503   0.0000000), wk =   0.0312500
        k(   20) = (   0.2500000   0.5773503   0.1750303), wk =   0.0625000
        k(   21) = (   0.0000000  -0.1443376   0.1750303), wk =   0.0312500
        k(   22) = (   0.0000000  -0.2886751   0.1750303), wk =   0.0312500
        k(   23) = (   0.0000000  -0.4330127   0.1750303), wk =   0.0312500
        k(   24) = (  -0.1250000  -0.3608439   0.1750303), wk =   0.0625000
        k(   25) = (  -0.1250000  -0.5051815   0.1750303), wk =   0.0625000

                       cryst. coord.
        k(    1) = (   0.0000000   0.0000000   0.0000000), wk =   0.0052083
        k(    2) = (   0.0000000   0.0000000   0.3333333), wk =   0.0104167
        k(    3) = (   0.0000000   0.1250000   0.0000000), wk =   0.0312500
        k(    4) = (   0.0000000   0.1250000   0.3333333), wk =   0.0312500
        k(    5) = (   0.0000000   0.2500000   0.0000000), wk =   0.0312500
        k(    6) = (   0.0000000   0.2500000   0.3333333), wk =   0.0312500
        k(    7) = (   0.0000000   0.3750000   0.0000000), wk =   0.0312500
        k(    8) = (   0.0000000   0.3750000   0.3333333), wk =   0.0312500
        k(    9) = (   0.0000000  -0.5000000   0.0000000), wk =   0.0156250
        k(   10) = (   0.0000000  -0.5000000   0.3333333), wk =   0.0312500
        k(   11) = (   0.1250000   0.1250000   0.0000000), wk =   0.0312500
        k(   12) = (   0.1250000   0.1250000   0.3333333), wk =   0.0625000
        k(   13) = (   0.1250000   0.2500000   0.0000000), wk =   0.0625000
        k(   14) = (   0.1250000   0.2500000   0.3333333), wk =   0.0625000
        k(   15) = (   0.1250000   0.3750000   0.0000000), wk =   0.0625000
        k(   16) = (   0.1250000   0.3750000   0.3333333), wk =   0.0625000
        k(   17) = (   0.2500000   0.2500000   0.0000000), wk =   0.0312500
        k(   18) = (   0.2500000   0.2500000   0.3333333), wk =   0.0625000
        k(   19) = (   0.2500000   0.3750000   0.0000000), wk =   0.0312500
        k(   20) = (   0.2500000   0.3750000   0.3333333), wk =   0.0625000
        k(   21) = (   0.0000000  -0.1250000   0.3333333), wk =   0.0312500
        k(   22) = (   0.0000000  -0.2500000   0.3333333), wk =   0.0312500
        k(   23) = (   0.0000000  -0.3750000   0.3333333), wk =   0.0312500
        k(   24) = (  -0.1250000  -0.2500000   0.3333333), wk =   0.0625000
        k(   25) = (  -0.1250000  -0.3750000   0.3333333), wk =   0.0625000

     Dense  grid:    47419 G-vectors     FFT dimensions: (  40,  40,  75)

     Smooth grid:    16845 G-vectors     FFT dimensions: (  27,  27,  54)

     Dynamical RAM for                 wfc:       0.87 MB

     Dynamical RAM for     wfc (w. buffer):      44.21 MB

     Dynamical RAM for           str. fact:       2.17 MB

     Dynamical RAM for           local pot:       0.00 MB

     Dynamical RAM for          nlocal pot:       1.35 MB

     Dynamical RAM for                qrad:       5.27 MB

     Dynamical RAM for          rho,v,vnew:       9.83 MB

     Dynamical RAM for               rhoin:       3.28 MB

     Dynamical RAM for            rho*nmix:      23.15 MB

     Dynamical RAM for           G-vectors:       2.84 MB

     Dynamical RAM for          h,s,v(r/c):       0.13 MB

     Dynamical RAM for          <psi|beta>:       0.02 MB

     Dynamical RAM for                 psi:       1.73 MB

     Dynamical RAM for                hpsi:       1.73 MB

     Dynamical RAM for                spsi:       1.73 MB

     Dynamical RAM for      wfcinit/wfcrot:       1.75 MB

     Dynamical RAM for           addusdens:     136.75 MB

     Dynamical RAM for          addusforce:     138.21 MB

     Estimated static dynamical RAM per process >      77.34 MB

     Estimated max dynamical RAM per process >     238.71 MB

     Check: negative core charge=   -0.000009
     Generating pointlists ...
     new r_m :   0.2748 (alat units)  1.4998 (a.u.) for type    1
     new r_m :   0.2748 (alat units)  1.4998 (a.u.) for type    2
     new r_m :   0.2807 (alat units)  1.5319 (a.u.) for type    3

     Initial potential from superposition of free atoms

     starting charge      37.9934, renormalised to      38.0000
     Starting wfcs are   23 randomized atomic wfcs +    4 random wfcs
     Checking if some PAW data can be deallocated... 

     total cpu time spent up to now is        2.9 secs

     Self-consistent Calculation
[tb_dev] Currently allocated     6.54E-01 Mbytes, locked:    0 /   6
[tb_pin] Currently allocated     0.00E+00 Mbytes, locked:    0 /   0

     iteration #  1     ecut=    60.00 Ry     beta= 0.30
     Davidson diagonalization with overlap

---- Real-time Memory Report at c_bands before calling an iterative solver
           651 MiB given to the printing process from OS
             0 MiB allocation reported by mallinfo(arena+hblkhd)
        843115 MiB available memory on the node where the printing process lives
     GPU memory used/free/total (MiB): 924 / 80226 / 81151
------------------
     ethr =  1.00E-02,  avg # of iterations = 10.9

     total cpu time spent up to now is        5.0 secs

     total energy              =    -568.98985616 Ry
     estimated scf accuracy    <       1.40587563 Ry

     total magnetization       =     4.00 Bohr mag/cell
     absolute magnetization    =     4.00 Bohr mag/cell
[tb_dev] Currently allocated     3.05E-05 Mbytes, locked:    0 /   2
[tb_pin] Currently allocated     0.00E+00 Mbytes, locked:    0 /   0

     iteration #  2     ecut=    60.00 Ry     beta= 0.30
     Davidson diagonalization with overlap

---- Real-time Memory Report at c_bands before calling an iterative solver
           694 MiB given to the printing process from OS
             0 MiB allocation reported by mallinfo(arena+hblkhd)
        842747 MiB available memory on the node where the printing process lives
     GPU memory used/free/total (MiB): 936 / 80214 / 81151
------------------
     ethr =  3.70E-03,  avg # of iterations =  1.8

     total cpu time spent up to now is        6.1 secs

     total energy              =    -568.97947904 Ry
     estimated scf accuracy    <       0.43424082 Ry

     total magnetization       =     3.86 Bohr mag/cell
     absolute magnetization    =     3.86 Bohr mag/cell
[tb_dev] Currently allocated     3.05E-05 Mbytes, locked:    0 /   2
[tb_pin] Currently allocated     0.00E+00 Mbytes, locked:    0 /   0

     iteration #  3     ecut=    60.00 Ry     beta= 0.30
     Davidson diagonalization with overlap

---- Real-time Memory Report at c_bands before calling an iterative solver
           696 MiB given to the printing process from OS
             0 MiB allocation reported by mallinfo(arena+hblkhd)
        842536 MiB available memory on the node where the printing process lives
     GPU memory used/free/total (MiB): 936 / 80214 / 81151
------------------
     ethr =  1.14E-03,  avg # of iterations =  3.1

     total cpu time spent up to now is        7.5 secs

     total energy              =    -569.15962006 Ry
     estimated scf accuracy    <       0.79977131 Ry

     total magnetization       =     1.61 Bohr mag/cell
     absolute magnetization    =     1.80 Bohr mag/cell
[tb_dev] Currently allocated     3.05E-05 Mbytes, locked:    0 /   2
[tb_pin] Currently allocated     0.00E+00 Mbytes, locked:    0 /   0

     iteration #  4     ecut=    60.00 Ry     beta= 0.30
     Davidson diagonalization with overlap

---- Real-time Memory Report at c_bands before calling an iterative solver
           697 MiB given to the printing process from OS
             0 MiB allocation reported by mallinfo(arena+hblkhd)
        842520 MiB available memory on the node where the printing process lives
     GPU memory used/free/total (MiB): 936 / 80214 / 81151
------------------
     ethr =  1.14E-03,  avg # of iterations =  1.4

     total cpu time spent up to now is        8.5 secs

     total energy              =    -569.18267511 Ry
     estimated scf accuracy    <       1.87168921 Ry

     total magnetization       =     1.04 Bohr mag/cell
     absolute magnetization    =     1.38 Bohr mag/cell
[tb_dev] Currently allocated     3.05E-05 Mbytes, locked:    0 /   2
[tb_pin] Currently allocated     0.00E+00 Mbytes, locked:    0 /   0

     iteration #  5     ecut=    60.00 Ry     beta= 0.30
     Davidson diagonalization with overlap

---- Real-time Memory Report at c_bands before calling an iterative solver
           699 MiB given to the printing process from OS
             0 MiB allocation reported by mallinfo(arena+hblkhd)
        842511 MiB available memory on the node where the printing process lives
     GPU memory used/free/total (MiB): 936 / 80214 / 81151
------------------
     ethr =  1.14E-03,  avg # of iterations =  1.2

     total cpu time spent up to now is        9.6 secs

     total energy              =    -569.16396034 Ry
     estimated scf accuracy    <       1.27480730 Ry

     total magnetization       =     0.72 Bohr mag/cell
     absolute magnetization    =     1.17 Bohr mag/cell
[tb_dev] Currently allocated     3.05E-05 Mbytes, locked:    0 /   2
[tb_pin] Currently allocated     0.00E+00 Mbytes, locked:    0 /   0

     iteration #  6     ecut=    60.00 Ry     beta= 0.30
     Davidson diagonalization with overlap

---- Real-time Memory Report at c_bands before calling an iterative solver
           700 MiB given to the printing process from OS
             0 MiB allocation reported by mallinfo(arena+hblkhd)
        842509 MiB available memory on the node where the printing process lives
     GPU memory used/free/total (MiB): 936 / 80214 / 81151
------------------
     ethr =  1.14E-03,  avg # of iterations =  1.0

     total cpu time spent up to now is       10.6 secs

     total energy              =    -569.16048336 Ry
     estimated scf accuracy    <       0.71569991 Ry

     total magnetization       =     0.56 Bohr mag/cell
     absolute magnetization    =     1.07 Bohr mag/cell
[tb_dev] Currently allocated     3.05E-05 Mbytes, locked:    0 /   2
[tb_pin] Currently allocated     0.00E+00 Mbytes, locked:    0 /   0

     iteration #  7     ecut=    60.00 Ry     beta= 0.30
     Davidson diagonalization with overlap

---- Real-time Memory Report at c_bands before calling an iterative solver
           701 MiB given to the printing process from OS
             0 MiB allocation reported by mallinfo(arena+hblkhd)
        842514 MiB available memory on the node where the printing process lives
     GPU memory used/free/total (MiB): 936 / 80214 / 81151
------------------
     ethr =  1.14E-03,  avg # of iterations =  1.5

     total cpu time spent up to now is       11.6 secs

     total energy              =    -569.20045991 Ry
     estimated scf accuracy    <       0.22655207 Ry

     total magnetization       =     0.03 Bohr mag/cell
     absolute magnetization    =     0.63 Bohr mag/cell
[tb_dev] Currently allocated     3.05E-05 Mbytes, locked:    0 /   2
[tb_pin] Currently allocated     0.00E+00 Mbytes, locked:    0 /   0

     iteration #  8     ecut=    60.00 Ry     beta= 0.30
     Davidson diagonalization with overlap

---- Real-time Memory Report at c_bands before calling an iterative solver
           703 MiB given to the printing process from OS
             0 MiB allocation reported by mallinfo(arena+hblkhd)
        842504 MiB available memory on the node where the printing process lives
     GPU memory used/free/total (MiB): 936 / 80214 / 81151
------------------
     ethr =  5.96E-04,  avg # of iterations =  1.2

     total cpu time spent up to now is       12.7 secs

     total energy              =    -569.18665234 Ry
     estimated scf accuracy    <       0.09524221 Ry

     total magnetization       =     0.00 Bohr mag/cell
     absolute magnetization    =     0.32 Bohr mag/cell
[tb_dev] Currently allocated     3.05E-05 Mbytes, locked:    0 /   2
[tb_pin] Currently allocated     0.00E+00 Mbytes, locked:    0 /   0

     iteration #  9     ecut=    60.00 Ry     beta= 0.30
     Davidson diagonalization with overlap

---- Real-time Memory Report at c_bands before calling an iterative solver
           704 MiB given to the printing process from OS
             0 MiB allocation reported by mallinfo(arena+hblkhd)
        842484 MiB available memory on the node where the printing process lives
     GPU memory used/free/total (MiB): 936 / 80214 / 81151
------------------
     ethr =  2.51E-04,  avg # of iterations =  2.7

     total cpu time spent up to now is       13.8 secs

     total energy              =    -569.20078542 Ry
     estimated scf accuracy    <       0.00390166 Ry

     total magnetization       =     0.00 Bohr mag/cell
     absolute magnetization    =     0.19 Bohr mag/cell
[tb_dev] Currently allocated     3.05E-05 Mbytes, locked:    0 /   2
[tb_pin] Currently allocated     0.00E+00 Mbytes, locked:    0 /   0

     iteration # 10     ecut=    60.00 Ry     beta= 0.30
     Davidson diagonalization with overlap

---- Real-time Memory Report at c_bands before calling an iterative solver
           705 MiB given to the printing process from OS
             0 MiB allocation reported by mallinfo(arena+hblkhd)
        842510 MiB available memory on the node where the printing process lives
     GPU memory used/free/total (MiB): 936 / 80214 / 81151
------------------
     c_bands:  1 eigenvalues not converged
     c_bands:  1 eigenvalues not converged
     ethr =  1.03E-05,  avg # of iterations =  9.7

     total cpu time spent up to now is       15.9 secs

     total energy              =    -569.20364293 Ry
     estimated scf accuracy    <       0.00173526 Ry

     total magnetization       =     0.00 Bohr mag/cell
     absolute magnetization    =     0.09 Bohr mag/cell
[tb_dev] Currently allocated     3.05E-05 Mbytes, locked:    0 /   2
[tb_pin] Currently allocated     0.00E+00 Mbytes, locked:    0 /   0

     iteration # 11     ecut=    60.00 Ry     beta= 0.30
     Davidson diagonalization with overlap

---- Real-time Memory Report at c_bands before calling an iterative solver
           706 MiB given to the printing process from OS
             0 MiB allocation reported by mallinfo(arena+hblkhd)
        842412 MiB available memory on the node where the printing process lives
     GPU memory used/free/total (MiB): 936 / 80214 / 81151
------------------
     c_bands:  1 eigenvalues not converged
     ethr =  4.57E-06,  avg # of iterations =  3.3

     total cpu time spent up to now is       17.2 secs

     total energy              =    -569.20407726 Ry
     estimated scf accuracy    <       0.00111105 Ry

     total magnetization       =     0.00 Bohr mag/cell
     absolute magnetization    =     0.04 Bohr mag/cell
[tb_dev] Currently allocated     3.05E-05 Mbytes, locked:    0 /   2
[tb_pin] Currently allocated     0.00E+00 Mbytes, locked:    0 /   0

     iteration # 12     ecut=    60.00 Ry     beta= 0.30
     Davidson diagonalization with overlap

---- Real-time Memory Report at c_bands before calling an iterative solver
           707 MiB given to the printing process from OS
             0 MiB allocation reported by mallinfo(arena+hblkhd)
        842405 MiB available memory on the node where the printing process lives
     GPU memory used/free/total (MiB): 936 / 80214 / 81151
------------------
     c_bands:  1 eigenvalues not converged
     ethr =  2.92E-06,  avg # of iterations =  2.5

     total cpu time spent up to now is       18.4 secs

     total energy              =    -569.20431928 Ry
     estimated scf accuracy    <       0.00031963 Ry

     total magnetization       =     0.00 Bohr mag/cell
     absolute magnetization    =     0.02 Bohr mag/cell
[tb_dev] Currently allocated     3.05E-05 Mbytes, locked:    0 /   2
[tb_pin] Currently allocated     0.00E+00 Mbytes, locked:    0 /   0

     iteration # 13     ecut=    60.00 Ry     beta= 0.30
     Davidson diagonalization with overlap

---- Real-time Memory Report at c_bands before calling an iterative solver
           707 MiB given to the printing process from OS
             0 MiB allocation reported by mallinfo(arena+hblkhd)
        842359 MiB available memory on the node where the printing process lives
     GPU memory used/free/total (MiB): 936 / 80214 / 81151
------------------
     ethr =  8.41E-07,  avg # of iterations =  2.3

     total cpu time spent up to now is       19.5 secs

     total energy              =    -569.20450651 Ry
     estimated scf accuracy    <       0.00002689 Ry

     total magnetization       =     0.00 Bohr mag/cell
     absolute magnetization    =     0.01 Bohr mag/cell
[tb_dev] Currently allocated     3.05E-05 Mbytes, locked:    0 /   2
[tb_pin] Currently allocated     0.00E+00 Mbytes, locked:    0 /   0

     iteration # 14     ecut=    60.00 Ry     beta= 0.30
     Davidson diagonalization with overlap

---- Real-time Memory Report at c_bands before calling an iterative solver
           707 MiB given to the printing process from OS
             0 MiB allocation reported by mallinfo(arena+hblkhd)
        842333 MiB available memory on the node where the printing process lives
     GPU memory used/free/total (MiB): 936 / 80214 / 81151
------------------
     ethr =  7.08E-08,  avg # of iterations =  8.3

     total cpu time spent up to now is       21.5 secs

     total energy              =    -569.20452599 Ry
     estimated scf accuracy    <       0.00001581 Ry

     total magnetization       =     0.00 Bohr mag/cell
     absolute magnetization    =     0.01 Bohr mag/cell
[tb_dev] Currently allocated     3.05E-05 Mbytes, locked:    0 /   2
[tb_pin] Currently allocated     0.00E+00 Mbytes, locked:    0 /   0

     iteration # 15     ecut=    60.00 Ry     beta= 0.30
     Davidson diagonalization with overlap

---- Real-time Memory Report at c_bands before calling an iterative solver
           707 MiB given to the printing process from OS
             0 MiB allocation reported by mallinfo(arena+hblkhd)
        842309 MiB available memory on the node where the printing process lives
     GPU memory used/free/total (MiB): 936 / 80214 / 81151
------------------
     ethr =  4.16E-08,  avg # of iterations =  1.6

     total cpu time spent up to now is       22.6 secs

     total energy              =    -569.20451874 Ry
     estimated scf accuracy    <       0.00001354 Ry

     total magnetization       =     0.00 Bohr mag/cell
     absolute magnetization    =     0.01 Bohr mag/cell
[tb_dev] Currently allocated     3.05E-05 Mbytes, locked:    0 /   2
[tb_pin] Currently allocated     0.00E+00 Mbytes, locked:    0 /   0

     iteration # 16     ecut=    60.00 Ry     beta= 0.30
     Davidson diagonalization with overlap

---- Real-time Memory Report at c_bands before calling an iterative solver
           707 MiB given to the printing process from OS
             0 MiB allocation reported by mallinfo(arena+hblkhd)
        842308 MiB available memory on the node where the printing process lives
     GPU memory used/free/total (MiB): 936 / 80214 / 81151
------------------
     ethr =  3.56E-08,  avg # of iterations =  1.8

     total cpu time spent up to now is       23.6 secs

     total energy              =    -569.20451459 Ry
     estimated scf accuracy    <       0.00000092 Ry

     total magnetization       =     0.00 Bohr mag/cell
     absolute magnetization    =     0.00 Bohr mag/cell
[tb_dev] Currently allocated     3.05E-05 Mbytes, locked:    0 /   2
[tb_pin] Currently allocated     0.00E+00 Mbytes, locked:    0 /   0

     iteration # 17     ecut=    60.00 Ry     beta= 0.30
     Davidson diagonalization with overlap

---- Real-time Memory Report at c_bands before calling an iterative solver
           707 MiB given to the printing process from OS
             0 MiB allocation reported by mallinfo(arena+hblkhd)
        842304 MiB available memory on the node where the printing process lives
     GPU memory used/free/total (MiB): 936 / 80214 / 81151
------------------
     ethr =  2.41E-09,  avg # of iterations =  8.5

     total cpu time spent up to now is       25.5 secs

     total energy              =    -569.20451719 Ry
     estimated scf accuracy    <       0.00000029 Ry

     total magnetization       =     0.00 Bohr mag/cell
     absolute magnetization    =     0.00 Bohr mag/cell
[tb_dev] Currently allocated     3.05E-05 Mbytes, locked:    0 /   2
[tb_pin] Currently allocated     0.00E+00 Mbytes, locked:    0 /   0

     iteration # 18     ecut=    60.00 Ry     beta= 0.30
     Davidson diagonalization with overlap

---- Real-time Memory Report at c_bands before calling an iterative solver
           707 MiB given to the printing process from OS
             0 MiB allocation reported by mallinfo(arena+hblkhd)
        842299 MiB available memory on the node where the printing process lives
     GPU memory used/free/total (MiB): 936 / 80214 / 81151
------------------
     ethr =  7.70E-10,  avg # of iterations =  2.9
 
     Magnetic moment per site  (integrated on atomic sphere of radius R)
     atom   1 (R=0.275)  charge= 14.2121  magn=  0.0001
     atom   2 (R=0.275)  charge=  5.2459  magn= -0.0002
     atom   3 (R=0.275)  charge=  5.4317  magn=  0.0000
     atom   4 (R=0.281)  charge=  7.8017  magn= -0.0000

     total cpu time spent up to now is       26.7 secs

     End of self-consistent calculation

 ------ SPIN UP ------------


          k = 0.0000 0.0000 0.0000 (  2113 PWs)   bands (ev):

   -85.0498 -48.3620 -48.3620 -48.2407 -41.9328 -14.2890 -13.6956 -13.6956
    -9.9170  -7.9568   3.4750   4.4585   4.4585   7.4123   7.7395   7.7395
     8.7917   8.7917   9.7532  12.2126  12.2126  12.8853  18.5191  19.7625
    24.8281  26.9203  26.9203

     occupation numbers 
     1.0000   1.0000   1.0000   1.0000   1.0000   1.0000   1.0000   1.0000
     1.0000   1.0000   1.0000   1.0000   1.0000   1.0000   1.0000   1.0000
     1.0000   1.0000   1.0001   0.0000   0.0000   0.0000   0.0000   0.0000
     0.0000   0.0000   0.0000

          k = 0.0000 0.0000 0.1750 (  2114 PWs)   bands (ev):

   -85.0498 -48.3621 -48.3621 -48.2404 -41.9327 -14.2960 -13.6959 -13.6959
    -9.8603  -8.0273   3.8052   4.4636   4.4636   6.7294   7.7250   7.7250
     8.7928   8.7928   9.8534  12.2255  12.2255  13.7536  17.5967  19.6687
    24.9371  26.6603  26.6603

     occupation numbers 
     1.0000   1.0000   1.0000   1.0000   1.0000   1.0000   1.0000   1.0000
     1.0000   1.0000   1.0000   1.0000   1.0000   1.0000   1.0000   1.0000
     1.0000   1.0000   1.0006   0.0000   0.0000   0.0000   0.0000   0.0000
     0.0000   0.0000   0.0000

          k = 0.0000 0.1443 0.0000 (  2123 PWs)   bands (ev):

   -85.0490 -48.3707 -48.3642 -48.2392 -41.9265 -14.2684 -13.7699 -13.7085
    -9.7492  -7.9505   3.6874   4.2627   4.5455   6.7307   7.3058   7.7073
     9.0375   9.1679   9.7812  11.8103  12.1215  13.4214  19.1129  20.1382
    24.6197  26.0859  27.3088

     occupation numbers 
     1.0000   1.0000   1.0000   1.0000   1.0000   1.0000   1.0000   1.0000
     1.0000   1.0000   1.0000   1.0000   1.0000   1.0000   1.0000   1.0000
     1.0000   1.0000   1.0002   0.0000   0.0000   0.0000   0.0000   0.0000
     0.0000   0.0000   0.0000

          k = 0.0000 0.1443 0.1750 (  2102 PWs)   bands (ev):

   -85.0490 -48.3707 -48.3641 -48.2390 -41.9263 -14.2740 -13.7698 -13.7083
    -9.7018  -8.0076   3.9319   4.2377   4.5502   6.7189   7.2590   7.2978
     9.0160   9.1674   9.9099  11.6836  12.1251  14.2161  18.1468  20.3117
    24.0140  26.2151  27.0694

     occupation numbers 
     1.0000   1.0000   1.0000   1.0000   1.0000   1.0000   1.0000   1.0000
     1.0000   1.0000   1.0000   1.0000   1.0000   1.0000   1.0000   1.0000
     1.0000   1.0000   1.0017   0.0000   0.0000   0.0000   0.0000   0.0000
     0.0000   0.0000   0.0000

          k = 0.0000 0.2887 0.0000 (  2112 PWs)   bands (ev):

   -85.0472 -48.3917 -48.3692 -48.2358 -41.9112 -14.2307 -13.9252 -13.7387
    -9.3307  -7.9399   3.8869   4.1712   4.7411   5.4757   6.7575   7.7273
     9.1691   9.4980   9.7928  11.3432  12.0161  14.5465  19.9473  20.9652
    23.4962  24.5302  25.8220

     occupation numbers 
     1.0000   1.0000   1.0000   1.0000   1.0000   1.0000   1.0000   1.0000
     1.0000   1.0000   1.0000   1.0000   1.0000   1.0000   1.0000   1.0000
     1.0000   1.0000   1.0002   0.0001   0.0000   0.0000   0.0000   0.0000
     0.0000   0.0000   0.0000

          k = 0.0000 0.2887 0.1750 (  2100 PWs)   bands (ev):

   -85.0471 -48.3916 -48.3691 -48.2357 -41.9111 -14.2337 -13.9255 -13.7385
    -9.3037  -7.9693   3.7491   4.3157   4.7444   5.6206   6.7550   7.6051
     9.1235   9.4989   9.8982  11.0630  12.0086  15.0803  19.2845  21.2555
    22.5305  24.3816  26.9293

     occupation numbers 
     1.0000   1.0000   1.0000   1.0000   1.0000   1.0000   1.0000   1.0000
     1.0000   1.0000   1.0000   1.0000   1.0000   1.0000   1.0000   1.0000
     1.0000   1.0000   1.0014   0.0109   0.0000   0.0000   0.0000   0.0000
     0.0000   0.0000   0.0000

          k = 0.0000 0.4330 0.0000 (  2098 PWs)   bands (ev):

   -85.0453 -48.4126 -48.3741 -48.2323 -41.8960 -14.2462 -14.0144 -13.7685
    -8.8895  -7.9284   3.2644   4.3295   4.8816   5.4830   6.5068   7.1552
     9.1036   9.4463   9.7050  11.4932  12.0731  15.8643  19.3538  21.4385
    22.0913  24.0906  25.6906

     occupation numbers 
     1.0000   1.0000   1.0000   1.0000   1.0000   1.0000   1.0000   1.0000
     1.0000   1.0000   1.0000   1.0000   1.0000   1.0000   1.0000   1.0000
     1.0000   1.0000   1.0000   0.0000   0.0000   0.0000   0.0000   0.0000
     0.0000   0.0000   0.0000

          k = 0.0000 0.4330 0.1750 (  2109 PWs)   bands (ev):

   -85.0453 -48.4127 -48.3741 -48.2325 -41.8959 -14.2471 -14.0161 -13.7686
    -8.8802  -7.9368   3.2393   4.2314   4.8834   5.6362   6.5075   7.2582
     9.0809   9.4472   9.7172  11.3291  12.0615  16.0993  19.2371  20.6080
    22.2416  24.2232  26.1360

     occupation numbers 
     1.0000   1.0000   1.0000   1.0000   1.0000   1.0000   1.0000   1.0000
     1.0000   1.0000   1.0000   1.0000   1.0000   1.0000   1.0000   1.0000
     1.0000   1.0000   1.0000   0.0001   0.0000   0.0000   0.0000   0.0000
     0.0000   0.0000   0.0000

          k = 0.0000-0.5774 0.0000 (  2102 PWs)   bands (ev):

   -85.0445 -48.4214 -48.3761 -48.2309 -41.8896 -14.2803 -14.0211 -13.7808
    -8.7022  -7.9177   2.8744   4.4371   4.9093   5.7755   6.4816   6.7667
     9.0196   9.3460   9.6315  11.6743  12.1332  16.9978  18.1598  20.9948
    22.2337  24.0069  25.9171

     occupation numbers 
     1.0000   1.0000   1.0000   1.0000   1.0000   1.0000   1.0000   1.0000
     1.0000   1.0000   1.0000   1.0000   1.0000   1.0000   1.0000   1.0000
     1.0000   1.0000   1.0000   0.0000   0.0000   0.0000   0.0000   0.0000
     0.0000   0.0000   0.0000

          k = 0.0000-0.5774 0.1750 (  2116 PWs)   bands (ev):

   -85.0445 -48.4214 -48.3763 -48.2311 -41.8896 -14.2803 -14.0229 -13.7813
    -8.7030  -7.9151   2.8728   4.3242   4.9105   5.8381   6.4823   6.9206
     9.0086   9.3462   9.6175  11.6863  12.1234  16.9427  18.0375  20.4706
    22.7165  24.1626  25.3428

     occupation numbers 
     1.0000   1.0000   1.0000   1.0000   1.0000   1.0000   1.0000   1.0000
     1.0000   1.0000   1.0000   1.0000   1.0000   1.0000   1.0000   1.0000
     1.0000   1.0000   1.0000   0.0000   0.0000   0.0000   0.0000   0.0000
     0.0000   0.0000   0.0000

          k = 0.1250 0.2165 0.0000 (  2101 PWs)   bands (ev):

   -85.0477 -48.3845 -48.3685 -48.2367 -41.9157 -14.2378 -13.8771 -13.7375
    -9.4562  -7.9417   3.9959   4.0766   4.6569   5.8513   6.6831   7.8278
     9.1954   9.4946   9.7879  11.5599  11.8036  14.2549  19.8670  20.7466
    24.0984  24.9004  25.8871

     occupation numbers 
     1.0000   1.0000   1.0000   1.0000   1.0000   1.0000   1.0000   1.0000
     1.0000   1.0000   1.0000   1.0000   1.0000   1.0000   1.0000   1.0000
     1.0000   1.0000   1.0002   0.0000   0.0000   0.0000   0.0000   0.0000
     0.0000   0.0000   0.0000

          k = 0.1250 0.2165 0.1750 (  2101 PWs)   bands (ev):

   -85.0477 -48.3846 -48.3686 -48.2367 -41.9156 -14.2416 -13.8774 -13.7377
    -9.4250  -7.9767   3.8758   4.2594   4.6645   5.9666   6.6797   7.5909
     9.1952   9.4387   9.8824  11.3475  11.8849  14.7167  19.0967  21.2433
    22.9669  25.0988  26.4319

     occupation numbers 
     1.0000   1.0000   1.0000   1.0000   1.0000   1.0000   1.0000   1.0000
     1.0000   1.0000   1.0000   1.0000   1.0000   1.0000   1.0000   1.0000
     1.0000   1.0000   1.0011   0.0001   0.0000   0.0000   0.0000   0.0000
     0.0000   0.0000   0.0000

          k = 0.1250 0.3608 0.0000 (  2106 PWs)   bands (ev):

   -85.0458 -48.4034 -48.3758 -48.2334 -41.9005 -14.2205 -13.9866 -13.7855
    -9.0273  -7.9258   3.6694   4.2405   4.8488   5.3241   6.2632   7.4806
     9.2287   9.5749   9.7678  11.4331  11.7793  15.4474  20.0169  21.6153
    22.6990  24.0101  25.2166

     occupation numbers 
     1.0000   1.0000   1.0000   1.0000   1.0000   1.0000   1.0000   1.0000
     1.0000   1.0000   1.0000   1.0000   1.0000   1.0000   1.0000   1.0000
     1.0000   1.0000   1.0001   0.0000   0.0000   0.0000   0.0000   0.0000
     0.0000   0.0000   0.0000

          k = 0.1250 0.3608 0.1750 (  2102 PWs)   bands (ev):

   -85.0458 -48.4034 -48.3757 -48.2334 -41.9004 -14.2218 -13.9878 -13.7854
    -9.0147  -7.9379   3.5956   4.1947   4.8570   5.5261   6.2710   7.4883
     9.2224   9.5609   9.7663  11.2595  11.8109  15.6511  19.9165  21.1833
    22.3991  23.9838  25.3197

     occupation numbers 
     1.0000   1.0000   1.0000   1.0000   1.0000   1.0000   1.0000   1.0000
     1.0000   1.0000   1.0000   1.0000   1.0000   1.0000   1.0000   1.0000
     1.0000   1.0000   1.0001   0.0004   0.0000   0.0000   0.0000   0.0000
     0.0000   0.0000   0.0000

          k = 0.1250 0.5052 0.0000 (  2104 PWs)   bands (ev):

   -85.0445 -48.4166 -48.3810 -48.2309 -41.8897 -14.2489 -14.0162 -13.8202
    -8.7213  -7.8976   3.1214   4.2396   4.9756   5.7563   6.0798   6.9098
     9.1327   9.4193   9.7303  11.5912  11.8887  16.8276  18.8365  21.3186
    22.5678  23.6608  25.6405

     occupation numbers 
     1.0000   1.0000   1.0000   1.0000   1.0000   1.0000   1.0000   1.0000
     1.0000   1.0000   1.0000   1.0000   1.0000   1.0000   1.0000   1.0000
     1.0000   1.0000   1.0001   0.0000   0.0000   0.0000   0.0000   0.0000
     0.0000   0.0000   0.0000

          k = 0.1250 0.5052 0.1750 (  2107 PWs)   bands (ev):

   -85.0445 -48.4166 -48.3809 -48.2310 -41.8896 -14.2491 -14.0180 -13.8200
    -8.7192  -7.8986   3.1180   4.1684   4.9595   5.8260   6.0922   7.0124
     9.1229   9.4229   9.7093  11.5690  11.9108  16.8569  18.6551  20.8512
    22.6122  23.9029  24.9847

     occupation numbers 
     1.0000   1.0000   1.0000   1.0000   1.0000   1.0000   1.0000   1.0000
     1.0000   1.0000   1.0000   1.0000   1.0000   1.0000   1.0000   1.0000
     1.0000   1.0000   1.0000   0.0000   0.0000   0.0000   0.0000   0.0000
     0.0000   0.0000   0.0000

          k = 0.2500 0.4330 0.0000 (  2095 PWs)   bands (ev):

   -85.0445 -48.4100 -48.3874 -48.2309 -41.8896 -14.2127 -14.0056 -13.8697
    -8.7394  -7.8783   3.4576   4.1586   4.7684   5.5467   6.0168   7.0170
     9.2196   9.4635   9.8638  11.4430  11.6969  16.7296  19.6454  21.4727
    22.6024  23.8627  24.9754

     occupation numbers 
     1.0000   1.0000   1.0000   1.0000   1.0000   1.0000   1.0000   1.0000
     1.0000   1.0000   1.0000   1.0000   1.0000   1.0000   1.0000   1.0000
     1.0000   1.0000   1.0008   0.0000   0.0000   0.0000   0.0000   0.0000
     0.0000   0.0000   0.0000

          k = 0.2500 0.4330 0.1750 (  2101 PWs)   bands (ev):

   -85.0445 -48.4100 -48.3874 -48.2311 -41.8896 -14.2129 -14.0073 -13.8696
    -8.7388  -7.8780   3.4343   4.1061   4.7699   5.6625   6.0237   7.0253
     9.2300   9.4672   9.8077  11.5225  11.6973  16.6013  19.6951  21.2997
    22.2460  23.5552  24.6320

     occupation numbers 
     1.0000   1.0000   1.0000   1.0000   1.0000   1.0000   1.0000   1.0000
     1.0000   1.0000   1.0000   1.0000   1.0000   1.0000   1.0000   1.0000
     1.0000   1.0000   1.0003   0.0000   0.0000   0.0000   0.0000   0.0000
     0.0000   0.0000   0.0000

          k = 0.2500 0.5774 0.0000 (  2102 PWs)   bands (ev):

   -85.0440 -48.4106 -48.3945 -48.2300 -41.8852 -14.2036 -14.0091 -13.9146
    -8.6343  -7.8378   3.3508   4.1224   4.6621   5.6806   6.1735   6.6401
     9.0716   9.5982   9.8181  11.5014  11.6387  17.8729  18.8722  20.7569
    23.1752  23.6896  25.1151

     occupation numbers 
     1.0000   1.0000   1.0000   1.0000   1.0000   1.0000   1.0000   1.0000
     1.0000   1.0000   1.0000   1.0000   1.0000   1.0000   1.0000   1.0000
     1.0000   1.0000   1.0003   0.0000   0.0000   0.0000   0.0000   0.0000
     0.0000   0.0000   0.0000

          k = 0.2500 0.5774 0.1750 (  2105 PWs)   bands (ev):

   -85.0440 -48.4105 -48.3946 -48.2301 -41.8851 -14.2035 -14.0106 -13.9147
    -8.6348  -7.8373   3.3424   4.1096   4.6639   5.7378   6.1446   6.6466
     9.0851   9.5937   9.7887  11.5780  11.7037  17.7495  18.7321  20.6628
    22.8490  23.2942  24.5129

     occupation numbers 
     1.0000   1.0000   1.0000   1.0000   1.0000   1.0000   1.0000   1.0000
     1.0000   1.0000   1.0000   1.0000   1.0000   1.0000   1.0000   1.0000
     1.0000   1.0000   1.0002   0.0000   0.0000   0.0000   0.0000   0.0000
     0.0000   0.0000   0.0000

          k = 0.0000-0.1443 0.1750 (  2102 PWs)   bands (ev):

   -85.0490 -48.3707 -48.3641 -48.2390 -41.9263 -14.2739 -13.7697 -13.7083
    -9.7025  -8.0068   3.9413   4.2281   4.5504   6.6756   7.2963   7.3116
     9.0083   9.1644   9.8923  11.7571  12.1351  14.1065  18.1988  20.3212
    24.0745  26.1635  27.0754

     occupation numbers 
     1.0000   1.0000   1.0000   1.0000   1.0000   1.0000   1.0000   1.0000
     1.0000   1.0000   1.0000   1.0000   1.0000   1.0000   1.0000   1.0000
     1.0000   1.0000   1.0012   0.0000   0.0000   0.0000   0.0000   0.0000
     0.0000   0.0000   0.0000

          k = 0.0000-0.2887 0.1750 (  2100 PWs)   bands (ev):

   -85.0471 -48.3916 -48.3691 -48.2357 -41.9111 -14.2335 -13.9256 -13.7385
    -9.3081  -7.9638   3.7677   4.2670   4.7450   5.6682   6.7524   7.5567
     9.1238   9.4952   9.8212  11.3184  12.0213  14.7436  19.4670  21.4804
    22.5982  24.8618  25.8152

     occupation numbers 
     1.0000   1.0000   1.0000   1.0000   1.0000   1.0000   1.0000   1.0000
     1.0000   1.0000   1.0000   1.0000   1.0000   1.0000   1.0000   1.0000
     1.0000   1.0000   1.0004   0.0001   0.0000   0.0000   0.0000   0.0000
     0.0000   0.0000   0.0000

          k = 0.0000-0.4330 0.1750 (  2109 PWs)   bands (ev):

   -85.0453 -48.4127 -48.3741 -48.2325 -41.8959 -14.2467 -14.0164 -13.7686
    -8.8887  -7.9267   3.2180   4.2348   4.8839   5.7144   6.5055   7.1439
     9.0908   9.4459   9.6760  11.5476  12.0689  15.6765  19.5948  20.6911
    22.8800  24.1227  24.6967

     occupation numbers 
     1.0000   1.0000   1.0000   1.0000   1.0000   1.0000   1.0000   1.0000
     1.0000   1.0000   1.0000   1.0000   1.0000   1.0000   1.0000   1.0000
     1.0000   1.0000   1.0000   0.0000   0.0000   0.0000   0.0000   0.0000
     0.0000   0.0000   0.0000

          k =-0.1250-0.3608 0.1750 (  2102 PWs)   bands (ev):

   -85.0458 -48.4034 -48.3757 -48.2334 -41.9004 -14.2215 -13.9879 -13.7854
    -9.0189  -7.9329   3.5864   4.1906   4.8438   5.5889   6.2583   7.4302
     9.2392   9.5755   9.7030  11.4554  11.7628  15.4366  20.0738  21.2748
    22.8452  23.8829  24.6643

     occupation numbers 
     1.0000   1.0000   1.0000   1.0000   1.0000   1.0000   1.0000   1.0000
     1.0000   1.0000   1.0000   1.0000   1.0000   1.0000   1.0000   1.0000
     1.0000   1.0000   1.0000   0.0000   0.0000   0.0000   0.0000   0.0000
     0.0000   0.0000   0.0000

          k =-0.1250-0.5052 0.1750 (  2107 PWs)   bands (ev):

   -85.0445 -48.4166 -48.3809 -48.2311 -41.8896 -14.2489 -14.0181 -13.8200
    -8.7235  -7.8936   3.1057   4.1748   4.9650   5.8717   6.0806   6.9544
     9.1363   9.4211   9.6902  11.6689  11.8902  16.5983  18.9060  20.9255
    22.9980  23.4519  24.8577

     occupation numbers 
     1.0000   1.0000   1.0000   1.0000   1.0000   1.0000   1.0000   1.0000
     1.0000   1.0000   1.0000   1.0000   1.0000   1.0000   1.0000   1.0000
     1.0000   1.0000   1.0000   0.0000   0.0000   0.0000   0.0000   0.0000
     0.0000   0.0000   0.0000

 ------ SPIN DOWN ----------


          k = 0.0000 0.0000 0.0000 (  2113 PWs)   bands (ev):

   -85.0499 -48.3617 -48.3617 -48.2413 -41.9328 -14.2890 -13.6957 -13.6957
    -9.9172  -7.9573   3.4749   4.4585   4.4585   7.4121   7.7392   7.7392
     8.7911   8.7911   9.7534  12.2128  12.2128  12.8853  18.5188  19.7624
    24.8280  26.9201  26.9201

     occupation numbers 
     1.0000   1.0000   1.0000   1.0000   1.0000   1.0000   1.0000   1.0000
     1.0000   1.0000   1.0000   1.0000   1.0000   1.0000   1.0000   1.0000
     1.0000   1.0000   1.0001   0.0000   0.0000   0.0000   0.0000   0.0000
     0.0000   0.0000   0.0000

          k = 0.0000 0.0000 0.1750 (  2114 PWs)   bands (ev):

   -85.0499 -48.3618 -48.3618 -48.2410 -41.9327 -14.2961 -13.6960 -13.6960
    -9.8605  -8.0277   3.8050   4.4637   4.4637   6.7292   7.7246   7.7246
     8.7922   8.7922   9.8536  12.2257  12.2257  13.7536  17.5965  19.6685
    24.9370  26.6601  26.6601

     occupation numbers 
     1.0000   1.0000   1.0000   1.0000   1.0000   1.0000   1.0000   1.0000
     1.0000   1.0000   1.0000   1.0000   1.0000   1.0000   1.0000   1.0000
     1.0000   1.0000   1.0006   0.0000   0.0000   0.0000   0.0000   0.0000
     0.0000   0.0000   0.0000

          k = 0.0000 0.1443 0.0000 (  2123 PWs)   bands (ev):

   -85.0492 -48.3705 -48.3639 -48.2398 -41.9266 -14.2684 -13.7699 -13.7085
    -9.7494  -7.9510   3.6873   4.2627   4.5456   6.7304   7.3054   7.7070
     9.0370   9.1674   9.7814  11.8106  12.1217  13.4214  19.1127  20.1381
    24.6195  26.0856  27.2876

     occupation numbers 
     1.0000   1.0000   1.0000   1.0000   1.0000   1.0000   1.0000   1.0000
     1.0000   1.0000   1.0000   1.0000   1.0000   1.0000   1.0000   1.0000
     1.0000   1.0000   1.0002   0.0000   0.0000   0.0000   0.0000   0.0000
     0.0000   0.0000   0.0000

          k = 0.0000 0.1443 0.1750 (  2102 PWs)   bands (ev):

   -85.0491 -48.3704 -48.3638 -48.2396 -41.9264 -14.2740 -13.7698 -13.7084
    -9.7020  -8.0081   3.9318   4.2377   4.5502   6.7186   7.2586   7.2974
     9.0155   9.1669   9.9100  11.6839  12.1253  14.2161  18.1467  20.3115
    24.0139  26.2150  27.0693

     occupation numbers 
     1.0000   1.0000   1.0000   1.0000   1.0000   1.0000   1.0000   1.0000
     1.0000   1.0000   1.0000   1.0000   1.0000   1.0000   1.0000   1.0000
     1.0000   1.0000   1.0017   0.0000   0.0000   0.0000   0.0000   0.0000
     0.0000   0.0000   0.0000

          k = 0.0000 0.2887 0.0000 (  2112 PWs)   bands (ev):

   -85.0473 -48.3914 -48.3690 -48.2364 -41.9113 -14.2307 -13.9252 -13.7387
    -9.3308  -7.9404   3.8868   4.1711   4.7411   5.4754   6.7570   7.7270
     9.1687   9.4976   9.7929  11.3436  12.0162  14.5465  19.9472  20.9650
    23.4961  24.5300  25.8218

     occupation numbers 
     1.0000   1.0000   1.0000   1.0000   1.0000   1.0000   1.0000   1.0000
     1.0000   1.0000   1.0000   1.0000   1.0000   1.0000   1.0000   1.0000
     1.0000   1.0000   1.0002   0.0001   0.0000   0.0000   0.0000   0.0000
     0.0000   0.0000   0.0000

          k = 0.0000 0.2887 0.1750 (  2100 PWs)   bands (ev):

   -85.0472 -48.3914 -48.3689 -48.2364 -41.9112 -14.2337 -13.9256 -13.7385
    -9.3038  -7.9698   3.7491   4.3156   4.7444   5.6203   6.7546   7.6048
     9.1231   9.4986   9.8983  11.0633  12.0087  15.0803  19.2843  21.2553
    22.5304  24.3814  26.9292

     occupation numbers 
     1.0000   1.0000   1.0000   1.0000   1.0000   1.0000   1.0000   1.0000
     1.0000   1.0000   1.0000   1.0000   1.0000   1.0000   1.0000   1.0000
     1.0000   1.0000   1.0014   0.0108   0.0000   0.0000   0.0000   0.0000
     0.0000   0.0000   0.0000

          k = 0.0000 0.4330 0.0000 (  2098 PWs)   bands (ev):

   -85.0454 -48.4124 -48.3739 -48.2329 -41.8960 -14.2463 -14.0144 -13.7685
    -8.8896  -7.9290   3.2642   4.3294   4.8815   5.4828   6.5063   7.1549
     9.1034   9.4462   9.7049  11.4935  12.0730  15.8644  19.3537  21.4384
    22.0912  24.0905  25.6903

     occupation numbers 
     1.0000   1.0000   1.0000   1.0000   1.0000   1.0000   1.0000   1.0000
     1.0000   1.0000   1.0000   1.0000   1.0000   1.0000   1.0000   1.0000
     1.0000   1.0000   1.0000   0.0000   0.0000   0.0000   0.0000   0.0000
     0.0000   0.0000   0.0000

          k = 0.0000 0.4330 0.1750 (  2109 PWs)   bands (ev):

   -85.0454 -48.4125 -48.3739 -48.2331 -41.8960 -14.2472 -14.0162 -13.7686
    -8.8803  -7.9373   3.2391   4.2313   4.8833   5.6360   6.5071   7.2579
     9.0807   9.4471   9.7172  11.3294  12.0614  16.0994  19.2371  20.6079
    22.2414  24.2230  26.1358

     occupation numbers 
     1.0000   1.0000   1.0000   1.0000   1.0000   1.0000   1.0000   1.0000
     1.0000   1.0000   1.0000   1.0000   1.0000   1.0000   1.0000   1.0000
     1.0000   1.0000   1.0000   0.0001   0.0000   0.0000   0.0000   0.0000
     0.0000   0.0000   0.0000

          k = 0.0000-0.5774 0.0000 (  2102 PWs)   bands (ev):

   -85.0446 -48.4212 -48.3759 -48.2316 -41.8897 -14.2803 -14.0211 -13.7808
    -8.7022  -7.9183   2.8742   4.4369   4.9091   5.7753   6.4812   6.7664
     9.0196   9.3460   9.6313  11.6746  12.1331  16.9979  18.1599  20.9946
    22.2335  24.0068  25.9168

     occupation numbers 
     1.0000   1.0000   1.0000   1.0000   1.0000   1.0000   1.0000   1.0000
     1.0000   1.0000   1.0000   1.0000   1.0000   1.0000   1.0000   1.0000
     1.0000   1.0000   1.0000   0.0000   0.0000   0.0000   0.0000   0.0000
     0.0000   0.0000   0.0000

          k = 0.0000-0.5774 0.1750 (  2116 PWs)   bands (ev):

   -85.0446 -48.4212 -48.3761 -48.2317 -41.8897 -14.2803 -14.0229 -13.7813
    -8.7030  -7.9157   2.8726   4.3240   4.9104   5.8380   6.4819   6.9203
     9.0085   9.3462   9.6174  11.6866  12.1232  16.9428  18.0376  20.4705
    22.7163  24.1624  25.3426

     occupation numbers 
     1.0000   1.0000   1.0000   1.0000   1.0000   1.0000   1.0000   1.0000
     1.0000   1.0000   1.0000   1.0000   1.0000   1.0000   1.0000   1.0000
     1.0000   1.0000   1.0000   0.0000   0.0000   0.0000   0.0000   0.0000
     0.0000   0.0000   0.0000

          k = 0.1250 0.2165 0.0000 (  2101 PWs)   bands (ev):

   -85.0478 -48.3843 -48.3683 -48.2374 -41.9157 -14.2378 -13.8772 -13.7376
    -9.4563  -7.9422   3.9959   4.0764   4.6569   5.8510   6.6826   7.8275
     9.1950   9.4941   9.7880  11.5602  11.8038  14.2549  19.8668  20.7464
    24.0982  24.9003  25.8870

     occupation numbers 
     1.0000   1.0000   1.0000   1.0000   1.0000   1.0000   1.0000   1.0000
     1.0000   1.0000   1.0000   1.0000   1.0000   1.0000   1.0000   1.0000
     1.0000   1.0000   1.0002   0.0000   0.0000   0.0000   0.0000   0.0000
     0.0000   0.0000   0.0000

          k = 0.1250 0.2165 0.1750 (  2101 PWs)   bands (ev):

   -85.0478 -48.3843 -48.3684 -48.2373 -41.9156 -14.2417 -13.8774 -13.7377
    -9.4252  -7.9772   3.8758   4.2592   4.6645   5.9663   6.6792   7.5906
     9.1948   9.4383   9.8826  11.3477  11.8850  14.7167  19.0965  21.2431
    22.9668  25.0987  26.4317

     occupation numbers 
     1.0000   1.0000   1.0000   1.0000   1.0000   1.0000   1.0000   1.0000
     1.0000   1.0000   1.0000   1.0000   1.0000   1.0000   1.0000   1.0000
     1.0000   1.0000   1.0011   0.0001   0.0000   0.0000   0.0000   0.0000
     0.0000   0.0000   0.0000

          k = 0.1250 0.3608 0.0000 (  2106 PWs)   bands (ev):

   -85.0460 -48.4031 -48.3755 -48.2340 -41.9005 -14.2205 -13.9867 -13.7855
    -9.0274  -7.9264   3.6693   4.2403   4.8487   5.3239   6.2627   7.4803
     9.2285   9.5749   9.7675  11.4333  11.7793  15.4474  20.0168  21.6150
    22.6989  24.0099  25.2166

     occupation numbers 
     1.0000   1.0000   1.0000   1.0000   1.0000   1.0000   1.0000   1.0000
     1.0000   1.0000   1.0000   1.0000   1.0000   1.0000   1.0000   1.0000
     1.0000   1.0000   1.0001   0.0000   0.0000   0.0000   0.0000   0.0000
     0.0000   0.0000   0.0000

          k = 0.1250 0.3608 0.1750 (  2102 PWs)   bands (ev):

   -85.0459 -48.4032 -48.3755 -48.2341 -41.9004 -14.2218 -13.9878 -13.7854
    -9.0148  -7.9385   3.5955   4.1945   4.8570   5.5259   6.2706   7.4880
     9.2222   9.5608   9.7662  11.2598  11.8109  15.6511  19.9164  21.1832
    22.3990  23.9836  25.3197

     occupation numbers 
     1.0000   1.0000   1.0000   1.0000   1.0000   1.0000   1.0000   1.0000
     1.0000   1.0000   1.0000   1.0000   1.0000   1.0000   1.0000   1.0000
     1.0000   1.0000   1.0001   0.0004   0.0000   0.0000   0.0000   0.0000
     0.0000   0.0000   0.0000

          k = 0.1250 0.5052 0.0000 (  2104 PWs)   bands (ev):

   -85.0446 -48.4164 -48.3807 -48.2316 -41.8897 -14.2490 -14.0163 -13.8202
    -8.7213  -7.8982   3.1212   4.2393   4.9756   5.7561   6.0794   6.9095
     9.1328   9.4194   9.7300  11.5914  11.8886  16.8277  18.8365  21.3184
    22.5676  23.6607  25.6404

     occupation numbers 
     1.0000   1.0000   1.0000   1.0000   1.0000   1.0000   1.0000   1.0000
     1.0000   1.0000   1.0000   1.0000   1.0000   1.0000   1.0000   1.0000
     1.0000   1.0000   1.0001   0.0000   0.0000   0.0000   0.0000   0.0000
     0.0000   0.0000   0.0000

          k = 0.1250 0.5052 0.1750 (  2107 PWs)   bands (ev):

   -85.0446 -48.4164 -48.3807 -48.2317 -41.8896 -14.2492 -14.0180 -13.8201
    -8.7192  -7.8992   3.1178   4.1681   4.9594   5.8258   6.0918   7.0121
     9.1230   9.4230   9.7090  11.5692  11.9107  16.8570  18.6551  20.8511
    22.6120  23.9027  24.9844

     occupation numbers 
     1.0000   1.0000   1.0000   1.0000   1.0000   1.0000   1.0000   1.0000
     1.0000   1.0000   1.0000   1.0000   1.0000   1.0000   1.0000   1.0000
     1.0000   1.0000   1.0000   0.0000   0.0000   0.0000   0.0000   0.0000
     0.0000   0.0000   0.0000

          k = 0.2500 0.4330 0.0000 (  2095 PWs)   bands (ev):

   -85.0446 -48.4098 -48.3872 -48.2316 -41.8897 -14.2128 -14.0056 -13.8697
    -8.7394  -7.8790   3.4574   4.1583   4.7683   5.5466   6.0164   7.0167
     9.2198   9.4635   9.8635  11.4430  11.6970  16.7297  19.6454  21.4727
    22.6021  23.8625  24.9753

     occupation numbers 
     1.0000   1.0000   1.0000   1.0000   1.0000   1.0000   1.0000   1.0000
     1.0000   1.0000   1.0000   1.0000   1.0000   1.0000   1.0000   1.0000
     1.0000   1.0000   1.0008   0.0000   0.0000   0.0000   0.0000   0.0000
     0.0000   0.0000   0.0000

          k = 0.2500 0.4330 0.1750 (  2101 PWs)   bands (ev):

   -85.0446 -48.4098 -48.3871 -48.2317 -41.8896 -14.2129 -14.0074 -13.8696
    -8.7388  -7.8786   3.4341   4.1057   4.7698   5.6624   6.0233   7.0250
     9.2302   9.4672   9.8074  11.5225  11.6973  16.6014  19.6951  21.2997
    22.2459  23.5550  24.6315

     occupation numbers 
     1.0000   1.0000   1.0000   1.0000   1.0000   1.0000   1.0000   1.0000
     1.0000   1.0000   1.0000   1.0000   1.0000   1.0000   1.0000   1.0000
     1.0000   1.0000   1.0003   0.0000   0.0000   0.0000   0.0000   0.0000
     0.0000   0.0000   0.0000

          k = 0.2500 0.5774 0.0000 (  2102 PWs)   bands (ev):

   -85.0441 -48.4103 -48.3943 -48.2307 -41.8852 -14.2037 -14.0092 -13.9146
    -8.6343  -7.8384   3.3506   4.1221   4.6619   5.6805   6.1733   6.6398
     9.0719   9.5981   9.8178  11.5014  11.6386  17.8731  18.8722  20.7569
    23.1749  23.6893  25.1150

     occupation numbers 
     1.0000   1.0000   1.0000   1.0000   1.0000   1.0000   1.0000   1.0000
     1.0000   1.0000   1.0000   1.0000   1.0000   1.0000   1.0000   1.0000
     1.0000   1.0000   1.0003   0.0000   0.0000   0.0000   0.0000   0.0000
     0.0000   0.0000   0.0000

          k = 0.2500 0.5774 0.1750 (  2105 PWs)   bands (ev):

   -85.0441 -48.4103 -48.3943 -48.2307 -41.8852 -14.2035 -14.0107 -13.9147
    -8.6348  -7.8380   3.3422   4.1093   4.6637   5.7376   6.1444   6.6463
     9.0854   9.5936   9.7884  11.5781  11.7037  17.7496  18.7322  20.6628
    22.8489  23.2940  24.5127

     occupation numbers 
     1.0000   1.0000   1.0000   1.0000   1.0000   1.0000   1.0000   1.0000
     1.0000   1.0000   1.0000   1.0000   1.0000   1.0000   1.0000   1.0000
     1.0000   1.0000   1.0002   0.0000   0.0000   0.0000   0.0000   0.0000
     0.0000   0.0000   0.0000

          k = 0.0000-0.1443 0.1750 (  2102 PWs)   bands (ev):

   -85.0491 -48.3705 -48.3638 -48.2396 -41.9264 -14.2740 -13.7698 -13.7083
    -9.7027  -8.0073   3.9412   4.2281   4.5505   6.6754   7.2959   7.3112
     9.0077   9.1639   9.8925  11.7573  12.1352  14.1065  18.1986  20.3210
    24.0744  26.1634  27.0752

     occupation numbers 
     1.0000   1.0000   1.0000   1.0000   1.0000   1.0000   1.0000   1.0000
     1.0000   1.0000   1.0000   1.0000   1.0000   1.0000   1.0000   1.0000
     1.0000   1.0000   1.0013   0.0000   0.0000   0.0000   0.0000   0.0000
     0.0000   0.0000   0.0000

          k = 0.0000-0.2887 0.1750 (  2100 PWs)   bands (ev):

   -85.0472 -48.3914 -48.3688 -48.2364 -41.9112 -14.2335 -13.9256 -13.7385
    -9.3083  -7.9643   3.7677   4.2668   4.7450   5.6679   6.7520   7.5564
     9.1234   9.4949   9.8214  11.3187  12.0213  14.7436  19.4668  21.4802
    22.5980  24.8617  25.8151

     occupation numbers 
     1.0000   1.0000   1.0000   1.0000   1.0000   1.0000   1.0000   1.0000
     1.0000   1.0000   1.0000   1.0000   1.0000   1.0000   1.0000   1.0000
     1.0000   1.0000   1.0004   0.0001   0.0000   0.0000   0.0000   0.0000
     0.0000   0.0000   0.0000

          k = 0.0000-0.4330 0.1750 (  2109 PWs)   bands (ev):

   -85.0454 -48.4125 -48.3739 -48.2331 -41.8960 -14.2467 -14.0164 -13.7686
    -8.8887  -7.9273   3.2178   4.2346   4.8838   5.7142   6.5051   7.1436
     9.0905   9.4458   9.6760  11.5478  12.0688  15.6766  19.5947  20.6910
    22.8798  24.1226  24.6964

     occupation numbers 
     1.0000   1.0000   1.0000   1.0000   1.0000   1.0000   1.0000   1.0000
     1.0000   1.0000   1.0000   1.0000   1.0000   1.0000   1.0000   1.0000
     1.0000   1.0000   1.0000   0.0000   0.0000   0.0000   0.0000   0.0000
     0.0000   0.0000   0.0000

          k =-0.1250-0.3608 0.1750 (  2102 PWs)   bands (ev):

   -85.0459 -48.4032 -48.3755 -48.2341 -41.9004 -14.2216 -13.9880 -13.7854
    -9.0190  -7.9334   3.5863   4.1903   4.8438   5.5887   6.2579   7.4299
     9.2389   9.5755   9.7030  11.4556  11.7627  15.4367  20.0737  21.2747
    22.8450  23.8827  24.6641

     occupation numbers 
     1.0000   1.0000   1.0000   1.0000   1.0000   1.0000   1.0000   1.0000
     1.0000   1.0000   1.0000   1.0000   1.0000   1.0000   1.0000   1.0000
     1.0000   1.0000   1.0000   0.0000   0.0000   0.0000   0.0000   0.0000
     0.0000   0.0000   0.0000

          k =-0.1250-0.5052 0.1750 (  2107 PWs)   bands (ev):

   -85.0446 -48.4164 -48.3807 -48.2317 -41.8896 -14.2489 -14.0182 -13.8201
    -8.7235  -7.8943   3.1055   4.1746   4.9649   5.8715   6.0802   6.9541
     9.1364   9.4211   9.6899  11.6691  11.8901  16.5984  18.9061  20.9254
    22.9979  23.4518  24.8576

     occupation numbers 
     1.0000   1.0000   1.0000   1.0000   1.0000   1.0000   1.0000   1.0000
     1.0000   1.0000   1.0000   1.0000   1.0000   1.0000   1.0000   1.0000
     1.0000   1.0000   1.0000   0.0000   0.0000   0.0000   0.0000   0.0000
     0.0000   0.0000   0.0000

     the Fermi energy is    10.7193 ev

     WARNING: integrated charge=    38.00140487, expected=    38.00000000

!    total energy              =    -569.20451760 Ry
     total all-electron energy =     -3412.695073 Ry
     estimated scf accuracy    <       0.00000008 Ry
     smearing contrib. (-TS)   =       0.00002076 Ry
     internal energy E=F+TS    =    -569.20453836 Ry

     The total energy is F=E-TS. E is the sum of the following terms:
     one-electron contribution =    -355.60691220 Ry
     hartree contribution      =     199.46042490 Ry
     xc contribution           =     -60.63426191 Ry
     ewald contribution        =    -230.49676233 Ry
     one-center paw contrib.   =    -121.92702682 Ry
      -> PAW hartree energy AE =     349.14858407 Ry
      -> PAW hartree energy PS =    -349.12748900 Ry
      -> PAW xc energy AE      =    -179.61814594 Ry
      -> PAW xc energy PS      =      57.67002405 Ry
      -> total E_H with PAW    =     199.48151997 Ry
      -> total E_XC with PAW   =    -182.58238380 Ry

     total magnetization       =     0.00 Bohr mag/cell
     absolute magnetization    =     0.00 Bohr mag/cell

     convergence has been achieved in  18 iterations

     Forces acting on atoms (cartesian axes, Ry/au):

     atom    1 type  1   force =     0.00000000    0.00000000    0.23625117
     atom    2 type  2   force =     0.00000000    0.00000000    0.00992535
     atom    3 type  2   force =    -0.00000000   -0.00000000    0.06302279
     atom    4 type  3   force =    -0.00000000   -0.00000000   -0.30919931
     The non-local contrib.  to forces
     atom    1 type  1   force =     0.00000000    0.00000000   -0.46063836
     atom    2 type  2   force =     0.00000000   -0.00000000   -0.91235040
     atom    3 type  2   force =     0.00000000    0.00000000    0.57968065
     atom    4 type  3   force =     0.00000000    0.00000000   -0.53638419
     The ionic contribution  to forces
     atom    1 type  1   force =    -0.00000000   -0.00000000   23.29671567
     atom    2 type  2   force =     0.00000000   -0.00000000   25.05104512
     atom    3 type  2   force =    -0.00000000    0.00000000  -15.20933534
     atom    4 type  3   force =     0.00000000   -0.00000000  -33.13842544
     The local contribution  to forces
     atom    1 type  1   force =    -0.00000000   -0.00000000  -22.59840000
     atom    2 type  2   force =     0.00000001   -0.00000001  -24.13597821
     atom    3 type  2   force =    -0.00000001    0.00000000   14.69893209
     atom    4 type  3   force =    -0.00000000   -0.00000000   33.36423480
     The core correction contribution to forces
     atom    1 type  1   force =     0.00000000   -0.00000000    0.00044045
     atom    2 type  2   force =    -0.00000000    0.00000000    0.00788296
     atom    3 type  2   force =     0.00000000   -0.00000000   -0.00608826
     atom    4 type  3   force =    -0.00000000    0.00000000    0.00043473
     The Hubbard contrib.    to forces
     atom    1 type  1   force =     0.00000000    0.00000000    0.00000000
     atom    2 type  2   force =     0.00000000    0.00000000    0.00000000
     atom    3 type  2   force =     0.00000000    0.00000000    0.00000000
     atom    4 type  3   force =     0.00000000    0.00000000    0.00000000
     The SCF correction term to forces
     atom    1 type  1   force =    -0.00000000    0.00000000   -0.00180292
     atom    2 type  2   force =     0.00000000   -0.00000000   -0.00061046
     atom    3 type  2   force =    -0.00000000    0.00000000   -0.00010269
     atom    4 type  3   force =     0.00000000   -0.00000000    0.00100444

     Total force =     0.394321     Total SCF correction =     0.002155

     Writing all to output data dir ./out/pw.save/ :
     XML data file, charge density, pseudopotentials, collected wavefunctions
 
     init_run     :      9.61s CPU      2.41s WALL (       1 calls)
     electrons    :     88.07s CPU     23.84s WALL (       1 calls)
     forces       :      0.73s CPU      0.56s WALL (       1 calls)

     Called by init_run:
     wfcinit      :      0.26s CPU      0.30s WALL (       1 calls)
     wfcinit:atom :      0.04s CPU      0.04s WALL (      50 calls)
     wfcinit:wfcr :      0.16s CPU      0.19s WALL (      50 calls)
     potinit      :      8.83s CPU      1.56s WALL (       1 calls)
     hinit0       :      0.44s CPU      0.45s WALL (       1 calls)

     Called by electrons:
     c_bands      :     11.72s CPU     11.54s WALL (      18 calls)
     sum_band     :      1.99s CPU      1.93s WALL (      18 calls)
     v_of_rho     :      0.29s CPU      0.14s WALL (      19 calls)
     v_h          :      0.20s CPU      0.02s WALL (      19 calls)
     v_xc         :      0.09s CPU      0.12s WALL (      20 calls)
     newd         :      0.44s CPU      0.33s WALL (      19 calls)
                                        0.33s GPU  (      19 calls)
     PAW_pot      :     77.03s CPU      9.98s WALL (      19 calls)
     mix_rho      :      0.49s CPU      0.47s WALL (      18 calls)

     Called by c_bands:
     init_us_2    :      0.80s CPU      0.76s WALL (    1900 calls)
     cegterg      :     10.38s CPU     10.24s WALL (     900 calls)

     Called by sum_band:
     sum_band:wei :      0.03s CPU      0.03s WALL (      18 calls)
                                        0.03s GPU  (      18 calls)
     sum_band:loo :      1.26s CPU      1.20s WALL (      18 calls)
                                        1.20s GPU  (      18 calls)
     sum_band:buf :      0.12s CPU      0.14s WALL (     900 calls)
                                        0.13s GPU  (     900 calls)
     sum_band:ini :      0.37s CPU      0.37s WALL (     900 calls)
                                        0.36s GPU  (     900 calls)
     sum_band:cal :      0.03s CPU      0.05s WALL (     900 calls)
                                        0.04s GPU  (     900 calls)
     sum_band:bec :      0.20s CPU      0.21s WALL (     900 calls)
                                        0.20s GPU  (     900 calls)
     addusdens    :      0.60s CPU      0.61s WALL (      18 calls)
                                        0.61s GPU  (      18 calls)
     addusd:skk   :      0.00s CPU      0.00s WALL (      54 calls)
                                        0.00s GPU  (      54 calls)

     Called by *egterg:
     cdiaghg      :      3.64s CPU      3.77s WALL (    4180 calls)
                                        3.72s GPU  (    4180 calls)
     cegterg:over :      0.63s CPU      0.65s WALL (    3280 calls)
     cegterg:upda :      0.64s CPU      0.65s WALL (    3280 calls)
     cegterg:last :      0.11s CPU      0.11s WALL (    1750 calls)
     h_psi        :      3.72s CPU      3.60s WALL (    4230 calls)
                                        3.55s GPU  (    4230 calls)
     s_psi        :      0.66s CPU      0.68s WALL (    4230 calls)
     g_psi        :      0.02s CPU      0.08s WALL (    3280 calls)
                                        0.04s GPU  (    3280 calls)

     Called by h_psi:
     h_psi:calbec :      0.13s CPU      0.23s WALL (    4230 calls)
                                        0.18s GPU  (    4230 calls)
     vloc_psi     :      2.55s CPU      2.37s WALL (    4230 calls)
                                        2.32s GPU  (    4230 calls)
     add_vuspsi   :      0.59s CPU      0.69s WALL (    4230 calls)
                                        0.64s GPU  (    4230 calls)

     General routines
     calbec       :      0.14s CPU      0.16s WALL (    5330 calls)
     fft          :      2.94s CPU      0.60s WALL (     488 calls)
                                        0.02s GPU  (     450 calls)
     ffts         :      1.85s CPU      0.35s WALL (     641 calls)
                                        0.01s GPU  (     603 calls)
     fftw         :      0.26s CPU      0.76s WALL (   14004 calls)
                                        0.60s GPU  (   14004 calls)
     interpolate  :      4.86s CPU      0.91s WALL (      38 calls)
 
     Parallel routines

     PAW routines
     PAW_pot      :     77.03s CPU      9.98s WALL (      19 calls)
     PAW_symme    :      0.02s CPU      0.00s WALL (      37 calls)
 
     PWSCF        :   1m39.24s CPU     27.32s WALL

 
   This run was terminated on:   3:50:28  12Jul2026            

=------------------------------------------------------------------------------=
   JOB DONE.
=------------------------------------------------------------------------------=
Warning: ieee_divide_by_zero is signaling
Warning: ieee_inexact is signaling
FORTRAN STOP
