
     Program PWSCF v.7.3.1 starts on 12Jul2026 at  7:11:52 

     This program is part of the open-source Quantum ESPRESSO suite
     for quantum simulation of materials; please cite
         "P. Giannozzi et al., J. Phys.:Condens. Matter 21 395502 (2009);
         "P. Giannozzi et al., J. Phys.:Condens. Matter 29 465901 (2017);
         "P. Giannozzi et al., J. Chem. Phys. 152 154105 (2020);
          URL http://www.quantum-espresso.org", 
     in publications or presentations arising from this work. More details at
     http://www.quantum-espresso.org/quote

     Parallel version (MPI & OpenMP), running on      14 processor cores
     Number of MPI processes:                 1
     Threads/MPI process:                    14

     MPI processes distributed on     1 nodes
     701323 MiB available memory on the printing compute node when the environment starts
 
     Reading input from pw.in

     Current dimensions of program PWSCF are:
     Max number of different atomic species (ntypx) = 10
     Max number of k-points (npk) =  40000
     Max angular momentum in pseudopotentials (lmaxx) =  4
     file Co.pbe-spn-kjpaw_psl.0.3.1.UPF: wavefunction(s)  3P 3D renormalized
     file O.pbe-n-kjpaw_psl.1.0.0.UPF: wavefunction(s)  2S 2P renormalized
     file Na.pbe-spn-kjpaw_psl.1.0.0.UPF: wavefunction(s)  2P renormalized
 
     Subspace diagonalization in iterative solution of the eigenvalue problem:
     a serial algorithm will be used

 
     G-vector sticks info
     --------------------
     sticks:   dense  smooth     PW     G-vecs:    dense   smooth      PW
     Sum        2941    1483    421               256907    90927   13645
 
     Using Slab Decomposition
 


     bravais-lattice index     =            4
     lattice parameter (alat)  =       9.4527  a.u.
     unit-cell volume          =    1447.6983 (a.u.)^3
     number of atoms/cell      =           10
     number of atomic types    =            3
     number of electrons       =        96.00
     number of Kohn-Sham states=           64
     kinetic-energy cutoff     =      60.0000  Ry
     charge density cutoff     =     480.0000  Ry
     scf convergence threshold =      1.0E-07
     mixing beta               =       0.3000
     number of iterations used =            8  local-TF  mixing
     Exchange-correlation= SLA  PW   PBX  PBC
                           (   1   4   3   4   0   0   0)

     GPU acceleration is ACTIVE.  1 visible GPUs per MPI rank
     GPU-aware MPI enabled


     GPU used by master process:

        Device Number: 0
        Device name: NVIDIA A100-SXM4-80GB
        Compute capability : 80
        Ratio of single to double precision performance  : 2
        Memory Clock Rate (KHz): 1593000
        Memory Bus Width (bits): 5120
        Peak Memory Bandwidth (GB/s): ******

     celldm(1)=   9.452718  celldm(2)=   0.000000  celldm(3)=   1.979144
     celldm(4)=   0.000000  celldm(5)=   0.000000  celldm(6)=   0.000000

     crystal axes: (cart. coord. in units of alat)
               a(1) = (   1.000000   0.000000   0.000000 )  
               a(2) = (  -0.500000   0.866025   0.000000 )  
               a(3) = (   0.000000   0.000000   1.979144 )  

     reciprocal axes: (cart. coord. in units 2 pi/alat)
               b(1) = (  1.000000  0.577350 -0.000000 )  
               b(2) = (  0.000000  1.154701  0.000000 )  
               b(3) = (  0.000000 -0.000000  0.505269 )  


     PseudoPot. # 1 for Co read from file:
     ../../pseudo/Co.pbe-spn-kjpaw_psl.0.3.1.UPF
     MD5 check sum: 3c0a43779828c046024e4f3be63f8e67
     Pseudo is Projector augmented-wave + core cor, Zval = 17.0
     Generated using &quot;atomic&quot; code by A. Dal Corso  v.6.2.2
     Shape of augmentation charge: PSQ
     Using radial grid of 1193 points,  6 beta functions with: 
                l(1) =   0
                l(2) =   0
                l(3) =   1
                l(4) =   1
                l(5) =   2
                l(6) =   2
     Q(r) pseudized with 0 coefficients 


     PseudoPot. # 2 for O  read from file:
     ../../pseudo/O.pbe-n-kjpaw_psl.1.0.0.UPF
     MD5 check sum: e99d9cef9b487d1ca56f5b95ecd0fd7a
     Pseudo is Projector augmented-wave + core cor, Zval =  6.0
     Generated using &quot;atomic&quot; code by A. Dal Corso  v.6.3
     Shape of augmentation charge: PSQ
     Using radial grid of 1095 points,  4 beta functions with: 
                l(1) =   0
                l(2) =   0
                l(3) =   1
                l(4) =   1
     Q(r) pseudized with 0 coefficients 


     PseudoPot. # 3 for Na read from file:
     ../../pseudo/Na.pbe-spn-kjpaw_psl.1.0.0.UPF
     MD5 check sum: 05b4deb74e3932c23ab016979dc8b5d4
     Pseudo is Projector augmented-wave + core cor, Zval =  9.0
     Generated using &quot;atomic&quot; code by A. Dal Corso  v.6.3
     Shape of augmentation charge: PSQ
     Using radial grid of 1121 points,  4 beta functions with: 
                l(1) =   0
                l(2) =   0
                l(3) =   1
                l(4) =   1
     Q(r) pseudized with 0 coefficients 


     atomic species   valence    mass     pseudopotential
     Co               17.00    58.93300     Co( 1.00)
     O                 6.00    15.99900     O ( 1.00)
     Na                9.00    22.98977     Na( 1.00)

     Starting magnetic structure 
     atomic species   magnetization
     Co              0.300
     O               0.000
     Na              0.000

      6 Sym. Ops. (no inversion) found


                                    s                        frac. trans.

      isym =  1     identity                                     

 cryst.   s( 1) = (     1          0          0      )
                  (     0          1          0      )
                  (     0          0          1      )

 cart.    s( 1) = (  1.0000000  0.0000000  0.0000000 )
                  (  0.0000000  1.0000000  0.0000000 )
                  (  0.0000000  0.0000000  1.0000000 )


      isym =  2     120 deg rotation - cryst. axis [0,0,1]       

 cryst.   s( 2) = (     0          1          0      )
                  (    -1         -1          0      )
                  (     0          0          1      )

 cart.    s( 2) = ( -0.5000000 -0.8660254  0.0000000 )
                  (  0.8660254 -0.5000000  0.0000000 )
                  (  0.0000000  0.0000000  1.0000000 )


      isym =  3     120 deg rotation - cryst. axis [0,0,-1]      

 cryst.   s( 3) = (    -1         -1          0      )
                  (     1          0          0      )
                  (     0          0          1      )

 cart.    s( 3) = ( -0.5000000  0.8660254  0.0000000 )
                  ( -0.8660254 -0.5000000  0.0000000 )
                  (  0.0000000  0.0000000  1.0000000 )


      isym =  4     inv. 180 deg rotation - cart. axis [0,1,0]   

 cryst.   s( 4) = (     1          0          0      )
                  (    -1         -1          0      )
                  (     0          0          1      )

 cart.    s( 4) = (  1.0000000  0.0000000  0.0000000 )
                  (  0.0000000 -1.0000000  0.0000000 )
                  (  0.0000000  0.0000000  1.0000000 )


      isym =  5     inv. 180 deg rotation - cryst. axis [1,-1,0] 

 cryst.   s( 5) = (     0          1          0      )
                  (     1          0          0      )
                  (     0          0          1      )

 cart.    s( 5) = ( -0.5000000  0.8660254  0.0000000 )
                  (  0.8660254  0.5000000  0.0000000 )
                  (  0.0000000  0.0000000  1.0000000 )


      isym =  6     inv. 180 deg rotation - cryst. axis [2,1,0]  

 cryst.   s( 6) = (    -1         -1          0      )
                  (     0          1          0      )
                  (     0          0          1      )

 cart.    s( 6) = ( -0.5000000 -0.8660254  0.0000000 )
                  ( -0.8660254  0.5000000  0.0000000 )
                  (  0.0000000  0.0000000  1.0000000 )


     point group C_3v (3m)  
     there are  3 classes
     the character table:

       E     2C3   3s_v 
A_1    1.00  1.00  1.00
A_2    1.00  1.00 -1.00
E      2.00 -1.00  0.00

     the symmetry operations in each class and the name of the first element:

     E        1
          identity                                               
     2C3      2    3
          120 deg rotation - cryst. axis [0,0,1]                 
     3s_v     4    6    5
          inv. 180 deg rotation - cart. axis [0,1,0]             

   Cartesian axes

     site n.     atom                  positions (alat units)
         1        Co     tau(   1) = (   0.0000000   0.0000000   0.0000000  )
         2        Co     tau(   2) = (  -0.0000000   0.5773503   0.0000000  )
         3        Co     tau(   3) = (   0.5000000   0.2886751   0.0000000  )
         4        O      tau(   4) = (   0.1666667   0.2886751   0.1799222  )
         5        O      tau(   5) = (   0.6666667   0.0000000   0.1799222  )
         6        O      tau(   6) = (  -0.3333333   0.5773503   0.1799222  )
         7        O      tau(   7) = (   0.3333333   0.0000000   1.7992218  )
         8        O      tau(   8) = (   0.3333333   0.5773503   1.7992218  )
         9        O      tau(   9) = (  -0.1666667   0.2886751   1.7992218  )
        10        Na     tau(  10) = (   0.0000000   0.0000000   1.1395071  )

   Crystallographic axes

     site n.     atom                  positions (cryst. coord.)
         1        Co     tau(   1) = (  0.0000000  0.0000000  0.0000000  )
         2        Co     tau(   2) = (  0.3333333  0.6666667  0.0000000  )
         3        Co     tau(   3) = (  0.6666667  0.3333333  0.0000000  )
         4        O      tau(   4) = (  0.3333333  0.3333333  0.0909091  )
         5        O      tau(   5) = (  0.6666667  0.0000000  0.0909091  )
         6        O      tau(   6) = (  0.0000000  0.6666667  0.0909091  )
         7        O      tau(   7) = (  0.3333333  0.0000000  0.9090909  )
         8        O      tau(   8) = (  0.6666667  0.6666667  0.9090909  )
         9        O      tau(   9) = ( -0.0000000  0.3333333  0.9090909  )
        10        Na     tau(  10) = (  0.0000000  0.0000000  0.5757576  )

     number of k points=    14  Marzari-Vanderbilt smearing, width (Ry)=  0.0200
                       cart. coord. in units 2pi/alat
        k(    1) = (   0.0000000   0.0000000   0.0000000), wk =   0.0138889
        k(    2) = (   0.0000000   0.0000000  -0.2526345), wk =   0.0138889
        k(    3) = (   0.0000000   0.1924501   0.0000000), wk =   0.0833333
        k(    4) = (   0.0000000   0.1924501  -0.2526345), wk =   0.0833333
        k(    5) = (   0.0000000   0.3849002   0.0000000), wk =   0.0833333
        k(    6) = (   0.0000000   0.3849002  -0.2526345), wk =   0.0833333
        k(    7) = (   0.0000000  -0.5773503   0.0000000), wk =   0.0416667
        k(    8) = (   0.0000000  -0.5773503  -0.2526345), wk =   0.0416667
        k(    9) = (   0.1666667   0.2886751   0.0000000), wk =   0.0833333
        k(   10) = (   0.1666667   0.2886751  -0.2526345), wk =   0.0833333
        k(   11) = (   0.1666667   0.4811252   0.0000000), wk =   0.1666667
        k(   12) = (   0.1666667   0.4811252  -0.2526345), wk =   0.1666667
        k(   13) = (   0.3333333   0.5773503   0.0000000), wk =   0.0277778
        k(   14) = (   0.3333333   0.5773503  -0.2526345), wk =   0.0277778

                       cryst. coord.
        k(    1) = (   0.0000000   0.0000000   0.0000000), wk =   0.0138889
        k(    2) = (   0.0000000   0.0000000  -0.5000000), wk =   0.0138889
        k(    3) = (   0.0000000   0.1666667   0.0000000), wk =   0.0833333
        k(    4) = (   0.0000000   0.1666667  -0.5000000), wk =   0.0833333
        k(    5) = (   0.0000000   0.3333333   0.0000000), wk =   0.0833333
        k(    6) = (   0.0000000   0.3333333  -0.5000000), wk =   0.0833333
        k(    7) = (   0.0000000  -0.5000000   0.0000000), wk =   0.0416667
        k(    8) = (   0.0000000  -0.5000000  -0.5000000), wk =   0.0416667
        k(    9) = (   0.1666667   0.1666667   0.0000000), wk =   0.0833333
        k(   10) = (   0.1666667   0.1666667  -0.5000000), wk =   0.0833333
        k(   11) = (   0.1666667   0.3333333   0.0000000), wk =   0.1666667
        k(   12) = (   0.1666667   0.3333333  -0.5000000), wk =   0.1666667
        k(   13) = (   0.3333333   0.3333333   0.0000000), wk =   0.0277778
        k(   14) = (   0.3333333   0.3333333  -0.5000000), wk =   0.0277778

     Dense  grid:   256907 G-vectors     FFT dimensions: (  72,  72, 135)

     Smooth grid:    90927 G-vectors     FFT dimensions: (  48,  48,  96)

     Dynamical RAM for                 wfc:      11.10 MB

     Dynamical RAM for     wfc (w. buffer):     321.78 MB

     Dynamical RAM for           str. fact:      11.76 MB

     Dynamical RAM for           local pot:       0.00 MB

     Dynamical RAM for          nlocal pot:      19.07 MB

     Dynamical RAM for                qrad:       5.27 MB

     Dynamical RAM for          rho,v,vnew:      55.56 MB

     Dynamical RAM for               rhoin:      18.52 MB

     Dynamical RAM for            rho*nmix:     125.44 MB

     Dynamical RAM for           G-vectors:      15.39 MB

     Dynamical RAM for          h,s,v(r/c):       0.75 MB

     Dynamical RAM for          <psi|beta>:       0.11 MB

     Dynamical RAM for                 psi:      22.19 MB

     Dynamical RAM for                hpsi:      22.19 MB

     Dynamical RAM for                spsi:      22.19 MB

     Dynamical RAM for      wfcinit/wfcrot:      22.29 MB

     Dynamical RAM for           addusdens:     756.58 MB

     Dynamical RAM for          addusforce:     795.83 MB

     Estimated static dynamical RAM per process >     495.07 MB

     Estimated max dynamical RAM per process >       1.38 GB

     Check: negative core charge=   -0.000006
     Generating pointlists ...
     new r_m :   0.1563 (alat units)  1.4770 (a.u.) for type    1
     new r_m :   0.1563 (alat units)  1.4770 (a.u.) for type    2
     new r_m :   0.3049 (alat units)  2.8821 (a.u.) for type    3

     Initial potential from superposition of free atoms

     starting charge      95.9928, renormalised to      96.0000
     Starting wfcs are   59 randomized atomic wfcs +    5 random wfcs
     Checking if some PAW data can be deallocated... 

     total cpu time spent up to now is        5.4 secs

     Self-consistent Calculation
[tb_dev] Currently allocated     9.94E-01 Mbytes, locked:    0 /   6
[tb_pin] Currently allocated     0.00E+00 Mbytes, locked:    0 /   0

     iteration #  1     ecut=    60.00 Ry     beta= 0.30
     Davidson diagonalization with overlap

---- Real-time Memory Report at c_bands before calling an iterative solver
          1073 MiB given to the printing process from OS
             0 MiB allocation reported by mallinfo(arena+hblkhd)
        701269 MiB available memory on the node where the printing process lives
     GPU memory used/free/total (MiB): 1998 / 79152 / 81151
------------------
     ethr =  1.00E-02,  avg # of iterations = 10.6

     total cpu time spent up to now is        9.1 secs

     total energy              =   -1488.22842882 Ry
     estimated scf accuracy    <       6.16994261 Ry

     total magnetization       =    14.00 Bohr mag/cell
     absolute magnetization    =    14.00 Bohr mag/cell
[tb_dev] Currently allocated     7.63E-05 Mbytes, locked:    0 /   2
[tb_pin] Currently allocated     0.00E+00 Mbytes, locked:    0 /   0

     iteration #  2     ecut=    60.00 Ry     beta= 0.30
     Davidson diagonalization with overlap

---- Real-time Memory Report at c_bands before calling an iterative solver
          1137 MiB given to the printing process from OS
             0 MiB allocation reported by mallinfo(arena+hblkhd)
        699894 MiB available memory on the node where the printing process lives
     GPU memory used/free/total (MiB): 2084 / 79066 / 81151
------------------
     ethr =  6.43E-03,  avg # of iterations =  2.0

     total cpu time spent up to now is       11.6 secs

     total energy              =   -1488.62936428 Ry
     estimated scf accuracy    <       1.17840375 Ry

     total magnetization       =     9.85 Bohr mag/cell
     absolute magnetization    =     9.85 Bohr mag/cell
[tb_dev] Currently allocated     7.63E-05 Mbytes, locked:    0 /   2
[tb_pin] Currently allocated     0.00E+00 Mbytes, locked:    0 /   0

     iteration #  3     ecut=    60.00 Ry     beta= 0.30
     Davidson diagonalization with overlap

---- Real-time Memory Report at c_bands before calling an iterative solver
          1145 MiB given to the printing process from OS
             0 MiB allocation reported by mallinfo(arena+hblkhd)
        699733 MiB available memory on the node where the printing process lives
     GPU memory used/free/total (MiB): 2084 / 79066 / 81151
------------------
     ethr =  1.23E-03,  avg # of iterations =  3.8

     total cpu time spent up to now is       14.3 secs

     total energy              =   -1488.85966646 Ry
     estimated scf accuracy    <       1.93502292 Ry

     total magnetization       =     4.18 Bohr mag/cell
     absolute magnetization    =     4.96 Bohr mag/cell
[tb_dev] Currently allocated     7.63E-05 Mbytes, locked:    0 /   2
[tb_pin] Currently allocated     0.00E+00 Mbytes, locked:    0 /   0

     iteration #  4     ecut=    60.00 Ry     beta= 0.30
     Davidson diagonalization with overlap

---- Real-time Memory Report at c_bands before calling an iterative solver
          1161 MiB given to the printing process from OS
             0 MiB allocation reported by mallinfo(arena+hblkhd)
        699697 MiB available memory on the node where the printing process lives
     GPU memory used/free/total (MiB): 2084 / 79066 / 81151
------------------
     ethr =  1.23E-03,  avg # of iterations =  1.3

     total cpu time spent up to now is       16.7 secs

     total energy              =   -1489.06483351 Ry
     estimated scf accuracy    <       0.67629626 Ry

     total magnetization       =     6.10 Bohr mag/cell
     absolute magnetization    =     6.40 Bohr mag/cell
[tb_dev] Currently allocated     7.63E-05 Mbytes, locked:    0 /   2
[tb_pin] Currently allocated     0.00E+00 Mbytes, locked:    0 /   0

     iteration #  5     ecut=    60.00 Ry     beta= 0.30
     Davidson diagonalization with overlap

---- Real-time Memory Report at c_bands before calling an iterative solver
          1178 MiB given to the printing process from OS
             0 MiB allocation reported by mallinfo(arena+hblkhd)
        699696 MiB available memory on the node where the printing process lives
     GPU memory used/free/total (MiB): 2084 / 79066 / 81151
------------------
     ethr =  7.04E-04,  avg # of iterations =  3.3

     total cpu time spent up to now is       19.4 secs

     total energy              =   -1489.17803829 Ry
     estimated scf accuracy    <       0.93574692 Ry

     total magnetization       =     2.34 Bohr mag/cell
     absolute magnetization    =     3.69 Bohr mag/cell
[tb_dev] Currently allocated     7.63E-05 Mbytes, locked:    0 /   2
[tb_pin] Currently allocated     0.00E+00 Mbytes, locked:    0 /   0

     iteration #  6     ecut=    60.00 Ry     beta= 0.30
     Davidson diagonalization with overlap

---- Real-time Memory Report at c_bands before calling an iterative solver
          1194 MiB given to the printing process from OS
             0 MiB allocation reported by mallinfo(arena+hblkhd)
        699660 MiB available memory on the node where the printing process lives
     GPU memory used/free/total (MiB): 2084 / 79066 / 81151
------------------
     ethr =  7.04E-04,  avg # of iterations =  1.8

     total cpu time spent up to now is       21.8 secs

     total energy              =   -1489.00026610 Ry
     estimated scf accuracy    <       0.41091496 Ry

     total magnetization       =     2.00 Bohr mag/cell
     absolute magnetization    =     3.15 Bohr mag/cell
[tb_dev] Currently allocated     7.63E-05 Mbytes, locked:    0 /   2
[tb_pin] Currently allocated     0.00E+00 Mbytes, locked:    0 /   0

     iteration #  7     ecut=    60.00 Ry     beta= 0.30
     Davidson diagonalization with overlap

---- Real-time Memory Report at c_bands before calling an iterative solver
          1197 MiB given to the printing process from OS
             0 MiB allocation reported by mallinfo(arena+hblkhd)
        699607 MiB available memory on the node where the printing process lives
     GPU memory used/free/total (MiB): 2084 / 79066 / 81151
------------------
     c_bands:  1 eigenvalues not converged
     c_bands:  2 eigenvalues not converged
     c_bands:  2 eigenvalues not converged
     c_bands:  2 eigenvalues not converged
     ethr =  4.28E-04,  avg # of iterations = 10.4

     total cpu time spent up to now is       25.3 secs

     total energy              =   -1489.17740408 Ry
     estimated scf accuracy    <       0.46433318 Ry

     total magnetization       =    -1.63 Bohr mag/cell
     absolute magnetization    =     1.63 Bohr mag/cell
[tb_dev] Currently allocated     7.63E-05 Mbytes, locked:    0 /   2
[tb_pin] Currently allocated     0.00E+00 Mbytes, locked:    0 /   0

     iteration #  8     ecut=    60.00 Ry     beta= 0.30
     Davidson diagonalization with overlap

---- Real-time Memory Report at c_bands before calling an iterative solver
          1203 MiB given to the printing process from OS
             0 MiB allocation reported by mallinfo(arena+hblkhd)
        699613 MiB available memory on the node where the printing process lives
     GPU memory used/free/total (MiB): 2084 / 79066 / 81151
------------------
     ethr =  4.28E-04,  avg # of iterations =  1.5

     total cpu time spent up to now is       27.8 secs

     total energy              =   -1489.16803721 Ry
     estimated scf accuracy    <       0.30504719 Ry

     total magnetization       =    -0.49 Bohr mag/cell
     absolute magnetization    =     0.55 Bohr mag/cell
[tb_dev] Currently allocated     7.63E-05 Mbytes, locked:    0 /   2
[tb_pin] Currently allocated     0.00E+00 Mbytes, locked:    0 /   0

     iteration #  9     ecut=    60.00 Ry     beta= 0.30
     Davidson diagonalization with overlap

---- Real-time Memory Report at c_bands before calling an iterative solver
          1205 MiB given to the printing process from OS
             0 MiB allocation reported by mallinfo(arena+hblkhd)
        699594 MiB available memory on the node where the printing process lives
     GPU memory used/free/total (MiB): 2084 / 79066 / 81151
------------------
     ethr =  3.18E-04,  avg # of iterations =  2.6

     total cpu time spent up to now is       30.4 secs

     total energy              =   -1489.08287414 Ry
     estimated scf accuracy    <       0.16973827 Ry

     total magnetization       =    -0.12 Bohr mag/cell
     absolute magnetization    =     0.31 Bohr mag/cell
[tb_dev] Currently allocated     7.63E-05 Mbytes, locked:    0 /   2
[tb_pin] Currently allocated     0.00E+00 Mbytes, locked:    0 /   0

     iteration # 10     ecut=    60.00 Ry     beta= 0.30
     Davidson diagonalization with overlap

---- Real-time Memory Report at c_bands before calling an iterative solver
          1212 MiB given to the printing process from OS
             0 MiB allocation reported by mallinfo(arena+hblkhd)
        699570 MiB available memory on the node where the printing process lives
     GPU memory used/free/total (MiB): 2084 / 79066 / 81151
------------------
     c_bands:  1 eigenvalues not converged
     c_bands:  1 eigenvalues not converged
     c_bands:  1 eigenvalues not converged
     c_bands:  1 eigenvalues not converged
     ethr =  1.77E-04,  avg # of iterations = 10.0

     total cpu time spent up to now is       34.0 secs

     total energy              =   -1489.08740061 Ry
     estimated scf accuracy    <       0.88235649 Ry

     total magnetization       =    -2.00 Bohr mag/cell
     absolute magnetization    =     2.04 Bohr mag/cell
[tb_dev] Currently allocated     7.63E-05 Mbytes, locked:    0 /   2
[tb_pin] Currently allocated     0.00E+00 Mbytes, locked:    0 /   0

     iteration # 11     ecut=    60.00 Ry     beta= 0.30
     Davidson diagonalization with overlap

---- Real-time Memory Report at c_bands before calling an iterative solver
          1212 MiB given to the printing process from OS
             0 MiB allocation reported by mallinfo(arena+hblkhd)
        699563 MiB available memory on the node where the printing process lives
     GPU memory used/free/total (MiB): 2084 / 79066 / 81151
------------------
     ethr =  1.77E-04,  avg # of iterations =  2.3

     total cpu time spent up to now is       36.5 secs

     total energy              =   -1489.14669360 Ry
     estimated scf accuracy    <       0.01752496 Ry

     total magnetization       =    -0.98 Bohr mag/cell
     absolute magnetization    =     0.99 Bohr mag/cell
[tb_dev] Currently allocated     7.63E-05 Mbytes, locked:    0 /   2
[tb_pin] Currently allocated     0.00E+00 Mbytes, locked:    0 /   0

     iteration # 12     ecut=    60.00 Ry     beta= 0.30
     Davidson diagonalization with overlap

---- Real-time Memory Report at c_bands before calling an iterative solver
          1218 MiB given to the printing process from OS
             0 MiB allocation reported by mallinfo(arena+hblkhd)
        699563 MiB available memory on the node where the printing process lives
     GPU memory used/free/total (MiB): 2084 / 79066 / 81151
------------------
     c_bands:  1 eigenvalues not converged
     c_bands:  1 eigenvalues not converged
     c_bands:  2 eigenvalues not converged
     ethr =  1.83E-05,  avg # of iterations =  9.3

     total cpu time spent up to now is       39.9 secs

     total energy              =   -1489.15397922 Ry
     estimated scf accuracy    <       0.03337311 Ry

     total magnetization       =    -1.78 Bohr mag/cell
     absolute magnetization    =     1.79 Bohr mag/cell
[tb_dev] Currently allocated     7.63E-05 Mbytes, locked:    0 /   2
[tb_pin] Currently allocated     0.00E+00 Mbytes, locked:    0 /   0

     iteration # 13     ecut=    60.00 Ry     beta= 0.30
     Davidson diagonalization with overlap

---- Real-time Memory Report at c_bands before calling an iterative solver
          1218 MiB given to the printing process from OS
             0 MiB allocation reported by mallinfo(arena+hblkhd)
        699562 MiB available memory on the node where the printing process lives
     GPU memory used/free/total (MiB): 2084 / 79066 / 81151
------------------
     c_bands:  1 eigenvalues not converged
     ethr =  1.83E-05,  avg # of iterations =  2.9

     total cpu time spent up to now is       42.5 secs

     total energy              =   -1489.15280979 Ry
     estimated scf accuracy    <       0.01857211 Ry

     total magnetization       =    -2.06 Bohr mag/cell
     absolute magnetization    =     2.08 Bohr mag/cell
[tb_dev] Currently allocated     7.63E-05 Mbytes, locked:    0 /   2
[tb_pin] Currently allocated     0.00E+00 Mbytes, locked:    0 /   0

     iteration # 14     ecut=    60.00 Ry     beta= 0.30
     Davidson diagonalization with overlap

---- Real-time Memory Report at c_bands before calling an iterative solver
          1219 MiB given to the printing process from OS
             0 MiB allocation reported by mallinfo(arena+hblkhd)
        699590 MiB available memory on the node where the printing process lives
     GPU memory used/free/total (MiB): 2084 / 79066 / 81151
------------------
     ethr =  1.83E-05,  avg # of iterations =  2.0

     total cpu time spent up to now is       45.1 secs

     total energy              =   -1489.15658514 Ry
     estimated scf accuracy    <       0.00750375 Ry

     total magnetization       =    -2.28 Bohr mag/cell
     absolute magnetization    =     2.32 Bohr mag/cell
[tb_dev] Currently allocated     7.63E-05 Mbytes, locked:    0 /   2
[tb_pin] Currently allocated     0.00E+00 Mbytes, locked:    0 /   0

     iteration # 15     ecut=    60.00 Ry     beta= 0.30
     Davidson diagonalization with overlap

---- Real-time Memory Report at c_bands before calling an iterative solver
          1219 MiB given to the printing process from OS
             0 MiB allocation reported by mallinfo(arena+hblkhd)
        699587 MiB available memory on the node where the printing process lives
     GPU memory used/free/total (MiB): 2084 / 79066 / 81151
------------------
     ethr =  7.82E-06,  avg # of iterations =  4.6

     total cpu time spent up to now is       47.9 secs

     total energy              =   -1489.15239793 Ry
     estimated scf accuracy    <       0.02977161 Ry

     total magnetization       =    -2.05 Bohr mag/cell
     absolute magnetization    =     2.07 Bohr mag/cell
[tb_dev] Currently allocated     7.63E-05 Mbytes, locked:    0 /   2
[tb_pin] Currently allocated     0.00E+00 Mbytes, locked:    0 /   0

     iteration # 16     ecut=    60.00 Ry     beta= 0.30
     Davidson diagonalization with overlap

---- Real-time Memory Report at c_bands before calling an iterative solver
          1219 MiB given to the printing process from OS
             0 MiB allocation reported by mallinfo(arena+hblkhd)
        699572 MiB available memory on the node where the printing process lives
     GPU memory used/free/total (MiB): 2084 / 79066 / 81151
------------------
     ethr =  7.82E-06,  avg # of iterations =  2.0

     total cpu time spent up to now is       50.4 secs

     total energy              =   -1489.15567194 Ry
     estimated scf accuracy    <       0.00318554 Ry

     total magnetization       =    -2.36 Bohr mag/cell
     absolute magnetization    =     2.43 Bohr mag/cell
[tb_dev] Currently allocated     7.63E-05 Mbytes, locked:    0 /   2
[tb_pin] Currently allocated     0.00E+00 Mbytes, locked:    0 /   0

     iteration # 17     ecut=    60.00 Ry     beta= 0.30
     Davidson diagonalization with overlap

---- Real-time Memory Report at c_bands before calling an iterative solver
          1219 MiB given to the printing process from OS
             0 MiB allocation reported by mallinfo(arena+hblkhd)
        699547 MiB available memory on the node where the printing process lives
     GPU memory used/free/total (MiB): 2084 / 79066 / 81151
------------------
     c_bands:  1 eigenvalues not converged
     ethr =  3.32E-06,  avg # of iterations =  8.6

     total cpu time spent up to now is       53.7 secs

     total energy              =   -1489.15728374 Ry
     estimated scf accuracy    <       0.00358087 Ry

     total magnetization       =    -2.41 Bohr mag/cell
     absolute magnetization    =     2.49 Bohr mag/cell
[tb_dev] Currently allocated     7.63E-05 Mbytes, locked:    0 /   2
[tb_pin] Currently allocated     0.00E+00 Mbytes, locked:    0 /   0

     iteration # 18     ecut=    60.00 Ry     beta= 0.30
     Davidson diagonalization with overlap

---- Real-time Memory Report at c_bands before calling an iterative solver
          1221 MiB given to the printing process from OS
             0 MiB allocation reported by mallinfo(arena+hblkhd)
        699551 MiB available memory on the node where the printing process lives
     GPU memory used/free/total (MiB): 2084 / 79066 / 81151
------------------
     ethr =  3.32E-06,  avg # of iterations =  2.8

     total cpu time spent up to now is       56.3 secs

     total energy              =   -1489.15736343 Ry
     estimated scf accuracy    <       0.00028845 Ry

     total magnetization       =    -2.40 Bohr mag/cell
     absolute magnetization    =     2.47 Bohr mag/cell
[tb_dev] Currently allocated     7.63E-05 Mbytes, locked:    0 /   2
[tb_pin] Currently allocated     0.00E+00 Mbytes, locked:    0 /   0

     iteration # 19     ecut=    60.00 Ry     beta= 0.30
     Davidson diagonalization with overlap

---- Real-time Memory Report at c_bands before calling an iterative solver
          1221 MiB given to the printing process from OS
             0 MiB allocation reported by mallinfo(arena+hblkhd)
        699589 MiB available memory on the node where the printing process lives
     GPU memory used/free/total (MiB): 2084 / 79066 / 81151
------------------
     c_bands:  1 eigenvalues not converged
     ethr =  3.00E-07,  avg # of iterations =  8.2

     total cpu time spent up to now is       59.7 secs

     total energy              =   -1489.15766570 Ry
     estimated scf accuracy    <       0.00044018 Ry

     total magnetization       =    -2.41 Bohr mag/cell
     absolute magnetization    =     2.47 Bohr mag/cell
[tb_dev] Currently allocated     7.63E-05 Mbytes, locked:    0 /   2
[tb_pin] Currently allocated     0.00E+00 Mbytes, locked:    0 /   0

     iteration # 20     ecut=    60.00 Ry     beta= 0.30
     Davidson diagonalization with overlap

---- Real-time Memory Report at c_bands before calling an iterative solver
          1221 MiB given to the printing process from OS
             0 MiB allocation reported by mallinfo(arena+hblkhd)
        699576 MiB available memory on the node where the printing process lives
     GPU memory used/free/total (MiB): 2084 / 79066 / 81151
------------------
     ethr =  3.00E-07,  avg # of iterations =  1.8

     total cpu time spent up to now is       62.2 secs

     total energy              =   -1489.15772854 Ry
     estimated scf accuracy    <       0.00012248 Ry

     total magnetization       =    -2.44 Bohr mag/cell
     absolute magnetization    =     2.51 Bohr mag/cell
[tb_dev] Currently allocated     7.63E-05 Mbytes, locked:    0 /   2
[tb_pin] Currently allocated     0.00E+00 Mbytes, locked:    0 /   0

     iteration # 21     ecut=    60.00 Ry     beta= 0.30
     Davidson diagonalization with overlap

---- Real-time Memory Report at c_bands before calling an iterative solver
          1221 MiB given to the printing process from OS
             0 MiB allocation reported by mallinfo(arena+hblkhd)
        699554 MiB available memory on the node where the printing process lives
     GPU memory used/free/total (MiB): 2084 / 79066 / 81151
------------------
     ethr =  1.28E-07,  avg # of iterations =  3.5

     total cpu time spent up to now is       65.0 secs

     total energy              =   -1489.15778841 Ry
     estimated scf accuracy    <       0.00002262 Ry

     total magnetization       =    -2.45 Bohr mag/cell
     absolute magnetization    =     2.54 Bohr mag/cell
[tb_dev] Currently allocated     7.63E-05 Mbytes, locked:    0 /   2
[tb_pin] Currently allocated     0.00E+00 Mbytes, locked:    0 /   0

     iteration # 22     ecut=    60.00 Ry     beta= 0.30
     Davidson diagonalization with overlap

---- Real-time Memory Report at c_bands before calling an iterative solver
          1221 MiB given to the printing process from OS
             0 MiB allocation reported by mallinfo(arena+hblkhd)
        699514 MiB available memory on the node where the printing process lives
     GPU memory used/free/total (MiB): 2084 / 79066 / 81151
------------------
     ethr =  2.36E-08,  avg # of iterations =  9.7

     total cpu time spent up to now is       68.7 secs

     total energy              =   -1489.15780491 Ry
     estimated scf accuracy    <       0.00000656 Ry

     total magnetization       =    -2.45 Bohr mag/cell
     absolute magnetization    =     2.54 Bohr mag/cell
[tb_dev] Currently allocated     7.63E-05 Mbytes, locked:    0 /   2
[tb_pin] Currently allocated     0.00E+00 Mbytes, locked:    0 /   0

     iteration # 23     ecut=    60.00 Ry     beta= 0.30
     Davidson diagonalization with overlap

---- Real-time Memory Report at c_bands before calling an iterative solver
          1221 MiB given to the printing process from OS
             0 MiB allocation reported by mallinfo(arena+hblkhd)
        699506 MiB available memory on the node where the printing process lives
     GPU memory used/free/total (MiB): 2084 / 79066 / 81151
------------------
     ethr =  6.84E-09,  avg # of iterations =  3.4

     total cpu time spent up to now is       71.5 secs

     total energy              =   -1489.15780693 Ry
     estimated scf accuracy    <       0.00000198 Ry

     total magnetization       =    -2.45 Bohr mag/cell
     absolute magnetization    =     2.54 Bohr mag/cell
[tb_dev] Currently allocated     7.63E-05 Mbytes, locked:    0 /   2
[tb_pin] Currently allocated     0.00E+00 Mbytes, locked:    0 /   0

     iteration # 24     ecut=    60.00 Ry     beta= 0.30
     Davidson diagonalization with overlap

---- Real-time Memory Report at c_bands before calling an iterative solver
          1221 MiB given to the printing process from OS
             0 MiB allocation reported by mallinfo(arena+hblkhd)
        699517 MiB available memory on the node where the printing process lives
     GPU memory used/free/total (MiB): 2084 / 79066 / 81151
------------------
     ethr =  2.06E-09,  avg # of iterations =  6.3

     total cpu time spent up to now is       74.7 secs

     total energy              =   -1489.15780806 Ry
     estimated scf accuracy    <       0.00000044 Ry

     total magnetization       =    -2.45 Bohr mag/cell
     absolute magnetization    =     2.55 Bohr mag/cell
[tb_dev] Currently allocated     7.63E-05 Mbytes, locked:    0 /   2
[tb_pin] Currently allocated     0.00E+00 Mbytes, locked:    0 /   0

     iteration # 25     ecut=    60.00 Ry     beta= 0.30
     Davidson diagonalization with overlap

---- Real-time Memory Report at c_bands before calling an iterative solver
          1221 MiB given to the printing process from OS
             0 MiB allocation reported by mallinfo(arena+hblkhd)
        699513 MiB available memory on the node where the printing process lives
     GPU memory used/free/total (MiB): 2084 / 79066 / 81151
------------------
     ethr =  4.62E-10,  avg # of iterations =  6.4

     total cpu time spent up to now is       78.1 secs

     total energy              =   -1489.15780885 Ry
     estimated scf accuracy    <       0.00000019 Ry

     total magnetization       =    -2.44 Bohr mag/cell
     absolute magnetization    =     2.55 Bohr mag/cell
[tb_dev] Currently allocated     7.63E-05 Mbytes, locked:    0 /   2
[tb_pin] Currently allocated     0.00E+00 Mbytes, locked:    0 /   0

     iteration # 26     ecut=    60.00 Ry     beta= 0.30
     Davidson diagonalization with overlap

---- Real-time Memory Report at c_bands before calling an iterative solver
          1221 MiB given to the printing process from OS
             0 MiB allocation reported by mallinfo(arena+hblkhd)
        699525 MiB available memory on the node where the printing process lives
     GPU memory used/free/total (MiB): 2084 / 79066 / 81151
------------------
     ethr =  2.02E-10,  avg # of iterations =  2.5
 
     Magnetic moment per site  (integrated on atomic sphere of radius R)
     atom   1 (R=0.156)  charge= 14.0209  magn= -0.6177
     atom   2 (R=0.156)  charge= 14.0197  magn= -0.6152
     atom   3 (R=0.156)  charge= 14.0197  magn= -0.6152
     atom   4 (R=0.156)  charge=  5.1657  magn= -0.0816
     atom   5 (R=0.156)  charge=  5.1657  magn= -0.0816
     atom   6 (R=0.156)  charge=  5.1657  magn= -0.0816
     atom   7 (R=0.156)  charge=  5.1755  magn= -0.0611
     atom   8 (R=0.156)  charge=  5.1755  magn= -0.0611
     atom   9 (R=0.156)  charge=  5.1755  magn= -0.0611
     atom  10 (R=0.305)  charge=  8.1241  magn=  0.0106

     total cpu time spent up to now is       80.6 secs

     End of self-consistent calculation

 ------ SPIN UP ------------


          k = 0.0000 0.0000 0.0000 ( 11393 PWs)   bands (ev):

   -92.6983 -92.6930 -92.6909 -56.0557 -56.0557 -56.0545 -56.0545 -56.0132
   -56.0132 -55.7586 -55.7496 -55.7472 -52.0864 -24.0045 -24.0045 -23.9628
   -17.0255 -15.2368 -15.2368 -15.1430 -15.1430 -14.7262  -2.9824  -2.9824
    -2.9249  -2.9249  -2.8465  -2.8465  -2.7516  -2.6362  -2.6254  -0.6317
    -0.6317  -0.5082  -0.5082  -0.3615  -0.3466   0.6336   1.0725   1.0725
     1.4258   1.4258   1.7243   1.7301   2.0689   2.5003   2.5003   2.5372
     2.5372   3.1646   4.4792   4.4792   4.4875   4.4875   5.3200   5.3200
     6.0479   8.5271   9.2362   9.2362   9.9683   9.9683  10.4336  10.7441

     occupation numbers 
     1.0000   1.0000   1.0000   1.0000   1.0000   1.0000   1.0000   1.0000
     1.0000   1.0000   1.0000   1.0000   1.0000   1.0000   1.0000   1.0000
     1.0000   1.0000   1.0000   1.0000   1.0000   1.0000   1.0000   1.0000
     1.0000   1.0000   1.0000   1.0000   1.0000   1.0000   1.0000   1.0000
     1.0000   1.0000   1.0000   1.0000   1.0000   1.0000   1.0000   1.0000
     1.0000   1.0000   1.0022   1.0024   1.0734   0.4399   0.4399   0.3479
     0.3479   0.0000   0.0000   0.0000   0.0000   0.0000   0.0000   0.0000
     0.0000   0.0000   0.0000   0.0000   0.0000   0.0000   0.0000   0.0000

          k = 0.0000 0.0000-0.2526 ( 11446 PWs)   bands (ev):

   -92.6983 -92.6930 -92.6909 -56.0557 -56.0557 -56.0545 -56.0545 -56.0133
   -56.0133 -55.7588 -55.7497 -55.7473 -52.0864 -24.0046 -24.0046 -23.9631
   -17.0255 -15.2368 -15.2368 -15.1430 -15.1430 -14.7263  -2.9824  -2.9824
    -2.9249  -2.9249  -2.8466  -2.8466  -2.7494  -2.6362  -2.6254  -0.6317
    -0.6317  -0.5082  -0.5082  -0.3616  -0.3466   0.5833   1.0725   1.0725
     1.4258   1.4258   1.7244   1.7301   2.1994   2.5002   2.5002   2.5372
     2.5372   3.1198   4.4795   4.4795   4.4878   4.4878   5.3199   5.3199
     5.8187   9.2283   9.2283   9.2841   9.9607   9.9607  10.2646  10.7396

     occupation numbers 
     1.0000   1.0000   1.0000   1.0000   1.0000   1.0000   1.0000   1.0000
     1.0000   1.0000   1.0000   1.0000   1.0000   1.0000   1.0000   1.0000
     1.0000   1.0000   1.0000   1.0000   1.0000   1.0000   1.0000   1.0000
     1.0000   1.0000   1.0000   1.0000   1.0000   1.0000   1.0000   1.0000
     1.0000   1.0000   1.0000   1.0000   1.0000   1.0000   1.0000   1.0000
     1.0000   1.0000   1.0022   1.0024   1.0644   0.4400   0.4400   0.3481
     0.3481   0.0001   0.0000   0.0000   0.0000   0.0000   0.0000   0.0000
     0.0000   0.0000   0.0000   0.0000   0.0000   0.0000   0.0000   0.0000

          k = 0.0000 0.1925 0.0000 ( 11360 PWs)   bands (ev):

   -92.6978 -92.6932 -92.6911 -56.0646 -56.0619 -56.0442 -56.0430 -56.0185
   -56.0145 -55.7578 -55.7499 -55.7475 -52.0864 -24.0047 -24.0046 -23.9627
   -16.9164 -15.3784 -15.2885 -15.1447 -15.0803 -14.7427  -3.4047  -3.1237
    -2.9630  -2.9317  -2.8268  -2.7729  -2.6324  -2.2502  -2.0407  -1.0431
    -0.9533  -0.6929  -0.5943   0.0677   0.1531   0.3655   0.4940   0.9003
     1.7413   1.7880   1.8287   1.8535   2.2579   2.2713   2.2850   2.6216
     2.6836   3.1752   4.4794   4.4936   4.5102   4.6140   5.0218   5.2359
     6.2626   7.5142   8.5245   8.8135   9.1633  10.9050  11.1025  11.6172

     occupation numbers 
     1.0000   1.0000   1.0000   1.0000   1.0000   1.0000   1.0000   1.0000
     1.0000   1.0000   1.0000   1.0000   1.0000   1.0000   1.0000   1.0000
     1.0000   1.0000   1.0000   1.0000   1.0000   1.0000   1.0000   1.0000
     1.0000   1.0000   1.0000   1.0000   1.0000   1.0000   1.0000   1.0000
     1.0000   1.0000   1.0000   1.0000   1.0000   1.0000   1.0000   1.0000
     1.0029   1.0056   1.0096   1.0130   1.0094   0.9909   0.9699   0.1803
     0.0996   0.0000   0.0000   0.0000   0.0000   0.0000   0.0000   0.0000
     0.0000   0.0000   0.0000   0.0000   0.0000   0.0000   0.0000   0.0000

          k = 0.0000 0.1925-0.2526 ( 11384 PWs)   bands (ev):

   -92.6978 -92.6932 -92.6911 -56.0646 -56.0619 -56.0442 -56.0429 -56.0185
   -56.0145 -55.7579 -55.7500 -55.7475 -52.0864 -24.0047 -24.0046 -23.9628
   -16.9164 -15.3784 -15.2885 -15.1447 -15.0803 -14.7428  -3.4048  -3.1237
    -2.9630  -2.9319  -2.8268  -2.7729  -2.6304  -2.2502  -2.0407  -1.0431
    -0.9534  -0.6928  -0.5943   0.0678   0.1531   0.3661   0.4887   0.8626
     1.7418   1.7880   1.8287   1.8448   2.2580   2.2715   2.4153   2.6214
     2.6834   3.1228   4.4797   4.4933   4.5116   4.6147   5.0394   5.2321
     6.0532   7.5037   8.5168   9.1083   9.5213  10.8504  11.0539  11.1183

     occupation numbers 
     1.0000   1.0000   1.0000   1.0000   1.0000   1.0000   1.0000   1.0000
     1.0000   1.0000   1.0000   1.0000   1.0000   1.0000   1.0000   1.0000
     1.0000   1.0000   1.0000   1.0000   1.0000   1.0000   1.0000   1.0000
     1.0000   1.0000   1.0000   1.0000   1.0000   1.0000   1.0000   1.0000
     1.0000   1.0000   1.0000   1.0000   1.0000   1.0000   1.0000   1.0000
     1.0029   1.0056   1.0096   1.0117   1.0093   0.9907   0.6719   0.1806
     0.0998   0.0001   0.0000   0.0000   0.0000   0.0000   0.0000   0.0000
     0.0000   0.0000   0.0000   0.0000   0.0000   0.0000   0.0000   0.0000

          k = 0.0000 0.3849 0.0000 ( 11350 PWs)   bands (ev):

   -92.6967 -92.6939 -92.6915 -56.0711 -56.0594 -56.0338 -56.0326 -56.0313
   -56.0184 -55.7558 -55.7511 -55.7483 -52.0864 -24.0049 -24.0047 -23.9627
   -16.6118 -15.7276 -15.3392 -15.1852 -14.9747 -14.7924  -3.8205  -3.0600
    -3.0064  -2.9154  -2.5886  -2.5402  -2.3411  -2.0544  -1.5798  -1.2029
    -1.0862  -0.9835  -0.6600  -0.6481  -0.1701   0.4023   0.7777   1.2593
     1.8721   1.9191   1.9831   2.0066   2.2682   2.2883   2.4639   2.7200
     2.8314   3.1725   4.4030   4.4928   4.4978   4.5602   4.9534   5.0054
     5.6505   6.8417   7.9321   8.4824   9.1895   9.6645  11.5761  11.6901

     occupation numbers 
     1.0000   1.0000   1.0000   1.0000   1.0000   1.0000   1.0000   1.0000
     1.0000   1.0000   1.0000   1.0000   1.0000   1.0000   1.0000   1.0000
     1.0000   1.0000   1.0000   1.0000   1.0000   1.0000   1.0000   1.0000
     1.0000   1.0000   1.0000   1.0000   1.0000   1.0000   1.0000   1.0000
     1.0000   1.0000   1.0000   1.0000   1.0000   1.0000   1.0000   1.0000
     1.0160   1.0261   1.0451   1.0531   0.9954   0.9643   0.5376   0.0671
     0.0163   0.0000   0.0000   0.0000   0.0000   0.0000   0.0000   0.0000
     0.0000   0.0000   0.0000   0.0000   0.0000   0.0000   0.0000   0.0000

          k = 0.0000 0.3849-0.2526 ( 11352 PWs)   bands (ev):

   -92.6967 -92.6939 -92.6915 -56.0710 -56.0593 -56.0339 -56.0325 -56.0313
   -56.0184 -55.7559 -55.7511 -55.7483 -52.0864 -24.0048 -24.0047 -23.9627
   -16.6118 -15.7276 -15.3392 -15.1852 -14.9747 -14.7925  -3.8204  -3.0603
    -3.0066  -2.9154  -2.5886  -2.5402  -2.3398  -2.0544  -1.5798  -1.2029
    -1.0862  -0.9830  -0.6598  -0.6474  -0.1701   0.4026   0.7775   1.2387
     1.8721   1.9192   1.9832   2.0066   2.2685   2.2729   2.4638   2.7183
     2.9611   3.0871   4.3949   4.4970   4.5301   4.5719   4.9539   4.9886
     5.6447   6.7081   7.9290   8.4686   9.2228  10.0792  11.5975  11.7775

     occupation numbers 
     1.0000   1.0000   1.0000   1.0000   1.0000   1.0000   1.0000   1.0000
     1.0000   1.0000   1.0000   1.0000   1.0000   1.0000   1.0000   1.0000
     1.0000   1.0000   1.0000   1.0000   1.0000   1.0000   1.0000   1.0000
     1.0000   1.0000   1.0000   1.0000   1.0000   1.0000   1.0000   1.0000
     1.0000   1.0000   1.0000   1.0000   1.0000   1.0000   1.0000   1.0000
     1.0160   1.0261   1.0451   1.0531   0.9951   0.9887   0.5380   0.0685
     0.0021   0.0002   0.0000   0.0000   0.0000   0.0000   0.0000   0.0000
     0.0000   0.0000   0.0000   0.0000   0.0000   0.0000   0.0000   0.0000

          k = 0.0000-0.5774 0.0000 ( 11352 PWs)   bands (ev):

   -92.6956 -92.6946 -92.6918 -56.0734 -56.0485 -56.0473 -56.0275 -56.0256
   -56.0244 -55.7539 -55.7525 -55.7487 -52.0864 -24.0050 -24.0047 -23.9626
   -16.1805 -16.1787 -15.3578 -15.2082 -14.8732 -14.8726  -3.9715  -3.0836
    -3.0725  -2.5211  -2.5181  -2.2050  -2.1282  -2.1206  -1.9884  -1.2399
    -1.2162  -0.8635  -0.7562  -0.7553  -0.6089   0.5170   1.2598   1.2620
     1.8585   1.8895   1.9791   1.9802   2.3175   2.5783   2.5852   2.6980
     2.7041   3.8316   4.1967   4.2902   4.3569   4.5084   4.7698   4.7911
     5.1562   7.5286   7.7294   8.1348   8.2754  10.5911  10.8893  11.3846

     occupation numbers 
     1.0000   1.0000   1.0000   1.0000   1.0000   1.0000   1.0000   1.0000
     1.0000   1.0000   1.0000   1.0000   1.0000   1.0000   1.0000   1.0000
     1.0000   1.0000   1.0000   1.0000   1.0000   1.0000   1.0000   1.0000
     1.0000   1.0000   1.0000   1.0000   1.0000   1.0000   1.0000   1.0000
     1.0000   1.0000   1.0000   1.0000   1.0000   1.0000   1.0000   1.0000
     1.0137   1.0194   1.0438   1.0441   0.9106   0.2581   0.2444   0.0855
     0.0801   0.0000   0.0000   0.0000   0.0000   0.0000   0.0000   0.0000
     0.0000   0.0000   0.0000   0.0000   0.0000   0.0000   0.0000   0.0000

          k = 0.0000-0.5774-0.2526 ( 11344 PWs)   bands (ev):

   -92.6956 -92.6946 -92.6918 -56.0733 -56.0485 -56.0474 -56.0275 -56.0256
   -56.0243 -55.7540 -55.7526 -55.7487 -52.0864 -24.0051 -24.0046 -23.9627
   -16.1805 -16.1787 -15.3578 -15.2082 -14.8732 -14.8726  -3.9714  -3.0839
    -3.0727  -2.5211  -2.5181  -2.2050  -2.1281  -2.1204  -1.9884  -1.2384
    -1.2154  -0.8634  -0.7561  -0.7553  -0.6087   0.5174   1.2576   1.2585
     1.8585   1.8894   1.9792   1.9802   2.3174   2.5690   2.5801   2.7031
     2.7069   3.7997   4.1203   4.3808   4.4975   4.5074   4.7314   4.7410
     5.1561   7.4836   7.7302   8.0830   8.2585  10.7250  11.0654  11.3805

     occupation numbers 
     1.0000   1.0000   1.0000   1.0000   1.0000   1.0000   1.0000   1.0000
     1.0000   1.0000   1.0000   1.0000   1.0000   1.0000   1.0000   1.0000
     1.0000   1.0000   1.0000   1.0000   1.0000   1.0000   1.0000   1.0000
     1.0000   1.0000   1.0000   1.0000   1.0000   1.0000   1.0000   1.0000
     1.0000   1.0000   1.0000   1.0000   1.0000   1.0000   1.0000   1.0000
     1.0137   1.0193   1.0438   1.0441   0.9108   0.2772   0.2545   0.0809
     0.0776   0.0000   0.0000   0.0000   0.0000   0.0000   0.0000   0.0000
     0.0000   0.0000   0.0000   0.0000   0.0000   0.0000   0.0000   0.0000

          k = 0.1667 0.2887 0.0000 ( 11373 PWs)   bands (ev):

   -92.6970 -92.6936 -92.6914 -56.0657 -56.0655 -56.0354 -56.0352 -56.0282
   -56.0167 -55.7564 -55.7507 -55.7482 -52.0864 -24.0049 -24.0047 -23.9627
   -16.7095 -15.5035 -15.5028 -15.0597 -15.0596 -14.7761  -3.4739  -3.4736
    -3.0420  -2.7357  -2.7282  -2.6316  -2.4279  -1.8380  -1.8311  -1.1456
    -1.1409  -0.7804  -0.7701  -0.4920   0.1798   0.4609   0.4638   1.1010
     1.9377   1.9400   1.9503   2.1157   2.1170   2.1255   2.6218   2.6230
     2.6802   3.1575   4.4295   4.4379   4.5770   4.7395   4.7397   5.1373
     6.5329   6.6840   6.8426   9.3378   9.9790  10.2928  10.5241  10.7764

     occupation numbers 
     1.0000   1.0000   1.0000   1.0000   1.0000   1.0000   1.0000   1.0000
     1.0000   1.0000   1.0000   1.0000   1.0000   1.0000   1.0000   1.0000
     1.0000   1.0000   1.0000   1.0000   1.0000   1.0000   1.0000   1.0000
     1.0000   1.0000   1.0000   1.0000   1.0000   1.0000   1.0000   1.0000
     1.0000   1.0000   1.0000   1.0000   1.0000   1.0000   1.0000   1.0000
     1.0311   1.0317   1.0347   1.0826   1.0827   1.0832   0.1799   0.1781
     0.1031   0.0000   0.0000   0.0000   0.0000   0.0000   0.0000   0.0000
     0.0000   0.0000   0.0000   0.0000   0.0000   0.0000   0.0000   0.0000

          k = 0.1667 0.2887-0.2526 ( 11348 PWs)   bands (ev):

   -92.6970 -92.6936 -92.6914 -56.0657 -56.0655 -56.0353 -56.0351 -56.0282
   -56.0167 -55.7565 -55.7506 -55.7481 -52.0864 -24.0048 -24.0046 -23.9627
   -16.7095 -15.5035 -15.5028 -15.0597 -15.0596 -14.7762  -3.4739  -3.4736
    -3.0423  -2.7357  -2.7282  -2.6317  -2.4264  -1.8380  -1.8311  -1.1456
    -1.1409  -0.7801  -0.7699  -0.4912   0.1799   0.4610   0.4639   1.0771
     1.9334   1.9387   1.9400   2.1158   2.1171   2.1256   2.6214   2.6226
     2.8088   3.0835   4.4292   4.4375   4.5979   4.7410   4.7414   5.1373
     6.4590   6.5874   6.8358   9.7544  10.0988  10.2924  10.5691  10.7678

     occupation numbers 
     1.0000   1.0000   1.0000   1.0000   1.0000   1.0000   1.0000   1.0000
     1.0000   1.0000   1.0000   1.0000   1.0000   1.0000   1.0000   1.0000
     1.0000   1.0000   1.0000   1.0000   1.0000   1.0000   1.0000   1.0000
     1.0000   1.0000   1.0000   1.0000   1.0000   1.0000   1.0000   1.0000
     1.0000   1.0000   1.0000   1.0000   1.0000   1.0000   1.0000   1.0000
     1.0299   1.0313   1.0317   1.0826   1.0827   1.0832   0.1807   0.1787
     0.0223   0.0002   0.0000   0.0000   0.0000   0.0000   0.0000   0.0000
     0.0000   0.0000   0.0000   0.0000   0.0000   0.0000   0.0000   0.0000

          k = 0.1667 0.4811 0.0000 ( 11356 PWs)   bands (ev):

   -92.6958 -92.6944 -92.6919 -56.0689 -56.0580 -56.0437 -56.0278 -56.0273
   -56.0210 -55.7544 -55.7519 -55.7490 -52.0864 -24.0050 -24.0047 -23.9627
   -16.3413 -15.9001 -15.5816 -15.0645 -14.9413 -14.8434  -3.7477  -3.2572
    -3.1369  -2.6021  -2.4304  -2.4222  -2.2111  -2.0480  -1.9377  -1.2374
    -1.1327  -0.9222  -0.8053  -0.6829  -0.3370   0.6029   0.9653   1.2482
     1.9525   2.0089   2.0394   2.0538   2.3509   2.3635   2.4030   2.5996
     2.8291   3.5964   4.2388   4.2464   4.4075   4.8105   4.9963   5.0604
     5.0710   6.2970   7.3690   8.6522   9.8669  10.0706  10.3558  11.5393

     occupation numbers 
     1.0000   1.0000   1.0000   1.0000   1.0000   1.0000   1.0000   1.0000
     1.0000   1.0000   1.0000   1.0000   1.0000   1.0000   1.0000   1.0000
     1.0000   1.0000   1.0000   1.0000   1.0000   1.0000   1.0000   1.0000
     1.0000   1.0000   1.0000   1.0000   1.0000   1.0000   1.0000   1.0000
     1.0000   1.0000   1.0000   1.0000   1.0000   1.0000   1.0000   1.0000
     1.0353   1.0539   1.0643   1.0690   0.8375   0.8073   0.7053   0.2177
     0.0169   0.0000   0.0000   0.0000   0.0000   0.0000   0.0000   0.0000
     0.0000   0.0000   0.0000   0.0000   0.0000   0.0000   0.0000   0.0000

          k = 0.1667 0.4811-0.2526 ( 11352 PWs)   bands (ev):

   -92.6958 -92.6944 -92.6919 -56.0689 -56.0581 -56.0436 -56.0278 -56.0273
   -56.0210 -55.7544 -55.7520 -55.7490 -52.0864 -24.0050 -24.0047 -23.9627
   -16.3413 -15.9002 -15.5816 -15.0645 -14.9413 -14.8434  -3.7477  -3.2574
    -3.1372  -2.6022  -2.4303  -2.4222  -2.2107  -2.0480  -1.9377  -1.2362
    -1.1319  -0.9219  -0.8053  -0.6829  -0.3369   0.6031   0.9649   1.2429
     1.9525   2.0089   2.0393   2.0507   2.3455   2.3636   2.4027   2.5979
     2.8408   3.5792   4.2286   4.2876   4.4055   4.8395   4.9914   5.0520
     5.0698   6.2958   7.2898   8.6422   9.9094  10.0660  10.5873  11.5492

     occupation numbers 
     1.0000   1.0000   1.0000   1.0000   1.0000   1.0000   1.0000   1.0000
     1.0000   1.0000   1.0000   1.0000   1.0000   1.0000   1.0000   1.0000
     1.0000   1.0000   1.0000   1.0000   1.0000   1.0000   1.0000   1.0000
     1.0000   1.0000   1.0000   1.0000   1.0000   1.0000   1.0000   1.0000
     1.0000   1.0000   1.0000   1.0000   1.0000   1.0000   1.0000   1.0000
     1.0353   1.0539   1.0643   1.0680   0.8502   0.8071   0.7061   0.2206
     0.0143   0.0000   0.0000   0.0000   0.0000   0.0000   0.0000   0.0000
     0.0000   0.0000   0.0000   0.0000   0.0000   0.0000   0.0000   0.0000

          k = 0.3333 0.5774 0.0000 ( 11370 PWs)   bands (ev):

   -92.6949 -92.6949 -92.6922 -56.0589 -56.0580 -56.0580 -56.0246 -56.0237
   -56.0237 -55.7529 -55.7529 -55.7496 -52.0864 -24.0049 -24.0049 -23.9628
   -15.9662 -15.9639 -15.9639 -14.9335 -14.9330 -14.9330  -3.3788  -3.3734
    -3.3734  -2.4073  -2.3982  -2.3982  -2.1839  -2.1839  -2.1813  -1.2062
    -1.1793  -1.1793  -0.4961  -0.4961  -0.4936   0.9634   0.9634   0.9719
     2.1454   2.1454   2.1458   2.1563   2.1600   2.1600   2.5587   2.5657
     2.5657   4.0871   4.1854   4.1854   4.4844   4.9763   4.9763   5.0684
     5.0684   5.0685   7.8779   8.7169   8.7169  11.0535  11.4457  11.4457

     occupation numbers 
     1.0000   1.0000   1.0000   1.0000   1.0000   1.0000   1.0000   1.0000
     1.0000   1.0000   1.0000   1.0000   1.0000   1.0000   1.0000   1.0000
     1.0000   1.0000   1.0000   1.0000   1.0000   1.0000   1.0000   1.0000
     1.0000   1.0000   1.0000   1.0000   1.0000   1.0000   1.0000   1.0000
     1.0000   1.0000   1.0000   1.0000   1.0000   1.0000   1.0000   1.0000
     1.0826   1.0826   1.0825   1.0810   1.0803   1.0803   0.2991   0.2840
     0.2840   0.0000   0.0000   0.0000   0.0000   0.0000   0.0000   0.0000
     0.0000   0.0000   0.0000   0.0000   0.0000   0.0000   0.0000   0.0000

          k = 0.3333 0.5774-0.2526 ( 11340 PWs)   bands (ev):

   -92.6949 -92.6949 -92.6922 -56.0589 -56.0580 -56.0580 -56.0245 -56.0236
   -56.0236 -55.7528 -55.7528 -55.7496 -52.0864 -24.0049 -24.0049 -23.9627
   -15.9662 -15.9639 -15.9639 -14.9335 -14.9330 -14.9330  -3.3789  -3.3735
    -3.3735  -2.4075  -2.3983  -2.3983  -2.1838  -2.1838  -2.1813  -1.2048
    -1.1785  -1.1785  -0.4961  -0.4961  -0.4935   0.9630   0.9630   0.9712
     2.1454   2.1454   2.1458   2.1548   2.1591   2.1591   2.5588   2.5659
     2.5659   4.0455   4.1705   4.1705   4.5384   4.9997   4.9997   5.0685
     5.0685   5.0685   7.8584   8.6933   8.6933  11.0660  11.4963  11.4967

     occupation numbers 
     1.0000   1.0000   1.0000   1.0000   1.0000   1.0000   1.0000   1.0000
     1.0000   1.0000   1.0000   1.0000   1.0000   1.0000   1.0000   1.0000
     1.0000   1.0000   1.0000   1.0000   1.0000   1.0000   1.0000   1.0000
     1.0000   1.0000   1.0000   1.0000   1.0000   1.0000   1.0000   1.0000
     1.0000   1.0000   1.0000   1.0000   1.0000   1.0000   1.0000   1.0000
     1.0826   1.0826   1.0825   1.0813   1.0804   1.0804   0.2990   0.2837
     0.2837   0.0000   0.0000   0.0000   0.0000   0.0000   0.0000   0.0000
     0.0000   0.0000   0.0000   0.0000   0.0000   0.0000   0.0000   0.0000

 ------ SPIN DOWN ----------


          k = 0.0000 0.0000 0.0000 ( 11393 PWs)   bands (ev):

   -93.4574 -93.4517 -93.4514 -56.7365 -56.7365 -56.7352 -56.7352 -56.6955
   -56.6955 -56.6141 -56.6051 -56.6043 -52.0841 -24.0015 -24.0015 -23.9604
   -17.1415 -15.3483 -15.3483 -15.2884 -15.2884 -14.8549  -3.1622  -3.1622
    -3.1069  -3.1069  -3.0969  -3.0764  -3.0764  -2.7320  -2.7203  -0.9100
    -0.9100  -0.8424  -0.8424  -0.4450  -0.4306   0.4371   0.7360   0.7360
     0.7678   0.7709   0.9905   0.9905   1.8532   1.8532   1.8759   1.8759
     2.0237   2.4447   4.1289   4.1289   4.1481   4.1481   4.9938   4.9938
     6.0274   8.4685   9.2644   9.2644  10.0457  10.0457  10.4840  10.8597

     occupation numbers 
     1.0000   1.0000   1.0000   1.0000   1.0000   1.0000   1.0000   1.0000
     1.0000   1.0000   1.0000   1.0000   1.0000   1.0000   1.0000   1.0000
     1.0000   1.0000   1.0000   1.0000   1.0000   1.0000   1.0000   1.0000
     1.0000   1.0000   1.0000   1.0000   1.0000   1.0000   1.0000   1.0000
     1.0000   1.0000   1.0000   1.0000   1.0000   1.0000   1.0000   1.0000
     1.0000   1.0000   1.0000   1.0000   1.0129   1.0129   1.0167   1.0167
     1.0590   0.5906   0.0000   0.0000   0.0000   0.0000   0.0000   0.0000
     0.0000   0.0000   0.0000   0.0000   0.0000   0.0000   0.0000   0.0000

          k = 0.0000 0.0000-0.2526 ( 11446 PWs)   bands (ev):

   -93.4574 -93.4517 -93.4514 -56.7365 -56.7365 -56.7353 -56.7353 -56.6956
   -56.6956 -56.6143 -56.6052 -56.6044 -52.0841 -24.0016 -24.0016 -23.9606
   -17.1415 -15.3483 -15.3483 -15.2884 -15.2884 -14.8550  -3.1621  -3.1621
    -3.1069  -3.1069  -3.0952  -3.0765  -3.0765  -2.7321  -2.7203  -0.9101
    -0.9101  -0.8424  -0.8424  -0.4451  -0.4306   0.3986   0.7360   0.7360
     0.7678   0.7709   0.9905   0.9905   1.8532   1.8532   1.8759   1.8759
     2.1905   2.3537   4.1292   4.1292   4.1484   4.1484   4.9937   4.9937
     5.7978   9.2251   9.2568   9.2568  10.0381  10.0381  10.2644  10.8555

     occupation numbers 
     1.0000   1.0000   1.0000   1.0000   1.0000   1.0000   1.0000   1.0000
     1.0000   1.0000   1.0000   1.0000   1.0000   1.0000   1.0000   1.0000
     1.0000   1.0000   1.0000   1.0000   1.0000   1.0000   1.0000   1.0000
     1.0000   1.0000   1.0000   1.0000   1.0000   1.0000   1.0000   1.0000
     1.0000   1.0000   1.0000   1.0000   1.0000   1.0000   1.0000   1.0000
     1.0000   1.0000   1.0000   1.0000   1.0129   1.0129   1.0167   1.0167
     1.0693   0.8309   0.0000   0.0000   0.0000   0.0000   0.0000   0.0000
     0.0000   0.0000   0.0000   0.0000   0.0000   0.0000   0.0000   0.0000

          k = 0.0000 0.1925 0.0000 ( 11360 PWs)   bands (ev):

   -93.4569 -93.4519 -93.4516 -56.7450 -56.7424 -56.7254 -56.7242 -56.7006
   -56.6968 -56.6133 -56.6054 -56.6046 -52.0840 -24.0016 -24.0015 -23.9602
   -17.0328 -15.5003 -15.4057 -15.2839 -15.2147 -14.8719  -3.5725  -3.2813
    -3.1577  -3.1537  -3.0001  -2.9967  -2.9778  -2.3674  -2.1649  -1.2490
    -1.1588  -1.0154  -0.9063  -0.1262  -0.0423   0.1034   0.1675   0.7051
     0.8523   0.9074   1.1983   1.4050   1.5893   1.5922   1.9903   2.0620
     2.1500   2.5617   4.1182   4.1442   4.1687   4.2793   4.6999   4.9145
     6.2363   7.5700   8.5703   8.7636   9.2332  10.8997  11.1558  11.6532

     occupation numbers 
     1.0000   1.0000   1.0000   1.0000   1.0000   1.0000   1.0000   1.0000
     1.0000   1.0000   1.0000   1.0000   1.0000   1.0000   1.0000   1.0000
     1.0000   1.0000   1.0000   1.0000   1.0000   1.0000   1.0000   1.0000
     1.0000   1.0000   1.0000   1.0000   1.0000   1.0000   1.0000   1.0000
     1.0000   1.0000   1.0000   1.0000   1.0000   1.0000   1.0000   1.0000
     1.0000   1.0000   1.0000   1.0000   1.0002   1.0002   1.0475   1.0714
     1.0820   0.2925   0.0000   0.0000   0.0000   0.0000   0.0000   0.0000
     0.0000   0.0000   0.0000   0.0000   0.0000   0.0000   0.0000   0.0000

          k = 0.0000 0.1925-0.2526 ( 11384 PWs)   bands (ev):

   -93.4569 -93.4519 -93.4516 -56.7450 -56.7424 -56.7254 -56.7242 -56.7006
   -56.6968 -56.6134 -56.6055 -56.6047 -52.0840 -24.0016 -24.0015 -23.9603
   -17.0328 -15.5002 -15.4057 -15.2839 -15.2147 -14.8719  -3.5725  -3.2813
    -3.1578  -3.1538  -3.0001  -2.9967  -2.9764  -2.3674  -2.1648  -1.2491
    -1.1588  -1.0153  -0.9063  -0.1262  -0.0423   0.1037   0.1652   0.6738
     0.8523   0.9074   1.1985   1.4022   1.5893   1.5922   1.9902   2.0618
     2.2780   2.4985   4.1184   4.1441   4.1698   4.2799   4.7129   4.9118
     6.0320   7.5596   8.5628   9.1869   9.4546  10.8055  11.0489  11.1535

     occupation numbers 
     1.0000   1.0000   1.0000   1.0000   1.0000   1.0000   1.0000   1.0000
     1.0000   1.0000   1.0000   1.0000   1.0000   1.0000   1.0000   1.0000
     1.0000   1.0000   1.0000   1.0000   1.0000   1.0000   1.0000   1.0000
     1.0000   1.0000   1.0000   1.0000   1.0000   1.0000   1.0000   1.0000
     1.0000   1.0000   1.0000   1.0000   1.0000   1.0000   1.0000   1.0000
     1.0000   1.0000   1.0000   1.0000   1.0002   1.0002   1.0475   1.0714
     0.9810   0.4445   0.0000   0.0000   0.0000   0.0000   0.0000   0.0000
     0.0000   0.0000   0.0000   0.0000   0.0000   0.0000   0.0000   0.0000

          k = 0.0000 0.3849 0.0000 ( 11350 PWs)   bands (ev):

   -93.4557 -93.4527 -93.4520 -56.7513 -56.7400 -56.7153 -56.7142 -56.7130
   -56.7006 -56.6114 -56.6066 -56.6054 -52.0840 -24.0018 -24.0016 -23.9602
   -16.7294 -15.8493 -15.4558 -15.3241 -15.1070 -14.9227  -3.9925  -3.2719
    -3.2071  -3.0845  -2.8033  -2.7002  -2.6787  -2.2078  -1.7615  -1.3907
    -1.3421  -1.2646  -0.9128  -0.8663  -0.4600   0.1900   0.5545   0.9732
     1.0692   1.2493   1.2782   1.2787   1.4764   1.7893   1.8472   2.1453
     2.1970   3.0683   4.0593   4.1031   4.1674   4.2304   4.6347   4.6919
     5.7070   6.8158   7.9814   8.5642   9.1711   9.6083  11.5601  11.6707

     occupation numbers 
     1.0000   1.0000   1.0000   1.0000   1.0000   1.0000   1.0000   1.0000
     1.0000   1.0000   1.0000   1.0000   1.0000   1.0000   1.0000   1.0000
     1.0000   1.0000   1.0000   1.0000   1.0000   1.0000   1.0000   1.0000
     1.0000   1.0000   1.0000   1.0000   1.0000   1.0000   1.0000   1.0000
     1.0000   1.0000   1.0000   1.0000   1.0000   1.0000   1.0000   1.0000
     1.0000   1.0000   1.0000   1.0000   1.0000   1.0057   1.0120   1.0826
     1.0658   0.0003   0.0000   0.0000   0.0000   0.0000   0.0000   0.0000
     0.0000   0.0000   0.0000   0.0000   0.0000   0.0000   0.0000   0.0000

          k = 0.0000 0.3849-0.2526 ( 11352 PWs)   bands (ev):

   -93.4557 -93.4528 -93.4520 -56.7512 -56.7399 -56.7154 -56.7142 -56.7129
   -56.7005 -56.6114 -56.6067 -56.6053 -52.0840 -24.0018 -24.0016 -23.9603
   -16.7294 -15.8493 -15.4558 -15.3241 -15.1070 -14.9227  -3.9924  -3.2722
    -3.2073  -3.0846  -2.8033  -2.7001  -2.6778  -2.2079  -1.7615  -1.3906
    -1.3418  -1.2646  -0.9128  -0.8658  -0.4600   0.1902   0.5544   0.9732
     1.0535   1.2493   1.2782   1.2787   1.4766   1.7816   1.8471   2.1441
     2.2219   3.0723   4.0545   4.1031   4.2023   4.2375   4.6350   4.6770
     5.7013   6.6886   7.9780   8.5503   9.2070  10.0122  11.5809  11.7448

     occupation numbers 
     1.0000   1.0000   1.0000   1.0000   1.0000   1.0000   1.0000   1.0000
     1.0000   1.0000   1.0000   1.0000   1.0000   1.0000   1.0000   1.0000
     1.0000   1.0000   1.0000   1.0000   1.0000   1.0000   1.0000   1.0000
     1.0000   1.0000   1.0000   1.0000   1.0000   1.0000   1.0000   1.0000
     1.0000   1.0000   1.0000   1.0000   1.0000   1.0000   1.0000   1.0000
     1.0000   1.0000   1.0000   1.0000   1.0000   1.0052   1.0120   1.0827
     1.0480   0.0003   0.0000   0.0000   0.0000   0.0000   0.0000   0.0000
     0.0000   0.0000   0.0000   0.0000   0.0000   0.0000   0.0000   0.0000

          k = 0.0000-0.5774 0.0000 ( 11352 PWs)   bands (ev):

   -93.4543 -93.4540 -93.4522 -56.7535 -56.7296 -56.7283 -56.7093 -56.7075
   -56.7063 -56.6092 -56.6085 -56.6056 -52.0840 -24.0020 -24.0017 -23.9602
   -16.3001 -16.2983 -15.4736 -15.3475 -15.0046 -15.0040  -4.1455  -3.2877
    -3.2779  -2.7204  -2.7172  -2.3761  -2.3705  -2.3131  -2.2151  -1.5044
    -1.4837  -1.2085  -0.9996  -0.9992  -0.6895   0.3277   1.0187   1.0473
     1.0497   1.1127   1.2877   1.2901   1.6815   1.8889   1.8948   2.0517
     2.0531   3.8064   3.9330   3.9998   4.0983   4.2667   4.4671   4.5684
     4.8449   7.5091   7.7796   8.1117   8.3566  10.5391  10.8323  11.3705

     occupation numbers 
     1.0000   1.0000   1.0000   1.0000   1.0000   1.0000   1.0000   1.0000
     1.0000   1.0000   1.0000   1.0000   1.0000   1.0000   1.0000   1.0000
     1.0000   1.0000   1.0000   1.0000   1.0000   1.0000   1.0000   1.0000
     1.0000   1.0000   1.0000   1.0000   1.0000   1.0000   1.0000   1.0000
     1.0000   1.0000   1.0000   1.0000   1.0000   1.0000   1.0000   1.0000
     1.0000   1.0000   1.0000   1.0000   1.0011   1.0192   1.0205   1.0683
     1.0687   0.0000   0.0000   0.0000   0.0000   0.0000   0.0000   0.0000
     0.0000   0.0000   0.0000   0.0000   0.0000   0.0000   0.0000   0.0000

          k = 0.0000-0.5774-0.2526 ( 11344 PWs)   bands (ev):

   -93.4543 -93.4540 -93.4522 -56.7534 -56.7296 -56.7283 -56.7093 -56.7075
   -56.7062 -56.6092 -56.6086 -56.6055 -52.0840 -24.0020 -24.0016 -23.9602
   -16.3001 -16.2983 -15.4736 -15.3474 -15.0046 -15.0040  -4.1454  -3.2880
    -3.2781  -2.7204  -2.7172  -2.3760  -2.3703  -2.3130  -2.2151  -1.5035
    -1.4832  -1.2084  -0.9996  -0.9992  -0.6893   0.3281   1.0187   1.0459
     1.0475   1.1127   1.2878   1.2901   1.6814   1.8924   1.8969   2.0453
     2.0494   3.7321   3.8933   4.0959   4.1395   4.3713   4.4191   4.5146
     4.8448   7.4693   7.7797   8.0643   8.3398  10.6689  11.0030  11.3642

     occupation numbers 
     1.0000   1.0000   1.0000   1.0000   1.0000   1.0000   1.0000   1.0000
     1.0000   1.0000   1.0000   1.0000   1.0000   1.0000   1.0000   1.0000
     1.0000   1.0000   1.0000   1.0000   1.0000   1.0000   1.0000   1.0000
     1.0000   1.0000   1.0000   1.0000   1.0000   1.0000   1.0000   1.0000
     1.0000   1.0000   1.0000   1.0000   1.0000   1.0000   1.0000   1.0000
     1.0000   1.0000   1.0000   1.0000   1.0011   1.0200   1.0209   1.0663
     1.0676   0.0000   0.0000   0.0000   0.0000   0.0000   0.0000   0.0000
     0.0000   0.0000   0.0000   0.0000   0.0000   0.0000   0.0000   0.0000

          k = 0.1667 0.2887 0.0000 ( 11373 PWs)   bands (ev):

   -93.4561 -93.4524 -93.4521 -56.7461 -56.7459 -56.7170 -56.7167 -56.7099
   -56.6989 -56.6120 -56.6061 -56.6053 -52.0840 -24.0018 -24.0016 -23.9602
   -16.8268 -15.6256 -15.6249 -15.1927 -15.1927 -14.9060  -3.6502  -3.6492
    -3.2571  -2.9052  -2.8980  -2.8518  -2.7688  -1.9925  -1.9857  -1.3332
    -1.3275  -1.0966  -1.0875  -0.7225  -0.1238   0.2428   0.2451   0.8748
     1.0707   1.0710   1.3929   1.4086   1.4086   1.6241   2.0206   2.0216
     2.2227   2.8787   4.0580   4.0653   4.2455   4.4146   4.4149   4.8259
     6.5577   6.6805   6.9183   9.2836   9.9665  10.3466  10.5096  10.8401

     occupation numbers 
     1.0000   1.0000   1.0000   1.0000   1.0000   1.0000   1.0000   1.0000
     1.0000   1.0000   1.0000   1.0000   1.0000   1.0000   1.0000   1.0000
     1.0000   1.0000   1.0000   1.0000   1.0000   1.0000   1.0000   1.0000
     1.0000   1.0000   1.0000   1.0000   1.0000   1.0000   1.0000   1.0000
     1.0000   1.0000   1.0000   1.0000   1.0000   1.0000   1.0000   1.0000
     1.0000   1.0000   1.0000   1.0000   1.0000   1.0004   1.0579   1.0583
     1.0473   0.0081   0.0000   0.0000   0.0000   0.0000   0.0000   0.0000
     0.0000   0.0000   0.0000   0.0000   0.0000   0.0000   0.0000   0.0000

          k = 0.1667 0.2887-0.2526 ( 11348 PWs)   bands (ev):

   -93.4561 -93.4523 -93.4520 -56.7461 -56.7458 -56.7169 -56.7166 -56.7099
   -56.6989 -56.6121 -56.6061 -56.6053 -52.0840 -24.0017 -24.0015 -23.9603
   -16.8268 -15.6256 -15.6249 -15.1927 -15.1927 -14.9061  -3.6502  -3.6492
    -3.2574  -2.9052  -2.8980  -2.8518  -2.7676  -1.9925  -1.9857  -1.3331
    -1.3275  -1.0964  -1.0874  -0.7220  -0.1237   0.2429   0.2452   0.8600
     1.0707   1.0710   1.3804   1.4087   1.4087   1.6241   2.0202   2.0213
     2.2646   2.8783   4.0579   4.0650   4.2637   4.4158   4.4160   4.8259
     6.4515   6.6237   6.9113   9.7039  10.0765  10.3484  10.5518  10.8237

     occupation numbers 
     1.0000   1.0000   1.0000   1.0000   1.0000   1.0000   1.0000   1.0000
     1.0000   1.0000   1.0000   1.0000   1.0000   1.0000   1.0000   1.0000
     1.0000   1.0000   1.0000   1.0000   1.0000   1.0000   1.0000   1.0000
     1.0000   1.0000   1.0000   1.0000   1.0000   1.0000   1.0000   1.0000
     1.0000   1.0000   1.0000   1.0000   1.0000   1.0000   1.0000   1.0000
     1.0000   1.0000   1.0000   1.0000   1.0000   1.0004   1.0578   1.0582
     1.0005   0.0082   0.0000   0.0000   0.0000   0.0000   0.0000   0.0000
     0.0000   0.0000   0.0000   0.0000   0.0000   0.0000   0.0000   0.0000

          k = 0.1667 0.4811 0.0000 ( 11356 PWs)   bands (ev):

   -93.4547 -93.4533 -93.4525 -56.7491 -56.7387 -56.7249 -56.7095 -56.7092
   -56.7031 -56.6099 -56.6075 -56.6061 -52.0840 -24.0019 -24.0017 -23.9603
   -16.4602 -16.0210 -15.7035 -15.1970 -15.0732 -14.9743  -3.9278  -3.4553
    -3.3443  -2.7757  -2.6406  -2.5728  -2.4904  -2.2404  -2.1353  -1.4897
    -1.4611  -1.2524  -1.0083  -0.8248  -0.5964   0.3820   0.7351   0.9808
     1.2026   1.2568   1.3189   1.4669   1.5806   1.7765   1.8060   2.0072
     2.0551   3.5888   3.8786   3.9324   4.0068   4.5284   4.6937   4.7591
     5.0891   6.3636   7.3465   8.6332   9.8516  10.1206  10.3125  11.4882

     occupation numbers 
     1.0000   1.0000   1.0000   1.0000   1.0000   1.0000   1.0000   1.0000
     1.0000   1.0000   1.0000   1.0000   1.0000   1.0000   1.0000   1.0000
     1.0000   1.0000   1.0000   1.0000   1.0000   1.0000   1.0000   1.0000
     1.0000   1.0000   1.0000   1.0000   1.0000   1.0000   1.0000   1.0000
     1.0000   1.0000   1.0000   1.0000   1.0000   1.0000   1.0000   1.0000
     1.0000   1.0000   1.0000   1.0000   1.0002   1.0048   1.0072   1.0533
     1.0694   0.0000   0.0000   0.0000   0.0000   0.0000   0.0000   0.0000
     0.0000   0.0000   0.0000   0.0000   0.0000   0.0000   0.0000   0.0000

          k = 0.1667 0.4811-0.2526 ( 11352 PWs)   bands (ev):

   -93.4547 -93.4533 -93.4525 -56.7491 -56.7387 -56.7248 -56.7095 -56.7091
   -56.7030 -56.6099 -56.6075 -56.6061 -52.0840 -24.0019 -24.0016 -23.9603
   -16.4602 -16.0211 -15.7035 -15.1970 -15.0732 -14.9743  -3.9278  -3.4555
    -3.3446  -2.7757  -2.6406  -2.5728  -2.4900  -2.2404  -2.1353  -1.4889
    -1.4605  -1.2521  -1.0083  -0.8249  -0.5964   0.3822   0.7349   0.9783
     1.2026   1.2568   1.3188   1.4639   1.5811   1.7762   1.8025   2.0057
     2.0601   3.5531   3.8715   3.9922   4.0088   4.5371   4.6885   4.7595
     5.0901   6.3611   7.2740   8.6262   9.8942  10.1261  10.5278  11.4982

     occupation numbers 
     1.0000   1.0000   1.0000   1.0000   1.0000   1.0000   1.0000   1.0000
     1.0000   1.0000   1.0000   1.0000   1.0000   1.0000   1.0000   1.0000
     1.0000   1.0000   1.0000   1.0000   1.0000   1.0000   1.0000   1.0000
     1.0000   1.0000   1.0000   1.0000   1.0000   1.0000   1.0000   1.0000
     1.0000   1.0000   1.0000   1.0000   1.0000   1.0000   1.0000   1.0000
     1.0000   1.0000   1.0000   1.0000   1.0002   1.0048   1.0068   1.0528
     1.0709   0.0000   0.0000   0.0000   0.0000   0.0000   0.0000   0.0000
     0.0000   0.0000   0.0000   0.0000   0.0000   0.0000   0.0000   0.0000

          k = 0.3333 0.5774 0.0000 ( 11370 PWs)   bands (ev):

   -93.4538 -93.4533 -93.4533 -56.7393 -56.7393 -56.7383 -56.7062 -56.7062
   -56.7053 -56.6082 -56.6082 -56.6071 -52.0840 -24.0019 -24.0019 -23.9603
   -16.0868 -16.0846 -16.0846 -15.0652 -15.0647 -15.0647  -3.5769  -3.5729
    -3.5729  -2.5700  -2.5618  -2.5618  -2.3932  -2.3932  -2.3904  -1.5415
    -1.5162  -1.5162  -0.7014  -0.7014  -0.6986   0.7123   0.7123   0.7202
     1.5065   1.5065   1.5090   1.5146   1.5149   1.5149   1.8300   1.8341
     1.8341   3.7525   3.8001   3.8001   4.4522   4.7661   4.7661   4.7669
     5.0464   5.0464   7.8612   8.6958   8.6958  11.0134  11.3905  11.3906

     occupation numbers 
     1.0000   1.0000   1.0000   1.0000   1.0000   1.0000   1.0000   1.0000
     1.0000   1.0000   1.0000   1.0000   1.0000   1.0000   1.0000   1.0000
     1.0000   1.0000   1.0000   1.0000   1.0000   1.0000   1.0000   1.0000
     1.0000   1.0000   1.0000   1.0000   1.0000   1.0000   1.0000   1.0000
     1.0000   1.0000   1.0000   1.0000   1.0000   1.0000   1.0000   1.0000
     1.0000   1.0000   1.0000   1.0000   1.0000   1.0000   1.0097   1.0103
     1.0103   0.0000   0.0000   0.0000   0.0000   0.0000   0.0000   0.0000
     0.0000   0.0000   0.0000   0.0000   0.0000   0.0000   0.0000   0.0000

          k = 0.3333 0.5774-0.2526 ( 11340 PWs)   bands (ev):

   -93.4538 -93.4533 -93.4533 -56.7393 -56.7393 -56.7383 -56.7062 -56.7062
   -56.7053 -56.6082 -56.6082 -56.6071 -52.0840 -24.0018 -24.0018 -23.9602
   -16.0868 -16.0846 -16.0846 -15.0652 -15.0647 -15.0647  -3.5770  -3.5729
    -3.5729  -2.5702  -2.5619  -2.5619  -2.3932  -2.3932  -2.3904  -1.5404
    -1.5156  -1.5156  -0.7014  -0.7014  -0.6985   0.7121   0.7121   0.7199
     1.5066   1.5066   1.5091   1.5143   1.5146   1.5146   1.8295   1.8339
     1.8339   3.7324   3.7928   3.7928   4.4811   4.7661   4.7661   4.7670
     5.0601   5.0601   7.8469   8.6763   8.6763  11.0253  11.4393  11.4393

     occupation numbers 
     1.0000   1.0000   1.0000   1.0000   1.0000   1.0000   1.0000   1.0000
     1.0000   1.0000   1.0000   1.0000   1.0000   1.0000   1.0000   1.0000
     1.0000   1.0000   1.0000   1.0000   1.0000   1.0000   1.0000   1.0000
     1.0000   1.0000   1.0000   1.0000   1.0000   1.0000   1.0000   1.0000
     1.0000   1.0000   1.0000   1.0000   1.0000   1.0000   1.0000   1.0000
     1.0000   1.0000   1.0000   1.0000   1.0000   1.0000   1.0097   1.0102
     1.0102   0.0000   0.0000   0.0000   0.0000   0.0000   0.0000   0.0000
     0.0000   0.0000   0.0000   0.0000   0.0000   0.0000   0.0000   0.0000

     the Fermi energy is     2.5156 ev

!    total energy              =   -1489.15780908 Ry
     total all-electron energy =     -9588.392616 Ry
     estimated scf accuracy    <       0.00000007 Ry
     smearing contrib. (-TS)   =       0.00898186 Ry
     internal energy E=F+TS    =   -1489.16679094 Ry

     The total energy is F=E-TS. E is the sum of the following terms:
     one-electron contribution =   -2500.35862284 Ry
     hartree contribution      =    1276.91784761 Ry
     xc contribution           =    -150.57145631 Ry
     ewald contribution        =     220.37175045 Ry
     one-center paw contrib.   =    -335.52630985 Ry
      -> PAW hartree energy AE =     885.43865265 Ry
      -> PAW hartree energy PS =    -883.16237480 Ry
      -> PAW xc energy AE      =    -480.46206230 Ry
      -> PAW xc energy PS      =     142.65947460 Ry
      -> total E_H with PAW    =    1279.19412546 Ry
      -> total E_XC with PAW   =    -488.37404401 Ry

     total magnetization       =    -2.44 Bohr mag/cell
     absolute magnetization    =     2.55 Bohr mag/cell

     convergence has been achieved in  26 iterations

     Forces acting on atoms (cartesian axes, Ry/au):

     atom    1 type  1   force =     0.00000000    0.00000000    0.01192052
     atom    2 type  1   force =     0.00000000    0.00000000    0.00902611
     atom    3 type  1   force =     0.00000000    0.00000000    0.00902611
     atom    4 type  2   force =     0.00003233    0.00005599    0.00632853
     atom    5 type  2   force =    -0.00006465    0.00000000    0.00632853
     atom    6 type  2   force =     0.00003233   -0.00005599    0.00632853
     atom    7 type  2   force =    -0.00186573    0.00000000   -0.02314031
     atom    8 type  2   force =     0.00093286    0.00161577   -0.02314031
     atom    9 type  2   force =     0.00093286   -0.00161577   -0.02314031
     atom   10 type  3   force =     0.00000000    0.00000000    0.02046260
     The non-local contrib.  to forces
     atom    1 type  1   force =     0.00000000    0.00000000   -0.01415719
     atom    2 type  1   force =     0.00000000    0.00000000   -0.00336400
     atom    3 type  1   force =     0.00000000    0.00000000   -0.00336400
     atom    4 type  2   force =    -0.00029939   -0.00051856   -1.13883717
     atom    5 type  2   force =     0.00059878   -0.00000000   -1.13883717
     atom    6 type  2   force =    -0.00029939    0.00051856   -1.13883717
     atom    7 type  2   force =    -0.01472410   -0.00000000    1.02285017
     atom    8 type  2   force =     0.00736205    0.01275145    1.02285017
     atom    9 type  2   force =     0.00736205   -0.01275145    1.02285017
     atom   10 type  3   force =     0.00000000    0.00000000   -0.10470587
     The ionic contribution  to forces
     atom    1 type  1   force =    -0.00000000   -0.00000000    4.06800420
     atom    2 type  1   force =     0.00000002   -0.00000001    3.61854463
     atom    3 type  1   force =    -0.00000002    0.00000001    3.61854463
     atom    4 type  2   force =     0.02050638    0.03551809   39.39421461
     atom    5 type  2   force =    -0.04101275   -0.00000000   39.39421461
     atom    6 type  2   force =     0.02050637   -0.03551808   39.39421461
     atom    7 type  2   force =     0.21944787    0.00000000  -36.74337435
     atom    8 type  2   force =    -0.10972394   -0.19004744  -36.74337434
     atom    9 type  2   force =    -0.10972393    0.19004743  -36.74337435
     atom   10 type  3   force =    -0.00000000    0.00000000  -19.25761426
     The local contribution  to forces
     atom    1 type  1   force =     0.00000000    0.00000000   -4.04184140
     atom    2 type  1   force =     0.00000021   -0.00000012   -3.60610035
     atom    3 type  1   force =    -0.00000021    0.00000012   -3.60610035
     atom    4 type  2   force =    -0.02024782   -0.03507025  -38.25893578
     atom    5 type  2   force =     0.04049563    0.00000000  -38.25893578
     atom    6 type  2   force =    -0.02024782    0.03507025  -38.25893578
     atom    7 type  2   force =    -0.20685688   -0.00000000   35.70630544
     atom    8 type  2   force =     0.10342844    0.17914331   35.70630544
     atom    9 type  2   force =     0.10342844   -0.17914331   35.70630544
     atom   10 type  3   force =     0.00000000    0.00000000   19.38240562
     The core correction contribution to forces
     atom    1 type  1   force =     0.00000000    0.00000000    0.00007731
     atom    2 type  1   force =     0.00000000   -0.00000000    0.00009649
     atom    3 type  1   force =    -0.00000000    0.00000000    0.00009649
     atom    4 type  2   force =     0.00000309    0.00000535    0.00976898
     atom    5 type  2   force =    -0.00000618   -0.00000000    0.00976898
     atom    6 type  2   force =     0.00000309   -0.00000535    0.00976898
     atom    7 type  2   force =     0.00013287    0.00000000   -0.00864053
     atom    8 type  2   force =    -0.00006644   -0.00011507   -0.00864053
     atom    9 type  2   force =    -0.00006644    0.00011507   -0.00864053
     atom   10 type  3   force =     0.00000000    0.00000000    0.00003490
     The Hubbard contrib.    to forces
     atom    1 type  1   force =     0.00000000    0.00000000    0.00000000
     atom    2 type  1   force =     0.00000000    0.00000000    0.00000000
     atom    3 type  1   force =     0.00000000    0.00000000    0.00000000
     atom    4 type  2   force =     0.00000000    0.00000000    0.00000000
     atom    5 type  2   force =     0.00000000    0.00000000    0.00000000
     atom    6 type  2   force =     0.00000000    0.00000000    0.00000000
     atom    7 type  2   force =     0.00000000    0.00000000    0.00000000
     atom    8 type  2   force =     0.00000000    0.00000000    0.00000000
     atom    9 type  2   force =     0.00000000    0.00000000    0.00000000
     atom   10 type  3   force =     0.00000000    0.00000000    0.00000000
     The SCF correction term to forces
     atom    1 type  1   force =     0.00000000    0.00000000   -0.00014957
     atom    2 type  1   force =    -0.00000000    0.00000000   -0.00013784
     atom    3 type  1   force =     0.00000000   -0.00000000   -0.00013784
     atom    4 type  2   force =     0.00007007    0.00012137    0.00013070
     atom    5 type  2   force =    -0.00014014   -0.00000000    0.00013070
     atom    6 type  2   force =     0.00007007   -0.00012137    0.00013070
     atom    7 type  2   force =     0.00013451    0.00000000   -0.00026822
     atom    8 type  2   force =    -0.00006725   -0.00011649   -0.00026822
     atom    9 type  2   force =    -0.00006725    0.00011649   -0.00026822
     atom   10 type  3   force =     0.00000000    0.00000000    0.00035504

     Total force =     0.049606     Total SCF correction =     0.000753

     Writing all to output data dir ./out/pw.save/ :
     XML data file, charge density, pseudopotentials, collected wavefunctions
 
     init_run     :     21.19s CPU      4.99s WALL (       1 calls)
     electrons    :    325.34s CPU     75.20s WALL (       1 calls)
     forces       :      1.09s CPU      0.75s WALL (       1 calls)

     Called by init_run:
     wfcinit      :      0.49s CPU      0.60s WALL (       1 calls)
     wfcinit:atom :      0.05s CPU      0.05s WALL (      28 calls)
     wfcinit:wfcr :      0.30s CPU      0.32s WALL (      28 calls)
     potinit      :     19.97s CPU      3.62s WALL (       1 calls)
     hinit0       :      0.57s CPU      0.54s WALL (       1 calls)

     Called by electrons:
     c_bands      :     29.28s CPU     29.45s WALL (      26 calls)
     sum_band     :      5.40s CPU      5.40s WALL (      26 calls)
     v_of_rho     :      0.71s CPU      0.54s WALL (      27 calls)
     v_h          :      0.43s CPU      0.12s WALL (      27 calls)
     v_xc         :      0.29s CPU      0.43s WALL (      28 calls)
     newd         :      0.66s CPU      0.58s WALL (      27 calls)
                                        0.58s GPU  (      27 calls)
     PAW_pot      :    296.76s CPU     38.67s WALL (      27 calls)
     mix_rho      :      1.54s CPU      1.50s WALL (      26 calls)

     Called by c_bands:
     init_us_2    :      0.96s CPU      0.94s WALL (    1512 calls)
     cegterg      :     23.38s CPU     23.47s WALL (     728 calls)

     Called by sum_band:
     sum_band:wei :      0.04s CPU      0.05s WALL (      26 calls)
                                        0.05s GPU  (      26 calls)
     sum_band:loo :      3.75s CPU      3.72s WALL (      26 calls)
                                        3.72s GPU  (      26 calls)
     sum_band:buf :      1.28s CPU      1.31s WALL (     728 calls)
                                        1.30s GPU  (     728 calls)
     sum_band:ini :      0.47s CPU      0.47s WALL (     728 calls)
                                        0.46s GPU  (     728 calls)
     sum_band:cal :      0.11s CPU      0.14s WALL (     728 calls)
                                        0.10s GPU  (     728 calls)
     sum_band:bec :      0.36s CPU      0.37s WALL (     728 calls)
                                        0.36s GPU  (     728 calls)
     addusdens    :      1.04s CPU      1.06s WALL (      26 calls)
                                        1.06s GPU  (      26 calls)
     addusd:skk   :      0.01s CPU      0.01s WALL (      78 calls)
                                        0.01s GPU  (      78 calls)

     Called by *egterg:
     cdiaghg      :      9.37s CPU      9.48s WALL (    4176 calls)
                                        9.43s GPU  (    4176 calls)
     cegterg:over :      1.26s CPU      1.28s WALL (    3448 calls)
     cegterg:upda :      1.10s CPU      1.10s WALL (    3448 calls)
     cegterg:last :      0.23s CPU      0.23s WALL (    1441 calls)
     h_psi        :      9.10s CPU      9.20s WALL (    4204 calls)
                                        9.14s GPU  (    4204 calls)
     s_psi        :      1.30s CPU      1.33s WALL (    4204 calls)
     g_psi        :      0.02s CPU      0.15s WALL (    3448 calls)
                                        0.10s GPU  (    3448 calls)

     Called by h_psi:
     h_psi:calbec :      0.19s CPU      0.41s WALL (    4204 calls)
                                        0.36s GPU  (    4204 calls)
     vloc_psi     :      7.00s CPU      7.02s WALL (    4204 calls)
                                        6.96s GPU  (    4204 calls)
     add_vuspsi   :      1.24s CPU      1.46s WALL (    4204 calls)
                                        1.40s GPU  (    4204 calls)

     General routines
     calbec       :      0.24s CPU      0.27s WALL (    5044 calls)
     fft          :      6.60s CPU      1.17s WALL (     688 calls)
                                        0.05s GPU  (     634 calls)
     ffts         :      3.51s CPU      0.94s WALL (    1351 calls)
                                        0.04s GPU  (    1297 calls)
     fftw         :      0.35s CPU      4.54s WALL (   20834 calls)
                                        4.31s GPU  (   20834 calls)
     interpolate  :     10.49s CPU      2.14s WALL (      54 calls)
 
     Parallel routines

     PAW routines
     PAW_pot      :    296.76s CPU     38.67s WALL (      27 calls)
     PAW_symme    :      0.04s CPU      0.01s WALL (      53 calls)
 
     PWSCF        :   5m48.43s CPU   1m21.62s WALL

 
   This run was terminated on:   7:13:14  12Jul2026            

=------------------------------------------------------------------------------=
   JOB DONE.
=------------------------------------------------------------------------------=
Warning: ieee_divide_by_zero is signaling
Warning: ieee_inexact is signaling
FORTRAN STOP
