
     Program PWSCF v.7.3.1 starts on 12Jul2026 at  4: 8:28 

     This program is part of the open-source Quantum ESPRESSO suite
     for quantum simulation of materials; please cite
         "P. Giannozzi et al., J. Phys.:Condens. Matter 21 395502 (2009);
         "P. Giannozzi et al., J. Phys.:Condens. Matter 29 465901 (2017);
         "P. Giannozzi et al., J. Chem. Phys. 152 154105 (2020);
          URL http://www.quantum-espresso.org", 
     in publications or presentations arising from this work. More details at
     http://www.quantum-espresso.org/quote

     Parallel version (MPI & OpenMP), running on      14 processor cores
     Number of MPI processes:                 1
     Threads/MPI process:                    14

     MPI processes distributed on     1 nodes
     826563 MiB available memory on the printing compute node when the environment starts
 
     Reading input from pw.in

     Current dimensions of program PWSCF are:
     Max number of different atomic species (ntypx) = 10
     Max number of k-points (npk) =  40000
     Max angular momentum in pseudopotentials (lmaxx) =  4
     file Co.pbe-spn-kjpaw_psl.0.3.1.UPF: wavefunction(s)  3P 3D renormalized
     file O.pbe-n-kjpaw_psl.1.0.0.UPF: wavefunction(s)  2S 2P renormalized
     file Na.pbe-spn-kjpaw_psl.1.0.0.UPF: wavefunction(s)  2P renormalized

     Atomic positions and unit cell read from directory:
     ../Na_s3_c6.9_d0.50/out/pw.save/
 
 
     Subspace diagonalization in iterative solution of the eigenvalue problem:
     a serial algorithm will be used

 
     G-vector sticks info
     --------------------
     sticks:   dense  smooth     PW     G-vecs:    dense   smooth      PW
     Sum        2941    1483    421               178951    63407    9575
 
     Using Slab Decomposition
 


     bravais-lattice index     =            4
     lattice parameter (alat)  =       9.4527  a.u.
     unit-cell volume          =    1009.0018 (a.u.)^3
     number of atoms/cell      =           10
     number of atomic types    =            3
     number of electrons       =        96.00
     number of Kohn-Sham states=           64
     kinetic-energy cutoff     =      60.0000  Ry
     charge density cutoff     =     480.0000  Ry
     Exchange-correlation= SLA  PW   PBX  PBC
                           (   1   4   3   4   0   0   0)

     GPU acceleration is ACTIVE.  1 visible GPUs per MPI rank
     GPU-aware MPI enabled


     GPU used by master process:

        Device Number: 0
        Device name: NVIDIA A100-SXM4-80GB
        Compute capability : 80
        Ratio of single to double precision performance  : 2
        Memory Clock Rate (KHz): 1593000
        Memory Bus Width (bits): 5120
        Peak Memory Bandwidth (GB/s): ******

     celldm(1)=   9.452718  celldm(2)=   0.000000  celldm(3)=   1.379403
     celldm(4)=   0.000000  celldm(5)=   0.000000  celldm(6)=   0.000000

     crystal axes: (cart. coord. in units of alat)
               a(1) = (   1.000000   0.000000   0.000000 )  
               a(2) = (  -0.500000   0.866025   0.000000 )  
               a(3) = (   0.000000   0.000000   1.379403 )  

     reciprocal axes: (cart. coord. in units 2 pi/alat)
               b(1) = (  1.000000  0.577350 -0.000000 )  
               b(2) = (  0.000000  1.154701  0.000000 )  
               b(3) = (  0.000000 -0.000000  0.724951 )  


     PseudoPot. # 1 for Co read from file:
     ../../pseudo/Co.pbe-spn-kjpaw_psl.0.3.1.UPF
     MD5 check sum: 3c0a43779828c046024e4f3be63f8e67
     Pseudo is Projector augmented-wave + core cor, Zval = 17.0
     Generated using &quot;atomic&quot; code by A. Dal Corso  v.6.2.2
     Shape of augmentation charge: PSQ
     Using radial grid of 1193 points,  6 beta functions with: 
                l(1) =   0
                l(2) =   0
                l(3) =   1
                l(4) =   1
                l(5) =   2
                l(6) =   2
     Q(r) pseudized with 0 coefficients 


     PseudoPot. # 2 for O  read from file:
     ../../pseudo/O.pbe-n-kjpaw_psl.1.0.0.UPF
     MD5 check sum: e99d9cef9b487d1ca56f5b95ecd0fd7a
     Pseudo is Projector augmented-wave + core cor, Zval =  6.0
     Generated using &quot;atomic&quot; code by A. Dal Corso  v.6.3
     Shape of augmentation charge: PSQ
     Using radial grid of 1095 points,  4 beta functions with: 
                l(1) =   0
                l(2) =   0
                l(3) =   1
                l(4) =   1
     Q(r) pseudized with 0 coefficients 


     PseudoPot. # 3 for Na read from file:
     ../../pseudo/Na.pbe-spn-kjpaw_psl.1.0.0.UPF
     MD5 check sum: 05b4deb74e3932c23ab016979dc8b5d4
     Pseudo is Projector augmented-wave + core cor, Zval =  9.0
     Generated using &quot;atomic&quot; code by A. Dal Corso  v.6.3
     Shape of augmentation charge: PSQ
     Using radial grid of 1121 points,  4 beta functions with: 
                l(1) =   0
                l(2) =   0
                l(3) =   1
                l(4) =   1
     Q(r) pseudized with 0 coefficients 


     atomic species   valence    mass     pseudopotential
     Co               17.00    58.93300     Co( 1.00)
     O                 6.00    15.99900     O ( 1.00)
     Na                9.00    22.98977     Na( 1.00)

     Starting magnetic structure 
     atomic species   magnetization
     Co              0.300
     O               0.000
     Na              0.000

      6 Sym. Ops. (no inversion) found


                                    s                        frac. trans.

      isym =  1     identity                                     

 cryst.   s( 1) = (     1          0          0      )
                  (     0          1          0      )
                  (     0          0          1      )

 cart.    s( 1) = (  1.0000000  0.0000000  0.0000000 )
                  (  0.0000000  1.0000000  0.0000000 )
                  (  0.0000000  0.0000000  1.0000000 )


      isym =  2     120 deg rotation - cryst. axis [0,0,1]       

 cryst.   s( 2) = (     0          1          0      )
                  (    -1         -1          0      )
                  (     0          0          1      )

 cart.    s( 2) = ( -0.5000000 -0.8660254  0.0000000 )
                  (  0.8660254 -0.5000000  0.0000000 )
                  (  0.0000000  0.0000000  1.0000000 )


      isym =  3     120 deg rotation - cryst. axis [0,0,-1]      

 cryst.   s( 3) = (    -1         -1          0      )
                  (     1          0          0      )
                  (     0          0          1      )

 cart.    s( 3) = ( -0.5000000  0.8660254  0.0000000 )
                  ( -0.8660254 -0.5000000  0.0000000 )
                  (  0.0000000  0.0000000  1.0000000 )


      isym =  4     inv. 180 deg rotation - cart. axis [0,1,0]   

 cryst.   s( 4) = (     1          0          0      )
                  (    -1         -1          0      )
                  (     0          0          1      )

 cart.    s( 4) = (  1.0000000  0.0000000  0.0000000 )
                  (  0.0000000 -1.0000000  0.0000000 )
                  (  0.0000000  0.0000000  1.0000000 )


      isym =  5     inv. 180 deg rotation - cryst. axis [1,-1,0] 

 cryst.   s( 5) = (     0          1          0      )
                  (     1          0          0      )
                  (     0          0          1      )

 cart.    s( 5) = ( -0.5000000  0.8660254  0.0000000 )
                  (  0.8660254  0.5000000  0.0000000 )
                  (  0.0000000  0.0000000  1.0000000 )


      isym =  6     inv. 180 deg rotation - cryst. axis [2,1,0]  

 cryst.   s( 6) = (    -1         -1          0      )
                  (     0          1          0      )
                  (     0          0          1      )

 cart.    s( 6) = ( -0.5000000 -0.8660254  0.0000000 )
                  ( -0.8660254  0.5000000  0.0000000 )
                  (  0.0000000  0.0000000  1.0000000 )


     point group C_3v (3m)  
     there are  3 classes
     the character table:

       E     2C3   3s_v 
A_1    1.00  1.00  1.00
A_2    1.00  1.00 -1.00
E      2.00 -1.00  0.00

     the symmetry operations in each class and the name of the first element:

     E        1
          identity                                               
     2C3      2    3
          120 deg rotation - cryst. axis [0,0,1]                 
     3s_v     4    6    5
          inv. 180 deg rotation - cart. axis [0,1,0]             

   Cartesian axes

     site n.     atom                  positions (alat units)
         1        Co     tau(   1) = (   0.0000000   0.0000000   0.0000000  )
         2        Co     tau(   2) = (  -0.0000000   0.5773503   0.0000000  )
         3        Co     tau(   3) = (   0.5000000   0.2886751   0.0000000  )
         4        O      tau(   4) = (   0.1666667   0.2886751   0.1919170  )
         5        O      tau(   5) = (   0.6666667   0.0000000   0.1919170  )
         6        O      tau(   6) = (  -0.3333333   0.5773503   0.1919170  )
         7        O      tau(   7) = (   0.3333333   0.0000000   1.1874864  )
         8        O      tau(   8) = (   0.3333333   0.5773503   1.1874864  )
         9        O      tau(   9) = (  -0.1666667   0.2886751   1.1874864  )
        10        Na     tau(  10) = (   0.0000000   0.0000000   0.7896584  )

   Crystallographic axes

     site n.     atom                  positions (cryst. coord.)
         1        Co     tau(   1) = (  0.0000000  0.0000000  0.0000000  )
         2        Co     tau(   2) = (  0.3333333  0.6666667  0.0000000  )
         3        Co     tau(   3) = (  0.6666667  0.3333333  0.0000000  )
         4        O      tau(   4) = (  0.3333333  0.3333333  0.1391304  )
         5        O      tau(   5) = (  0.6666667  0.0000000  0.1391304  )
         6        O      tau(   6) = (  0.0000000  0.6666667  0.1391304  )
         7        O      tau(   7) = (  0.3333333  0.0000000  0.8608696  )
         8        O      tau(   8) = (  0.6666667  0.6666667  0.8608696  )
         9        O      tau(   9) = ( -0.0000000  0.3333333  0.8608696  )
        10        Na     tau(  10) = (  0.0000000  0.0000000  0.5724638  )

     number of k points=   449  Marzari-Vanderbilt smearing, width (Ry)=  0.0200
                       cart. coord. in units 2pi/alat
        k(    1) = (   0.0000000   0.0000000   0.0000000), wk =   0.0002170
        k(    2) = (   0.0000000   0.0000000   0.0906189), wk =   0.0004340
        k(    3) = (   0.0000000   0.0000000   0.1812378), wk =   0.0004340
        k(    4) = (   0.0000000   0.0000000   0.2718567), wk =   0.0004340
        k(    5) = (   0.0000000   0.0000000  -0.3624756), wk =   0.0002170
        k(    6) = (   0.0000000   0.0481125   0.0000000), wk =   0.0013021
        k(    7) = (   0.0000000   0.0481125   0.0906189), wk =   0.0026042
        k(    8) = (   0.0000000   0.0481125   0.1812378), wk =   0.0026042
        k(    9) = (   0.0000000   0.0481125   0.2718567), wk =   0.0026042
        k(   10) = (   0.0000000   0.0481125  -0.3624756), wk =   0.0013021
        k(   11) = (   0.0000000   0.0962250   0.0000000), wk =   0.0013021
        k(   12) = (   0.0000000   0.0962250   0.0906189), wk =   0.0026042
        k(   13) = (   0.0000000   0.0962250   0.1812378), wk =   0.0026042
        k(   14) = (   0.0000000   0.0962250   0.2718567), wk =   0.0026042
        k(   15) = (   0.0000000   0.0962250  -0.3624756), wk =   0.0013021
        k(   16) = (   0.0000000   0.1443376   0.0000000), wk =   0.0013021
        k(   17) = (   0.0000000   0.1443376   0.0906189), wk =   0.0026042
        k(   18) = (   0.0000000   0.1443376   0.1812378), wk =   0.0026042
        k(   19) = (   0.0000000   0.1443376   0.2718567), wk =   0.0026042
        k(   20) = (   0.0000000   0.1443376  -0.3624756), wk =   0.0013021
        k(   21) = (   0.0000000   0.1924501   0.0000000), wk =   0.0013021
        k(   22) = (   0.0000000   0.1924501   0.0906189), wk =   0.0026042
        k(   23) = (   0.0000000   0.1924501   0.1812378), wk =   0.0026042
        k(   24) = (   0.0000000   0.1924501   0.2718567), wk =   0.0026042
        k(   25) = (   0.0000000   0.1924501  -0.3624756), wk =   0.0013021
        k(   26) = (   0.0000000   0.2405626   0.0000000), wk =   0.0013021
        k(   27) = (   0.0000000   0.2405626   0.0906189), wk =   0.0026042
        k(   28) = (   0.0000000   0.2405626   0.1812378), wk =   0.0026042
        k(   29) = (   0.0000000   0.2405626   0.2718567), wk =   0.0026042
        k(   30) = (   0.0000000   0.2405626  -0.3624756), wk =   0.0013021
        k(   31) = (   0.0000000   0.2886751   0.0000000), wk =   0.0013021
        k(   32) = (   0.0000000   0.2886751   0.0906189), wk =   0.0026042
        k(   33) = (   0.0000000   0.2886751   0.1812378), wk =   0.0026042
        k(   34) = (   0.0000000   0.2886751   0.2718567), wk =   0.0026042
        k(   35) = (   0.0000000   0.2886751  -0.3624756), wk =   0.0013021
        k(   36) = (   0.0000000   0.3367877   0.0000000), wk =   0.0013021
        k(   37) = (   0.0000000   0.3367877   0.0906189), wk =   0.0026042
        k(   38) = (   0.0000000   0.3367877   0.1812378), wk =   0.0026042
        k(   39) = (   0.0000000   0.3367877   0.2718567), wk =   0.0026042
        k(   40) = (   0.0000000   0.3367877  -0.3624756), wk =   0.0013021
        k(   41) = (   0.0000000   0.3849002   0.0000000), wk =   0.0013021
        k(   42) = (   0.0000000   0.3849002   0.0906189), wk =   0.0026042
        k(   43) = (   0.0000000   0.3849002   0.1812378), wk =   0.0026042
        k(   44) = (   0.0000000   0.3849002   0.2718567), wk =   0.0026042
        k(   45) = (   0.0000000   0.3849002  -0.3624756), wk =   0.0013021
        k(   46) = (   0.0000000   0.4330127   0.0000000), wk =   0.0013021
        k(   47) = (   0.0000000   0.4330127   0.0906189), wk =   0.0026042
        k(   48) = (   0.0000000   0.4330127   0.1812378), wk =   0.0026042
        k(   49) = (   0.0000000   0.4330127   0.2718567), wk =   0.0026042
        k(   50) = (   0.0000000   0.4330127  -0.3624756), wk =   0.0013021
        k(   51) = (   0.0000000   0.4811252   0.0000000), wk =   0.0013021
        k(   52) = (   0.0000000   0.4811252   0.0906189), wk =   0.0026042
        k(   53) = (   0.0000000   0.4811252   0.1812378), wk =   0.0026042
        k(   54) = (   0.0000000   0.4811252   0.2718567), wk =   0.0026042
        k(   55) = (   0.0000000   0.4811252  -0.3624756), wk =   0.0013021
        k(   56) = (   0.0000000   0.5292377   0.0000000), wk =   0.0013021
        k(   57) = (   0.0000000   0.5292377   0.0906189), wk =   0.0026042
        k(   58) = (   0.0000000   0.5292377   0.1812378), wk =   0.0026042
        k(   59) = (   0.0000000   0.5292377   0.2718567), wk =   0.0026042
        k(   60) = (   0.0000000   0.5292377  -0.3624756), wk =   0.0013021
        k(   61) = (   0.0000000  -0.5773503   0.0000000), wk =   0.0006510
        k(   62) = (   0.0000000  -0.5773503   0.0906189), wk =   0.0013021
        k(   63) = (   0.0000000  -0.5773503   0.1812378), wk =   0.0013021
        k(   64) = (   0.0000000  -0.5773503   0.2718567), wk =   0.0013021
        k(   65) = (   0.0000000  -0.5773503  -0.3624756), wk =   0.0006510
        k(   66) = (   0.0416667   0.0721688   0.0000000), wk =   0.0013021
        k(   67) = (   0.0416667   0.0721688   0.0906189), wk =   0.0013021
        k(   68) = (   0.0416667   0.0721688   0.1812378), wk =   0.0013021
        k(   69) = (   0.0416667   0.0721688   0.2718567), wk =   0.0013021
        k(   70) = (   0.0416667   0.0721688  -0.3624756), wk =   0.0013021
        k(   71) = (   0.0416667   0.1202813   0.0000000), wk =   0.0026042
        k(   72) = (   0.0416667   0.1202813   0.0906189), wk =   0.0026042
        k(   73) = (   0.0416667   0.1202813   0.1812378), wk =   0.0026042
        k(   74) = (   0.0416667   0.1202813   0.2718567), wk =   0.0026042
        k(   75) = (   0.0416667   0.1202813  -0.3624756), wk =   0.0026042
        k(   76) = (   0.0416667   0.1683938   0.0000000), wk =   0.0026042
        k(   77) = (   0.0416667   0.1683938   0.0906189), wk =   0.0026042
        k(   78) = (   0.0416667   0.1683938   0.1812378), wk =   0.0026042
        k(   79) = (   0.0416667   0.1683938   0.2718567), wk =   0.0026042
        k(   80) = (   0.0416667   0.1683938  -0.3624756), wk =   0.0026042
        k(   81) = (   0.0416667   0.2165064   0.0000000), wk =   0.0026042
        k(   82) = (   0.0416667   0.2165064   0.0906189), wk =   0.0026042
        k(   83) = (   0.0416667   0.2165064   0.1812378), wk =   0.0026042
        k(   84) = (   0.0416667   0.2165064   0.2718567), wk =   0.0026042
        k(   85) = (   0.0416667   0.2165064  -0.3624756), wk =   0.0026042
        k(   86) = (   0.0416667   0.2646189   0.0000000), wk =   0.0026042
        k(   87) = (   0.0416667   0.2646189   0.0906189), wk =   0.0026042
        k(   88) = (   0.0416667   0.2646189   0.1812378), wk =   0.0026042
        k(   89) = (   0.0416667   0.2646189   0.2718567), wk =   0.0026042
        k(   90) = (   0.0416667   0.2646189  -0.3624756), wk =   0.0026042
        k(   91) = (   0.0416667   0.3127314   0.0000000), wk =   0.0026042
        k(   92) = (   0.0416667   0.3127314   0.0906189), wk =   0.0026042
        k(   93) = (   0.0416667   0.3127314   0.1812378), wk =   0.0026042
        k(   94) = (   0.0416667   0.3127314   0.2718567), wk =   0.0026042
        k(   95) = (   0.0416667   0.3127314  -0.3624756), wk =   0.0026042
        k(   96) = (   0.0416667   0.3608439   0.0000000), wk =   0.0026042
        k(   97) = (   0.0416667   0.3608439   0.0906189), wk =   0.0026042
        k(   98) = (   0.0416667   0.3608439   0.1812378), wk =   0.0026042
        k(   99) = (   0.0416667   0.3608439   0.2718567), wk =   0.0026042
        k(  100) = (   0.0416667   0.3608439  -0.3624756), wk =   0.0026042
        k(  101) = (   0.0416667   0.4089564   0.0000000), wk =   0.0026042
        k(  102) = (   0.0416667   0.4089564   0.0906189), wk =   0.0026042
        k(  103) = (   0.0416667   0.4089564   0.1812378), wk =   0.0026042
        k(  104) = (   0.0416667   0.4089564   0.2718567), wk =   0.0026042
        k(  105) = (   0.0416667   0.4089564  -0.3624756), wk =   0.0026042
        k(  106) = (   0.0416667   0.4570690   0.0000000), wk =   0.0026042
        k(  107) = (   0.0416667   0.4570690   0.0906189), wk =   0.0026042
        k(  108) = (   0.0416667   0.4570690   0.1812378), wk =   0.0026042
        k(  109) = (   0.0416667   0.4570690   0.2718567), wk =   0.0026042
        k(  110) = (   0.0416667   0.4570690  -0.3624756), wk =   0.0026042
        k(  111) = (   0.0416667   0.5051815   0.0000000), wk =   0.0026042
        k(  112) = (   0.0416667   0.5051815   0.0906189), wk =   0.0026042
        k(  113) = (   0.0416667   0.5051815   0.1812378), wk =   0.0026042
        k(  114) = (   0.0416667   0.5051815   0.2718567), wk =   0.0026042
        k(  115) = (   0.0416667   0.5051815  -0.3624756), wk =   0.0026042
        k(  116) = (   0.0416667   0.5532940   0.0000000), wk =   0.0026042
        k(  117) = (   0.0416667   0.5532940   0.0906189), wk =   0.0026042
        k(  118) = (   0.0416667   0.5532940   0.1812378), wk =   0.0026042
        k(  119) = (   0.0416667   0.5532940   0.2718567), wk =   0.0026042
        k(  120) = (   0.0416667   0.5532940  -0.3624756), wk =   0.0026042
        k(  121) = (   0.0833333   0.1443376   0.0000000), wk =   0.0013021
        k(  122) = (   0.0833333   0.1443376   0.0906189), wk =   0.0013021
        k(  123) = (   0.0833333   0.1443376   0.1812378), wk =   0.0013021
        k(  124) = (   0.0833333   0.1443376   0.2718567), wk =   0.0013021
        k(  125) = (   0.0833333   0.1443376  -0.3624756), wk =   0.0013021
        k(  126) = (   0.0833333   0.1924501   0.0000000), wk =   0.0026042
        k(  127) = (   0.0833333   0.1924501   0.0906189), wk =   0.0026042
        k(  128) = (   0.0833333   0.1924501   0.1812378), wk =   0.0026042
        k(  129) = (   0.0833333   0.1924501   0.2718567), wk =   0.0026042
        k(  130) = (   0.0833333   0.1924501  -0.3624756), wk =   0.0026042
        k(  131) = (   0.0833333   0.2405626   0.0000000), wk =   0.0026042
        k(  132) = (   0.0833333   0.2405626   0.0906189), wk =   0.0026042
        k(  133) = (   0.0833333   0.2405626   0.1812378), wk =   0.0026042
        k(  134) = (   0.0833333   0.2405626   0.2718567), wk =   0.0026042
        k(  135) = (   0.0833333   0.2405626  -0.3624756), wk =   0.0026042
        k(  136) = (   0.0833333   0.2886751   0.0000000), wk =   0.0026042
        k(  137) = (   0.0833333   0.2886751   0.0906189), wk =   0.0026042
        k(  138) = (   0.0833333   0.2886751   0.1812378), wk =   0.0026042
        k(  139) = (   0.0833333   0.2886751   0.2718567), wk =   0.0026042
        k(  140) = (   0.0833333   0.2886751  -0.3624756), wk =   0.0026042
        k(  141) = (   0.0833333   0.3367877   0.0000000), wk =   0.0026042
        k(  142) = (   0.0833333   0.3367877   0.0906189), wk =   0.0026042
        k(  143) = (   0.0833333   0.3367877   0.1812378), wk =   0.0026042
        k(  144) = (   0.0833333   0.3367877   0.2718567), wk =   0.0026042
        k(  145) = (   0.0833333   0.3367877  -0.3624756), wk =   0.0026042
        k(  146) = (   0.0833333   0.3849002   0.0000000), wk =   0.0026042
        k(  147) = (   0.0833333   0.3849002   0.0906189), wk =   0.0026042
        k(  148) = (   0.0833333   0.3849002   0.1812378), wk =   0.0026042
        k(  149) = (   0.0833333   0.3849002   0.2718567), wk =   0.0026042
        k(  150) = (   0.0833333   0.3849002  -0.3624756), wk =   0.0026042
        k(  151) = (   0.0833333   0.4330127   0.0000000), wk =   0.0026042
        k(  152) = (   0.0833333   0.4330127   0.0906189), wk =   0.0026042
        k(  153) = (   0.0833333   0.4330127   0.1812378), wk =   0.0026042
        k(  154) = (   0.0833333   0.4330127   0.2718567), wk =   0.0026042
        k(  155) = (   0.0833333   0.4330127  -0.3624756), wk =   0.0026042
        k(  156) = (   0.0833333   0.4811252   0.0000000), wk =   0.0026042
        k(  157) = (   0.0833333   0.4811252   0.0906189), wk =   0.0026042
        k(  158) = (   0.0833333   0.4811252   0.1812378), wk =   0.0026042
        k(  159) = (   0.0833333   0.4811252   0.2718567), wk =   0.0026042
        k(  160) = (   0.0833333   0.4811252  -0.3624756), wk =   0.0026042
        k(  161) = (   0.0833333   0.5292377   0.0000000), wk =   0.0026042
        k(  162) = (   0.0833333   0.5292377   0.0906189), wk =   0.0026042
        k(  163) = (   0.0833333   0.5292377   0.1812378), wk =   0.0026042
        k(  164) = (   0.0833333   0.5292377   0.2718567), wk =   0.0026042
        k(  165) = (   0.0833333   0.5292377  -0.3624756), wk =   0.0026042
        k(  166) = (   0.0833333   0.5773503   0.0000000), wk =   0.0013021
        k(  167) = (   0.0833333   0.5773503   0.0906189), wk =   0.0013021
        k(  168) = (   0.0833333   0.5773503   0.1812378), wk =   0.0013021
        k(  169) = (   0.0833333   0.5773503   0.2718567), wk =   0.0013021
        k(  170) = (   0.0833333   0.5773503  -0.3624756), wk =   0.0013021
        k(  171) = (   0.1250000   0.2165064   0.0000000), wk =   0.0013021
        k(  172) = (   0.1250000   0.2165064   0.0906189), wk =   0.0013021
        k(  173) = (   0.1250000   0.2165064   0.1812378), wk =   0.0013021
        k(  174) = (   0.1250000   0.2165064   0.2718567), wk =   0.0013021
        k(  175) = (   0.1250000   0.2165064  -0.3624756), wk =   0.0013021
        k(  176) = (   0.1250000   0.2646189   0.0000000), wk =   0.0026042
        k(  177) = (   0.1250000   0.2646189   0.0906189), wk =   0.0026042
        k(  178) = (   0.1250000   0.2646189   0.1812378), wk =   0.0026042
        k(  179) = (   0.1250000   0.2646189   0.2718567), wk =   0.0026042
        k(  180) = (   0.1250000   0.2646189  -0.3624756), wk =   0.0026042
        k(  181) = (   0.1250000   0.3127314   0.0000000), wk =   0.0026042
        k(  182) = (   0.1250000   0.3127314   0.0906189), wk =   0.0026042
        k(  183) = (   0.1250000   0.3127314   0.1812378), wk =   0.0026042
        k(  184) = (   0.1250000   0.3127314   0.2718567), wk =   0.0026042
        k(  185) = (   0.1250000   0.3127314  -0.3624756), wk =   0.0026042
        k(  186) = (   0.1250000   0.3608439   0.0000000), wk =   0.0026042
        k(  187) = (   0.1250000   0.3608439   0.0906189), wk =   0.0026042
        k(  188) = (   0.1250000   0.3608439   0.1812378), wk =   0.0026042
        k(  189) = (   0.1250000   0.3608439   0.2718567), wk =   0.0026042
        k(  190) = (   0.1250000   0.3608439  -0.3624756), wk =   0.0026042
        k(  191) = (   0.1250000   0.4089564   0.0000000), wk =   0.0026042
        k(  192) = (   0.1250000   0.4089564   0.0906189), wk =   0.0026042
        k(  193) = (   0.1250000   0.4089564   0.1812378), wk =   0.0026042
        k(  194) = (   0.1250000   0.4089564   0.2718567), wk =   0.0026042
        k(  195) = (   0.1250000   0.4089564  -0.3624756), wk =   0.0026042
        k(  196) = (   0.1250000   0.4570690   0.0000000), wk =   0.0026042
        k(  197) = (   0.1250000   0.4570690   0.0906189), wk =   0.0026042
        k(  198) = (   0.1250000   0.4570690   0.1812378), wk =   0.0026042
        k(  199) = (   0.1250000   0.4570690   0.2718567), wk =   0.0026042
        k(  200) = (   0.1250000   0.4570690  -0.3624756), wk =   0.0026042
        k(  201) = (   0.1250000   0.5051815   0.0000000), wk =   0.0026042
        k(  202) = (   0.1250000   0.5051815   0.0906189), wk =   0.0026042
        k(  203) = (   0.1250000   0.5051815   0.1812378), wk =   0.0026042
        k(  204) = (   0.1250000   0.5051815   0.2718567), wk =   0.0026042
        k(  205) = (   0.1250000   0.5051815  -0.3624756), wk =   0.0026042
        k(  206) = (   0.1250000   0.5532940   0.0000000), wk =   0.0026042
        k(  207) = (   0.1250000   0.5532940   0.0906189), wk =   0.0026042
        k(  208) = (   0.1250000   0.5532940   0.1812378), wk =   0.0026042
        k(  209) = (   0.1250000   0.5532940   0.2718567), wk =   0.0026042
        k(  210) = (   0.1250000   0.5532940  -0.3624756), wk =   0.0026042
        k(  211) = (   0.1666667   0.2886751   0.0000000), wk =   0.0013021
        k(  212) = (   0.1666667   0.2886751   0.0906189), wk =   0.0013021
        k(  213) = (   0.1666667   0.2886751   0.1812378), wk =   0.0013021
        k(  214) = (   0.1666667   0.2886751   0.2718567), wk =   0.0013021
        k(  215) = (   0.1666667   0.2886751  -0.3624756), wk =   0.0013021
        k(  216) = (   0.1666667   0.3367877   0.0000000), wk =   0.0026042
        k(  217) = (   0.1666667   0.3367877   0.0906189), wk =   0.0026042
        k(  218) = (   0.1666667   0.3367877   0.1812378), wk =   0.0026042
        k(  219) = (   0.1666667   0.3367877   0.2718567), wk =   0.0026042
        k(  220) = (   0.1666667   0.3367877  -0.3624756), wk =   0.0026042
        k(  221) = (   0.1666667   0.3849002   0.0000000), wk =   0.0026042
        k(  222) = (   0.1666667   0.3849002   0.0906189), wk =   0.0026042
        k(  223) = (   0.1666667   0.3849002   0.1812378), wk =   0.0026042
        k(  224) = (   0.1666667   0.3849002   0.2718567), wk =   0.0026042
        k(  225) = (   0.1666667   0.3849002  -0.3624756), wk =   0.0026042
        k(  226) = (   0.1666667   0.4330127   0.0000000), wk =   0.0026042
        k(  227) = (   0.1666667   0.4330127   0.0906189), wk =   0.0026042
        k(  228) = (   0.1666667   0.4330127   0.1812378), wk =   0.0026042
        k(  229) = (   0.1666667   0.4330127   0.2718567), wk =   0.0026042
        k(  230) = (   0.1666667   0.4330127  -0.3624756), wk =   0.0026042
        k(  231) = (   0.1666667   0.4811252   0.0000000), wk =   0.0026042
        k(  232) = (   0.1666667   0.4811252   0.0906189), wk =   0.0026042
        k(  233) = (   0.1666667   0.4811252   0.1812378), wk =   0.0026042
        k(  234) = (   0.1666667   0.4811252   0.2718567), wk =   0.0026042
        k(  235) = (   0.1666667   0.4811252  -0.3624756), wk =   0.0026042
        k(  236) = (   0.1666667   0.5292377   0.0000000), wk =   0.0026042
        k(  237) = (   0.1666667   0.5292377   0.0906189), wk =   0.0026042
        k(  238) = (   0.1666667   0.5292377   0.1812378), wk =   0.0026042
        k(  239) = (   0.1666667   0.5292377   0.2718567), wk =   0.0026042
        k(  240) = (   0.1666667   0.5292377  -0.3624756), wk =   0.0026042
        k(  241) = (   0.1666667   0.5773503   0.0000000), wk =   0.0013021
        k(  242) = (   0.1666667   0.5773503   0.0906189), wk =   0.0013021
        k(  243) = (   0.1666667   0.5773503   0.1812378), wk =   0.0013021
        k(  244) = (   0.1666667   0.5773503   0.2718567), wk =   0.0013021
        k(  245) = (   0.1666667   0.5773503  -0.3624756), wk =   0.0013021
        k(  246) = (   0.2083333   0.3608439   0.0000000), wk =   0.0013021
        k(  247) = (   0.2083333   0.3608439   0.0906189), wk =   0.0013021
        k(  248) = (   0.2083333   0.3608439   0.1812378), wk =   0.0013021
        k(  249) = (   0.2083333   0.3608439   0.2718567), wk =   0.0013021
        k(  250) = (   0.2083333   0.3608439  -0.3624756), wk =   0.0013021
        k(  251) = (   0.2083333   0.4089564   0.0000000), wk =   0.0026042
        k(  252) = (   0.2083333   0.4089564   0.0906189), wk =   0.0026042
        k(  253) = (   0.2083333   0.4089564   0.1812378), wk =   0.0026042
        k(  254) = (   0.2083333   0.4089564   0.2718567), wk =   0.0026042
        k(  255) = (   0.2083333   0.4089564  -0.3624756), wk =   0.0026042
        k(  256) = (   0.2083333   0.4570690   0.0000000), wk =   0.0026042
        k(  257) = (   0.2083333   0.4570690   0.0906189), wk =   0.0026042
        k(  258) = (   0.2083333   0.4570690   0.1812378), wk =   0.0026042
        k(  259) = (   0.2083333   0.4570690   0.2718567), wk =   0.0026042
        k(  260) = (   0.2083333   0.4570690  -0.3624756), wk =   0.0026042
        k(  261) = (   0.2083333   0.5051815   0.0000000), wk =   0.0026042
        k(  262) = (   0.2083333   0.5051815   0.0906189), wk =   0.0026042
        k(  263) = (   0.2083333   0.5051815   0.1812378), wk =   0.0026042
        k(  264) = (   0.2083333   0.5051815   0.2718567), wk =   0.0026042
        k(  265) = (   0.2083333   0.5051815  -0.3624756), wk =   0.0026042
        k(  266) = (   0.2083333   0.5532940   0.0000000), wk =   0.0026042
        k(  267) = (   0.2083333   0.5532940   0.0906189), wk =   0.0026042
        k(  268) = (   0.2083333   0.5532940   0.1812378), wk =   0.0026042
        k(  269) = (   0.2083333   0.5532940   0.2718567), wk =   0.0026042
        k(  270) = (   0.2083333   0.5532940  -0.3624756), wk =   0.0026042
        k(  271) = (   0.2500000   0.4330127   0.0000000), wk =   0.0013021
        k(  272) = (   0.2500000   0.4330127   0.0906189), wk =   0.0013021
        k(  273) = (   0.2500000   0.4330127   0.1812378), wk =   0.0013021
        k(  274) = (   0.2500000   0.4330127   0.2718567), wk =   0.0013021
        k(  275) = (   0.2500000   0.4330127  -0.3624756), wk =   0.0013021
        k(  276) = (   0.2500000   0.4811252   0.0000000), wk =   0.0026042
        k(  277) = (   0.2500000   0.4811252   0.0906189), wk =   0.0026042
        k(  278) = (   0.2500000   0.4811252   0.1812378), wk =   0.0026042
        k(  279) = (   0.2500000   0.4811252   0.2718567), wk =   0.0026042
        k(  280) = (   0.2500000   0.4811252  -0.3624756), wk =   0.0026042
        k(  281) = (   0.2500000   0.5292377   0.0000000), wk =   0.0026042
        k(  282) = (   0.2500000   0.5292377   0.0906189), wk =   0.0026042
        k(  283) = (   0.2500000   0.5292377   0.1812378), wk =   0.0026042
        k(  284) = (   0.2500000   0.5292377   0.2718567), wk =   0.0026042
        k(  285) = (   0.2500000   0.5292377  -0.3624756), wk =   0.0026042
        k(  286) = (   0.2500000   0.5773503   0.0000000), wk =   0.0013021
        k(  287) = (   0.2500000   0.5773503   0.0906189), wk =   0.0013021
        k(  288) = (   0.2500000   0.5773503   0.1812378), wk =   0.0013021
        k(  289) = (   0.2500000   0.5773503   0.2718567), wk =   0.0013021
        k(  290) = (   0.2500000   0.5773503  -0.3624756), wk =   0.0013021
        k(  291) = (   0.2916667   0.5051815   0.0000000), wk =   0.0013021
        k(  292) = (   0.2916667   0.5051815   0.0906189), wk =   0.0013021
        k(  293) = (   0.2916667   0.5051815   0.1812378), wk =   0.0013021
        k(  294) = (   0.2916667   0.5051815   0.2718567), wk =   0.0013021
        k(  295) = (   0.2916667   0.5051815  -0.3624756), wk =   0.0013021
        k(  296) = (   0.2916667   0.5532940   0.0000000), wk =   0.0026042
        k(  297) = (   0.2916667   0.5532940   0.0906189), wk =   0.0026042
        k(  298) = (   0.2916667   0.5532940   0.1812378), wk =   0.0026042
        k(  299) = (   0.2916667   0.5532940   0.2718567), wk =   0.0026042
        k(  300) = (   0.2916667   0.5532940  -0.3624756), wk =   0.0026042
        k(  301) = (   0.3333333   0.5773503   0.0000000), wk =   0.0004340
        k(  302) = (   0.3333333   0.5773503   0.0906189), wk =   0.0004340
        k(  303) = (   0.3333333   0.5773503   0.1812378), wk =   0.0004340
        k(  304) = (   0.3333333   0.5773503   0.2718567), wk =   0.0004340
        k(  305) = (   0.3333333   0.5773503  -0.3624756), wk =   0.0004340
        k(  306) = (  -0.0416667  -0.0721688   0.0906189), wk =   0.0013021
        k(  307) = (  -0.0416667  -0.0721688   0.1812378), wk =   0.0013021
        k(  308) = (  -0.0416667  -0.0721688   0.2718567), wk =   0.0013021
        k(  309) = (  -0.0416667  -0.1202813   0.0906189), wk =   0.0026042
        k(  310) = (  -0.0416667  -0.1202813   0.1812378), wk =   0.0026042
        k(  311) = (  -0.0416667  -0.1202813   0.2718567), wk =   0.0026042
        k(  312) = (  -0.0416667  -0.1683938   0.0906189), wk =   0.0026042
        k(  313) = (  -0.0416667  -0.1683938   0.1812378), wk =   0.0026042
        k(  314) = (  -0.0416667  -0.1683938   0.2718567), wk =   0.0026042
        k(  315) = (  -0.0416667  -0.2165064   0.0906189), wk =   0.0026042
        k(  316) = (  -0.0416667  -0.2165064   0.1812378), wk =   0.0026042
        k(  317) = (  -0.0416667  -0.2165064   0.2718567), wk =   0.0026042
        k(  318) = (  -0.0416667  -0.2646189   0.0906189), wk =   0.0026042
        k(  319) = (  -0.0416667  -0.2646189   0.1812378), wk =   0.0026042
        k(  320) = (  -0.0416667  -0.2646189   0.2718567), wk =   0.0026042
        k(  321) = (  -0.0416667  -0.3127314   0.0906189), wk =   0.0026042
        k(  322) = (  -0.0416667  -0.3127314   0.1812378), wk =   0.0026042
        k(  323) = (  -0.0416667  -0.3127314   0.2718567), wk =   0.0026042
        k(  324) = (  -0.0416667  -0.3608439   0.0906189), wk =   0.0026042
        k(  325) = (  -0.0416667  -0.3608439   0.1812378), wk =   0.0026042
        k(  326) = (  -0.0416667  -0.3608439   0.2718567), wk =   0.0026042
        k(  327) = (  -0.0416667  -0.4089564   0.0906189), wk =   0.0026042
        k(  328) = (  -0.0416667  -0.4089564   0.1812378), wk =   0.0026042
        k(  329) = (  -0.0416667  -0.4089564   0.2718567), wk =   0.0026042
        k(  330) = (  -0.0416667  -0.4570690   0.0906189), wk =   0.0026042
        k(  331) = (  -0.0416667  -0.4570690   0.1812378), wk =   0.0026042
        k(  332) = (  -0.0416667  -0.4570690   0.2718567), wk =   0.0026042
        k(  333) = (  -0.0416667  -0.5051815   0.0906189), wk =   0.0026042
        k(  334) = (  -0.0416667  -0.5051815   0.1812378), wk =   0.0026042
        k(  335) = (  -0.0416667  -0.5051815   0.2718567), wk =   0.0026042
        k(  336) = (  -0.0416667  -0.5532940   0.0906189), wk =   0.0026042
        k(  337) = (  -0.0416667  -0.5532940   0.1812378), wk =   0.0026042
        k(  338) = (  -0.0416667  -0.5532940   0.2718567), wk =   0.0026042
        k(  339) = (  -0.0833333  -0.1443376   0.0906189), wk =   0.0013021
        k(  340) = (  -0.0833333  -0.1443376   0.1812378), wk =   0.0013021
        k(  341) = (  -0.0833333  -0.1443376   0.2718567), wk =   0.0013021
        k(  342) = (  -0.0833333  -0.1924501   0.0906189), wk =   0.0026042
        k(  343) = (  -0.0833333  -0.1924501   0.1812378), wk =   0.0026042
        k(  344) = (  -0.0833333  -0.1924501   0.2718567), wk =   0.0026042
        k(  345) = (  -0.0833333  -0.2405626   0.0906189), wk =   0.0026042
        k(  346) = (  -0.0833333  -0.2405626   0.1812378), wk =   0.0026042
        k(  347) = (  -0.0833333  -0.2405626   0.2718567), wk =   0.0026042
        k(  348) = (  -0.0833333  -0.2886751   0.0906189), wk =   0.0026042
        k(  349) = (  -0.0833333  -0.2886751   0.1812378), wk =   0.0026042
        k(  350) = (  -0.0833333  -0.2886751   0.2718567), wk =   0.0026042
        k(  351) = (  -0.0833333  -0.3367877   0.0906189), wk =   0.0026042
        k(  352) = (  -0.0833333  -0.3367877   0.1812378), wk =   0.0026042
        k(  353) = (  -0.0833333  -0.3367877   0.2718567), wk =   0.0026042
        k(  354) = (  -0.0833333  -0.3849002   0.0906189), wk =   0.0026042
        k(  355) = (  -0.0833333  -0.3849002   0.1812378), wk =   0.0026042
        k(  356) = (  -0.0833333  -0.3849002   0.2718567), wk =   0.0026042
        k(  357) = (  -0.0833333  -0.4330127   0.0906189), wk =   0.0026042
        k(  358) = (  -0.0833333  -0.4330127   0.1812378), wk =   0.0026042
        k(  359) = (  -0.0833333  -0.4330127   0.2718567), wk =   0.0026042
        k(  360) = (  -0.0833333  -0.4811252   0.0906189), wk =   0.0026042
        k(  361) = (  -0.0833333  -0.4811252   0.1812378), wk =   0.0026042
        k(  362) = (  -0.0833333  -0.4811252   0.2718567), wk =   0.0026042
        k(  363) = (  -0.0833333  -0.5292377   0.0906189), wk =   0.0026042
        k(  364) = (  -0.0833333  -0.5292377   0.1812378), wk =   0.0026042
        k(  365) = (  -0.0833333  -0.5292377   0.2718567), wk =   0.0026042
        k(  366) = (  -0.0833333  -0.5773503   0.0906189), wk =   0.0013021
        k(  367) = (  -0.0833333  -0.5773503   0.1812378), wk =   0.0013021
        k(  368) = (  -0.0833333  -0.5773503   0.2718567), wk =   0.0013021
        k(  369) = (  -0.1250000  -0.2165064   0.0906189), wk =   0.0013021
        k(  370) = (  -0.1250000  -0.2165064   0.1812378), wk =   0.0013021
        k(  371) = (  -0.1250000  -0.2165064   0.2718567), wk =   0.0013021
        k(  372) = (  -0.1250000  -0.2646189   0.0906189), wk =   0.0026042
        k(  373) = (  -0.1250000  -0.2646189   0.1812378), wk =   0.0026042
        k(  374) = (  -0.1250000  -0.2646189   0.2718567), wk =   0.0026042
        k(  375) = (  -0.1250000  -0.3127314   0.0906189), wk =   0.0026042
        k(  376) = (  -0.1250000  -0.3127314   0.1812378), wk =   0.0026042
        k(  377) = (  -0.1250000  -0.3127314   0.2718567), wk =   0.0026042
        k(  378) = (  -0.1250000  -0.3608439   0.0906189), wk =   0.0026042
        k(  379) = (  -0.1250000  -0.3608439   0.1812378), wk =   0.0026042
        k(  380) = (  -0.1250000  -0.3608439   0.2718567), wk =   0.0026042
        k(  381) = (  -0.1250000  -0.4089564   0.0906189), wk =   0.0026042
        k(  382) = (  -0.1250000  -0.4089564   0.1812378), wk =   0.0026042
        k(  383) = (  -0.1250000  -0.4089564   0.2718567), wk =   0.0026042
        k(  384) = (  -0.1250000  -0.4570690   0.0906189), wk =   0.0026042
        k(  385) = (  -0.1250000  -0.4570690   0.1812378), wk =   0.0026042
        k(  386) = (  -0.1250000  -0.4570690   0.2718567), wk =   0.0026042
        k(  387) = (  -0.1250000  -0.5051815   0.0906189), wk =   0.0026042
        k(  388) = (  -0.1250000  -0.5051815   0.1812378), wk =   0.0026042
        k(  389) = (  -0.1250000  -0.5051815   0.2718567), wk =   0.0026042
        k(  390) = (  -0.1250000  -0.5532940   0.0906189), wk =   0.0026042
        k(  391) = (  -0.1250000  -0.5532940   0.1812378), wk =   0.0026042
        k(  392) = (  -0.1250000  -0.5532940   0.2718567), wk =   0.0026042
        k(  393) = (  -0.1666667  -0.2886751   0.0906189), wk =   0.0013021
        k(  394) = (  -0.1666667  -0.2886751   0.1812378), wk =   0.0013021
        k(  395) = (  -0.1666667  -0.2886751   0.2718567), wk =   0.0013021
        k(  396) = (  -0.1666667  -0.3367877   0.0906189), wk =   0.0026042
        k(  397) = (  -0.1666667  -0.3367877   0.1812378), wk =   0.0026042
        k(  398) = (  -0.1666667  -0.3367877   0.2718567), wk =   0.0026042
        k(  399) = (  -0.1666667  -0.3849002   0.0906189), wk =   0.0026042
        k(  400) = (  -0.1666667  -0.3849002   0.1812378), wk =   0.0026042
        k(  401) = (  -0.1666667  -0.3849002   0.2718567), wk =   0.0026042
        k(  402) = (  -0.1666667  -0.4330127   0.0906189), wk =   0.0026042
        k(  403) = (  -0.1666667  -0.4330127   0.1812378), wk =   0.0026042
        k(  404) = (  -0.1666667  -0.4330127   0.2718567), wk =   0.0026042
        k(  405) = (  -0.1666667  -0.4811252   0.0906189), wk =   0.0026042
        k(  406) = (  -0.1666667  -0.4811252   0.1812378), wk =   0.0026042
        k(  407) = (  -0.1666667  -0.4811252   0.2718567), wk =   0.0026042
        k(  408) = (  -0.1666667  -0.5292377   0.0906189), wk =   0.0026042
        k(  409) = (  -0.1666667  -0.5292377   0.1812378), wk =   0.0026042
        k(  410) = (  -0.1666667  -0.5292377   0.2718567), wk =   0.0026042
        k(  411) = (  -0.1666667  -0.5773503   0.0906189), wk =   0.0013021
        k(  412) = (  -0.1666667  -0.5773503   0.1812378), wk =   0.0013021
        k(  413) = (  -0.1666667  -0.5773503   0.2718567), wk =   0.0013021
        k(  414) = (  -0.2083333  -0.3608439   0.0906189), wk =   0.0013021
        k(  415) = (  -0.2083333  -0.3608439   0.1812378), wk =   0.0013021
        k(  416) = (  -0.2083333  -0.3608439   0.2718567), wk =   0.0013021
        k(  417) = (  -0.2083333  -0.4089564   0.0906189), wk =   0.0026042
        k(  418) = (  -0.2083333  -0.4089564   0.1812378), wk =   0.0026042
        k(  419) = (  -0.2083333  -0.4089564   0.2718567), wk =   0.0026042
        k(  420) = (  -0.2083333  -0.4570690   0.0906189), wk =   0.0026042
        k(  421) = (  -0.2083333  -0.4570690   0.1812378), wk =   0.0026042
        k(  422) = (  -0.2083333  -0.4570690   0.2718567), wk =   0.0026042
        k(  423) = (  -0.2083333  -0.5051815   0.0906189), wk =   0.0026042
        k(  424) = (  -0.2083333  -0.5051815   0.1812378), wk =   0.0026042
        k(  425) = (  -0.2083333  -0.5051815   0.2718567), wk =   0.0026042
        k(  426) = (  -0.2083333  -0.5532940   0.0906189), wk =   0.0026042
        k(  427) = (  -0.2083333  -0.5532940   0.1812378), wk =   0.0026042
        k(  428) = (  -0.2083333  -0.5532940   0.2718567), wk =   0.0026042
        k(  429) = (  -0.2500000  -0.4330127   0.0906189), wk =   0.0013021
        k(  430) = (  -0.2500000  -0.4330127   0.1812378), wk =   0.0013021
        k(  431) = (  -0.2500000  -0.4330127   0.2718567), wk =   0.0013021
        k(  432) = (  -0.2500000  -0.4811252   0.0906189), wk =   0.0026042
        k(  433) = (  -0.2500000  -0.4811252   0.1812378), wk =   0.0026042
        k(  434) = (  -0.2500000  -0.4811252   0.2718567), wk =   0.0026042
        k(  435) = (  -0.2500000  -0.5292377   0.0906189), wk =   0.0026042
        k(  436) = (  -0.2500000  -0.5292377   0.1812378), wk =   0.0026042
        k(  437) = (  -0.2500000  -0.5292377   0.2718567), wk =   0.0026042
        k(  438) = (  -0.2500000  -0.5773503   0.0906189), wk =   0.0013021
        k(  439) = (  -0.2500000  -0.5773503   0.1812378), wk =   0.0013021
        k(  440) = (  -0.2500000  -0.5773503   0.2718567), wk =   0.0013021
        k(  441) = (  -0.2916667  -0.5051815   0.0906189), wk =   0.0013021
        k(  442) = (  -0.2916667  -0.5051815   0.1812378), wk =   0.0013021
        k(  443) = (  -0.2916667  -0.5051815   0.2718567), wk =   0.0013021
        k(  444) = (  -0.2916667  -0.5532940   0.0906189), wk =   0.0026042
        k(  445) = (  -0.2916667  -0.5532940   0.1812378), wk =   0.0026042
        k(  446) = (  -0.2916667  -0.5532940   0.2718567), wk =   0.0026042
        k(  447) = (  -0.3333333  -0.5773503   0.0906189), wk =   0.0004340
        k(  448) = (  -0.3333333  -0.5773503   0.1812378), wk =   0.0004340
        k(  449) = (  -0.3333333  -0.5773503   0.2718567), wk =   0.0004340

                       cryst. coord.
        k(    1) = (   0.0000000   0.0000000   0.0000000), wk =   0.0002170
        k(    2) = (   0.0000000   0.0000000   0.1250000), wk =   0.0004340
        k(    3) = (   0.0000000   0.0000000   0.2500000), wk =   0.0004340
        k(    4) = (   0.0000000   0.0000000   0.3750000), wk =   0.0004340
        k(    5) = (   0.0000000   0.0000000  -0.5000000), wk =   0.0002170
        k(    6) = (   0.0000000   0.0416667   0.0000000), wk =   0.0013021
        k(    7) = (   0.0000000   0.0416667   0.1250000), wk =   0.0026042
        k(    8) = (   0.0000000   0.0416667   0.2500000), wk =   0.0026042
        k(    9) = (   0.0000000   0.0416667   0.3750000), wk =   0.0026042
        k(   10) = (   0.0000000   0.0416667  -0.5000000), wk =   0.0013021
        k(   11) = (   0.0000000   0.0833333   0.0000000), wk =   0.0013021
        k(   12) = (   0.0000000   0.0833333   0.1250000), wk =   0.0026042
        k(   13) = (   0.0000000   0.0833333   0.2500000), wk =   0.0026042
        k(   14) = (   0.0000000   0.0833333   0.3750000), wk =   0.0026042
        k(   15) = (   0.0000000   0.0833333  -0.5000000), wk =   0.0013021
        k(   16) = (   0.0000000   0.1250000   0.0000000), wk =   0.0013021
        k(   17) = (   0.0000000   0.1250000   0.1250000), wk =   0.0026042
        k(   18) = (   0.0000000   0.1250000   0.2500000), wk =   0.0026042
        k(   19) = (   0.0000000   0.1250000   0.3750000), wk =   0.0026042
        k(   20) = (   0.0000000   0.1250000  -0.5000000), wk =   0.0013021
        k(   21) = (   0.0000000   0.1666667   0.0000000), wk =   0.0013021
        k(   22) = (   0.0000000   0.1666667   0.1250000), wk =   0.0026042
        k(   23) = (   0.0000000   0.1666667   0.2500000), wk =   0.0026042
        k(   24) = (   0.0000000   0.1666667   0.3750000), wk =   0.0026042
        k(   25) = (   0.0000000   0.1666667  -0.5000000), wk =   0.0013021
        k(   26) = (   0.0000000   0.2083333   0.0000000), wk =   0.0013021
        k(   27) = (   0.0000000   0.2083333   0.1250000), wk =   0.0026042
        k(   28) = (   0.0000000   0.2083333   0.2500000), wk =   0.0026042
        k(   29) = (   0.0000000   0.2083333   0.3750000), wk =   0.0026042
        k(   30) = (   0.0000000   0.2083333  -0.5000000), wk =   0.0013021
        k(   31) = (   0.0000000   0.2500000   0.0000000), wk =   0.0013021
        k(   32) = (   0.0000000   0.2500000   0.1250000), wk =   0.0026042
        k(   33) = (   0.0000000   0.2500000   0.2500000), wk =   0.0026042
        k(   34) = (   0.0000000   0.2500000   0.3750000), wk =   0.0026042
        k(   35) = (   0.0000000   0.2500000  -0.5000000), wk =   0.0013021
        k(   36) = (   0.0000000   0.2916667   0.0000000), wk =   0.0013021
        k(   37) = (   0.0000000   0.2916667   0.1250000), wk =   0.0026042
        k(   38) = (   0.0000000   0.2916667   0.2500000), wk =   0.0026042
        k(   39) = (   0.0000000   0.2916667   0.3750000), wk =   0.0026042
        k(   40) = (   0.0000000   0.2916667  -0.5000000), wk =   0.0013021
        k(   41) = (   0.0000000   0.3333333   0.0000000), wk =   0.0013021
        k(   42) = (   0.0000000   0.3333333   0.1250000), wk =   0.0026042
        k(   43) = (   0.0000000   0.3333333   0.2500000), wk =   0.0026042
        k(   44) = (   0.0000000   0.3333333   0.3750000), wk =   0.0026042
        k(   45) = (   0.0000000   0.3333333  -0.5000000), wk =   0.0013021
        k(   46) = (   0.0000000   0.3750000   0.0000000), wk =   0.0013021
        k(   47) = (   0.0000000   0.3750000   0.1250000), wk =   0.0026042
        k(   48) = (   0.0000000   0.3750000   0.2500000), wk =   0.0026042
        k(   49) = (   0.0000000   0.3750000   0.3750000), wk =   0.0026042
        k(   50) = (   0.0000000   0.3750000  -0.5000000), wk =   0.0013021
        k(   51) = (   0.0000000   0.4166667   0.0000000), wk =   0.0013021
        k(   52) = (   0.0000000   0.4166667   0.1250000), wk =   0.0026042
        k(   53) = (   0.0000000   0.4166667   0.2500000), wk =   0.0026042
        k(   54) = (   0.0000000   0.4166667   0.3750000), wk =   0.0026042
        k(   55) = (   0.0000000   0.4166667  -0.5000000), wk =   0.0013021
        k(   56) = (   0.0000000   0.4583333   0.0000000), wk =   0.0013021
        k(   57) = (   0.0000000   0.4583333   0.1250000), wk =   0.0026042
        k(   58) = (   0.0000000   0.4583333   0.2500000), wk =   0.0026042
        k(   59) = (   0.0000000   0.4583333   0.3750000), wk =   0.0026042
        k(   60) = (   0.0000000   0.4583333  -0.5000000), wk =   0.0013021
        k(   61) = (   0.0000000  -0.5000000   0.0000000), wk =   0.0006510
        k(   62) = (   0.0000000  -0.5000000   0.1250000), wk =   0.0013021
        k(   63) = (   0.0000000  -0.5000000   0.2500000), wk =   0.0013021
        k(   64) = (   0.0000000  -0.5000000   0.3750000), wk =   0.0013021
        k(   65) = (   0.0000000  -0.5000000  -0.5000000), wk =   0.0006510
        k(   66) = (   0.0416667   0.0416667   0.0000000), wk =   0.0013021
        k(   67) = (   0.0416667   0.0416667   0.1250000), wk =   0.0013021
        k(   68) = (   0.0416667   0.0416667   0.2500000), wk =   0.0013021
        k(   69) = (   0.0416667   0.0416667   0.3750000), wk =   0.0013021
        k(   70) = (   0.0416667   0.0416667  -0.5000000), wk =   0.0013021
        k(   71) = (   0.0416667   0.0833333   0.0000000), wk =   0.0026042
        k(   72) = (   0.0416667   0.0833333   0.1250000), wk =   0.0026042
        k(   73) = (   0.0416667   0.0833333   0.2500000), wk =   0.0026042
        k(   74) = (   0.0416667   0.0833333   0.3750000), wk =   0.0026042
        k(   75) = (   0.0416667   0.0833333  -0.5000000), wk =   0.0026042
        k(   76) = (   0.0416667   0.1250000   0.0000000), wk =   0.0026042
        k(   77) = (   0.0416667   0.1250000   0.1250000), wk =   0.0026042
        k(   78) = (   0.0416667   0.1250000   0.2500000), wk =   0.0026042
        k(   79) = (   0.0416667   0.1250000   0.3750000), wk =   0.0026042
        k(   80) = (   0.0416667   0.1250000  -0.5000000), wk =   0.0026042
        k(   81) = (   0.0416667   0.1666667   0.0000000), wk =   0.0026042
        k(   82) = (   0.0416667   0.1666667   0.1250000), wk =   0.0026042
        k(   83) = (   0.0416667   0.1666667   0.2500000), wk =   0.0026042
        k(   84) = (   0.0416667   0.1666667   0.3750000), wk =   0.0026042
        k(   85) = (   0.0416667   0.1666667  -0.5000000), wk =   0.0026042
        k(   86) = (   0.0416667   0.2083333   0.0000000), wk =   0.0026042
        k(   87) = (   0.0416667   0.2083333   0.1250000), wk =   0.0026042
        k(   88) = (   0.0416667   0.2083333   0.2500000), wk =   0.0026042
        k(   89) = (   0.0416667   0.2083333   0.3750000), wk =   0.0026042
        k(   90) = (   0.0416667   0.2083333  -0.5000000), wk =   0.0026042
        k(   91) = (   0.0416667   0.2500000   0.0000000), wk =   0.0026042
        k(   92) = (   0.0416667   0.2500000   0.1250000), wk =   0.0026042
        k(   93) = (   0.0416667   0.2500000   0.2500000), wk =   0.0026042
        k(   94) = (   0.0416667   0.2500000   0.3750000), wk =   0.0026042
        k(   95) = (   0.0416667   0.2500000  -0.5000000), wk =   0.0026042
        k(   96) = (   0.0416667   0.2916667   0.0000000), wk =   0.0026042
        k(   97) = (   0.0416667   0.2916667   0.1250000), wk =   0.0026042
        k(   98) = (   0.0416667   0.2916667   0.2500000), wk =   0.0026042
        k(   99) = (   0.0416667   0.2916667   0.3750000), wk =   0.0026042
        k(  100) = (   0.0416667   0.2916667  -0.5000000), wk =   0.0026042
        k(  101) = (   0.0416667   0.3333333   0.0000000), wk =   0.0026042
        k(  102) = (   0.0416667   0.3333333   0.1250000), wk =   0.0026042
        k(  103) = (   0.0416667   0.3333333   0.2500000), wk =   0.0026042
        k(  104) = (   0.0416667   0.3333333   0.3750000), wk =   0.0026042
        k(  105) = (   0.0416667   0.3333333  -0.5000000), wk =   0.0026042
        k(  106) = (   0.0416667   0.3750000   0.0000000), wk =   0.0026042
        k(  107) = (   0.0416667   0.3750000   0.1250000), wk =   0.0026042
        k(  108) = (   0.0416667   0.3750000   0.2500000), wk =   0.0026042
        k(  109) = (   0.0416667   0.3750000   0.3750000), wk =   0.0026042
        k(  110) = (   0.0416667   0.3750000  -0.5000000), wk =   0.0026042
        k(  111) = (   0.0416667   0.4166667   0.0000000), wk =   0.0026042
        k(  112) = (   0.0416667   0.4166667   0.1250000), wk =   0.0026042
        k(  113) = (   0.0416667   0.4166667   0.2500000), wk =   0.0026042
        k(  114) = (   0.0416667   0.4166667   0.3750000), wk =   0.0026042
        k(  115) = (   0.0416667   0.4166667  -0.5000000), wk =   0.0026042
        k(  116) = (   0.0416667   0.4583333   0.0000000), wk =   0.0026042
        k(  117) = (   0.0416667   0.4583333   0.1250000), wk =   0.0026042
        k(  118) = (   0.0416667   0.4583333   0.2500000), wk =   0.0026042
        k(  119) = (   0.0416667   0.4583333   0.3750000), wk =   0.0026042
        k(  120) = (   0.0416667   0.4583333  -0.5000000), wk =   0.0026042
        k(  121) = (   0.0833333   0.0833333   0.0000000), wk =   0.0013021
        k(  122) = (   0.0833333   0.0833333   0.1250000), wk =   0.0013021
        k(  123) = (   0.0833333   0.0833333   0.2500000), wk =   0.0013021
        k(  124) = (   0.0833333   0.0833333   0.3750000), wk =   0.0013021
        k(  125) = (   0.0833333   0.0833333  -0.5000000), wk =   0.0013021
        k(  126) = (   0.0833333   0.1250000   0.0000000), wk =   0.0026042
        k(  127) = (   0.0833333   0.1250000   0.1250000), wk =   0.0026042
        k(  128) = (   0.0833333   0.1250000   0.2500000), wk =   0.0026042
        k(  129) = (   0.0833333   0.1250000   0.3750000), wk =   0.0026042
        k(  130) = (   0.0833333   0.1250000  -0.5000000), wk =   0.0026042
        k(  131) = (   0.0833333   0.1666667   0.0000000), wk =   0.0026042
        k(  132) = (   0.0833333   0.1666667   0.1250000), wk =   0.0026042
        k(  133) = (   0.0833333   0.1666667   0.2500000), wk =   0.0026042
        k(  134) = (   0.0833333   0.1666667   0.3750000), wk =   0.0026042
        k(  135) = (   0.0833333   0.1666667  -0.5000000), wk =   0.0026042
        k(  136) = (   0.0833333   0.2083333   0.0000000), wk =   0.0026042
        k(  137) = (   0.0833333   0.2083333   0.1250000), wk =   0.0026042
        k(  138) = (   0.0833333   0.2083333   0.2500000), wk =   0.0026042
        k(  139) = (   0.0833333   0.2083333   0.3750000), wk =   0.0026042
        k(  140) = (   0.0833333   0.2083333  -0.5000000), wk =   0.0026042
        k(  141) = (   0.0833333   0.2500000   0.0000000), wk =   0.0026042
        k(  142) = (   0.0833333   0.2500000   0.1250000), wk =   0.0026042
        k(  143) = (   0.0833333   0.2500000   0.2500000), wk =   0.0026042
        k(  144) = (   0.0833333   0.2500000   0.3750000), wk =   0.0026042
        k(  145) = (   0.0833333   0.2500000  -0.5000000), wk =   0.0026042
        k(  146) = (   0.0833333   0.2916667   0.0000000), wk =   0.0026042
        k(  147) = (   0.0833333   0.2916667   0.1250000), wk =   0.0026042
        k(  148) = (   0.0833333   0.2916667   0.2500000), wk =   0.0026042
        k(  149) = (   0.0833333   0.2916667   0.3750000), wk =   0.0026042
        k(  150) = (   0.0833333   0.2916667  -0.5000000), wk =   0.0026042
        k(  151) = (   0.0833333   0.3333333   0.0000000), wk =   0.0026042
        k(  152) = (   0.0833333   0.3333333   0.1250000), wk =   0.0026042
        k(  153) = (   0.0833333   0.3333333   0.2500000), wk =   0.0026042
        k(  154) = (   0.0833333   0.3333333   0.3750000), wk =   0.0026042
        k(  155) = (   0.0833333   0.3333333  -0.5000000), wk =   0.0026042
        k(  156) = (   0.0833333   0.3750000   0.0000000), wk =   0.0026042
        k(  157) = (   0.0833333   0.3750000   0.1250000), wk =   0.0026042
        k(  158) = (   0.0833333   0.3750000   0.2500000), wk =   0.0026042
        k(  159) = (   0.0833333   0.3750000   0.3750000), wk =   0.0026042
        k(  160) = (   0.0833333   0.3750000  -0.5000000), wk =   0.0026042
        k(  161) = (   0.0833333   0.4166667   0.0000000), wk =   0.0026042
        k(  162) = (   0.0833333   0.4166667   0.1250000), wk =   0.0026042
        k(  163) = (   0.0833333   0.4166667   0.2500000), wk =   0.0026042
        k(  164) = (   0.0833333   0.4166667   0.3750000), wk =   0.0026042
        k(  165) = (   0.0833333   0.4166667  -0.5000000), wk =   0.0026042
        k(  166) = (   0.0833333   0.4583333   0.0000000), wk =   0.0013021
        k(  167) = (   0.0833333   0.4583333   0.1250000), wk =   0.0013021
        k(  168) = (   0.0833333   0.4583333   0.2500000), wk =   0.0013021
        k(  169) = (   0.0833333   0.4583333   0.3750000), wk =   0.0013021
        k(  170) = (   0.0833333   0.4583333  -0.5000000), wk =   0.0013021
        k(  171) = (   0.1250000   0.1250000   0.0000000), wk =   0.0013021
        k(  172) = (   0.1250000   0.1250000   0.1250000), wk =   0.0013021
        k(  173) = (   0.1250000   0.1250000   0.2500000), wk =   0.0013021
        k(  174) = (   0.1250000   0.1250000   0.3750000), wk =   0.0013021
        k(  175) = (   0.1250000   0.1250000  -0.5000000), wk =   0.0013021
        k(  176) = (   0.1250000   0.1666667   0.0000000), wk =   0.0026042
        k(  177) = (   0.1250000   0.1666667   0.1250000), wk =   0.0026042
        k(  178) = (   0.1250000   0.1666667   0.2500000), wk =   0.0026042
        k(  179) = (   0.1250000   0.1666667   0.3750000), wk =   0.0026042
        k(  180) = (   0.1250000   0.1666667  -0.5000000), wk =   0.0026042
        k(  181) = (   0.1250000   0.2083333   0.0000000), wk =   0.0026042
        k(  182) = (   0.1250000   0.2083333   0.1250000), wk =   0.0026042
        k(  183) = (   0.1250000   0.2083333   0.2500000), wk =   0.0026042
        k(  184) = (   0.1250000   0.2083333   0.3750000), wk =   0.0026042
        k(  185) = (   0.1250000   0.2083333  -0.5000000), wk =   0.0026042
        k(  186) = (   0.1250000   0.2500000   0.0000000), wk =   0.0026042
        k(  187) = (   0.1250000   0.2500000   0.1250000), wk =   0.0026042
        k(  188) = (   0.1250000   0.2500000   0.2500000), wk =   0.0026042
        k(  189) = (   0.1250000   0.2500000   0.3750000), wk =   0.0026042
        k(  190) = (   0.1250000   0.2500000  -0.5000000), wk =   0.0026042
        k(  191) = (   0.1250000   0.2916667   0.0000000), wk =   0.0026042
        k(  192) = (   0.1250000   0.2916667   0.1250000), wk =   0.0026042
        k(  193) = (   0.1250000   0.2916667   0.2500000), wk =   0.0026042
        k(  194) = (   0.1250000   0.2916667   0.3750000), wk =   0.0026042
        k(  195) = (   0.1250000   0.2916667  -0.5000000), wk =   0.0026042
        k(  196) = (   0.1250000   0.3333333   0.0000000), wk =   0.0026042
        k(  197) = (   0.1250000   0.3333333   0.1250000), wk =   0.0026042
        k(  198) = (   0.1250000   0.3333333   0.2500000), wk =   0.0026042
        k(  199) = (   0.1250000   0.3333333   0.3750000), wk =   0.0026042
        k(  200) = (   0.1250000   0.3333333  -0.5000000), wk =   0.0026042
        k(  201) = (   0.1250000   0.3750000   0.0000000), wk =   0.0026042
        k(  202) = (   0.1250000   0.3750000   0.1250000), wk =   0.0026042
        k(  203) = (   0.1250000   0.3750000   0.2500000), wk =   0.0026042
        k(  204) = (   0.1250000   0.3750000   0.3750000), wk =   0.0026042
        k(  205) = (   0.1250000   0.3750000  -0.5000000), wk =   0.0026042
        k(  206) = (   0.1250000   0.4166667   0.0000000), wk =   0.0026042
        k(  207) = (   0.1250000   0.4166667   0.1250000), wk =   0.0026042
        k(  208) = (   0.1250000   0.4166667   0.2500000), wk =   0.0026042
        k(  209) = (   0.1250000   0.4166667   0.3750000), wk =   0.0026042
        k(  210) = (   0.1250000   0.4166667  -0.5000000), wk =   0.0026042
        k(  211) = (   0.1666667   0.1666667   0.0000000), wk =   0.0013021
        k(  212) = (   0.1666667   0.1666667   0.1250000), wk =   0.0013021
        k(  213) = (   0.1666667   0.1666667   0.2500000), wk =   0.0013021
        k(  214) = (   0.1666667   0.1666667   0.3750000), wk =   0.0013021
        k(  215) = (   0.1666667   0.1666667  -0.5000000), wk =   0.0013021
        k(  216) = (   0.1666667   0.2083333   0.0000000), wk =   0.0026042
        k(  217) = (   0.1666667   0.2083333   0.1250000), wk =   0.0026042
        k(  218) = (   0.1666667   0.2083333   0.2500000), wk =   0.0026042
        k(  219) = (   0.1666667   0.2083333   0.3750000), wk =   0.0026042
        k(  220) = (   0.1666667   0.2083333  -0.5000000), wk =   0.0026042
        k(  221) = (   0.1666667   0.2500000   0.0000000), wk =   0.0026042
        k(  222) = (   0.1666667   0.2500000   0.1250000), wk =   0.0026042
        k(  223) = (   0.1666667   0.2500000   0.2500000), wk =   0.0026042
        k(  224) = (   0.1666667   0.2500000   0.3750000), wk =   0.0026042
        k(  225) = (   0.1666667   0.2500000  -0.5000000), wk =   0.0026042
        k(  226) = (   0.1666667   0.2916667   0.0000000), wk =   0.0026042
        k(  227) = (   0.1666667   0.2916667   0.1250000), wk =   0.0026042
        k(  228) = (   0.1666667   0.2916667   0.2500000), wk =   0.0026042
        k(  229) = (   0.1666667   0.2916667   0.3750000), wk =   0.0026042
        k(  230) = (   0.1666667   0.2916667  -0.5000000), wk =   0.0026042
        k(  231) = (   0.1666667   0.3333333   0.0000000), wk =   0.0026042
        k(  232) = (   0.1666667   0.3333333   0.1250000), wk =   0.0026042
        k(  233) = (   0.1666667   0.3333333   0.2500000), wk =   0.0026042
        k(  234) = (   0.1666667   0.3333333   0.3750000), wk =   0.0026042
        k(  235) = (   0.1666667   0.3333333  -0.5000000), wk =   0.0026042
        k(  236) = (   0.1666667   0.3750000   0.0000000), wk =   0.0026042
        k(  237) = (   0.1666667   0.3750000   0.1250000), wk =   0.0026042
        k(  238) = (   0.1666667   0.3750000   0.2500000), wk =   0.0026042
        k(  239) = (   0.1666667   0.3750000   0.3750000), wk =   0.0026042
        k(  240) = (   0.1666667   0.3750000  -0.5000000), wk =   0.0026042
        k(  241) = (   0.1666667   0.4166667   0.0000000), wk =   0.0013021
        k(  242) = (   0.1666667   0.4166667   0.1250000), wk =   0.0013021
        k(  243) = (   0.1666667   0.4166667   0.2500000), wk =   0.0013021
        k(  244) = (   0.1666667   0.4166667   0.3750000), wk =   0.0013021
        k(  245) = (   0.1666667   0.4166667  -0.5000000), wk =   0.0013021
        k(  246) = (   0.2083333   0.2083333   0.0000000), wk =   0.0013021
        k(  247) = (   0.2083333   0.2083333   0.1250000), wk =   0.0013021
        k(  248) = (   0.2083333   0.2083333   0.2500000), wk =   0.0013021
        k(  249) = (   0.2083333   0.2083333   0.3750000), wk =   0.0013021
        k(  250) = (   0.2083333   0.2083333  -0.5000000), wk =   0.0013021
        k(  251) = (   0.2083333   0.2500000   0.0000000), wk =   0.0026042
        k(  252) = (   0.2083333   0.2500000   0.1250000), wk =   0.0026042
        k(  253) = (   0.2083333   0.2500000   0.2500000), wk =   0.0026042
        k(  254) = (   0.2083333   0.2500000   0.3750000), wk =   0.0026042
        k(  255) = (   0.2083333   0.2500000  -0.5000000), wk =   0.0026042
        k(  256) = (   0.2083333   0.2916667   0.0000000), wk =   0.0026042
        k(  257) = (   0.2083333   0.2916667   0.1250000), wk =   0.0026042
        k(  258) = (   0.2083333   0.2916667   0.2500000), wk =   0.0026042
        k(  259) = (   0.2083333   0.2916667   0.3750000), wk =   0.0026042
        k(  260) = (   0.2083333   0.2916667  -0.5000000), wk =   0.0026042
        k(  261) = (   0.2083333   0.3333333   0.0000000), wk =   0.0026042
        k(  262) = (   0.2083333   0.3333333   0.1250000), wk =   0.0026042
        k(  263) = (   0.2083333   0.3333333   0.2500000), wk =   0.0026042
        k(  264) = (   0.2083333   0.3333333   0.3750000), wk =   0.0026042
        k(  265) = (   0.2083333   0.3333333  -0.5000000), wk =   0.0026042
        k(  266) = (   0.2083333   0.3750000   0.0000000), wk =   0.0026042
        k(  267) = (   0.2083333   0.3750000   0.1250000), wk =   0.0026042
        k(  268) = (   0.2083333   0.3750000   0.2500000), wk =   0.0026042
        k(  269) = (   0.2083333   0.3750000   0.3750000), wk =   0.0026042
        k(  270) = (   0.2083333   0.3750000  -0.5000000), wk =   0.0026042
        k(  271) = (   0.2500000   0.2500000   0.0000000), wk =   0.0013021
        k(  272) = (   0.2500000   0.2500000   0.1250000), wk =   0.0013021
        k(  273) = (   0.2500000   0.2500000   0.2500000), wk =   0.0013021
        k(  274) = (   0.2500000   0.2500000   0.3750000), wk =   0.0013021
        k(  275) = (   0.2500000   0.2500000  -0.5000000), wk =   0.0013021
        k(  276) = (   0.2500000   0.2916667   0.0000000), wk =   0.0026042
        k(  277) = (   0.2500000   0.2916667   0.1250000), wk =   0.0026042
        k(  278) = (   0.2500000   0.2916667   0.2500000), wk =   0.0026042
        k(  279) = (   0.2500000   0.2916667   0.3750000), wk =   0.0026042
        k(  280) = (   0.2500000   0.2916667  -0.5000000), wk =   0.0026042
        k(  281) = (   0.2500000   0.3333333   0.0000000), wk =   0.0026042
        k(  282) = (   0.2500000   0.3333333   0.1250000), wk =   0.0026042
        k(  283) = (   0.2500000   0.3333333   0.2500000), wk =   0.0026042
        k(  284) = (   0.2500000   0.3333333   0.3750000), wk =   0.0026042
        k(  285) = (   0.2500000   0.3333333  -0.5000000), wk =   0.0026042
        k(  286) = (   0.2500000   0.3750000   0.0000000), wk =   0.0013021
        k(  287) = (   0.2500000   0.3750000   0.1250000), wk =   0.0013021
        k(  288) = (   0.2500000   0.3750000   0.2500000), wk =   0.0013021
        k(  289) = (   0.2500000   0.3750000   0.3750000), wk =   0.0013021
        k(  290) = (   0.2500000   0.3750000  -0.5000000), wk =   0.0013021
        k(  291) = (   0.2916667   0.2916667   0.0000000), wk =   0.0013021
        k(  292) = (   0.2916667   0.2916667   0.1250000), wk =   0.0013021
        k(  293) = (   0.2916667   0.2916667   0.2500000), wk =   0.0013021
        k(  294) = (   0.2916667   0.2916667   0.3750000), wk =   0.0013021
        k(  295) = (   0.2916667   0.2916667  -0.5000000), wk =   0.0013021
        k(  296) = (   0.2916667   0.3333333   0.0000000), wk =   0.0026042
        k(  297) = (   0.2916667   0.3333333   0.1250000), wk =   0.0026042
        k(  298) = (   0.2916667   0.3333333   0.2500000), wk =   0.0026042
        k(  299) = (   0.2916667   0.3333333   0.3750000), wk =   0.0026042
        k(  300) = (   0.2916667   0.3333333  -0.5000000), wk =   0.0026042
        k(  301) = (   0.3333333   0.3333333   0.0000000), wk =   0.0004340
        k(  302) = (   0.3333333   0.3333333   0.1250000), wk =   0.0004340
        k(  303) = (   0.3333333   0.3333333   0.2500000), wk =   0.0004340
        k(  304) = (   0.3333333   0.3333333   0.3750000), wk =   0.0004340
        k(  305) = (   0.3333333   0.3333333  -0.5000000), wk =   0.0004340
        k(  306) = (  -0.0416667  -0.0416667   0.1250000), wk =   0.0013021
        k(  307) = (  -0.0416667  -0.0416667   0.2500000), wk =   0.0013021
        k(  308) = (  -0.0416667  -0.0416667   0.3750000), wk =   0.0013021
        k(  309) = (  -0.0416667  -0.0833333   0.1250000), wk =   0.0026042
        k(  310) = (  -0.0416667  -0.0833333   0.2500000), wk =   0.0026042
        k(  311) = (  -0.0416667  -0.0833333   0.3750000), wk =   0.0026042
        k(  312) = (  -0.0416667  -0.1250000   0.1250000), wk =   0.0026042
        k(  313) = (  -0.0416667  -0.1250000   0.2500000), wk =   0.0026042
        k(  314) = (  -0.0416667  -0.1250000   0.3750000), wk =   0.0026042
        k(  315) = (  -0.0416667  -0.1666667   0.1250000), wk =   0.0026042
        k(  316) = (  -0.0416667  -0.1666667   0.2500000), wk =   0.0026042
        k(  317) = (  -0.0416667  -0.1666667   0.3750000), wk =   0.0026042
        k(  318) = (  -0.0416667  -0.2083333   0.1250000), wk =   0.0026042
        k(  319) = (  -0.0416667  -0.2083333   0.2500000), wk =   0.0026042
        k(  320) = (  -0.0416667  -0.2083333   0.3750000), wk =   0.0026042
        k(  321) = (  -0.0416667  -0.2500000   0.1250000), wk =   0.0026042
        k(  322) = (  -0.0416667  -0.2500000   0.2500000), wk =   0.0026042
        k(  323) = (  -0.0416667  -0.2500000   0.3750000), wk =   0.0026042
        k(  324) = (  -0.0416667  -0.2916667   0.1250000), wk =   0.0026042
        k(  325) = (  -0.0416667  -0.2916667   0.2500000), wk =   0.0026042
        k(  326) = (  -0.0416667  -0.2916667   0.3750000), wk =   0.0026042
        k(  327) = (  -0.0416667  -0.3333333   0.1250000), wk =   0.0026042
        k(  328) = (  -0.0416667  -0.3333333   0.2500000), wk =   0.0026042
        k(  329) = (  -0.0416667  -0.3333333   0.3750000), wk =   0.0026042
        k(  330) = (  -0.0416667  -0.3750000   0.1250000), wk =   0.0026042
        k(  331) = (  -0.0416667  -0.3750000   0.2500000), wk =   0.0026042
        k(  332) = (  -0.0416667  -0.3750000   0.3750000), wk =   0.0026042
        k(  333) = (  -0.0416667  -0.4166667   0.1250000), wk =   0.0026042
        k(  334) = (  -0.0416667  -0.4166667   0.2500000), wk =   0.0026042
        k(  335) = (  -0.0416667  -0.4166667   0.3750000), wk =   0.0026042
        k(  336) = (  -0.0416667  -0.4583333   0.1250000), wk =   0.0026042
        k(  337) = (  -0.0416667  -0.4583333   0.2500000), wk =   0.0026042
        k(  338) = (  -0.0416667  -0.4583333   0.3750000), wk =   0.0026042
        k(  339) = (  -0.0833333  -0.0833333   0.1250000), wk =   0.0013021
        k(  340) = (  -0.0833333  -0.0833333   0.2500000), wk =   0.0013021
        k(  341) = (  -0.0833333  -0.0833333   0.3750000), wk =   0.0013021
        k(  342) = (  -0.0833333  -0.1250000   0.1250000), wk =   0.0026042
        k(  343) = (  -0.0833333  -0.1250000   0.2500000), wk =   0.0026042
        k(  344) = (  -0.0833333  -0.1250000   0.3750000), wk =   0.0026042
        k(  345) = (  -0.0833333  -0.1666667   0.1250000), wk =   0.0026042
        k(  346) = (  -0.0833333  -0.1666667   0.2500000), wk =   0.0026042
        k(  347) = (  -0.0833333  -0.1666667   0.3750000), wk =   0.0026042
        k(  348) = (  -0.0833333  -0.2083333   0.1250000), wk =   0.0026042
        k(  349) = (  -0.0833333  -0.2083333   0.2500000), wk =   0.0026042
        k(  350) = (  -0.0833333  -0.2083333   0.3750000), wk =   0.0026042
        k(  351) = (  -0.0833333  -0.2500000   0.1250000), wk =   0.0026042
        k(  352) = (  -0.0833333  -0.2500000   0.2500000), wk =   0.0026042
        k(  353) = (  -0.0833333  -0.2500000   0.3750000), wk =   0.0026042
        k(  354) = (  -0.0833333  -0.2916667   0.1250000), wk =   0.0026042
        k(  355) = (  -0.0833333  -0.2916667   0.2500000), wk =   0.0026042
        k(  356) = (  -0.0833333  -0.2916667   0.3750000), wk =   0.0026042
        k(  357) = (  -0.0833333  -0.3333333   0.1250000), wk =   0.0026042
        k(  358) = (  -0.0833333  -0.3333333   0.2500000), wk =   0.0026042
        k(  359) = (  -0.0833333  -0.3333333   0.3750000), wk =   0.0026042
        k(  360) = (  -0.0833333  -0.3750000   0.1250000), wk =   0.0026042
        k(  361) = (  -0.0833333  -0.3750000   0.2500000), wk =   0.0026042
        k(  362) = (  -0.0833333  -0.3750000   0.3750000), wk =   0.0026042
        k(  363) = (  -0.0833333  -0.4166667   0.1250000), wk =   0.0026042
        k(  364) = (  -0.0833333  -0.4166667   0.2500000), wk =   0.0026042
        k(  365) = (  -0.0833333  -0.4166667   0.3750000), wk =   0.0026042
        k(  366) = (  -0.0833333  -0.4583333   0.1250000), wk =   0.0013021
        k(  367) = (  -0.0833333  -0.4583333   0.2500000), wk =   0.0013021
        k(  368) = (  -0.0833333  -0.4583333   0.3750000), wk =   0.0013021
        k(  369) = (  -0.1250000  -0.1250000   0.1250000), wk =   0.0013021
        k(  370) = (  -0.1250000  -0.1250000   0.2500000), wk =   0.0013021
        k(  371) = (  -0.1250000  -0.1250000   0.3750000), wk =   0.0013021
        k(  372) = (  -0.1250000  -0.1666667   0.1250000), wk =   0.0026042
        k(  373) = (  -0.1250000  -0.1666667   0.2500000), wk =   0.0026042
        k(  374) = (  -0.1250000  -0.1666667   0.3750000), wk =   0.0026042
        k(  375) = (  -0.1250000  -0.2083333   0.1250000), wk =   0.0026042
        k(  376) = (  -0.1250000  -0.2083333   0.2500000), wk =   0.0026042
        k(  377) = (  -0.1250000  -0.2083333   0.3750000), wk =   0.0026042
        k(  378) = (  -0.1250000  -0.2500000   0.1250000), wk =   0.0026042
        k(  379) = (  -0.1250000  -0.2500000   0.2500000), wk =   0.0026042
        k(  380) = (  -0.1250000  -0.2500000   0.3750000), wk =   0.0026042
        k(  381) = (  -0.1250000  -0.2916667   0.1250000), wk =   0.0026042
        k(  382) = (  -0.1250000  -0.2916667   0.2500000), wk =   0.0026042
        k(  383) = (  -0.1250000  -0.2916667   0.3750000), wk =   0.0026042
        k(  384) = (  -0.1250000  -0.3333333   0.1250000), wk =   0.0026042
        k(  385) = (  -0.1250000  -0.3333333   0.2500000), wk =   0.0026042
        k(  386) = (  -0.1250000  -0.3333333   0.3750000), wk =   0.0026042
        k(  387) = (  -0.1250000  -0.3750000   0.1250000), wk =   0.0026042
        k(  388) = (  -0.1250000  -0.3750000   0.2500000), wk =   0.0026042
        k(  389) = (  -0.1250000  -0.3750000   0.3750000), wk =   0.0026042
        k(  390) = (  -0.1250000  -0.4166667   0.1250000), wk =   0.0026042
        k(  391) = (  -0.1250000  -0.4166667   0.2500000), wk =   0.0026042
        k(  392) = (  -0.1250000  -0.4166667   0.3750000), wk =   0.0026042
        k(  393) = (  -0.1666667  -0.1666667   0.1250000), wk =   0.0013021
        k(  394) = (  -0.1666667  -0.1666667   0.2500000), wk =   0.0013021
        k(  395) = (  -0.1666667  -0.1666667   0.3750000), wk =   0.0013021
        k(  396) = (  -0.1666667  -0.2083333   0.1250000), wk =   0.0026042
        k(  397) = (  -0.1666667  -0.2083333   0.2500000), wk =   0.0026042
        k(  398) = (  -0.1666667  -0.2083333   0.3750000), wk =   0.0026042
        k(  399) = (  -0.1666667  -0.2500000   0.1250000), wk =   0.0026042
        k(  400) = (  -0.1666667  -0.2500000   0.2500000), wk =   0.0026042
        k(  401) = (  -0.1666667  -0.2500000   0.3750000), wk =   0.0026042
        k(  402) = (  -0.1666667  -0.2916667   0.1250000), wk =   0.0026042
        k(  403) = (  -0.1666667  -0.2916667   0.2500000), wk =   0.0026042
        k(  404) = (  -0.1666667  -0.2916667   0.3750000), wk =   0.0026042
        k(  405) = (  -0.1666667  -0.3333333   0.1250000), wk =   0.0026042
        k(  406) = (  -0.1666667  -0.3333333   0.2500000), wk =   0.0026042
        k(  407) = (  -0.1666667  -0.3333333   0.3750000), wk =   0.0026042
        k(  408) = (  -0.1666667  -0.3750000   0.1250000), wk =   0.0026042
        k(  409) = (  -0.1666667  -0.3750000   0.2500000), wk =   0.0026042
        k(  410) = (  -0.1666667  -0.3750000   0.3750000), wk =   0.0026042
        k(  411) = (  -0.1666667  -0.4166667   0.1250000), wk =   0.0013021
        k(  412) = (  -0.1666667  -0.4166667   0.2500000), wk =   0.0013021
        k(  413) = (  -0.1666667  -0.4166667   0.3750000), wk =   0.0013021
        k(  414) = (  -0.2083333  -0.2083333   0.1250000), wk =   0.0013021
        k(  415) = (  -0.2083333  -0.2083333   0.2500000), wk =   0.0013021
        k(  416) = (  -0.2083333  -0.2083333   0.3750000), wk =   0.0013021
        k(  417) = (  -0.2083333  -0.2500000   0.1250000), wk =   0.0026042
        k(  418) = (  -0.2083333  -0.2500000   0.2500000), wk =   0.0026042
        k(  419) = (  -0.2083333  -0.2500000   0.3750000), wk =   0.0026042
        k(  420) = (  -0.2083333  -0.2916667   0.1250000), wk =   0.0026042
        k(  421) = (  -0.2083333  -0.2916667   0.2500000), wk =   0.0026042
        k(  422) = (  -0.2083333  -0.2916667   0.3750000), wk =   0.0026042
        k(  423) = (  -0.2083333  -0.3333333   0.1250000), wk =   0.0026042
        k(  424) = (  -0.2083333  -0.3333333   0.2500000), wk =   0.0026042
        k(  425) = (  -0.2083333  -0.3333333   0.3750000), wk =   0.0026042
        k(  426) = (  -0.2083333  -0.3750000   0.1250000), wk =   0.0026042
        k(  427) = (  -0.2083333  -0.3750000   0.2500000), wk =   0.0026042
        k(  428) = (  -0.2083333  -0.3750000   0.3750000), wk =   0.0026042
        k(  429) = (  -0.2500000  -0.2500000   0.1250000), wk =   0.0013021
        k(  430) = (  -0.2500000  -0.2500000   0.2500000), wk =   0.0013021
        k(  431) = (  -0.2500000  -0.2500000   0.3750000), wk =   0.0013021
        k(  432) = (  -0.2500000  -0.2916667   0.1250000), wk =   0.0026042
        k(  433) = (  -0.2500000  -0.2916667   0.2500000), wk =   0.0026042
        k(  434) = (  -0.2500000  -0.2916667   0.3750000), wk =   0.0026042
        k(  435) = (  -0.2500000  -0.3333333   0.1250000), wk =   0.0026042
        k(  436) = (  -0.2500000  -0.3333333   0.2500000), wk =   0.0026042
        k(  437) = (  -0.2500000  -0.3333333   0.3750000), wk =   0.0026042
        k(  438) = (  -0.2500000  -0.3750000   0.1250000), wk =   0.0013021
        k(  439) = (  -0.2500000  -0.3750000   0.2500000), wk =   0.0013021
        k(  440) = (  -0.2500000  -0.3750000   0.3750000), wk =   0.0013021
        k(  441) = (  -0.2916667  -0.2916667   0.1250000), wk =   0.0013021
        k(  442) = (  -0.2916667  -0.2916667   0.2500000), wk =   0.0013021
        k(  443) = (  -0.2916667  -0.2916667   0.3750000), wk =   0.0013021
        k(  444) = (  -0.2916667  -0.3333333   0.1250000), wk =   0.0026042
        k(  445) = (  -0.2916667  -0.3333333   0.2500000), wk =   0.0026042
        k(  446) = (  -0.2916667  -0.3333333   0.3750000), wk =   0.0026042
        k(  447) = (  -0.3333333  -0.3333333   0.1250000), wk =   0.0004340
        k(  448) = (  -0.3333333  -0.3333333   0.2500000), wk =   0.0004340
        k(  449) = (  -0.3333333  -0.3333333   0.3750000), wk =   0.0004340

     Dense  grid:   178951 G-vectors     FFT dimensions: (  72,  72,  96)

     Smooth grid:    63407 G-vectors     FFT dimensions: (  48,  48,  72)

     Dynamical RAM for                 wfc:       7.73 MB

     Dynamical RAM for     wfc (w. buffer):       7.73 MB

     Dynamical RAM for           str. fact:       8.19 MB

     Dynamical RAM for           local pot:       0.00 MB

     Dynamical RAM for          nlocal pot:      13.29 MB

     Dynamical RAM for                qrad:       5.27 MB

     Dynamical RAM for          rho,v,vnew:      39.16 MB

     Dynamical RAM for           G-vectors:      10.72 MB

     Dynamical RAM for          h,s,v(r/c):       0.75 MB

     Dynamical RAM for          <psi|beta>:       0.11 MB

     Dynamical RAM for                 psi:      15.47 MB

     Dynamical RAM for                hpsi:      15.47 MB

     Dynamical RAM for                spsi:      15.47 MB

     Dynamical RAM for      wfcinit/wfcrot:      15.56 MB

     Dynamical RAM for           addusdens:     527.00 MB

     Estimated static dynamical RAM per process >     118.08 MB

     Estimated max dynamical RAM per process >     645.08 MB

     Check: negative core charge=   -0.000008
     Generating pointlists ...
     new r_m :   0.1587 (alat units)  1.4998 (a.u.) for type    1
     new r_m :   0.1587 (alat units)  1.4998 (a.u.) for type    2
     new r_m :   0.2141 (alat units)  2.0238 (a.u.) for type    3

[...]
     3.9351   3.9688   3.9744   4.1170   4.2329   4.2595   4.4760   4.5727
     4.6922   6.0139   6.1139   6.2154   6.7577   6.7868   6.8272   9.7064
    10.4086  10.9642  13.8064  14.4637  14.9879  15.7269  16.2258  16.5359

     occupation numbers 
     1.0000   1.0000   1.0000   1.0000   1.0000   1.0000   1.0000   1.0000
     1.0000   1.0000   1.0000   1.0000   1.0000   1.0000   1.0000   1.0000
     1.0000   1.0000   1.0000   1.0000   1.0000   1.0000   1.0000   1.0000
     1.0000   1.0000   1.0000   1.0000   1.0000   1.0000   1.0000   1.0000
     1.0000   1.0000   1.0000   1.0000   1.0000   1.0000   1.0000   1.0000
     1.0311   1.0413   1.0431   1.0829   1.0353   1.0038   0.4974   0.2640
     0.0885   0.0000   0.0000   0.0000   0.0000   0.0000   0.0000   0.0000
     0.0000   0.0000   0.0000   0.0000   0.0000   0.0000   0.0000   0.0000

          k =-0.2500-0.5774 0.0906 (  7917 PWs)   bands (ev):

   -90.6497 -90.6492 -90.6286 -53.9741 -53.9659 -53.9617 -53.9391 -53.9304
   -53.9283 -53.7804 -53.7795 -53.7605 -47.3469 -19.2630 -19.2628 -19.2333
   -13.8678 -13.8565 -13.6030 -12.9620 -12.9162 -12.9141  -1.4020  -1.0859
    -1.0521  -0.3862  -0.3353  -0.3348   0.0512   0.0520   0.1203   0.5668
     0.6816   0.8527   1.6091   1.6233   1.6397   2.5477   2.8531   2.8939
     3.9338   3.9770   3.9771   4.1093   4.2468   4.2569   4.4759   4.6157
     4.6394   6.0660   6.1037   6.2272   6.7717   6.7719   6.8420   9.7442
    10.2326  10.9415  14.1513  14.6330  15.0305  15.8304  16.0461  16.1277

     occupation numbers 
     1.0000   1.0000   1.0000   1.0000   1.0000   1.0000   1.0000   1.0000
     1.0000   1.0000   1.0000   1.0000   1.0000   1.0000   1.0000   1.0000
     1.0000   1.0000   1.0000   1.0000   1.0000   1.0000   1.0000   1.0000
     1.0000   1.0000   1.0000   1.0000   1.0000   1.0000   1.0000   1.0000
     1.0000   1.0000   1.0000   1.0000   1.0000   1.0000   1.0000   1.0000
     1.0307   1.0439   1.0440   1.0822   1.0200   1.0074   0.4976   0.1856
     0.1498   0.0000   0.0000   0.0000   0.0000   0.0000   0.0000   0.0000
     0.0000   0.0000   0.0000   0.0000   0.0000   0.0000   0.0000   0.0000

          k =-0.2500-0.5774 0.1812 (  7916 PWs)   bands (ev):

   -90.6497 -90.6492 -90.6286 -53.9741 -53.9659 -53.9617 -53.9390 -53.9304
   -53.9283 -53.7804 -53.7795 -53.7605 -47.3469 -19.2630 -19.2628 -19.2334
   -13.8672 -13.8564 -13.6028 -12.9621 -12.9168 -12.9142  -1.4039  -1.0909
    -1.0548  -0.3895  -0.3374  -0.3365   0.0513   0.0520   0.1203   0.5847
     0.6929   0.8621   1.6091   1.6232   1.6397   2.5468   2.8476   2.8868
     3.9321   3.9745   3.9750   4.1093   4.2459   4.2561   4.4743   4.6146
     4.6390   6.0631   6.1023   6.2277   6.7718   6.7724   6.8420   9.7437
    10.2380  10.9137  14.1262  14.5086  15.0705  15.8314  16.0263  16.2945

     occupation numbers 
     1.0000   1.0000   1.0000   1.0000   1.0000   1.0000   1.0000   1.0000
     1.0000   1.0000   1.0000   1.0000   1.0000   1.0000   1.0000   1.0000
     1.0000   1.0000   1.0000   1.0000   1.0000   1.0000   1.0000   1.0000
     1.0000   1.0000   1.0000   1.0000   1.0000   1.0000   1.0000   1.0000
     1.0000   1.0000   1.0000   1.0000   1.0000   1.0000   1.0000   1.0000
     1.0302   1.0431   1.0433   1.0822   1.0210   1.0083   0.5019   0.1873
     0.1503   0.0000   0.0000   0.0000   0.0000   0.0000   0.0000   0.0000
     0.0000   0.0000   0.0000   0.0000   0.0000   0.0000   0.0000   0.0000

          k =-0.2500-0.5774 0.2719 (  7922 PWs)   bands (ev):

   -90.6497 -90.6492 -90.6286 -53.9741 -53.9659 -53.9618 -53.9391 -53.9304
   -53.9283 -53.7804 -53.7795 -53.7605 -47.3469 -19.2630 -19.2628 -19.2334
   -13.8666 -13.8564 -13.6026 -12.9624 -12.9175 -12.9143  -1.4052  -1.0959
    -1.0580  -0.3928  -0.3387  -0.3372   0.0515   0.0523   0.1203   0.6000
     0.7024   0.8696   1.6091   1.6232   1.6399   2.5503   2.8458   2.8839
     3.9301   3.9718   3.9727   4.1093   4.2449   4.2552   4.4755   4.6191
     4.6430   6.0330   6.0810   6.2130   6.7725   6.7737   6.8418   9.8044
    10.2932  10.9434  13.9639  14.3058  14.9684  15.7162  16.2758  16.5951

     occupation numbers 
     1.0000   1.0000   1.0000   1.0000   1.0000   1.0000   1.0000   1.0000
     1.0000   1.0000   1.0000   1.0000   1.0000   1.0000   1.0000   1.0000
     1.0000   1.0000   1.0000   1.0000   1.0000   1.0000   1.0000   1.0000
     1.0000   1.0000   1.0000   1.0000   1.0000   1.0000   1.0000   1.0000
     1.0000   1.0000   1.0000   1.0000   1.0000   1.0000   1.0000   1.0000
     1.0297   1.0422   1.0425   1.0822   1.0222   1.0095   0.4989   0.1801
     0.1449   0.0000   0.0000   0.0000   0.0000   0.0000   0.0000   0.0000
     0.0000   0.0000   0.0000   0.0000   0.0000   0.0000   0.0000   0.0000

          k =-0.2917-0.5052 0.0906 (  7912 PWs)   bands (ev):

   -90.6498 -90.6491 -90.6286 -53.9728 -53.9688 -53.9600 -53.9392 -53.9306
   -53.9280 -53.7805 -53.7794 -53.7605 -47.3469 -19.2629 -19.2628 -19.2333
   -13.9644 -13.6860 -13.6772 -12.9441 -12.9430 -12.9038  -1.2767  -1.2635
    -1.0077  -0.4227  -0.3746  -0.2720  -0.0025   0.1062   0.1265   0.5580
     0.7565   0.8125   1.5565   1.5771   1.7389   2.6361   2.6747   2.9641
     3.9486   3.9746   3.9771   4.1715   4.1750   4.2453   4.5142   4.5358
     4.6887   6.0433   6.1646   6.1920   6.7941   6.7954   6.8030   9.6176
    10.5079  10.7912  14.0892  14.7542  14.9941  15.7037  16.1624  16.2471

     occupation numbers 
     1.0000   1.0000   1.0000   1.0000   1.0000   1.0000   1.0000   1.0000
     1.0000   1.0000   1.0000   1.0000   1.0000   1.0000   1.0000   1.0000
     1.0000   1.0000   1.0000   1.0000   1.0000   1.0000   1.0000   1.0000
     1.0000   1.0000   1.0000   1.0000   1.0000   1.0000   1.0000   1.0000
     1.0000   1.0000   1.0000   1.0000   1.0000   1.0000   1.0000   1.0000
     1.0350   1.0432   1.0440   1.0763   1.0750   1.0217   0.3975   0.3450
     0.0918   0.0000   0.0000   0.0000   0.0000   0.0000   0.0000   0.0000
     0.0000   0.0000   0.0000   0.0000   0.0000   0.0000   0.0000   0.0000

          k =-0.2917-0.5052 0.1812 (  7906 PWs)   bands (ev):

   -90.6497 -90.6491 -90.6286 -53.9728 -53.9688 -53.9600 -53.9392 -53.9306
   -53.9280 -53.7804 -53.7794 -53.7605 -47.3469 -19.2629 -19.2628 -19.2334
   -13.9641 -13.6857 -13.6771 -12.9445 -12.9430 -12.9042  -1.2800  -1.2653
    -1.0120  -0.4261  -0.3772  -0.2723  -0.0024   0.1060   0.1263   0.5746
     0.7682   0.8223   1.5565   1.5771   1.7389   2.6339   2.6722   2.9549
     3.9467   3.9732   3.9734   4.1712   4.1746   4.2454   4.5119   4.5345
     4.6895   6.0403   6.1648   6.1918   6.7941   6.7956   6.8031   9.6297
    10.4901  10.7738  14.0030  14.7416  14.9800  15.8836  16.1151  16.2176

     occupation numbers 
     1.0000   1.0000   1.0000   1.0000   1.0000   1.0000   1.0000   1.0000
     1.0000   1.0000   1.0000   1.0000   1.0000   1.0000   1.0000   1.0000
     1.0000   1.0000   1.0000   1.0000   1.0000   1.0000   1.0000   1.0000
     1.0000   1.0000   1.0000   1.0000   1.0000   1.0000   1.0000   1.0000
     1.0000   1.0000   1.0000   1.0000   1.0000   1.0000   1.0000   1.0000
     1.0344   1.0427   1.0428   1.0764   1.0751   1.0216   0.4032   0.3482
     0.0911   0.0000   0.0000   0.0000   0.0000   0.0000   0.0000   0.0000
     0.0000   0.0000   0.0000   0.0000   0.0000   0.0000   0.0000   0.0000

          k =-0.2917-0.5052 0.2719 (  7910 PWs)   bands (ev):

   -90.6498 -90.6491 -90.6286 -53.9728 -53.9688 -53.9600 -53.9392 -53.9306
   -53.9280 -53.7804 -53.7794 -53.7605 -47.3469 -19.2630 -19.2628 -19.2334
   -13.9636 -13.6853 -13.6770 -12.9449 -12.9431 -12.9046  -1.2823  -1.2670
    -1.0170  -0.4297  -0.3794  -0.2709  -0.0024   0.1059   0.1262   0.5888
     0.7779   0.8304   1.5565   1.5771   1.7389   2.6357   2.6742   2.9493
     3.9443   3.9695   3.9717   4.1708   4.1741   4.2454   4.5137   4.5361
     4.6957   6.0102   6.1456   6.1758   6.7947   6.7960   6.8030   9.7019
    10.5296  10.8086  13.7993  14.6073  14.8392  16.0536  16.0568  16.4518

     occupation numbers 
     1.0000   1.0000   1.0000   1.0000   1.0000   1.0000   1.0000   1.0000
     1.0000   1.0000   1.0000   1.0000   1.0000   1.0000   1.0000   1.0000
     1.0000   1.0000   1.0000   1.0000   1.0000   1.0000   1.0000   1.0000
     1.0000   1.0000   1.0000   1.0000   1.0000   1.0000   1.0000   1.0000
     1.0000   1.0000   1.0000   1.0000   1.0000   1.0000   1.0000   1.0000
     1.0337   1.0415   1.0422   1.0765   1.0753   1.0216   0.3989   0.3443
     0.0853   0.0000   0.0000   0.0000   0.0000   0.0000   0.0000   0.0000
     0.0000   0.0000   0.0000   0.0000   0.0000   0.0000   0.0000   0.0000

          k =-0.2917-0.5533 0.0906 (  7918 PWs)   bands (ev):

   -90.6496 -90.6493 -90.6286 -53.9723 -53.9669 -53.9629 -53.9390 -53.9299
   -53.9285 -53.7802 -53.7797 -53.7605 -47.3469 -19.2630 -19.2629 -19.2333
   -13.8708 -13.7755 -13.6883 -12.9437 -12.9282 -12.9149  -1.2861  -1.1715
    -1.0791  -0.3991  -0.3518  -0.3182   0.0361   0.0737   0.1023   0.5765
     0.7104   0.7869   1.6159   1.6321   1.6857   2.6511   2.7650   2.8762
     3.9462   3.9752   3.9779   4.1531   4.2010   4.2250   4.5231   4.5784
     4.6362   6.0681   6.1266   6.1772   6.8013   6.8039   6.8250   9.7882
    10.3691  10.6814  14.1839  14.7179  14.9198  15.8355  16.0984  16.1987

     occupation numbers 
     1.0000   1.0000   1.0000   1.0000   1.0000   1.0000   1.0000   1.0000
     1.0000   1.0000   1.0000   1.0000   1.0000   1.0000   1.0000   1.0000
     1.0000   1.0000   1.0000   1.0000   1.0000   1.0000   1.0000   1.0000
     1.0000   1.0000   1.0000   1.0000   1.0000   1.0000   1.0000   1.0000
     1.0000   1.0000   1.0000   1.0000   1.0000   1.0000   1.0000   1.0000
     1.0342   1.0433   1.0442   1.0811   1.0617   1.0429   0.3755   0.2527
     0.1543   0.0000   0.0000   0.0000   0.0000   0.0000   0.0000   0.0000
     0.0000   0.0000   0.0000   0.0000   0.0000   0.0000   0.0000   0.0000

          k =-0.2917-0.5533 0.1812 (  7908 PWs)   bands (ev):

   -90.6496 -90.6493 -90.6286 -53.9723 -53.9669 -53.9629 -53.9389 -53.9298
   -53.9285 -53.7802 -53.7796 -53.7605 -47.3469 -19.2630 -19.2628 -19.2333
   -13.8705 -13.7753 -13.6882 -12.9440 -12.9285 -12.9152  -1.2887  -1.1748
    -1.0826  -0.4026  -0.3543  -0.3200   0.0362   0.0737   0.1023   0.5944
     0.7218   0.7973   1.6159   1.6321   1.6857   2.6487   2.7608   2.8696
     3.9438   3.9731   3.9751   4.1530   4.2008   4.2249   4.5213   4.5772
     4.6358   6.0659   6.1258   6.1770   6.8013   6.8039   6.8250   9.7834
    10.3650  10.6654  14.1746  14.6359  14.8948  15.9202  16.1563  16.2688

     occupation numbers 
     1.0000   1.0000   1.0000   1.0000   1.0000   1.0000   1.0000   1.0000
     1.0000   1.0000   1.0000   1.0000   1.0000   1.0000   1.0000   1.0000
     1.0000   1.0000   1.0000   1.0000   1.0000   1.0000   1.0000   1.0000
     1.0000   1.0000   1.0000   1.0000   1.0000   1.0000   1.0000   1.0000
     1.0000   1.0000   1.0000   1.0000   1.0000   1.0000   1.0000   1.0000
     1.0336   1.0427   1.0433   1.0811   1.0619   1.0430   0.3798   0.2551
     0.1549   0.0000   0.0000   0.0000   0.0000   0.0000   0.0000   0.0000
     0.0000   0.0000   0.0000   0.0000   0.0000   0.0000   0.0000   0.0000

          k =-0.2917-0.5533 0.2719 (  7909 PWs)   bands (ev):

   -90.6496 -90.6493 -90.6286 -53.9723 -53.9670 -53.9629 -53.9389 -53.9298
   -53.9285 -53.7802 -53.7796 -53.7605 -47.3469 -19.2629 -19.2628 -19.2334
   -13.8701 -13.7750 -13.6879 -12.9443 -12.9288 -12.9155  -1.2908  -1.1779
    -1.0864  -0.4060  -0.3562  -0.3206   0.0362   0.0737   0.1022   0.6095
     0.7315   0.8058   1.6159   1.6321   1.6857   2.6506   2.7609   2.8671
     3.9411   3.9707   3.9723   4.1530   4.2005   4.2248   4.5234   4.5801
     4.6401   6.0369   6.1051   6.1596   6.8015   6.8039   6.8249   9.8435
    10.4151  10.7048  14.0110  14.4546  14.7427  16.0392  16.2422  16.4907

     occupation numbers 
     1.0000   1.0000   1.0000   1.0000   1.0000   1.0000   1.0000   1.0000
     1.0000   1.0000   1.0000   1.0000   1.0000   1.0000   1.0000   1.0000
     1.0000   1.0000   1.0000   1.0000   1.0000   1.0000   1.0000   1.0000
     1.0000   1.0000   1.0000   1.0000   1.0000   1.0000   1.0000   1.0000
     1.0000   1.0000   1.0000   1.0000   1.0000   1.0000   1.0000   1.0000
     1.0328   1.0419   1.0424   1.0811   1.0621   1.0431   0.3748   0.2494
     0.1489   0.0000   0.0000   0.0000   0.0000   0.0000   0.0000   0.0000
     0.0000   0.0000   0.0000   0.0000   0.0000   0.0000   0.0000   0.0000

          k =-0.3333-0.5774 0.0906 (  7920 PWs)   bands (ev):

   -90.6495 -90.6495 -90.6286 -53.9715 -53.9655 -53.9655 -53.9389 -53.9291
   -53.9291 -53.7799 -53.7799 -53.7605 -47.3469 -19.2629 -19.2629 -19.2333
   -13.7897 -13.7743 -13.7743 -12.9297 -12.9273 -12.9273  -1.1984  -1.1669
    -1.1669  -0.3935  -0.3406  -0.3406   0.0609   0.0609   0.0824   0.5942
     0.7305   0.7305   1.6481   1.6481   1.6695   2.7449   2.7449   2.8059
     3.9493   3.9764   3.9764   4.1882   4.1882   4.1896   4.5570   4.5913
     4.5913   6.0866   6.1361   6.1361   6.8168   6.8168   6.8177   9.8601
    10.4694  10.4694  14.2195  14.7985  14.7985  15.8792  16.1345  16.1345

     occupation numbers 
     1.0000   1.0000   1.0000   1.0000   1.0000   1.0000   1.0000   1.0000
     1.0000   1.0000   1.0000   1.0000   1.0000   1.0000   1.0000   1.0000
     1.0000   1.0000   1.0000   1.0000   1.0000   1.0000   1.0000   1.0000
     1.0000   1.0000   1.0000   1.0000   1.0000   1.0000   1.0000   1.0000
     1.0000   1.0000   1.0000   1.0000   1.0000   1.0000   1.0000   1.0000
     1.0352   1.0437   1.0437   1.0691   1.0691   1.0684   0.2970   0.2280
     0.2280   0.0000   0.0000   0.0000   0.0000   0.0000   0.0000   0.0000
     0.0000   0.0000   0.0000   0.0000   0.0000   0.0000   0.0000   0.0000

          k =-0.3333-0.5774 0.1812 (  7911 PWs)   bands (ev):

   -90.6494 -90.6494 -90.6286 -53.9715 -53.9655 -53.9655 -53.9388 -53.9291
   -53.9291 -53.7799 -53.7799 -53.7605 -47.3469 -19.2629 -19.2629 -19.2333
   -13.7890 -13.7743 -13.7743 -12.9304 -12.9274 -12.9274  -1.2034  -1.1691
    -1.1691  -0.3970  -0.3430  -0.3430   0.0609   0.0609   0.0824   0.6126
     0.7414   0.7414   1.6481   1.6481   1.6695   2.7410   2.7410   2.8006
     3.9464   3.9741   3.9741   4.1882   4.1882   4.1896   4.5550   4.5905
     4.5905   6.0849   6.1354   6.1354   6.8168   6.8168   6.8177   9.8469
    10.4632  10.4632  14.2473  14.7251  14.7251  15.9358  16.2481  16.2481

     occupation numbers 
     1.0000   1.0000   1.0000   1.0000   1.0000   1.0000   1.0000   1.0000
     1.0000   1.0000   1.0000   1.0000   1.0000   1.0000   1.0000   1.0000
     1.0000   1.0000   1.0000   1.0000   1.0000   1.0000   1.0000   1.0000
     1.0000   1.0000   1.0000   1.0000   1.0000   1.0000   1.0000   1.0000
     1.0000   1.0000   1.0000   1.0000   1.0000   1.0000   1.0000   1.0000
     1.0343   1.0430   1.0430   1.0691   1.0691   1.0684   0.3014   0.2294
     0.2294   0.0000   0.0000   0.0000   0.0000   0.0000   0.0000   0.0000
     0.0000   0.0000   0.0000   0.0000   0.0000   0.0000   0.0000   0.0000

          k =-0.3333-0.5774 0.2719 (  7929 PWs)   bands (ev):

   -90.6495 -90.6495 -90.6286 -53.9716 -53.9655 -53.9655 -53.9388 -53.9291
   -53.9291 -53.7800 -53.7800 -53.7606 -47.3469 -19.2629 -19.2629 -19.2335
   -13.7883 -13.7742 -13.7742 -12.9312 -12.9275 -12.9275  -1.2075  -1.1715
    -1.1715  -0.4002  -0.3446  -0.3446   0.0609   0.0609   0.0823   0.6282
     0.7506   0.7506   1.6481   1.6481   1.6696   2.7412   2.7412   2.8002
     3.9433   3.9715   3.9715   4.1882   4.1882   4.1897   4.5583   4.5934
     4.5934   6.0557   6.1160   6.1160   6.8166   6.8166   6.8174   9.9019
    10.5113  10.5113  14.1061  14.5423  14.5423  16.1488  16.3669  16.3669

     occupation numbers 
     1.0000   1.0000   1.0000   1.0000   1.0000   1.0000   1.0000   1.0000
     1.0000   1.0000   1.0000   1.0000   1.0000   1.0000   1.0000   1.0000
     1.0000   1.0000   1.0000   1.0000   1.0000   1.0000   1.0000   1.0000
     1.0000   1.0000   1.0000   1.0000   1.0000   1.0000   1.0000   1.0000
     1.0000   1.0000   1.0000   1.0000   1.0000   1.0000   1.0000   1.0000
     1.0334   1.0421   1.0421   1.0691   1.0691   1.0684   0.2942   0.2241
     0.2241   0.0000   0.0000   0.0000   0.0000   0.0000   0.0000   0.0000
     0.0000   0.0000   0.0000   0.0000   0.0000   0.0000   0.0000   0.0000

     the Fermi energy is     4.5130 ev
     (compare with:     4.5120 eV, computed in scf)

     Writing all to output data dir ../Na_s3_c6.9_d0.50/out/pw.save/ :
     XML data file, pseudopotentials, collected wavefunctions
 
     init_run     :     21.53s CPU      4.88s WALL (       1 calls)
     electrons    :    609.20s CPU    609.36s WALL (       1 calls)

     Called by init_run:
     wfcinit      :      0.00s CPU      0.00s WALL (       1 calls)
     wfcinit:atom :      1.54s CPU      1.56s WALL (     898 calls)
     wfcinit:wfcr :      6.70s CPU      6.74s WALL (     898 calls)
     potinit      :     20.28s CPU      3.54s WALL (       1 calls)
     hinit0       :      0.51s CPU      0.50s WALL (       1 calls)

     Called by electrons:
     c_bands      :    609.14s CPU    609.30s WALL (       1 calls)
     v_of_rho     :      0.02s CPU      0.08s WALL (       1 calls)
     v_h          :      0.01s CPU      0.01s WALL (       1 calls)
     v_xc         :      0.01s CPU      0.08s WALL (       1 calls)
     newd         :      0.05s CPU      0.07s WALL (       1 calls)
                                        0.07s GPU  (       1 calls)
     PAW_pot      :     11.00s CPU      1.43s WALL (       1 calls)

     Called by c_bands:
     init_us_2    :      0.43s CPU      0.52s WALL (     898 calls)
     cegterg      :    598.26s CPU    597.38s WALL (    5160 calls)

     Called by sum_band:

     Called by *egterg:
     cdiaghg      :    247.23s CPU    249.64s WALL (  100485 calls)
                                      248.39s GPU  (  100485 calls)
     cegterg:over :     31.52s CPU     32.01s WALL (   99587 calls)
     cegterg:upda :     46.66s CPU     46.91s WALL (   99587 calls)
     cegterg:last :      8.00s CPU      7.94s WALL (   44063 calls)
     h_psi        :    208.42s CPU    207.77s WALL (  105645 calls)
                                      206.45s GPU  (  105645 calls)
     s_psi        :     33.23s CPU     34.20s WALL (  105645 calls)
     g_psi        :      0.51s CPU      4.10s WALL (   99587 calls)
                                        2.77s GPU  (   99587 calls)

     Called by h_psi:
     h_psi:calbec :      2.91s CPU      8.13s WALL (  105645 calls)
                                        6.81s GPU  (  105645 calls)
     vloc_psi     :    158.17s CPU    155.55s WALL (  105645 calls)
                                      154.24s GPU  (  105645 calls)
     add_vuspsi   :     31.46s CPU     36.45s WALL (  105645 calls)
                                       35.12s GPU  (  105645 calls)

     General routines
     calbec       :      2.63s CPU      2.81s WALL (  105645 calls)
     fft          :      6.25s CPU      1.27s WALL (      23 calls)
                                        0.00s GPU  (      21 calls)
     ffts         :      2.99s CPU      0.74s WALL (       2 calls)
     fftw         :      8.71s CPU     78.31s WALL (  467226 calls)
                                       72.96s GPU  (  467226 calls)
     interpolate  :      9.25s CPU      2.02s WALL (       2 calls)
     davcio       :      6.96s CPU      1.84s WALL (    1796 calls)
 
     Parallel routines

     PAW routines
     PAW_pot      :     11.00s CPU      1.43s WALL (       1 calls)
 
     PWSCF        :  10m41.05s CPU  10m19.00s WALL

 
   This run was terminated on:   4:18:47  12Jul2026            

=------------------------------------------------------------------------------=
   JOB DONE.
=------------------------------------------------------------------------------=
Warning: ieee_divide_by_zero is signaling
Warning: ieee_inexact is signaling
FORTRAN STOP
