
     Program PWSCF v.7.3.1 starts on 12Jul2026 at  3:20:49 

     This program is part of the open-source Quantum ESPRESSO suite
     for quantum simulation of materials; please cite
         "P. Giannozzi et al., J. Phys.:Condens. Matter 21 395502 (2009);
         "P. Giannozzi et al., J. Phys.:Condens. Matter 29 465901 (2017);
         "P. Giannozzi et al., J. Chem. Phys. 152 154105 (2020);
          URL http://www.quantum-espresso.org", 
     in publications or presentations arising from this work. More details at
     http://www.quantum-espresso.org/quote

     Parallel version (MPI & OpenMP), running on      14 processor cores
     Number of MPI processes:                 1
     Threads/MPI process:                    14

     MPI processes distributed on     1 nodes
     847186 MiB available memory on the printing compute node when the environment starts
 
     Reading input from pw.in

     Current dimensions of program PWSCF are:
     Max number of different atomic species (ntypx) = 10
     Max number of k-points (npk) =  40000
     Max angular momentum in pseudopotentials (lmaxx) =  4
     file Co.pbe-spn-kjpaw_psl.0.3.1.UPF: wavefunction(s)  3P 3D renormalized
     file O.pbe-n-kjpaw_psl.1.0.0.UPF: wavefunction(s)  2S 2P renormalized
 
     Subspace diagonalization in iterative solution of the eigenvalue problem:
     a serial algorithm will be used

 
     G-vector sticks info
     --------------------
     sticks:   dense  smooth     PW     G-vecs:    dense   smooth      PW
     Sum         931     475    139                69237    24541    3997
 
     Using Slab Decomposition
 


     bravais-lattice index     =            4
     lattice parameter (alat)  =       5.3290  a.u.
     unit-cell volume          =     390.3954 (a.u.)^3
     number of atoms/cell      =            4
     number of atomic types    =            3
     number of electrons       =        32.00
     number of Kohn-Sham states=           24
     kinetic-energy cutoff     =      60.0000  Ry
     charge density cutoff     =     480.0000  Ry
     scf convergence threshold =      1.0E-07
     mixing beta               =       0.3000
     number of iterations used =            8  local-TF  mixing
     Exchange-correlation= SLA  PW   PBX  PBC
                           (   1   4   3   4   0   0   0)

     GPU acceleration is ACTIVE.  1 visible GPUs per MPI rank
     GPU-aware MPI enabled


     GPU used by master process:

        Device Number: 0
        Device name: NVIDIA A100-SXM4-80GB
        Compute capability : 80
        Ratio of single to double precision performance  : 2
        Memory Clock Rate (KHz): 1593000
        Memory Bus Width (bits): 5120
        Peak Memory Bandwidth (GB/s): ******

     celldm(1)=   5.329028  celldm(2)=   0.000000  celldm(3)=   2.978723
     celldm(4)=   0.000000  celldm(5)=   0.000000  celldm(6)=   0.000000

     crystal axes: (cart. coord. in units of alat)
               a(1) = (   1.000000   0.000000   0.000000 )  
               a(2) = (  -0.500000   0.866025   0.000000 )  
               a(3) = (   0.000000   0.000000   2.978723 )  

     reciprocal axes: (cart. coord. in units 2 pi/alat)
               b(1) = (  1.000000  0.577350 -0.000000 )  
               b(2) = (  0.000000  1.154701  0.000000 )  
               b(3) = (  0.000000 -0.000000  0.335714 )  


     PseudoPot. # 1 for Co read from file:
     ../../pseudo/Co.pbe-spn-kjpaw_psl.0.3.1.UPF
     MD5 check sum: 3c0a43779828c046024e4f3be63f8e67
     Pseudo is Projector augmented-wave + core cor, Zval = 17.0
     Generated using &quot;atomic&quot; code by A. Dal Corso  v.6.2.2
     Shape of augmentation charge: PSQ
     Using radial grid of 1193 points,  6 beta functions with: 
                l(1) =   0
                l(2) =   0
                l(3) =   1
                l(4) =   1
                l(5) =   2
                l(6) =   2
     Q(r) pseudized with 0 coefficients 


     PseudoPot. # 2 for O  read from file:
     ../../pseudo/O.pbe-n-kjpaw_psl.1.0.0.UPF
     MD5 check sum: e99d9cef9b487d1ca56f5b95ecd0fd7a
     Pseudo is Projector augmented-wave + core cor, Zval =  6.0
     Generated using &quot;atomic&quot; code by A. Dal Corso  v.6.3
     Shape of augmentation charge: PSQ
     Using radial grid of 1095 points,  4 beta functions with: 
                l(1) =   0
                l(2) =   0
                l(3) =   1
                l(4) =   1
     Q(r) pseudized with 0 coefficients 


     PseudoPot. # 3 for Li read from file:
     ../../pseudo/Li.pbe-s-kjpaw_psl.1.0.0.UPF
     MD5 check sum: 3974953fb0fea6c4f83fb01d64ffc134
     Pseudo is Projector augmented-wave, Zval =  3.0
     Generated using &quot;atomic&quot; code by A. Dal Corso  v.6.3
     Shape of augmentation charge: PSQ
     Using radial grid of 1017 points,  4 beta functions with: 
                l(1) =   0
                l(2) =   0
                l(3) =   1
                l(4) =   1
     Q(r) pseudized with 0 coefficients 


     atomic species   valence    mass     pseudopotential
     Co               17.00    58.93300     Co( 1.00)
     O                 6.00    15.99900     O ( 1.00)
     Li                3.00     6.94100     Li( 1.00)

     Starting magnetic structure 
     atomic species   magnetization
     Co              0.300
     O               0.000
     Li              0.000

      6 Sym. Ops. (no inversion) found


                                    s                        frac. trans.

      isym =  1     identity                                     

 cryst.   s( 1) = (     1          0          0      )
                  (     0          1          0      )
                  (     0          0          1      )

 cart.    s( 1) = (  1.0000000  0.0000000  0.0000000 )
                  (  0.0000000  1.0000000  0.0000000 )
                  (  0.0000000  0.0000000  1.0000000 )


      isym =  2     120 deg rotation - cryst. axis [0,0,1]       

 cryst.   s( 2) = (     0          1          0      )
                  (    -1         -1          0      )
                  (     0          0          1      )

 cart.    s( 2) = ( -0.5000000 -0.8660254  0.0000000 )
                  (  0.8660254 -0.5000000  0.0000000 )
                  (  0.0000000  0.0000000  1.0000000 )


      isym =  3     120 deg rotation - cryst. axis [0,0,-1]      

 cryst.   s( 3) = (    -1         -1          0      )
                  (     1          0          0      )
                  (     0          0          1      )

 cart.    s( 3) = ( -0.5000000  0.8660254  0.0000000 )
                  ( -0.8660254 -0.5000000  0.0000000 )
                  (  0.0000000  0.0000000  1.0000000 )


      isym =  4     inv. 180 deg rotation - cart. axis [1,0,0]   

 cryst.   s( 4) = (    -1          0          0      )
                  (     1          1          0      )
                  (     0          0          1      )

 cart.    s( 4) = ( -1.0000000  0.0000000  0.0000000 )
                  (  0.0000000  1.0000000  0.0000000 )
                  (  0.0000000  0.0000000  1.0000000 )


      isym =  5     inv. 180 deg rotation - cryst. axis [0,1,0]  

 cryst.   s( 5) = (     1          1          0      )
                  (     0         -1          0      )
                  (     0          0          1      )

 cart.    s( 5) = (  0.5000000  0.8660254  0.0000000 )
                  (  0.8660254 -0.5000000  0.0000000 )
                  (  0.0000000  0.0000000  1.0000000 )


      isym =  6     inv. 180 deg rotation - cryst. axis [1,1,0]  

 cryst.   s( 6) = (     0         -1          0      )
                  (    -1          0          0      )
                  (     0          0          1      )

 cart.    s( 6) = (  0.5000000 -0.8660254  0.0000000 )
                  ( -0.8660254 -0.5000000  0.0000000 )
                  (  0.0000000  0.0000000  1.0000000 )


     point group C_3v (3m)  
     there are  3 classes
     the character table:

       E     2C3   3s_v 
A_1    1.00  1.00  1.00
A_2    1.00  1.00 -1.00
E      2.00 -1.00  0.00

     the symmetry operations in each class and the name of the first element:

     E        1
          identity                                               
     2C3      2    3
          120 deg rotation - cryst. axis [0,0,1]                 
     3s_v     4    5    6
          inv. 180 deg rotation - cart. axis [1,0,0]             

   Cartesian axes

     site n.     atom                  positions (alat units)
         1        Co     tau(   1) = (   0.0000000   0.0000000   0.0000000  )
         2        O      tau(   2) = (  -0.0000000   0.5773503   0.3404255  )
         3        O      tau(   3) = (   0.5000000   0.2886751   2.6382979  )
         4        Li     tau(   4) = (   0.0000000   0.0000000   1.7553191  )

   Crystallographic axes

     site n.     atom                  positions (cryst. coord.)
         1        Co     tau(   1) = (  0.0000000  0.0000000  0.0000000  )
         2        O      tau(   2) = (  0.3333333  0.6666667  0.1142857  )
         3        O      tau(   3) = (  0.6666667  0.3333333  0.8857143  )
         4        Li     tau(   4) = (  0.0000000  0.0000000  0.5892857  )

     number of k points=    25  Marzari-Vanderbilt smearing, width (Ry)=  0.0200
                       cart. coord. in units 2pi/alat
        k(    1) = (   0.0000000   0.0000000   0.0000000), wk =   0.0052083
        k(    2) = (   0.0000000   0.0000000   0.1119048), wk =   0.0104167
        k(    3) = (   0.0000000   0.1443376   0.0000000), wk =   0.0312500
        k(    4) = (   0.0000000   0.1443376   0.1119048), wk =   0.0312500
        k(    5) = (   0.0000000   0.2886751   0.0000000), wk =   0.0312500
        k(    6) = (   0.0000000   0.2886751   0.1119048), wk =   0.0312500
        k(    7) = (   0.0000000   0.4330127   0.0000000), wk =   0.0312500
        k(    8) = (   0.0000000   0.4330127   0.1119048), wk =   0.0312500
        k(    9) = (   0.0000000  -0.5773503   0.0000000), wk =   0.0156250
        k(   10) = (   0.0000000  -0.5773503   0.1119048), wk =   0.0312500
        k(   11) = (   0.1250000   0.2165064   0.0000000), wk =   0.0312500
        k(   12) = (   0.1250000   0.2165064   0.1119048), wk =   0.0625000
        k(   13) = (   0.1250000   0.3608439   0.0000000), wk =   0.0625000
        k(   14) = (   0.1250000   0.3608439   0.1119048), wk =   0.0625000
        k(   15) = (   0.1250000   0.5051815   0.0000000), wk =   0.0625000
        k(   16) = (   0.1250000   0.5051815   0.1119048), wk =   0.0625000
        k(   17) = (   0.2500000   0.4330127   0.0000000), wk =   0.0312500
        k(   18) = (   0.2500000   0.4330127   0.1119048), wk =   0.0625000
        k(   19) = (   0.2500000   0.5773503   0.0000000), wk =   0.0312500
        k(   20) = (   0.2500000   0.5773503   0.1119048), wk =   0.0625000
        k(   21) = (   0.0000000  -0.1443376   0.1119048), wk =   0.0312500
        k(   22) = (   0.0000000  -0.2886751   0.1119048), wk =   0.0312500
        k(   23) = (   0.0000000  -0.4330127   0.1119048), wk =   0.0312500
        k(   24) = (  -0.1250000  -0.3608439   0.1119048), wk =   0.0625000
        k(   25) = (  -0.1250000  -0.5051815   0.1119048), wk =   0.0625000

                       cryst. coord.
        k(    1) = (   0.0000000   0.0000000   0.0000000), wk =   0.0052083
        k(    2) = (   0.0000000   0.0000000   0.3333333), wk =   0.0104167
        k(    3) = (   0.0000000   0.1250000   0.0000000), wk =   0.0312500
        k(    4) = (   0.0000000   0.1250000   0.3333333), wk =   0.0312500
        k(    5) = (   0.0000000   0.2500000   0.0000000), wk =   0.0312500
        k(    6) = (   0.0000000   0.2500000   0.3333333), wk =   0.0312500
        k(    7) = (   0.0000000   0.3750000   0.0000000), wk =   0.0312500
        k(    8) = (   0.0000000   0.3750000   0.3333333), wk =   0.0312500
        k(    9) = (   0.0000000  -0.5000000   0.0000000), wk =   0.0156250
        k(   10) = (   0.0000000  -0.5000000   0.3333333), wk =   0.0312500
        k(   11) = (   0.1250000   0.1250000   0.0000000), wk =   0.0312500
        k(   12) = (   0.1250000   0.1250000   0.3333333), wk =   0.0625000
        k(   13) = (   0.1250000   0.2500000   0.0000000), wk =   0.0625000
        k(   14) = (   0.1250000   0.2500000   0.3333333), wk =   0.0625000
        k(   15) = (   0.1250000   0.3750000   0.0000000), wk =   0.0625000
        k(   16) = (   0.1250000   0.3750000   0.3333333), wk =   0.0625000
        k(   17) = (   0.2500000   0.2500000   0.0000000), wk =   0.0312500
        k(   18) = (   0.2500000   0.2500000   0.3333333), wk =   0.0625000
        k(   19) = (   0.2500000   0.3750000   0.0000000), wk =   0.0312500
        k(   20) = (   0.2500000   0.3750000   0.3333333), wk =   0.0625000
        k(   21) = (   0.0000000  -0.1250000   0.3333333), wk =   0.0312500
        k(   22) = (   0.0000000  -0.2500000   0.3333333), wk =   0.0312500
        k(   23) = (   0.0000000  -0.3750000   0.3333333), wk =   0.0312500
        k(   24) = (  -0.1250000  -0.2500000   0.3333333), wk =   0.0625000
        k(   25) = (  -0.1250000  -0.3750000   0.3333333), wk =   0.0625000

     Dense  grid:    69237 G-vectors     FFT dimensions: (  40,  40, 120)

     Smooth grid:    24541 G-vectors     FFT dimensions: (  27,  27,  80)

     Dynamical RAM for                 wfc:       1.12 MB

     Dynamical RAM for     wfc (w. buffer):      57.23 MB

     Dynamical RAM for           str. fact:       3.17 MB

     Dynamical RAM for           local pot:       0.00 MB

     Dynamical RAM for          nlocal pot:       1.96 MB

     Dynamical RAM for                qrad:       5.27 MB

     Dynamical RAM for          rho,v,vnew:      15.13 MB

     Dynamical RAM for               rhoin:       5.04 MB

     Dynamical RAM for            rho*nmix:      33.81 MB

     Dynamical RAM for           G-vectors:       4.15 MB

     Dynamical RAM for          h,s,v(r/c):       0.11 MB

     Dynamical RAM for          <psi|beta>:       0.02 MB

     Dynamical RAM for                 psi:       2.24 MB

     Dynamical RAM for                hpsi:       2.24 MB

     Dynamical RAM for                spsi:       2.24 MB

     Dynamical RAM for      wfcinit/wfcrot:       2.26 MB

     Dynamical RAM for           addusdens:     199.67 MB

     Dynamical RAM for          addusforce:     201.80 MB

     Estimated static dynamical RAM per process >     104.97 MB

     Estimated max dynamical RAM per process >     340.57 MB

     Check: negative core charge=   -0.000007
     Generating pointlists ...
     new r_m :   0.2765 (alat units)  1.4733 (a.u.) for type    1
     new r_m :   0.2765 (alat units)  1.4733 (a.u.) for type    2
     new r_m :   0.4125 (alat units)  2.1982 (a.u.) for type    3

     Initial potential from superposition of free atoms

     starting charge      31.9951, renormalised to      32.0000
     Starting wfcs are   23 randomized atomic wfcs +    1 random wfcs
     Checking if some PAW data can be deallocated... 

     total cpu time spent up to now is        3.7 secs

     Self-consistent Calculation
[tb_dev] Currently allocated     6.36E-01 Mbytes, locked:    0 /   6
[tb_pin] Currently allocated     0.00E+00 Mbytes, locked:    0 /   0

     iteration #  1     ecut=    60.00 Ry     beta= 0.30
     Davidson diagonalization with overlap

---- Real-time Memory Report at c_bands before calling an iterative solver
           680 MiB given to the printing process from OS
             0 MiB allocation reported by mallinfo(arena+hblkhd)
        846830 MiB available memory on the node where the printing process lives
     GPU memory used/free/total (MiB): 1046 / 80104 / 81151
------------------
     ethr =  1.00E-02,  avg # of iterations =  7.9

     total cpu time spent up to now is        5.6 secs

     total energy              =    -474.73818306 Ry
     estimated scf accuracy    <       1.71210482 Ry

     total magnetization       =     4.27 Bohr mag/cell
     absolute magnetization    =     4.30 Bohr mag/cell
[tb_dev] Currently allocated     3.05E-05 Mbytes, locked:    0 /   2
[tb_pin] Currently allocated     0.00E+00 Mbytes, locked:    0 /   0

     iteration #  2     ecut=    60.00 Ry     beta= 0.30
     Davidson diagonalization with overlap

---- Real-time Memory Report at c_bands before calling an iterative solver
           723 MiB given to the printing process from OS
             0 MiB allocation reported by mallinfo(arena+hblkhd)
        846753 MiB available memory on the node where the printing process lives
     GPU memory used/free/total (MiB): 1066 / 80084 / 81151
------------------
     ethr =  5.35E-03,  avg # of iterations =  1.7

     total cpu time spent up to now is        6.7 secs

     total energy              =    -474.80524280 Ry
     estimated scf accuracy    <       0.74638379 Ry

     total magnetization       =     3.48 Bohr mag/cell
     absolute magnetization    =     3.48 Bohr mag/cell
[tb_dev] Currently allocated     3.05E-05 Mbytes, locked:    0 /   2
[tb_pin] Currently allocated     0.00E+00 Mbytes, locked:    0 /   0

     iteration #  3     ecut=    60.00 Ry     beta= 0.30
     Davidson diagonalization with overlap

---- Real-time Memory Report at c_bands before calling an iterative solver
           725 MiB given to the printing process from OS
             0 MiB allocation reported by mallinfo(arena+hblkhd)
        846769 MiB available memory on the node where the printing process lives
     GPU memory used/free/total (MiB): 1066 / 80084 / 81151
------------------
     ethr =  2.33E-03,  avg # of iterations =  2.1

     total cpu time spent up to now is        7.9 secs

     total energy              =    -474.89218609 Ry
     estimated scf accuracy    <       0.45594317 Ry

     total magnetization       =     2.13 Bohr mag/cell
     absolute magnetization    =     2.17 Bohr mag/cell
[tb_dev] Currently allocated     3.05E-05 Mbytes, locked:    0 /   2
[tb_pin] Currently allocated     0.00E+00 Mbytes, locked:    0 /   0

     iteration #  4     ecut=    60.00 Ry     beta= 0.30
     Davidson diagonalization with overlap

---- Real-time Memory Report at c_bands before calling an iterative solver
           727 MiB given to the printing process from OS
             0 MiB allocation reported by mallinfo(arena+hblkhd)
        846745 MiB available memory on the node where the printing process lives
     GPU memory used/free/total (MiB): 1066 / 80084 / 81151
------------------
     ethr =  1.42E-03,  avg # of iterations =  1.6

     total cpu time spent up to now is        9.0 secs

     total energy              =    -474.91530974 Ry
     estimated scf accuracy    <       0.17303928 Ry

     total magnetization       =     2.21 Bohr mag/cell
     absolute magnetization    =     2.29 Bohr mag/cell
[tb_dev] Currently allocated     3.05E-05 Mbytes, locked:    0 /   2
[tb_pin] Currently allocated     0.00E+00 Mbytes, locked:    0 /   0

     iteration #  5     ecut=    60.00 Ry     beta= 0.30
     Davidson diagonalization with overlap

---- Real-time Memory Report at c_bands before calling an iterative solver
           728 MiB given to the printing process from OS
             0 MiB allocation reported by mallinfo(arena+hblkhd)
        847587 MiB available memory on the node where the printing process lives
     GPU memory used/free/total (MiB): 1066 / 80084 / 81151
------------------
     ethr =  5.41E-04,  avg # of iterations =  2.3

     total cpu time spent up to now is       10.2 secs

     total energy              =    -474.99540048 Ry
     estimated scf accuracy    <       0.14026579 Ry

     total magnetization       =     0.67 Bohr mag/cell
     absolute magnetization    =     1.10 Bohr mag/cell
[tb_dev] Currently allocated     3.05E-05 Mbytes, locked:    0 /   2
[tb_pin] Currently allocated     0.00E+00 Mbytes, locked:    0 /   0

     iteration #  6     ecut=    60.00 Ry     beta= 0.30
     Davidson diagonalization with overlap

---- Real-time Memory Report at c_bands before calling an iterative solver
           730 MiB given to the printing process from OS
             0 MiB allocation reported by mallinfo(arena+hblkhd)
        847292 MiB available memory on the node where the printing process lives
     GPU memory used/free/total (MiB): 1066 / 80084 / 81151
------------------
     ethr =  4.38E-04,  avg # of iterations =  1.6

     total cpu time spent up to now is       11.3 secs

     total energy              =    -475.00256988 Ry
     estimated scf accuracy    <       0.04420052 Ry

     total magnetization       =     0.45 Bohr mag/cell
     absolute magnetization    =     0.70 Bohr mag/cell
[tb_dev] Currently allocated     3.05E-05 Mbytes, locked:    0 /   2
[tb_pin] Currently allocated     0.00E+00 Mbytes, locked:    0 /   0

     iteration #  7     ecut=    60.00 Ry     beta= 0.30
     Davidson diagonalization with overlap

---- Real-time Memory Report at c_bands before calling an iterative solver
           731 MiB given to the printing process from OS
             0 MiB allocation reported by mallinfo(arena+hblkhd)
        847061 MiB available memory on the node where the printing process lives
     GPU memory used/free/total (MiB): 1066 / 80084 / 81151
------------------
     ethr =  1.38E-04,  avg # of iterations =  5.4

     total cpu time spent up to now is       12.8 secs

     total energy              =    -475.00638325 Ry
     estimated scf accuracy    <       0.01390953 Ry

     total magnetization       =     0.58 Bohr mag/cell
     absolute magnetization    =     0.73 Bohr mag/cell
[tb_dev] Currently allocated     3.05E-05 Mbytes, locked:    0 /   2
[tb_pin] Currently allocated     0.00E+00 Mbytes, locked:    0 /   0

     iteration #  8     ecut=    60.00 Ry     beta= 0.30
     Davidson diagonalization with overlap

---- Real-time Memory Report at c_bands before calling an iterative solver
           732 MiB given to the printing process from OS
             0 MiB allocation reported by mallinfo(arena+hblkhd)
        847013 MiB available memory on the node where the printing process lives
     GPU memory used/free/total (MiB): 1066 / 80084 / 81151
------------------
     c_bands:  1 eigenvalues not converged
     ethr =  4.35E-05,  avg # of iterations =  5.6

     total cpu time spent up to now is       14.3 secs

     total energy              =    -475.01113189 Ry
     estimated scf accuracy    <       0.00235812 Ry

     total magnetization       =     0.30 Bohr mag/cell
     absolute magnetization    =     0.41 Bohr mag/cell
[tb_dev] Currently allocated     3.05E-05 Mbytes, locked:    0 /   2
[tb_pin] Currently allocated     0.00E+00 Mbytes, locked:    0 /   0

     iteration #  9     ecut=    60.00 Ry     beta= 0.30
     Davidson diagonalization with overlap

---- Real-time Memory Report at c_bands before calling an iterative solver
           732 MiB given to the printing process from OS
             0 MiB allocation reported by mallinfo(arena+hblkhd)
        847018 MiB available memory on the node where the printing process lives
     GPU memory used/free/total (MiB): 1066 / 80084 / 81151
------------------
     c_bands:  2 eigenvalues not converged
     ethr =  7.37E-06,  avg # of iterations =  6.9

     total cpu time spent up to now is       16.1 secs

     total energy              =    -475.01229285 Ry
     estimated scf accuracy    <       0.00275887 Ry

     total magnetization       =     0.45 Bohr mag/cell
     absolute magnetization    =     0.56 Bohr mag/cell
[tb_dev] Currently allocated     3.05E-05 Mbytes, locked:    0 /   2
[tb_pin] Currently allocated     0.00E+00 Mbytes, locked:    0 /   0

     iteration # 10     ecut=    60.00 Ry     beta= 0.30
     Davidson diagonalization with overlap

---- Real-time Memory Report at c_bands before calling an iterative solver
           735 MiB given to the printing process from OS
             0 MiB allocation reported by mallinfo(arena+hblkhd)
        846823 MiB available memory on the node where the printing process lives
     GPU memory used/free/total (MiB): 1066 / 80084 / 81151
------------------
     ethr =  7.37E-06,  avg # of iterations =  1.4

     total cpu time spent up to now is       17.2 secs

     total energy              =    -475.01278671 Ry
     estimated scf accuracy    <       0.00070502 Ry

     total magnetization       =     0.55 Bohr mag/cell
     absolute magnetization    =     0.65 Bohr mag/cell
[tb_dev] Currently allocated     3.05E-05 Mbytes, locked:    0 /   2
[tb_pin] Currently allocated     0.00E+00 Mbytes, locked:    0 /   0

     iteration # 11     ecut=    60.00 Ry     beta= 0.30
     Davidson diagonalization with overlap

---- Real-time Memory Report at c_bands before calling an iterative solver
           735 MiB given to the printing process from OS
             0 MiB allocation reported by mallinfo(arena+hblkhd)
        846724 MiB available memory on the node where the printing process lives
     GPU memory used/free/total (MiB): 1066 / 80084 / 81151
------------------
     ethr =  2.20E-06,  avg # of iterations =  2.5

     total cpu time spent up to now is       18.5 secs

     total energy              =    -475.01299709 Ry
     estimated scf accuracy    <       0.00013464 Ry

     total magnetization       =     0.52 Bohr mag/cell
     absolute magnetization    =     0.63 Bohr mag/cell
[tb_dev] Currently allocated     3.05E-05 Mbytes, locked:    0 /   2
[tb_pin] Currently allocated     0.00E+00 Mbytes, locked:    0 /   0

     iteration # 12     ecut=    60.00 Ry     beta= 0.30
     Davidson diagonalization with overlap

---- Real-time Memory Report at c_bands before calling an iterative solver
           735 MiB given to the printing process from OS
             0 MiB allocation reported by mallinfo(arena+hblkhd)
        846601 MiB available memory on the node where the printing process lives
     GPU memory used/free/total (MiB): 1066 / 80084 / 81151
------------------
     c_bands:  1 eigenvalues not converged
     ethr =  4.21E-07,  avg # of iterations =  5.0

     total cpu time spent up to now is       20.1 secs

     total energy              =    -475.01306052 Ry
     estimated scf accuracy    <       0.00006552 Ry

     total magnetization       =     0.54 Bohr mag/cell
     absolute magnetization    =     0.65 Bohr mag/cell
[tb_dev] Currently allocated     3.05E-05 Mbytes, locked:    0 /   2
[tb_pin] Currently allocated     0.00E+00 Mbytes, locked:    0 /   0

     iteration # 13     ecut=    60.00 Ry     beta= 0.30
     Davidson diagonalization with overlap

---- Real-time Memory Report at c_bands before calling an iterative solver
           735 MiB given to the printing process from OS
             0 MiB allocation reported by mallinfo(arena+hblkhd)
        846561 MiB available memory on the node where the printing process lives
     GPU memory used/free/total (MiB): 1066 / 80084 / 81151
------------------
     ethr =  2.05E-07,  avg # of iterations =  2.6

     total cpu time spent up to now is       21.3 secs

     total energy              =    -475.01308043 Ry
     estimated scf accuracy    <       0.00000733 Ry

     total magnetization       =     0.53 Bohr mag/cell
     absolute magnetization    =     0.65 Bohr mag/cell
[tb_dev] Currently allocated     3.05E-05 Mbytes, locked:    0 /   2
[tb_pin] Currently allocated     0.00E+00 Mbytes, locked:    0 /   0

     iteration # 14     ecut=    60.00 Ry     beta= 0.30
     Davidson diagonalization with overlap

---- Real-time Memory Report at c_bands before calling an iterative solver
           735 MiB given to the printing process from OS
             0 MiB allocation reported by mallinfo(arena+hblkhd)
        846561 MiB available memory on the node where the printing process lives
     GPU memory used/free/total (MiB): 1066 / 80084 / 81151
------------------
     ethr =  2.29E-08,  avg # of iterations =  5.5

     total cpu time spent up to now is       22.9 secs

     total energy              =    -475.01308544 Ry
     estimated scf accuracy    <       0.00000699 Ry

     total magnetization       =     0.53 Bohr mag/cell
     absolute magnetization    =     0.65 Bohr mag/cell
[tb_dev] Currently allocated     3.05E-05 Mbytes, locked:    0 /   2
[tb_pin] Currently allocated     0.00E+00 Mbytes, locked:    0 /   0

     iteration # 15     ecut=    60.00 Ry     beta= 0.30
     Davidson diagonalization with overlap

---- Real-time Memory Report at c_bands before calling an iterative solver
           735 MiB given to the printing process from OS
             0 MiB allocation reported by mallinfo(arena+hblkhd)
        846497 MiB available memory on the node where the printing process lives
     GPU memory used/free/total (MiB): 1066 / 80084 / 81151
------------------
     ethr =  2.18E-08,  avg # of iterations =  1.5

     total cpu time spent up to now is       24.0 secs

     total energy              =    -475.01308700 Ry
     estimated scf accuracy    <       0.00000070 Ry

     total magnetization       =     0.53 Bohr mag/cell
     absolute magnetization    =     0.65 Bohr mag/cell
[tb_dev] Currently allocated     3.05E-05 Mbytes, locked:    0 /   2
[tb_pin] Currently allocated     0.00E+00 Mbytes, locked:    0 /   0

     iteration # 16     ecut=    60.00 Ry     beta= 0.30
     Davidson diagonalization with overlap

---- Real-time Memory Report at c_bands before calling an iterative solver
           735 MiB given to the printing process from OS
             0 MiB allocation reported by mallinfo(arena+hblkhd)
        846480 MiB available memory on the node where the printing process lives
     GPU memory used/free/total (MiB): 1066 / 80084 / 81151
------------------
     ethr =  2.19E-09,  avg # of iterations =  5.7

     total cpu time spent up to now is       25.6 secs

     total energy              =    -475.01308743 Ry
     estimated scf accuracy    <       0.00000026 Ry

     total magnetization       =     0.53 Bohr mag/cell
     absolute magnetization    =     0.65 Bohr mag/cell
[tb_dev] Currently allocated     3.05E-05 Mbytes, locked:    0 /   2
[tb_pin] Currently allocated     0.00E+00 Mbytes, locked:    0 /   0

     iteration # 17     ecut=    60.00 Ry     beta= 0.30
     Davidson diagonalization with overlap

---- Real-time Memory Report at c_bands before calling an iterative solver
           735 MiB given to the printing process from OS
             0 MiB allocation reported by mallinfo(arena+hblkhd)
        846488 MiB available memory on the node where the printing process lives
     GPU memory used/free/total (MiB): 1066 / 80084 / 81151
------------------
     ethr =  8.25E-10,  avg # of iterations =  2.8

     total cpu time spent up to now is       26.9 secs

     total energy              =    -475.01308747 Ry
     estimated scf accuracy    <       0.00000012 Ry

     total magnetization       =     0.53 Bohr mag/cell
     absolute magnetization    =     0.65 Bohr mag/cell
[tb_dev] Currently allocated     3.05E-05 Mbytes, locked:    0 /   2
[tb_pin] Currently allocated     0.00E+00 Mbytes, locked:    0 /   0

     iteration # 18     ecut=    60.00 Ry     beta= 0.30
     Davidson diagonalization with overlap

---- Real-time Memory Report at c_bands before calling an iterative solver
           735 MiB given to the printing process from OS
             0 MiB allocation reported by mallinfo(arena+hblkhd)
        846477 MiB available memory on the node where the printing process lives
     GPU memory used/free/total (MiB): 1066 / 80084 / 81151
------------------
     ethr =  3.72E-10,  avg # of iterations =  4.4
 
     Magnetic moment per site  (integrated on atomic sphere of radius R)
     atom   1 (R=0.276)  charge= 14.0284  magn=  0.4420
     atom   2 (R=0.276)  charge=  5.1536  magn=  0.0559
     atom   3 (R=0.276)  charge=  5.1804  magn=  0.0409
     atom   4 (R=0.413)  charge=  2.3134  magn= -0.0268

     total cpu time spent up to now is       28.3 secs

     End of self-consistent calculation

 ------ SPIN UP ------------


          k = 0.0000 0.0000 0.0000 (  3123 PWs)   bands (ev):

   -91.4086 -54.6717 -54.6044 -54.6044 -42.9990 -15.4430 -13.3938  -1.7473
    -1.0311  -1.0311   1.7526   2.7338   2.7338   2.8086   2.8086   3.0258
     4.2229   6.8433   6.8433   7.3540  11.3114  14.4720  15.5245  19.9655

     occupation numbers 
     1.0000   1.0000   1.0000   1.0000   1.0000   1.0000   1.0000   1.0000
     1.0000   1.0000   1.0000   1.0000   1.0000   1.0000   1.0000   1.0000
     0.8468   0.0000   0.0000   0.0000   0.0000   0.0000   0.0000   0.0000

          k = 0.0000 0.0000 0.1119 (  3075 PWs)   bands (ev):

   -91.4086 -54.6714 -54.6042 -54.6042 -42.9988 -15.4430 -13.3938  -1.7371
    -1.0310  -1.0310   1.5911   2.7338   2.7338   2.8086   2.8086   3.3743
     4.1090   6.8435   6.8435   7.1009  11.9787  13.7366  15.5997  19.9666

     occupation numbers 
     1.0000   1.0000   1.0000   1.0000   1.0000   1.0000   1.0000   1.0000
     1.0000   1.0000   1.0000   1.0000   1.0000   1.0000   1.0000   1.0000
     1.0378   0.0000   0.0000   0.0000   0.0000   0.0000   0.0000   0.0000

          k = 0.0000 0.1443 0.0000 (  3099 PWs)   bands (ev):

   -91.4076 -54.6701 -54.6152 -54.6068 -42.9948 -15.2533 -13.3930  -1.5637
    -1.2143  -0.9133   1.5349   1.9817   2.1569   3.1459   3.2908   3.4609
     4.3173   6.2942   6.7367   7.7464  11.8304  15.1026  15.8632  18.0870

     occupation numbers 
     1.0000   1.0000   1.0000   1.0000   1.0000   1.0000   1.0000   1.0000
     1.0000   1.0000   1.0000   1.0000   1.0000   1.0000   1.0000   1.0002
     0.6002   0.0000   0.0000   0.0000   0.0000   0.0000   0.0000   0.0000

          k = 0.0000 0.1443 0.1119 (  3086 PWs)   bands (ev):

   -91.4075 -54.6700 -54.6151 -54.6068 -42.9947 -15.2533 -13.3930  -1.5565
    -1.2141  -0.9133   1.5367   1.9816   2.0092   3.1514   3.4608   3.6047
     4.1783   6.3633   6.7367   7.4917  12.4224  14.2279  16.2173  18.1011

     occupation numbers 
     1.0000   1.0000   1.0000   1.0000   1.0000   1.0000   1.0000   1.0000
     1.0000   1.0000   1.0000   1.0000   1.0000   1.0000   1.0002   1.0024
     0.9399   0.0000   0.0000   0.0000   0.0000   0.0000   0.0000   0.0000

          k = 0.0000 0.2887 0.0000 (  3067 PWs)   bands (ev):

   -91.4050 -54.6660 -54.6414 -54.6130 -42.9847 -14.7563 -13.4026  -1.6114
    -0.9447  -0.6423   0.0825   1.3870   2.5261   3.2640   3.7233   3.7446
     4.3688   5.7277   6.6058   8.5954  12.8590  14.6017  16.4554  16.9588

     occupation numbers 
     1.0000   1.0000   1.0000   1.0000   1.0000   1.0000   1.0000   1.0000
     1.0000   1.0000   1.0000   1.0000   1.0000   1.0000   1.0120   1.0154
     0.4596   0.0000   0.0000   0.0000   0.0000   0.0000   0.0000   0.0000

          k = 0.0000 0.2887 0.1119 (  3070 PWs)   bands (ev):

   -91.4050 -54.6660 -54.6414 -54.6130 -42.9847 -14.7563 -13.4026  -1.6141
    -0.9388  -0.6423   0.0861   1.3869   2.4879   3.2259   3.7233   3.9151
     4.2112   5.8708   6.6058   8.4211  13.1895  14.5145  15.7431  17.3727

     occupation numbers 
     1.0000   1.0000   1.0000   1.0000   1.0000   1.0000   1.0000   1.0000
     1.0000   1.0000   1.0000   1.0000   1.0000   1.0000   1.0120   1.0642
     0.8732   0.0000   0.0000   0.0000   0.0000   0.0000   0.0000   0.0000

          k = 0.0000 0.4330 0.0000 (  3054 PWs)   bands (ev):

   -91.4024 -54.6682 -54.6617 -54.6191 -42.9745 -14.1697 -13.4517  -2.0686
    -0.9710  -0.4530   0.1027   1.2214   2.0068   3.1761   3.4942   3.7532
     5.0626   6.0330   6.6456   9.8816  11.3804  14.7727  15.6605  16.3397

     occupation numbers 
     1.0000   1.0000   1.0000   1.0000   1.0000   1.0000   1.0000   1.0000
     1.0000   1.0000   1.0000   1.0000   1.0000   1.0000   1.0004   1.0170
     0.0000   0.0000   0.0000   0.0000   0.0000   0.0000   0.0000   0.0000

          k = 0.0000 0.4330 0.1119 (  3062 PWs)   bands (ev):

   -91.4025 -54.6682 -54.6617 -54.6192 -42.9746 -14.1697 -13.4517  -2.0696
    -0.9714  -0.4531   0.1058   1.2214   2.0141   3.1704   3.4941   3.7595
     4.9724   6.1414   6.6454   9.8398  11.3507  14.8396  15.9932  16.3420

     occupation numbers 
     1.0000   1.0000   1.0000   1.0000   1.0000   1.0000   1.0000   1.0000
     1.0000   1.0000   1.0000   1.0000   1.0000   1.0000   1.0004   1.0182
     0.0002   0.0000   0.0000   0.0000   0.0000   0.0000   0.0000   0.0000

          k = 0.0000-0.5774 0.0000 (  3050 PWs)   bands (ev):

   -91.4014 -54.6788 -54.6602 -54.6218 -42.9704 -13.8476 -13.5315  -2.4814
    -0.7946  -0.4259   0.2991   1.2982   1.7044   2.9541   3.2755   3.6918
     5.7777   6.2518   6.6981   9.7988  11.6416  13.3447  15.9852  16.1415

     occupation numbers 
     1.0000   1.0000   1.0000   1.0000   1.0000   1.0000   1.0000   1.0000
     1.0000   1.0000   1.0000   1.0000   1.0000   1.0000   1.0000   1.0082
     0.0000   0.0000   0.0000   0.0000   0.0000   0.0000   0.0000   0.0000

          k = 0.0000-0.5774 0.1119 (  3058 PWs)   bands (ev):

   -91.4014 -54.6789 -54.6602 -54.6218 -42.9704 -13.8476 -13.5315  -2.4819
    -0.7946  -0.4259   0.2978   1.2981   1.7146   2.9519   3.2755   3.6885
     5.7179   6.3105   6.6980   9.7644  11.7349  13.3382  15.9054  15.9881

     occupation numbers 
     1.0000   1.0000   1.0000   1.0000   1.0000   1.0000   1.0000   1.0000
     1.0000   1.0000   1.0000   1.0000   1.0000   1.0000   1.0000   1.0078
     0.0000   0.0000   0.0000   0.0000   0.0000   0.0000   0.0000   0.0000

          k = 0.1250 0.2165 0.0000 (  3085 PWs)   bands (ev):

   -91.4058 -54.6672 -54.6325 -54.6125 -42.9876 -14.9096 -13.3967  -1.5250
    -1.0698  -0.7640   0.6198   1.2211   2.5535   3.2711   3.5577   3.8328
     4.3441   5.8912   6.4717   8.3378  12.6572  15.6298  15.9991  16.3826

     occupation numbers 
     1.0000   1.0000   1.0000   1.0000   1.0000   1.0000   1.0000   1.0000
     1.0000   1.0000   1.0000   1.0000   1.0000   1.0000   1.0011   1.0366
     0.5260   0.0000   0.0000   0.0000   0.0000   0.0000   0.0000   0.0000

          k = 0.1250 0.2165 0.1119 (  3077 PWs)   bands (ev):

   -91.4058 -54.6672 -54.6325 -54.6124 -42.9876 -14.9096 -13.3966  -1.5269
    -1.0631  -0.7637   0.6225   1.2211   2.4635   3.2717   3.6216   3.9498
     4.2492   5.9802   6.4367   8.1990  13.0086  15.0323  15.7951  17.0395

     occupation numbers 
     1.0000   1.0000   1.0000   1.0000   1.0000   1.0000   1.0000   1.0000
     1.0000   1.0000   1.0000   1.0000   1.0000   1.0000   1.0031   1.0748
     0.7831   0.0000   0.0000   0.0000   0.0000   0.0000   0.0000   0.0000

          k = 0.1250 0.3608 0.0000 (  3058 PWs)   bands (ev):

   -91.4032 -54.6632 -54.6561 -54.6213 -42.9775 -14.3665 -13.4194  -1.6552
    -1.0761  -0.4319  -0.0041   0.7812   2.3441   3.3002   3.6290   3.9309
     4.7521   5.9252   6.3678   9.4280  12.4536  13.9547  15.7143  17.0714

     occupation numbers 
     1.0000   1.0000   1.0000   1.0000   1.0000   1.0000   1.0000   1.0000
     1.0000   1.0000   1.0000   1.0000   1.0000   1.0000   1.0034   1.0693
     0.0085   0.0000   0.0000   0.0000   0.0000   0.0000   0.0000   0.0000

          k = 0.1250 0.3608 0.1119 (  3067 PWs)   bands (ev):

   -91.4032 -54.6633 -54.6561 -54.6213 -42.9775 -14.3665 -13.4194  -1.6571
    -1.0762  -0.4298  -0.0000   0.7813   2.3397   3.2996   3.6361   3.9150
     4.7131   6.0412   6.3277   9.3728  12.4565  14.0300  15.6701  16.9015

     occupation numbers 
     1.0000   1.0000   1.0000   1.0000   1.0000   1.0000   1.0000   1.0000
     1.0000   1.0000   1.0000   1.0000   1.0000   1.0000   1.0038   1.0642
     0.0150   0.0000   0.0000   0.0000   0.0000   0.0000   0.0000   0.0000

          k = 0.1250 0.5052 0.0000 (  3055 PWs)   bands (ev):

   -91.4014 -54.6729 -54.6602 -54.6278 -42.9704 -13.9016 -13.4793  -2.1753
    -1.1042  -0.2297   0.3390   0.7423   1.7206   3.0772   3.4030   3.8700
     5.7225   6.2082   6.5062   9.9865  11.2752  14.3201  14.5284  16.3291

     occupation numbers 
     1.0000   1.0000   1.0000   1.0000   1.0000   1.0000   1.0000   1.0000
     1.0000   1.0000   1.0000   1.0000   1.0000   1.0000   1.0001   1.0488
     0.0000   0.0000   0.0000   0.0000   0.0000   0.0000   0.0000   0.0000

          k = 0.1250 0.5052 0.1119 (  3051 PWs)   bands (ev):

   -91.4014 -54.6729 -54.6602 -54.6278 -42.9704 -13.9016 -13.4793  -2.1758
    -1.1046  -0.2296   0.3391   0.7422   1.7274   3.0758   3.4040   3.8655
     5.6803   6.2758   6.4791   9.9771  11.2784  14.3190  14.5568  16.6510

     occupation numbers 
     1.0000   1.0000   1.0000   1.0000   1.0000   1.0000   1.0000   1.0000
     1.0000   1.0000   1.0000   1.0000   1.0000   1.0000   1.0001   1.0472
     0.0000   0.0000   0.0000   0.0000   0.0000   0.0000   0.0000   0.0000

          k = 0.2500 0.4330 0.0000 (  3067 PWs)   bands (ev):

   -91.4014 -54.6646 -54.6604 -54.6361 -42.9704 -13.9446 -13.4382  -1.6272
    -1.3972  -0.3828   0.2209   0.5017   1.7675   3.1617   3.4949   4.0524
     5.6150   6.1302   6.3800  10.3115  10.9345  13.5527  15.8520  16.6901

     occupation numbers 
     1.0000   1.0000   1.0000   1.0000   1.0000   1.0000   1.0000   1.0000
     1.0000   1.0000   1.0000   1.0000   1.0000   1.0000   1.0004   1.0754
     0.0000   0.0000   0.0000   0.0000   0.0000   0.0000   0.0000   0.0000

          k = 0.2500 0.4330 0.1119 (  3068 PWs)   bands (ev):

   -91.4014 -54.6645 -54.6604 -54.6361 -42.9704 -13.9446 -13.4382  -1.6275
    -1.3981  -0.3829   0.2225   0.5036   1.7667   3.1629   3.4968   4.0402
     5.6678   6.1019   6.3509  10.3151  10.9654  13.5138  15.7990  16.7655

     occupation numbers 
     1.0000   1.0000   1.0000   1.0000   1.0000   1.0000   1.0000   1.0000
     1.0000   1.0000   1.0000   1.0000   1.0000   1.0000   1.0004   1.0793
     0.0000   0.0000   0.0000   0.0000   0.0000   0.0000   0.0000   0.0000

          k = 0.2500 0.5774 0.0000 (  3044 PWs)   bands (ev):

   -91.4006 -54.6651 -54.6591 -54.6450 -42.9674 -13.7610 -13.4438  -1.7667
    -1.3271  -0.5813   0.3945   0.7321   1.3007   2.8746   3.7082   3.9736
     6.0155   6.1033   7.0767   8.8075  12.3502  13.4006  14.4178  16.6556

     occupation numbers 
     1.0000   1.0000   1.0000   1.0000   1.0000   1.0000   1.0000   1.0000
     1.0000   1.0000   1.0000   1.0000   1.0000   1.0000   1.0100   1.0801
     0.0000   0.0000   0.0000   0.0000   0.0000   0.0000   0.0000   0.0000

          k = 0.2500 0.5774 0.1119 (  3050 PWs)   bands (ev):

   -91.4006 -54.6651 -54.6591 -54.6451 -42.9674 -13.7611 -13.4438  -1.7670
    -1.3275  -0.5815   0.3953   0.7321   1.3023   2.8744   3.7089   3.9699
     6.0442   6.1078   7.0390   8.7874  12.3747  13.3897  14.4818  16.6213

     occupation numbers 
     1.0000   1.0000   1.0000   1.0000   1.0000   1.0000   1.0000   1.0000
     1.0000   1.0000   1.0000   1.0000   1.0000   1.0000   1.0101   1.0794
     0.0000   0.0000   0.0000   0.0000   0.0000   0.0000   0.0000   0.0000

          k = 0.0000-0.1443 0.1119 (  3086 PWs)   bands (ev):

   -91.4075 -54.6700 -54.6151 -54.6069 -42.9947 -15.2533 -13.3930  -1.5559
    -1.2145  -0.9133   1.5299   1.9816   2.0171   3.1533   3.4609   3.5916
     4.2006   6.3078   6.7367   7.5487  12.3686  14.2754  16.2347  18.0462

     occupation numbers 
     1.0000   1.0000   1.0000   1.0000   1.0000   1.0000   1.0000   1.0000
     1.0000   1.0000   1.0000   1.0000   1.0000   1.0000   1.0002   1.0019
     0.8959   0.0000   0.0000   0.0000   0.0000   0.0000   0.0000   0.0000

          k = 0.0000-0.2887 0.1119 (  3070 PWs)   bands (ev):

   -91.4050 -54.6660 -54.6414 -54.6130 -42.9847 -14.7563 -13.4026  -1.6129
    -0.9401  -0.6423   0.0866   1.3870   2.4697   3.2449   3.7233   3.8318
     4.3762   5.7216   6.6058   8.5458  12.9466  14.6964  15.8025  17.3726

     occupation numbers 
     1.0000   1.0000   1.0000   1.0000   1.0000   1.0000   1.0000   1.0000
     1.0000   1.0000   1.0000   1.0000   1.0000   1.0000   1.0120   1.0364
     0.4402   0.0000   0.0000   0.0000   0.0000   0.0000   0.0000   0.0000

          k = 0.0000-0.4330 0.1119 (  3062 PWs)   bands (ev):

   -91.4025 -54.6682 -54.6617 -54.6192 -42.9746 -14.1697 -13.4517  -2.0694
    -0.9717  -0.4531   0.1087   1.2213   2.0028   3.1775   3.4941   3.7422
     5.0745   6.0184   6.6455   9.9577  11.3431  14.5665  15.7447  16.3417

     occupation numbers 
     1.0000   1.0000   1.0000   1.0000   1.0000   1.0000   1.0000   1.0000
     1.0000   1.0000   1.0000   1.0000   1.0000   1.0000   1.0004   1.0150
     0.0000   0.0000   0.0000   0.0000   0.0000   0.0000   0.0000   0.0000

          k =-0.1250-0.3608 0.1119 (  3067 PWs)   bands (ev):

   -91.4032 -54.6633 -54.6561 -54.6213 -42.9775 -14.3665 -13.4194  -1.6567
    -1.0765  -0.4304   0.0015   0.7812   2.3311   3.3063   3.6423   3.8844
     4.7977   5.9203   6.3625   9.4436  12.4161  13.9554  15.7251  16.9124

     occupation numbers 
     1.0000   1.0000   1.0000   1.0000   1.0000   1.0000   1.0000   1.0000
     1.0000   1.0000   1.0000   1.0000   1.0000   1.0000   1.0042   1.0537
     0.0041   0.0000   0.0000   0.0000   0.0000   0.0000   0.0000   0.0000

          k =-0.1250-0.5052 0.1119 (  3051 PWs)   bands (ev):

   -91.4014 -54.6729 -54.6602 -54.6278 -42.9704 -13.9016 -13.4793  -2.1758
    -1.1045  -0.2299   0.3410   0.7427   1.7227   3.0780   3.4042   3.8613
     5.7383   6.2008   6.4907   9.9659  11.3721  14.2339  14.4755  16.3622

     occupation numbers 
     1.0000   1.0000   1.0000   1.0000   1.0000   1.0000   1.0000   1.0000
     1.0000   1.0000   1.0000   1.0000   1.0000   1.0000   1.0001   1.0458
     0.0000   0.0000   0.0000   0.0000   0.0000   0.0000   0.0000   0.0000

 ------ SPIN DOWN ----------


          k = 0.0000 0.0000 0.0000 (  3123 PWs)   bands (ev):

   -90.8653 -54.1162 -54.1162 -54.0596 -43.0170 -15.3656 -13.3051  -1.5381
    -0.8618  -0.8618   1.8617   2.8638   2.8638   2.9654   3.2104   3.2104
     4.7913   7.0763   7.0763   7.3118  11.3444  14.5381  15.5909  19.9156

     occupation numbers 
     1.0000   1.0000   1.0000   1.0000   1.0000   1.0000   1.0000   1.0000
     1.0000   1.0000   1.0000   1.0000   1.0000   1.0000   1.0000   1.0000
     0.0045   0.0000   0.0000   0.0000   0.0000   0.0000   0.0000   0.0000

          k = 0.0000 0.0000 0.1119 (  3075 PWs)   bands (ev):

   -90.8652 -54.1161 -54.1161 -54.0594 -43.0169 -15.3655 -13.3051  -1.5252
    -0.8618  -0.8618   1.6606   2.8639   2.8639   3.2104   3.2104   3.3313
     4.6922   7.0630   7.0765   7.0765  12.0161  13.7976  15.6538  19.9164

     occupation numbers 
     1.0000   1.0000   1.0000   1.0000   1.0000   1.0000   1.0000   1.0000
     1.0000   1.0000   1.0000   1.0000   1.0000   1.0000   1.0000   1.0000
     0.0202   0.0000   0.0000   0.0000   0.0000   0.0000   0.0000   0.0000

          k = 0.0000 0.1443 0.0000 (  3099 PWs)   bands (ev):

   -90.8642 -54.1273 -54.1187 -54.0579 -43.0128 -15.1754 -13.3035  -1.3715
    -1.0371  -0.7493   1.6946   2.1926   2.2681   3.2053   3.5912   3.7965
     4.8382   6.5052   6.9643   7.7310  11.8593  15.1659  15.9310  18.0148

     occupation numbers 
     1.0000   1.0000   1.0000   1.0000   1.0000   1.0000   1.0000   1.0000
     1.0000   1.0000   1.0000   1.0000   1.0000   1.0000   1.0019   1.0265
     0.0021   0.0000   0.0000   0.0000   0.0000   0.0000   0.0000   0.0000

          k = 0.0000 0.1443 0.1119 (  3086 PWs)   bands (ev):

   -90.8641 -54.1272 -54.1188 -54.0578 -43.0127 -15.1754 -13.3036  -1.3635
    -1.0356  -0.7493   1.6981   2.0803   2.1926   3.4435   3.6783   3.7964
     4.7262   6.5902   6.9643   7.4621  12.4557  14.2870  16.2764  18.0286

     occupation numbers 
     1.0000   1.0000   1.0000   1.0000   1.0000   1.0000   1.0000   1.0000
     1.0000   1.0000   1.0000   1.0000   1.0000   1.0001   1.0068   1.0264
     0.0125   0.0000   0.0000   0.0000   0.0000   0.0000   0.0000   0.0000

          k = 0.0000 0.2887 0.0000 (  3067 PWs)   bands (ev):

   -90.8615 -54.1543 -54.1250 -54.0536 -43.0026 -14.6775 -13.3113  -1.4697
    -0.7550  -0.4900   0.2349   1.5669   2.6626   3.6388   3.8917   4.1227
     4.7325   5.9684   6.8226   8.5665  12.8588  14.5262  16.5201  17.0041

     occupation numbers 
     1.0000   1.0000   1.0000   1.0000   1.0000   1.0000   1.0000   1.0000
     1.0000   1.0000   1.0000   1.0000   1.0000   1.0039   1.0562   1.0231
     0.0114   0.0000   0.0000   0.0000   0.0000   0.0000   0.0000   0.0000

          k = 0.0000 0.2887 0.1119 (  3070 PWs)   bands (ev):

   -90.8615 -54.1543 -54.1250 -54.0536 -43.0026 -14.6775 -13.3113  -1.4728
    -0.7483  -0.4900   0.2406   1.5669   2.6048   3.5888   4.0524   4.1228
     4.6228   6.1154   6.8225   8.3767  13.1812  14.4749  15.7624  17.2801

     occupation numbers 
     1.0000   1.0000   1.0000   1.0000   1.0000   1.0000   1.0000   1.0000
     1.0000   1.0000   1.0000   1.0000   1.0000   1.0018   1.0755   1.0231
     0.0492   0.0000   0.0000   0.0000   0.0000   0.0000   0.0000   0.0000

          k = 0.0000 0.4330 0.0000 (  3054 PWs)   bands (ev):

   -90.8589 -54.1814 -54.1313 -54.0495 -42.9924 -14.0906 -13.3576  -1.9421
    -0.8759  -0.3021   0.3221   1.3368   2.1517   3.6809   3.9701   4.2729
     4.9678   6.2816   6.8628   9.8312  11.2757  14.7808  15.6439  16.2404

     occupation numbers 
     1.0000   1.0000   1.0000   1.0000   1.0000   1.0000   1.0000   1.0000
     1.0000   1.0000   1.0000   1.0000   1.0000   1.0071   1.0795   0.7214
     0.0002   0.0000   0.0000   0.0000   0.0000   0.0000   0.0000   0.0000

          k = 0.0000 0.4330 0.1119 (  3062 PWs)   bands (ev):

   -90.8589 -54.1814 -54.1314 -54.0495 -42.9924 -14.0906 -13.3576  -1.9432
    -0.8764  -0.3022   0.3261   1.3368   2.1601   3.6685   3.9700   4.2880
     4.8901   6.3785   6.8626   9.7856  11.2448  14.8406  15.9960  16.2426

     occupation numbers 
     1.0000   1.0000   1.0000   1.0000   1.0000   1.0000   1.0000   1.0000
     1.0000   1.0000   1.0000   1.0000   1.0000   1.0060   1.0795   0.6809
     0.0008   0.0000   0.0000   0.0000   0.0000   0.0000   0.0000   0.0000

          k = 0.0000-0.5774 0.0000 (  3050 PWs)   bands (ev):

   -90.8578 -54.1925 -54.1340 -54.0478 -42.9881 -13.7725 -13.4320  -2.3653
    -0.7214  -0.2702   0.5227   1.3602   1.8349   3.5429   3.8010   4.1953
     5.6619   6.4975   6.9188   9.6856  11.6127  13.2826  15.8842  16.1743

     occupation numbers 
     1.0000   1.0000   1.0000   1.0000   1.0000   1.0000   1.0000   1.0000
     1.0000   1.0000   1.0000   1.0000   1.0000   1.0009   1.0276   0.9069
     0.0000   0.0000   0.0000   0.0000   0.0000   0.0000   0.0000   0.0000

          k = 0.0000-0.5774 0.1119 (  3058 PWs)   bands (ev):

   -90.8578 -54.1926 -54.1341 -54.0478 -42.9881 -13.7725 -13.4320  -2.3658
    -0.7215  -0.2702   0.5211   1.3601   1.8465   3.5385   3.8010   4.1918
     5.6211   6.5397   6.9187   9.6504  11.7076  13.2753  15.8869  15.9168

     occupation numbers 
     1.0000   1.0000   1.0000   1.0000   1.0000   1.0000   1.0000   1.0000
     1.0000   1.0000   1.0000   1.0000   1.0000   1.0008   1.0276   0.9139
     0.0000   0.0000   0.0000   0.0000   0.0000   0.0000   0.0000   0.0000

          k = 0.1250 0.2165 0.0000 (  3085 PWs)   bands (ev):

   -90.8623 -54.1451 -54.1245 -54.0549 -43.0056 -14.8310 -13.3060  -1.3812
    -0.8616  -0.6094   0.7607   1.4090   2.6727   3.6112   3.7401   4.1577
     4.7834   6.1120   6.6950   8.3147  12.6780  15.5546  15.9642  16.4563

     occupation numbers 
     1.0000   1.0000   1.0000   1.0000   1.0000   1.0000   1.0000   1.0000
     1.0000   1.0000   1.0000   1.0000   1.0000   1.0026   1.0146   0.9751
     0.0052   0.0000   0.0000   0.0000   0.0000   0.0000   0.0000   0.0000

          k = 0.1250 0.2165 0.1119 (  3077 PWs)   bands (ev):

   -90.8623 -54.1451 -54.1245 -54.0549 -43.0056 -14.8310 -13.3060  -1.3835
    -0.8534  -0.6088   0.7650   1.4089   2.5535   3.7260   3.7539   4.2348
     4.6927   6.2085   6.6556   8.1683  13.0304  15.0836  15.6642  17.0424

     occupation numbers 
     1.0000   1.0000   1.0000   1.0000   1.0000   1.0000   1.0000   1.0000
     1.0000   1.0000   1.0000   1.0000   1.0000   1.0124   1.0171   0.8186
     0.0200   0.0000   0.0000   0.0000   0.0000   0.0000   0.0000   0.0000

          k = 0.1250 0.3608 0.0000 (  3058 PWs)   bands (ev):

   -90.8597 -54.1694 -54.1336 -54.0507 -42.9953 -14.2872 -13.3264  -1.5205
    -0.9581  -0.2762   0.1888   0.9310   2.4844   3.7896   4.1287   4.3363
     4.7243   6.1649   6.5849   9.3890  12.3308  13.9333  15.6901  17.1202

     occupation numbers 
     1.0000   1.0000   1.0000   1.0000   1.0000   1.0000   1.0000   1.0000
     1.0000   1.0000   1.0000   1.0000   1.0000   1.0248   1.0160   0.5475
     0.0128   0.0000   0.0000   0.0000   0.0000   0.0000   0.0000   0.0000

          k = 0.1250 0.3608 0.1119 (  3067 PWs)   bands (ev):

   -90.8597 -54.1694 -54.1336 -54.0507 -42.9954 -14.2872 -13.3264  -1.5225
    -0.9582  -0.2743   0.1948   0.9312   2.4774   3.7841   4.1056   4.3577
     4.6945   6.2753   6.5452   9.3273  12.3321  14.0077  15.6656  16.9355

     occupation numbers 
     1.0000   1.0000   1.0000   1.0000   1.0000   1.0000   1.0000   1.0000
     1.0000   1.0000   1.0000   1.0000   1.0000   1.0234   1.0411   0.4891
     0.0195   0.0000   0.0000   0.0000   0.0000   0.0000   0.0000   0.0000

          k = 0.1250 0.5052 0.0000 (  3055 PWs)   bands (ev):

   -90.8578 -54.1864 -54.1402 -54.0478 -42.9881 -13.8243 -13.3819  -2.0583
    -1.0000  -0.0965   0.5354   0.8545   1.8616   3.7049   3.9102   4.3134
     5.6414   6.4416   6.7029   9.8603  11.2317  14.2748  14.4608  16.3521

     occupation numbers 
     1.0000   1.0000   1.0000   1.0000   1.0000   1.0000   1.0000   1.0000
     1.0000   1.0000   1.0000   1.0000   1.0000   1.0096   1.0626   0.6109
     0.0000   0.0000   0.0000   0.0000   0.0000   0.0000   0.0000   0.0000

          k = 0.1250 0.5052 0.1119 (  3051 PWs)   bands (ev):

   -90.8578 -54.1864 -54.1402 -54.0477 -42.9881 -13.8243 -13.3819  -2.0588
    -1.0004  -0.0965   0.5354   0.8545   1.8696   3.7015   3.9118   4.3078
     5.6132   6.4919   6.6814   9.8507  11.2350  14.2725  14.4905  16.6752

     occupation numbers 
     1.0000   1.0000   1.0000   1.0000   1.0000   1.0000   1.0000   1.0000
     1.0000   1.0000   1.0000   1.0000   1.0000   1.0092   1.0631   0.6264
     0.0000   0.0000   0.0000   0.0000   0.0000   0.0000   0.0000   0.0000

          k = 0.2500 0.4330 0.0000 (  3067 PWs)   bands (ev):

   -90.8578 -54.1780 -54.1488 -54.0478 -42.9882 -13.8664 -13.3417  -1.5142
    -1.2718  -0.2865   0.3801   0.6901   1.9105   3.8255   3.9824   4.4631
     5.5829   6.3807   6.5079  10.1573  10.8891  13.5139  15.8363  16.6823

     occupation numbers 
     1.0000   1.0000   1.0000   1.0000   1.0000   1.0000   1.0000   1.0000
     1.0000   1.0000   1.0000   1.0000   1.0000   1.0345   1.0815   0.2409
     0.0000   0.0000   0.0000   0.0000   0.0000   0.0000   0.0000   0.0000

          k = 0.2500 0.4330 0.1119 (  3068 PWs)   bands (ev):

   -90.8578 -54.1780 -54.1488 -54.0478 -42.9882 -13.8663 -13.3417  -1.5145
    -1.2729  -0.2866   0.3814   0.6931   1.9092   3.8269   3.9848   4.4440
     5.6295   6.3425   6.5007  10.1597  10.9211  13.4757  15.7846  16.7469

     occupation numbers 
     1.0000   1.0000   1.0000   1.0000   1.0000   1.0000   1.0000   1.0000
     1.0000   1.0000   1.0000   1.0000   1.0000   1.0349   1.0819   0.2792
     0.0000   0.0000   0.0000   0.0000   0.0000   0.0000   0.0000   0.0000

          k = 0.2500 0.5774 0.0000 (  3044 PWs)   bands (ev):

   -90.8570 -54.1785 -54.1579 -54.0465 -42.9851 -13.6853 -13.3436  -1.6534
    -1.2126  -0.4881   0.5337   0.9174   1.4334   3.5838   4.1771   4.4177
     6.1983   6.3509   6.9764   8.6576  12.3199  13.3662  14.3507  16.6067

     occupation numbers 
     1.0000   1.0000   1.0000   1.0000   1.0000   1.0000   1.0000   1.0000
     1.0000   1.0000   1.0000   1.0000   1.0000   1.0017   0.9420   0.3375
     0.0000   0.0000   0.0000   0.0000   0.0000   0.0000   0.0000   0.0000

          k = 0.2500 0.5774 0.1119 (  3050 PWs)   bands (ev):

   -90.8570 -54.1785 -54.1580 -54.0465 -42.9852 -13.6854 -13.3436  -1.6538
    -1.2130  -0.4884   0.5344   0.9173   1.4353   3.5835   4.1780   4.4128
     6.2400   6.3570   6.9265   8.6355  12.3454  13.3551  14.4157  16.5778

     occupation numbers 
     1.0000   1.0000   1.0000   1.0000   1.0000   1.0000   1.0000   1.0000
     1.0000   1.0000   1.0000   1.0000   1.0000   1.0017   0.9403   0.3489
     0.0000   0.0000   0.0000   0.0000   0.0000   0.0000   0.0000   0.0000

          k = 0.0000-0.1443 0.1119 (  3086 PWs)   bands (ev):

   -90.8641 -54.1272 -54.1188 -54.0578 -43.0127 -15.1754 -13.3036  -1.3628
    -1.0361  -0.7493   1.6855   2.0965   2.1926   3.4275   3.6915   3.7965
     4.7380   6.5208   6.9643   7.5331  12.4005  14.3372  16.2944  17.9728

     occupation numbers 
     1.0000   1.0000   1.0000   1.0000   1.0000   1.0000   1.0000   1.0000
     1.0000   1.0000   1.0000   1.0000   1.0000   1.0001   1.0081   1.0265
     0.0105   0.0000   0.0000   0.0000   0.0000   0.0000   0.0000   0.0000

          k = 0.0000-0.2887 0.1119 (  3070 PWs)   bands (ev):

   -90.8615 -54.1543 -54.1250 -54.0536 -43.0026 -14.6775 -13.3113  -1.4717
    -0.7494  -0.4900   0.2411   1.5669   2.5834   3.6105   4.0422   4.1228
     4.7085   5.9622   6.8226   8.5125  12.9410  14.6343  15.8488  17.2799

     occupation numbers 
     1.0000   1.0000   1.0000   1.0000   1.0000   1.0000   1.0000   1.0000
     1.0000   1.0000   1.0000   1.0000   1.0000   1.0026   1.0787   1.0231
     0.0161   0.0000   0.0000   0.0000   0.0000   0.0000   0.0000   0.0000

          k = 0.0000-0.4330 0.1119 (  3062 PWs)   bands (ev):

   -90.8589 -54.1814 -54.1314 -54.0495 -42.9924 -14.0906 -13.3576  -1.9430
    -0.8767  -0.3022   0.3299   1.3367   2.1456   3.6768   3.9701   4.2583
     4.9878   6.2695   6.8627   9.9044  11.2417  14.5662  15.7284  16.2423

     occupation numbers 
     1.0000   1.0000   1.0000   1.0000   1.0000   1.0000   1.0000   1.0000
     1.0000   1.0000   1.0000   1.0000   1.0000   1.0067   1.0795   0.7599
     0.0001   0.0000   0.0000   0.0000   0.0000   0.0000   0.0000   0.0000

          k =-0.1250-0.3608 0.1119 (  3067 PWs)   bands (ev):

   -90.8597 -54.1694 -54.1336 -54.0507 -42.9954 -14.2872 -13.3264  -1.5221
    -0.9585  -0.2749   0.1968   0.9311   2.4665   3.7963   4.1158   4.2959
     4.7929   6.1609   6.5804   9.4011  12.2971  13.9273  15.7132  16.9599

     occupation numbers 
     1.0000   1.0000   1.0000   1.0000   1.0000   1.0000   1.0000   1.0000
     1.0000   1.0000   1.0000   1.0000   1.0000   1.0264   1.0308   0.6593
     0.0044   0.0000   0.0000   0.0000   0.0000   0.0000   0.0000   0.0000

          k =-0.1250-0.5052 0.1119 (  3051 PWs)   bands (ev):

   -90.8578 -54.1864 -54.1402 -54.0477 -42.9881 -13.8243 -13.3819  -2.0589
    -1.0003  -0.0968   0.5377   0.8552   1.8639   3.7049   3.9114   4.3016
     5.6541   6.4351   6.6937   9.8382  11.3295  14.1935  14.4100  16.3657

     occupation numbers 
     1.0000   1.0000   1.0000   1.0000   1.0000   1.0000   1.0000   1.0000
     1.0000   1.0000   1.0000   1.0000   1.0000   1.0096   1.0630   0.6436
     0.0000   0.0000   0.0000   0.0000   0.0000   0.0000   0.0000   0.0000

     the Fermi energy is     4.3916 ev

!    total energy              =    -475.01308756 Ry
     total all-electron energy =     -3102.885225 Ry
     estimated scf accuracy    <       0.00000003 Ry
     smearing contrib. (-TS)   =       0.00264743 Ry
     internal energy E=F+TS    =    -475.01573499 Ry

     The total energy is F=E-TS. E is the sum of the following terms:
     one-electron contribution =    -650.63179407 Ry
     hartree contribution      =     334.66563310 Ry
     xc contribution           =     -48.95300325 Ry
     ewald contribution        =      -3.39260565 Ry
     one-center paw contrib.   =    -106.70396512 Ry
      -> PAW hartree energy AE =     278.80261647 Ry
      -> PAW hartree energy PS =    -277.45103581 Ry
      -> PAW xc energy AE      =    -154.17437704 Ry
      -> PAW xc energy PS      =      46.11883126 Ry
      -> total E_H with PAW    =     336.01721376 Ry
      -> total E_XC with PAW   =    -157.00854903 Ry

     total magnetization       =     0.53 Bohr mag/cell
     absolute magnetization    =     0.65 Bohr mag/cell

     convergence has been achieved in  18 iterations

     Forces acting on atoms (cartesian axes, Ry/au):

     atom    1 type  1   force =     0.00000000    0.00000000    0.02586579
     atom    2 type  2   force =    -0.00000000   -0.00000000   -0.01593916
     atom    3 type  2   force =     0.00000000    0.00000000   -0.03486035
     atom    4 type  3   force =     0.00000000    0.00000000    0.02493372
     The non-local contrib.  to forces
     atom    1 type  1   force =     0.00000000    0.00000000    0.05098335
     atom    2 type  2   force =     0.00000000    0.00000000   -1.29280599
     atom    3 type  2   force =     0.00000000   -0.00000000    0.85945806
     atom    4 type  3   force =     0.00000000   -0.00000000    0.00963273
     The ionic contribution  to forces
     atom    1 type  1   force =    -0.00000000   -0.00000000    4.67476417
     atom    2 type  2   force =     0.00000000   -0.00000000   39.09148719
     atom    3 type  2   force =    -0.00000000    0.00000000  -35.85093338
     atom    4 type  3   force =     0.00000000   -0.00000000   -7.91531798
     The local contribution  to forces
     atom    1 type  1   force =    -0.00000000   -0.00000000   -4.69985923
     atom    2 type  2   force =     0.00000001   -0.00000001  -37.82613587
     atom    3 type  2   force =    -0.00000001    0.00000001   34.96359071
     atom    4 type  3   force =    -0.00000000   -0.00000000    7.93071624
     The core correction contribution to forces
     atom    1 type  1   force =    -0.00000000    0.00000000   -0.00045894
     atom    2 type  2   force =    -0.00000000    0.00000000    0.01125830
     atom    3 type  2   force =     0.00000000   -0.00000000   -0.00691541
     atom    4 type  3   force =     0.00000000    0.00000000    0.00000000
     The Hubbard contrib.    to forces
     atom    1 type  1   force =     0.00000000    0.00000000    0.00000000
     atom    2 type  2   force =     0.00000000    0.00000000    0.00000000
     atom    3 type  2   force =     0.00000000    0.00000000    0.00000000
     atom    4 type  3   force =     0.00000000    0.00000000    0.00000000
     The SCF correction term to forces
     atom    1 type  1   force =     0.00000000    0.00000000    0.00042441
     atom    2 type  2   force =     0.00000000   -0.00000000    0.00024517
     atom    3 type  2   force =    -0.00000000    0.00000000   -0.00007236
     atom    4 type  3   force =     0.00000000   -0.00000000   -0.00010930

     Total force =     0.052536     Total SCF correction =     0.000507

     Writing all to output data dir ./out/pw.save/ :
     XML data file, charge density, pseudopotentials, collected wavefunctions
 
     init_run     :     13.38s CPU      3.30s WALL (       1 calls)
     electrons    :     94.57s CPU     24.59s WALL (       1 calls)
     forces       :      0.73s CPU      0.50s WALL (       1 calls)

     Called by init_run:
     wfcinit      :      0.27s CPU      0.32s WALL (       1 calls)
     wfcinit:atom :      0.04s CPU      0.04s WALL (      50 calls)
     wfcinit:wfcr :      0.17s CPU      0.20s WALL (      50 calls)
     potinit      :     12.60s CPU      2.42s WALL (       1 calls)
     hinit0       :      0.41s CPU      0.41s WALL (       1 calls)

     Called by electrons:
     c_bands      :     11.59s CPU     11.68s WALL (      18 calls)
     sum_band     :      2.05s CPU      2.01s WALL (      18 calls)
     v_of_rho     :      0.31s CPU      0.16s WALL (      19 calls)
     v_h          :      0.21s CPU      0.03s WALL (      19 calls)
     v_xc         :      0.11s CPU      0.14s WALL (      20 calls)
     newd         :      0.45s CPU      0.35s WALL (      19 calls)
                                        0.35s GPU  (      19 calls)
     PAW_pot      :     83.43s CPU     10.35s WALL (      19 calls)
     mix_rho      :      0.59s CPU      0.55s WALL (      18 calls)

     Called by c_bands:
     init_us_2    :      0.78s CPU      0.76s WALL (    1900 calls)
     cegterg      :     10.19s CPU     10.30s WALL (     900 calls)

     Called by sum_band:
     sum_band:wei :      0.02s CPU      0.02s WALL (      18 calls)
                                        0.02s GPU  (      18 calls)
     sum_band:loo :      1.28s CPU      1.24s WALL (      18 calls)
                                        1.24s GPU  (      18 calls)
     sum_band:buf :      0.14s CPU      0.16s WALL (     900 calls)
                                        0.15s GPU  (     900 calls)
     sum_band:ini :      0.38s CPU      0.37s WALL (     900 calls)
                                        0.36s GPU  (     900 calls)
     sum_band:cal :      0.03s CPU      0.05s WALL (     900 calls)
                                        0.04s GPU  (     900 calls)
     sum_band:bec :      0.20s CPU      0.22s WALL (     900 calls)
                                        0.20s GPU  (     900 calls)
     addusdens    :      0.61s CPU      0.61s WALL (      18 calls)
                                        0.61s GPU  (      18 calls)
     addusd:skk   :      0.00s CPU      0.00s WALL (      54 calls)
                                        0.00s GPU  (      54 calls)

     Called by *egterg:
     cdiaghg      :      3.25s CPU      3.37s WALL (    4232 calls)
                                        3.32s GPU  (    4232 calls)
     cegterg:over :      0.84s CPU      0.88s WALL (    3332 calls)
     cegterg:upda :      0.58s CPU      0.59s WALL (    3332 calls)
     cegterg:last :      0.11s CPU      0.11s WALL (    1780 calls)
     h_psi        :      3.74s CPU      3.82s WALL (    4282 calls)
                                        3.77s GPU  (    4282 calls)
     s_psi        :      0.65s CPU      0.68s WALL (    4282 calls)
     g_psi        :      0.02s CPU      0.08s WALL (    3332 calls)
                                        0.04s GPU  (    3332 calls)

     Called by h_psi:
     h_psi:calbec :      0.13s CPU      0.25s WALL (    4282 calls)
                                        0.19s GPU  (    4282 calls)
     vloc_psi     :      2.57s CPU      2.57s WALL (    4282 calls)
                                        2.52s GPU  (    4282 calls)
     add_vuspsi   :      0.59s CPU      0.70s WALL (    4282 calls)
                                        0.64s GPU  (    4282 calls)

     General routines
     calbec       :      0.15s CPU      0.18s WALL (    5382 calls)
     fft          :      3.78s CPU      0.99s WALL (     488 calls)
                                        0.02s GPU  (     450 calls)
     ffts         :      4.71s CPU      0.84s WALL (     725 calls)
                                        0.02s GPU  (     687 calls)
     fftw         :      0.25s CPU      0.85s WALL (   14066 calls)
                                        0.69s GPU  (   14066 calls)
     interpolate  :      8.63s CPU      1.81s WALL (      38 calls)
 
     Parallel routines

     PAW routines
     PAW_pot      :     83.43s CPU     10.35s WALL (      19 calls)
     PAW_symme    :      0.02s CPU      0.00s WALL (      37 calls)
 
     PWSCF        :   1m49.53s CPU     28.89s WALL

 
   This run was terminated on:   3:21:18  12Jul2026            

=------------------------------------------------------------------------------=
   JOB DONE.
=------------------------------------------------------------------------------=
Warning: ieee_divide_by_zero is signaling
Warning: ieee_inexact is signaling
FORTRAN STOP
