
     Program PWSCF v.7.3.1 starts on 12Jul2026 at  5:39:32 

     This program is part of the open-source Quantum ESPRESSO suite
     for quantum simulation of materials; please cite
         "P. Giannozzi et al., J. Phys.:Condens. Matter 21 395502 (2009);
         "P. Giannozzi et al., J. Phys.:Condens. Matter 29 465901 (2017);
         "P. Giannozzi et al., J. Chem. Phys. 152 154105 (2020);
          URL http://www.quantum-espresso.org", 
     in publications or presentations arising from this work. More details at
     http://www.quantum-espresso.org/quote

     Parallel version (MPI & OpenMP), running on      14 processor cores
     Number of MPI processes:                 1
     Threads/MPI process:                    14

     MPI processes distributed on     1 nodes
     1351719 MiB available memory on the printing compute node when the environment starts
 
     Reading input from pw.in

     Current dimensions of program PWSCF are:
     Max number of different atomic species (ntypx) = 10
     Max number of k-points (npk) =  40000
     Max angular momentum in pseudopotentials (lmaxx) =  4
     file Co.pbe-spn-kjpaw_psl.0.3.1.UPF: wavefunction(s)  3P 3D renormalized
     file O.pbe-n-kjpaw_psl.1.0.0.UPF: wavefunction(s)  2S 2P renormalized
     file K.pbe-spn-kjpaw_psl.1.0.0.UPF: wavefunction(s)  3S renormalized
 
     Subspace diagonalization in iterative solution of the eigenvalue problem:
     a serial algorithm will be used

 
     G-vector sticks info
     --------------------
     sticks:   dense  smooth     PW     G-vecs:    dense   smooth      PW
     Sum        1003     499    151                86309    30591    5001
 
     Using Slab Decomposition
 


     bravais-lattice index     =            4
     lattice parameter (alat)  =       5.4802  a.u.
     unit-cell volume          =     486.5847 (a.u.)^3
     number of atoms/cell      =            4
     number of atomic types    =            3
     number of electrons       =        38.00
     number of Kohn-Sham states=           27
     kinetic-energy cutoff     =      60.0000  Ry
     charge density cutoff     =     480.0000  Ry
     scf convergence threshold =      1.0E-07
     mixing beta               =       0.3000
     number of iterations used =            8  local-TF  mixing
     Exchange-correlation= SLA  PW   PBX  PBC
                           (   1   4   3   4   0   0   0)

     GPU acceleration is ACTIVE.  1 visible GPUs per MPI rank
     GPU-aware MPI enabled


     GPU used by master process:

        Device Number: 0
        Device name: NVIDIA A100-SXM4-80GB
        Compute capability : 80
        Ratio of single to double precision performance  : 2
        Memory Clock Rate (KHz): 1593000
        Memory Bus Width (bits): 5120
        Peak Memory Bandwidth (GB/s): ******

     celldm(1)=   5.480206  celldm(2)=   0.000000  celldm(3)=   3.413793
     celldm(4)=   0.000000  celldm(5)=   0.000000  celldm(6)=   0.000000

     crystal axes: (cart. coord. in units of alat)
               a(1) = (   1.000000   0.000000   0.000000 )  
               a(2) = (  -0.500000   0.866025   0.000000 )  
               a(3) = (   0.000000   0.000000   3.413793 )  

     reciprocal axes: (cart. coord. in units 2 pi/alat)
               b(1) = (  1.000000  0.577350 -0.000000 )  
               b(2) = (  0.000000  1.154701  0.000000 )  
               b(3) = (  0.000000 -0.000000  0.292929 )  


     PseudoPot. # 1 for Co read from file:
     ../../pseudo/Co.pbe-spn-kjpaw_psl.0.3.1.UPF
     MD5 check sum: 3c0a43779828c046024e4f3be63f8e67
     Pseudo is Projector augmented-wave + core cor, Zval = 17.0
     Generated using &quot;atomic&quot; code by A. Dal Corso  v.6.2.2
     Shape of augmentation charge: PSQ
     Using radial grid of 1193 points,  6 beta functions with: 
                l(1) =   0
                l(2) =   0
                l(3) =   1
                l(4) =   1
                l(5) =   2
                l(6) =   2
     Q(r) pseudized with 0 coefficients 


     PseudoPot. # 2 for O  read from file:
     ../../pseudo/O.pbe-n-kjpaw_psl.1.0.0.UPF
     MD5 check sum: e99d9cef9b487d1ca56f5b95ecd0fd7a
     Pseudo is Projector augmented-wave + core cor, Zval =  6.0
     Generated using &quot;atomic&quot; code by A. Dal Corso  v.6.3
     Shape of augmentation charge: PSQ
     Using radial grid of 1095 points,  4 beta functions with: 
                l(1) =   0
                l(2) =   0
                l(3) =   1
                l(4) =   1
     Q(r) pseudized with 0 coefficients 


     PseudoPot. # 3 for K  read from file:
     ../../pseudo/K.pbe-spn-kjpaw_psl.1.0.0.UPF
     MD5 check sum: 34cc42130a09071ebe376fd42eb21491
     Pseudo is Projector augmented-wave + core cor, Zval =  9.0
     Generated using &quot;atomic&quot; code by A. Dal Corso  v.6.2.2
     Shape of augmentation charge: PSQ
     Using radial grid of 1165 points,  6 beta functions with: 
                l(1) =   0
                l(2) =   0
                l(3) =   1
                l(4) =   1
                l(5) =   2
                l(6) =   2
     Q(r) pseudized with 0 coefficients 


     atomic species   valence    mass     pseudopotential
     Co               17.00    58.93300     Co( 1.00)
     O                 6.00    15.99900     O ( 1.00)
     K                 9.00    39.09830     K ( 1.00)

     Starting magnetic structure 
     atomic species   magnetization
     Co              0.300
     O               0.000
     K               0.000

      6 Sym. Ops. (no inversion) found


                                    s                        frac. trans.

      isym =  1     identity                                     

 cryst.   s( 1) = (     1          0          0      )
                  (     0          1          0      )
                  (     0          0          1      )

 cart.    s( 1) = (  1.0000000  0.0000000  0.0000000 )
                  (  0.0000000  1.0000000  0.0000000 )
                  (  0.0000000  0.0000000  1.0000000 )


      isym =  2     120 deg rotation - cryst. axis [0,0,1]       

 cryst.   s( 2) = (     0          1          0      )
                  (    -1         -1          0      )
                  (     0          0          1      )

 cart.    s( 2) = ( -0.5000000 -0.8660254  0.0000000 )
                  (  0.8660254 -0.5000000  0.0000000 )
                  (  0.0000000  0.0000000  1.0000000 )


      isym =  3     120 deg rotation - cryst. axis [0,0,-1]      

 cryst.   s( 3) = (    -1         -1          0      )
                  (     1          0          0      )
                  (     0          0          1      )

 cart.    s( 3) = ( -0.5000000  0.8660254  0.0000000 )
                  ( -0.8660254 -0.5000000  0.0000000 )
                  (  0.0000000  0.0000000  1.0000000 )


      isym =  4     inv. 180 deg rotation - cart. axis [1,0,0]   

 cryst.   s( 4) = (    -1          0          0      )
                  (     1          1          0      )
                  (     0          0          1      )

 cart.    s( 4) = ( -1.0000000  0.0000000  0.0000000 )
                  (  0.0000000  1.0000000  0.0000000 )
                  (  0.0000000  0.0000000  1.0000000 )


      isym =  5     inv. 180 deg rotation - cryst. axis [0,1,0]  

 cryst.   s( 5) = (     1          1          0      )
                  (     0         -1          0      )
                  (     0          0          1      )

 cart.    s( 5) = (  0.5000000  0.8660254  0.0000000 )
                  (  0.8660254 -0.5000000  0.0000000 )
                  (  0.0000000  0.0000000  1.0000000 )


      isym =  6     inv. 180 deg rotation - cryst. axis [1,1,0]  

 cryst.   s( 6) = (     0         -1          0      )
                  (    -1          0          0      )
                  (     0          0          1      )

 cart.    s( 6) = (  0.5000000 -0.8660254  0.0000000 )
                  ( -0.8660254 -0.5000000  0.0000000 )
                  (  0.0000000  0.0000000  1.0000000 )


     point group C_3v (3m)  
     there are  3 classes
     the character table:

       E     2C3   3s_v 
A_1    1.00  1.00  1.00
A_2    1.00  1.00 -1.00
E      2.00 -1.00  0.00

     the symmetry operations in each class and the name of the first element:

     E        1
          identity                                               
     2C3      2    3
          120 deg rotation - cryst. axis [0,0,1]                 
     3s_v     4    5    6
          inv. 180 deg rotation - cart. axis [1,0,0]             

   Cartesian axes

     site n.     atom                  positions (alat units)
         1        Co     tau(   1) = (   0.0000000   0.0000000   0.0000000  )
         2        O      tau(   2) = (  -0.0000000   0.5773503   0.3310345  )
         3        O      tau(   3) = (   0.5000000   0.2886751   3.0827586  )
         4        K      tau(   4) = (   0.0000000   0.0000000   1.8793103  )

   Crystallographic axes

     site n.     atom                  positions (cryst. coord.)
         1        Co     tau(   1) = (  0.0000000  0.0000000  0.0000000  )
         2        O      tau(   2) = (  0.3333333  0.6666667  0.0969697  )
         3        O      tau(   3) = (  0.6666667  0.3333333  0.9030303  )
         4        K      tau(   4) = (  0.0000000  0.0000000  0.5505051  )

     number of k points=    25  Marzari-Vanderbilt smearing, width (Ry)=  0.0200
                       cart. coord. in units 2pi/alat
        k(    1) = (   0.0000000   0.0000000   0.0000000), wk =   0.0052083
        k(    2) = (   0.0000000   0.0000000   0.0976431), wk =   0.0104167
        k(    3) = (   0.0000000   0.1443376   0.0000000), wk =   0.0312500
        k(    4) = (   0.0000000   0.1443376   0.0976431), wk =   0.0312500
        k(    5) = (   0.0000000   0.2886751   0.0000000), wk =   0.0312500
        k(    6) = (   0.0000000   0.2886751   0.0976431), wk =   0.0312500
        k(    7) = (   0.0000000   0.4330127   0.0000000), wk =   0.0312500
        k(    8) = (   0.0000000   0.4330127   0.0976431), wk =   0.0312500
        k(    9) = (   0.0000000  -0.5773503   0.0000000), wk =   0.0156250
        k(   10) = (   0.0000000  -0.5773503   0.0976431), wk =   0.0312500
        k(   11) = (   0.1250000   0.2165064   0.0000000), wk =   0.0312500
        k(   12) = (   0.1250000   0.2165064   0.0976431), wk =   0.0625000
        k(   13) = (   0.1250000   0.3608439   0.0000000), wk =   0.0625000
        k(   14) = (   0.1250000   0.3608439   0.0976431), wk =   0.0625000
        k(   15) = (   0.1250000   0.5051815   0.0000000), wk =   0.0625000
        k(   16) = (   0.1250000   0.5051815   0.0976431), wk =   0.0625000
        k(   17) = (   0.2500000   0.4330127   0.0000000), wk =   0.0312500
        k(   18) = (   0.2500000   0.4330127   0.0976431), wk =   0.0625000
        k(   19) = (   0.2500000   0.5773503   0.0000000), wk =   0.0312500
        k(   20) = (   0.2500000   0.5773503   0.0976431), wk =   0.0625000
        k(   21) = (   0.0000000  -0.1443376   0.0976431), wk =   0.0312500
        k(   22) = (   0.0000000  -0.2886751   0.0976431), wk =   0.0312500
        k(   23) = (   0.0000000  -0.4330127   0.0976431), wk =   0.0312500
        k(   24) = (  -0.1250000  -0.3608439   0.0976431), wk =   0.0625000
        k(   25) = (  -0.1250000  -0.5051815   0.0976431), wk =   0.0625000

                       cryst. coord.
        k(    1) = (   0.0000000   0.0000000   0.0000000), wk =   0.0052083
        k(    2) = (   0.0000000   0.0000000   0.3333333), wk =   0.0104167
        k(    3) = (   0.0000000   0.1250000   0.0000000), wk =   0.0312500
        k(    4) = (   0.0000000   0.1250000   0.3333333), wk =   0.0312500
        k(    5) = (   0.0000000   0.2500000   0.0000000), wk =   0.0312500
        k(    6) = (   0.0000000   0.2500000   0.3333333), wk =   0.0312500
        k(    7) = (   0.0000000   0.3750000   0.0000000), wk =   0.0312500
        k(    8) = (   0.0000000   0.3750000   0.3333333), wk =   0.0312500
        k(    9) = (   0.0000000  -0.5000000   0.0000000), wk =   0.0156250
        k(   10) = (   0.0000000  -0.5000000   0.3333333), wk =   0.0312500
        k(   11) = (   0.1250000   0.1250000   0.0000000), wk =   0.0312500
        k(   12) = (   0.1250000   0.1250000   0.3333333), wk =   0.0625000
        k(   13) = (   0.1250000   0.2500000   0.0000000), wk =   0.0625000
        k(   14) = (   0.1250000   0.2500000   0.3333333), wk =   0.0625000
        k(   15) = (   0.1250000   0.3750000   0.0000000), wk =   0.0625000
        k(   16) = (   0.1250000   0.3750000   0.3333333), wk =   0.0625000
        k(   17) = (   0.2500000   0.2500000   0.0000000), wk =   0.0312500
        k(   18) = (   0.2500000   0.2500000   0.3333333), wk =   0.0625000
        k(   19) = (   0.2500000   0.3750000   0.0000000), wk =   0.0312500
        k(   20) = (   0.2500000   0.3750000   0.3333333), wk =   0.0625000
        k(   21) = (   0.0000000  -0.1250000   0.3333333), wk =   0.0312500
        k(   22) = (   0.0000000  -0.2500000   0.3333333), wk =   0.0312500
        k(   23) = (   0.0000000  -0.3750000   0.3333333), wk =   0.0312500
        k(   24) = (  -0.1250000  -0.2500000   0.3333333), wk =   0.0625000
        k(   25) = (  -0.1250000  -0.3750000   0.3333333), wk =   0.0625000

     Dense  grid:    86309 G-vectors     FFT dimensions: (  40,  40, 135)

     Smooth grid:    30591 G-vectors     FFT dimensions: (  27,  27,  96)

     Dynamical RAM for                 wfc:       1.57 MB

     Dynamical RAM for     wfc (w. buffer):      80.24 MB

     Dynamical RAM for           str. fact:       3.95 MB

     Dynamical RAM for           local pot:       0.00 MB

     Dynamical RAM for          nlocal pot:       3.03 MB

     Dynamical RAM for                qrad:       5.27 MB

     Dynamical RAM for          rho,v,vnew:      17.79 MB

     Dynamical RAM for               rhoin:       5.93 MB

     Dynamical RAM for            rho*nmix:      42.14 MB

     Dynamical RAM for           G-vectors:       5.17 MB

     Dynamical RAM for          h,s,v(r/c):       0.13 MB

     Dynamical RAM for          <psi|beta>:       0.02 MB

     Dynamical RAM for                 psi:       3.15 MB

     Dynamical RAM for                hpsi:       3.15 MB

     Dynamical RAM for                spsi:       3.15 MB

     Dynamical RAM for      wfcinit/wfcrot:       3.16 MB

     Dynamical RAM for           addusdens:     248.91 MB

     Dynamical RAM for          addusforce:     251.56 MB

     Estimated static dynamical RAM per process >     136.54 MB

     Estimated max dynamical RAM per process >     430.24 MB

     Check: negative core charge=   -0.000006
     Generating pointlists ...
     new r_m :   0.2745 (alat units)  1.5045 (a.u.) for type    1
     new r_m :   0.2745 (alat units)  1.5045 (a.u.) for type    2
     new r_m :   0.4125 (alat units)  2.2606 (a.u.) for type    3

     Initial potential from superposition of free atoms

     starting charge      37.9809, renormalised to      38.0000
     Starting wfcs are   26 randomized atomic wfcs +    1 random wfcs
     Checking if some PAW data can be deallocated... 

     total cpu time spent up to now is        3.9 secs

     Self-consistent Calculation
[tb_dev] Currently allocated     6.58E-01 Mbytes, locked:    0 /   6
[tb_pin] Currently allocated     0.00E+00 Mbytes, locked:    0 /   0

     iteration #  1     ecut=    60.00 Ry     beta= 0.30
     Davidson diagonalization with overlap

---- Real-time Memory Report at c_bands before calling an iterative solver
           716 MiB given to the printing process from OS
             0 MiB allocation reported by mallinfo(arena+hblkhd)
       1345160 MiB available memory on the node where the printing process lives
     GPU memory used/free/total (MiB): 1110 / 80040 / 81151
------------------
     ethr =  1.00E-02,  avg # of iterations =  8.2

     total cpu time spent up to now is        6.2 secs

     total energy              =    -572.69687397 Ry
     estimated scf accuracy    <       2.11619022 Ry

     total magnetization       =     4.01 Bohr mag/cell
     absolute magnetization    =     4.01 Bohr mag/cell
[tb_dev] Currently allocated     3.05E-05 Mbytes, locked:    0 /   2
[tb_pin] Currently allocated     0.00E+00 Mbytes, locked:    0 /   0

     iteration #  2     ecut=    60.00 Ry     beta= 0.30
     Davidson diagonalization with overlap

---- Real-time Memory Report at c_bands before calling an iterative solver
           761 MiB given to the printing process from OS
             0 MiB allocation reported by mallinfo(arena+hblkhd)
       1361104 MiB available memory on the node where the printing process lives
     GPU memory used/free/total (MiB): 1130 / 80020 / 81151
------------------
     ethr =  5.57E-03,  avg # of iterations =  1.9

     total cpu time spent up to now is        7.6 secs

     total energy              =    -572.66642545 Ry
     estimated scf accuracy    <       1.09834886 Ry

     total magnetization       =     3.84 Bohr mag/cell
     absolute magnetization    =     3.84 Bohr mag/cell
[tb_dev] Currently allocated     3.05E-05 Mbytes, locked:    0 /   2
[tb_pin] Currently allocated     0.00E+00 Mbytes, locked:    0 /   0

     iteration #  3     ecut=    60.00 Ry     beta= 0.30
     Davidson diagonalization with overlap

---- Real-time Memory Report at c_bands before calling an iterative solver
           762 MiB given to the printing process from OS
             0 MiB allocation reported by mallinfo(arena+hblkhd)
       1359773 MiB available memory on the node where the printing process lives
     GPU memory used/free/total (MiB): 1130 / 80020 / 81151
------------------
     ethr =  2.89E-03,  avg # of iterations =  2.1

     total cpu time spent up to now is        9.1 secs

     total energy              =    -572.85965870 Ry
     estimated scf accuracy    <       1.50501556 Ry

     total magnetization       =     1.40 Bohr mag/cell
     absolute magnetization    =     1.53 Bohr mag/cell
[tb_dev] Currently allocated     3.05E-05 Mbytes, locked:    0 /   2
[tb_pin] Currently allocated     0.00E+00 Mbytes, locked:    0 /   0

     iteration #  4     ecut=    60.00 Ry     beta= 0.30
     Davidson diagonalization with overlap

---- Real-time Memory Report at c_bands before calling an iterative solver
           765 MiB given to the printing process from OS
             0 MiB allocation reported by mallinfo(arena+hblkhd)
       1358389 MiB available memory on the node where the printing process lives
     GPU memory used/free/total (MiB): 1130 / 80020 / 81151
------------------
     ethr =  2.89E-03,  avg # of iterations =  1.2

     total cpu time spent up to now is       10.4 secs

     total energy              =    -572.86318952 Ry
     estimated scf accuracy    <       2.12029519 Ry

     total magnetization       =     1.07 Bohr mag/cell
     absolute magnetization    =     1.31 Bohr mag/cell
[tb_dev] Currently allocated     3.05E-05 Mbytes, locked:    0 /   2
[tb_pin] Currently allocated     0.00E+00 Mbytes, locked:    0 /   0

     iteration #  5     ecut=    60.00 Ry     beta= 0.30
     Davidson diagonalization with overlap

---- Real-time Memory Report at c_bands before calling an iterative solver
           766 MiB given to the printing process from OS
             0 MiB allocation reported by mallinfo(arena+hblkhd)
       1357252 MiB available memory on the node where the printing process lives
     GPU memory used/free/total (MiB): 1130 / 80020 / 81151
------------------
     ethr =  2.89E-03,  avg # of iterations =  2.0

     total cpu time spent up to now is       11.8 secs

     total energy              =    -572.72232806 Ry
     estimated scf accuracy    <       1.20247408 Ry

     total magnetization       =     0.43 Bohr mag/cell
     absolute magnetization    =     1.01 Bohr mag/cell
[tb_dev] Currently allocated     3.05E-05 Mbytes, locked:    0 /   2
[tb_pin] Currently allocated     0.00E+00 Mbytes, locked:    0 /   0

     iteration #  6     ecut=    60.00 Ry     beta= 0.30
     Davidson diagonalization with overlap

---- Real-time Memory Report at c_bands before calling an iterative solver
           768 MiB given to the printing process from OS
             0 MiB allocation reported by mallinfo(arena+hblkhd)
       1355888 MiB available memory on the node where the printing process lives
     GPU memory used/free/total (MiB): 1130 / 80020 / 81151
------------------
     ethr =  2.89E-03,  avg # of iterations =  1.6

     total cpu time spent up to now is       13.2 secs

     total energy              =    -572.78003967 Ry
     estimated scf accuracy    <       0.93921639 Ry

     total magnetization       =     1.34 Bohr mag/cell
     absolute magnetization    =     1.43 Bohr mag/cell
[tb_dev] Currently allocated     3.05E-05 Mbytes, locked:    0 /   2
[tb_pin] Currently allocated     0.00E+00 Mbytes, locked:    0 /   0

     iteration #  7     ecut=    60.00 Ry     beta= 0.30
     Davidson diagonalization with overlap

---- Real-time Memory Report at c_bands before calling an iterative solver
           770 MiB given to the printing process from OS
             0 MiB allocation reported by mallinfo(arena+hblkhd)
       1354653 MiB available memory on the node where the printing process lives
     GPU memory used/free/total (MiB): 1130 / 80020 / 81151
------------------
     ethr =  2.47E-03,  avg # of iterations =  1.2

     total cpu time spent up to now is       14.5 secs

     total energy              =    -572.82638366 Ry
     estimated scf accuracy    <       0.29548706 Ry

     total magnetization       =     0.45 Bohr mag/cell
     absolute magnetization    =     0.91 Bohr mag/cell
[tb_dev] Currently allocated     3.05E-05 Mbytes, locked:    0 /   2
[tb_pin] Currently allocated     0.00E+00 Mbytes, locked:    0 /   0

     iteration #  8     ecut=    60.00 Ry     beta= 0.30
     Davidson diagonalization with overlap

---- Real-time Memory Report at c_bands before calling an iterative solver
           771 MiB given to the printing process from OS
             0 MiB allocation reported by mallinfo(arena+hblkhd)
       1353551 MiB available memory on the node where the printing process lives
     GPU memory used/free/total (MiB): 1130 / 80020 / 81151
------------------
     ethr =  7.78E-04,  avg # of iterations =  3.6

     total cpu time spent up to now is       16.1 secs

     total energy              =    -572.84508752 Ry
     estimated scf accuracy    <       0.04380017 Ry

     total magnetization       =     0.76 Bohr mag/cell
     absolute magnetization    =     0.90 Bohr mag/cell
[tb_dev] Currently allocated     3.05E-05 Mbytes, locked:    0 /   2
[tb_pin] Currently allocated     0.00E+00 Mbytes, locked:    0 /   0

     iteration #  9     ecut=    60.00 Ry     beta= 0.30
     Davidson diagonalization with overlap

---- Real-time Memory Report at c_bands before calling an iterative solver
           773 MiB given to the printing process from OS
             0 MiB allocation reported by mallinfo(arena+hblkhd)
       1352247 MiB available memory on the node where the printing process lives
     GPU memory used/free/total (MiB): 1130 / 80020 / 81151
------------------
     ethr =  1.15E-04,  avg # of iterations =  8.0

     total cpu time spent up to now is       18.3 secs

     total energy              =    -572.85195335 Ry
     estimated scf accuracy    <       0.01437587 Ry

     total magnetization       =     0.71 Bohr mag/cell
     absolute magnetization    =     0.77 Bohr mag/cell
[tb_dev] Currently allocated     3.05E-05 Mbytes, locked:    0 /   2
[tb_pin] Currently allocated     0.00E+00 Mbytes, locked:    0 /   0

     iteration # 10     ecut=    60.00 Ry     beta= 0.30
     Davidson diagonalization with overlap

---- Real-time Memory Report at c_bands before calling an iterative solver
           775 MiB given to the printing process from OS
             0 MiB allocation reported by mallinfo(arena+hblkhd)
       1350245 MiB available memory on the node where the printing process lives
     GPU memory used/free/total (MiB): 1130 / 80020 / 81151
------------------
     c_bands:  1 eigenvalues not converged
     ethr =  3.78E-05,  avg # of iterations =  4.0

     total cpu time spent up to now is       19.9 secs

     total energy              =    -572.85462227 Ry
     estimated scf accuracy    <       0.01801914 Ry

     total magnetization       =     0.77 Bohr mag/cell
     absolute magnetization    =     0.81 Bohr mag/cell
[tb_dev] Currently allocated     3.05E-05 Mbytes, locked:    0 /   2
[tb_pin] Currently allocated     0.00E+00 Mbytes, locked:    0 /   0

     iteration # 11     ecut=    60.00 Ry     beta= 0.30
     Davidson diagonalization with overlap

---- Real-time Memory Report at c_bands before calling an iterative solver
           776 MiB given to the printing process from OS
             0 MiB allocation reported by mallinfo(arena+hblkhd)
       1348249 MiB available memory on the node where the printing process lives
     GPU memory used/free/total (MiB): 1130 / 80020 / 81151
------------------
     ethr =  3.78E-05,  avg # of iterations =  1.7

     total cpu time spent up to now is       21.3 secs

     total energy              =    -572.85423046 Ry
     estimated scf accuracy    <       0.02714286 Ry

     total magnetization       =     0.79 Bohr mag/cell
     absolute magnetization    =     0.85 Bohr mag/cell
[tb_dev] Currently allocated     3.05E-05 Mbytes, locked:    0 /   2
[tb_pin] Currently allocated     0.00E+00 Mbytes, locked:    0 /   0

     iteration # 12     ecut=    60.00 Ry     beta= 0.30
     Davidson diagonalization with overlap

---- Real-time Memory Report at c_bands before calling an iterative solver
           776 MiB given to the printing process from OS
             0 MiB allocation reported by mallinfo(arena+hblkhd)
       1346289 MiB available memory on the node where the printing process lives
     GPU memory used/free/total (MiB): 1130 / 80020 / 81151
------------------
     ethr =  3.78E-05,  avg # of iterations =  1.6

     total cpu time spent up to now is       22.7 secs

     total energy              =    -572.85494602 Ry
     estimated scf accuracy    <       0.00584544 Ry

     total magnetization       =     0.71 Bohr mag/cell
     absolute magnetization    =     0.79 Bohr mag/cell
[tb_dev] Currently allocated     3.05E-05 Mbytes, locked:    0 /   2
[tb_pin] Currently allocated     0.00E+00 Mbytes, locked:    0 /   0

     iteration # 13     ecut=    60.00 Ry     beta= 0.30
     Davidson diagonalization with overlap

---- Real-time Memory Report at c_bands before calling an iterative solver
           776 MiB given to the printing process from OS
             0 MiB allocation reported by mallinfo(arena+hblkhd)
       1343579 MiB available memory on the node where the printing process lives
     GPU memory used/free/total (MiB): 1130 / 80020 / 81151
------------------
     c_bands:  1 eigenvalues not converged
     ethr =  1.54E-05,  avg # of iterations =  2.0

     total cpu time spent up to now is       24.1 secs

     total energy              =    -572.85484627 Ry
     estimated scf accuracy    <       0.00393444 Ry

     total magnetization       =     0.69 Bohr mag/cell
     absolute magnetization    =     0.78 Bohr mag/cell
[tb_dev] Currently allocated     3.05E-05 Mbytes, locked:    0 /   2
[tb_pin] Currently allocated     0.00E+00 Mbytes, locked:    0 /   0

     iteration # 14     ecut=    60.00 Ry     beta= 0.30
     Davidson diagonalization with overlap

---- Real-time Memory Report at c_bands before calling an iterative solver
           777 MiB given to the printing process from OS
             0 MiB allocation reported by mallinfo(arena+hblkhd)
       1360708 MiB available memory on the node where the printing process lives
     GPU memory used/free/total (MiB): 1130 / 80020 / 81151
------------------
     ethr =  1.04E-05,  avg # of iterations =  1.8

     total cpu time spent up to now is       25.5 secs

     total energy              =    -572.85504005 Ry
     estimated scf accuracy    <       0.00065379 Ry

     total magnetization       =     0.61 Bohr mag/cell
     absolute magnetization    =     0.73 Bohr mag/cell
[tb_dev] Currently allocated     3.05E-05 Mbytes, locked:    0 /   2
[tb_pin] Currently allocated     0.00E+00 Mbytes, locked:    0 /   0

     iteration # 15     ecut=    60.00 Ry     beta= 0.30
     Davidson diagonalization with overlap

---- Real-time Memory Report at c_bands before calling an iterative solver
           777 MiB given to the printing process from OS
             0 MiB allocation reported by mallinfo(arena+hblkhd)
       1359463 MiB available memory on the node where the printing process lives
     GPU memory used/free/total (MiB): 1130 / 80020 / 81151
------------------
     c_bands:  1 eigenvalues not converged
     c_bands:  1 eigenvalues not converged
     c_bands:  1 eigenvalues not converged
     c_bands:  1 eigenvalues not converged
     c_bands:  1 eigenvalues not converged
     c_bands:  1 eigenvalues not converged
     c_bands:  1 eigenvalues not converged
     c_bands:  1 eigenvalues not converged
     ethr =  1.72E-06,  avg # of iterations =  9.8

     total cpu time spent up to now is       27.9 secs

     total energy              =    -572.85516973 Ry
     estimated scf accuracy    <       0.00001641 Ry

     total magnetization       =     0.62 Bohr mag/cell
     absolute magnetization    =     0.76 Bohr mag/cell
[tb_dev] Currently allocated     3.05E-05 Mbytes, locked:    0 /   2
[tb_pin] Currently allocated     0.00E+00 Mbytes, locked:    0 /   0

     iteration # 16     ecut=    60.00 Ry     beta= 0.30
     Davidson diagonalization with overlap

---- Real-time Memory Report at c_bands before calling an iterative solver
           777 MiB given to the printing process from OS
             0 MiB allocation reported by mallinfo(arena+hblkhd)
       1357615 MiB available memory on the node where the printing process lives
     GPU memory used/free/total (MiB): 1130 / 80020 / 81151
------------------
     c_bands:  1 eigenvalues not converged
     c_bands:  1 eigenvalues not converged
     c_bands:  1 eigenvalues not converged
     ethr =  4.32E-08,  avg # of iterations =  9.2

     total cpu time spent up to now is       30.3 secs

     total energy              =    -572.85521731 Ry
     estimated scf accuracy    <       0.00000979 Ry

     total magnetization       =     0.61 Bohr mag/cell
     absolute magnetization    =     0.77 Bohr mag/cell
[tb_dev] Currently allocated     3.05E-05 Mbytes, locked:    0 /   2
[tb_pin] Currently allocated     0.00E+00 Mbytes, locked:    0 /   0

     iteration # 17     ecut=    60.00 Ry     beta= 0.30
     Davidson diagonalization with overlap

---- Real-time Memory Report at c_bands before calling an iterative solver
           779 MiB given to the printing process from OS
             0 MiB allocation reported by mallinfo(arena+hblkhd)
       1355602 MiB available memory on the node where the printing process lives
     GPU memory used/free/total (MiB): 1130 / 80020 / 81151
------------------
     ethr =  2.58E-08,  avg # of iterations =  2.2

     total cpu time spent up to now is       31.9 secs

     total energy              =    -572.85522676 Ry
     estimated scf accuracy    <       0.00000396 Ry

     total magnetization       =     0.60 Bohr mag/cell
     absolute magnetization    =     0.78 Bohr mag/cell
[tb_dev] Currently allocated     3.05E-05 Mbytes, locked:    0 /   2
[tb_pin] Currently allocated     0.00E+00 Mbytes, locked:    0 /   0

     iteration # 18     ecut=    60.00 Ry     beta= 0.30
     Davidson diagonalization with overlap

---- Real-time Memory Report at c_bands before calling an iterative solver
           779 MiB given to the printing process from OS
             0 MiB allocation reported by mallinfo(arena+hblkhd)
       1354453 MiB available memory on the node where the printing process lives
     GPU memory used/free/total (MiB): 1130 / 80020 / 81151
------------------
     ethr =  1.04E-08,  avg # of iterations =  3.2

     total cpu time spent up to now is       33.5 secs

     total energy              =    -572.85523274 Ry
     estimated scf accuracy    <       0.00000288 Ry

     total magnetization       =     0.59 Bohr mag/cell
     absolute magnetization    =     0.79 Bohr mag/cell
[tb_dev] Currently allocated     3.05E-05 Mbytes, locked:    0 /   2
[tb_pin] Currently allocated     0.00E+00 Mbytes, locked:    0 /   0

     iteration # 19     ecut=    60.00 Ry     beta= 0.30
     Davidson diagonalization with overlap

---- Real-time Memory Report at c_bands before calling an iterative solver
           779 MiB given to the printing process from OS
             0 MiB allocation reported by mallinfo(arena+hblkhd)
       1353016 MiB available memory on the node where the printing process lives
     GPU memory used/free/total (MiB): 1130 / 80020 / 81151
------------------
     ethr =  7.59E-09,  avg # of iterations =  1.7

     total cpu time spent up to now is       34.9 secs

     total energy              =    -572.85524312 Ry
     estimated scf accuracy    <       0.00000166 Ry

     total magnetization       =     0.59 Bohr mag/cell
     absolute magnetization    =     0.79 Bohr mag/cell
[tb_dev] Currently allocated     3.05E-05 Mbytes, locked:    0 /   2
[tb_pin] Currently allocated     0.00E+00 Mbytes, locked:    0 /   0

     iteration # 20     ecut=    60.00 Ry     beta= 0.30
     Davidson diagonalization with overlap

---- Real-time Memory Report at c_bands before calling an iterative solver
           779 MiB given to the printing process from OS
             0 MiB allocation reported by mallinfo(arena+hblkhd)
       1351875 MiB available memory on the node where the printing process lives
     GPU memory used/free/total (MiB): 1130 / 80020 / 81151
------------------
     ethr =  4.38E-09,  avg # of iterations =  4.5

     total cpu time spent up to now is       36.6 secs

     total energy              =    -572.85526128 Ry
     estimated scf accuracy    <       0.00000093 Ry

     total magnetization       =     0.57 Bohr mag/cell
     absolute magnetization    =     0.81 Bohr mag/cell
[tb_dev] Currently allocated     3.05E-05 Mbytes, locked:    0 /   2
[tb_pin] Currently allocated     0.00E+00 Mbytes, locked:    0 /   0

     iteration # 21     ecut=    60.00 Ry     beta= 0.30
     Davidson diagonalization with overlap

---- Real-time Memory Report at c_bands before calling an iterative solver
           779 MiB given to the printing process from OS
             0 MiB allocation reported by mallinfo(arena+hblkhd)
       1350833 MiB available memory on the node where the printing process lives
     GPU memory used/free/total (MiB): 1130 / 80020 / 81151
------------------
     ethr =  2.46E-09,  avg # of iterations =  3.2

     total cpu time spent up to now is       38.2 secs

     total energy              =    -572.85527007 Ry
     estimated scf accuracy    <       0.00000090 Ry

     total magnetization       =     0.56 Bohr mag/cell
     absolute magnetization    =     0.81 Bohr mag/cell
[tb_dev] Currently allocated     3.05E-05 Mbytes, locked:    0 /   2
[tb_pin] Currently allocated     0.00E+00 Mbytes, locked:    0 /   0

     iteration # 22     ecut=    60.00 Ry     beta= 0.30
     Davidson diagonalization with overlap

---- Real-time Memory Report at c_bands before calling an iterative solver
           779 MiB given to the printing process from OS
             0 MiB allocation reported by mallinfo(arena+hblkhd)
       1348375 MiB available memory on the node where the printing process lives
     GPU memory used/free/total (MiB): 1130 / 80020 / 81151
------------------
     ethr =  2.38E-09,  avg # of iterations =  3.0

     total cpu time spent up to now is       39.7 secs

     total energy              =    -572.85525188 Ry
     estimated scf accuracy    <       0.00000085 Ry

     total magnetization       =     0.56 Bohr mag/cell
     absolute magnetization    =     0.82 Bohr mag/cell
[tb_dev] Currently allocated     3.05E-05 Mbytes, locked:    0 /   2
[tb_pin] Currently allocated     0.00E+00 Mbytes, locked:    0 /   0

     iteration # 23     ecut=    60.00 Ry     beta= 0.30
     Davidson diagonalization with overlap

---- Real-time Memory Report at c_bands before calling an iterative solver
           779 MiB given to the printing process from OS
             0 MiB allocation reported by mallinfo(arena+hblkhd)
       1345785 MiB available memory on the node where the printing process lives
     GPU memory used/free/total (MiB): 1130 / 80020 / 81151
------------------
     ethr =  2.25E-09,  avg # of iterations =  6.2

     total cpu time spent up to now is       41.7 secs

     total energy              =    -572.85530033 Ry
     estimated scf accuracy    <       0.00000058 Ry

     total magnetization       =     0.51 Bohr mag/cell
     absolute magnetization    =     0.86 Bohr mag/cell
[tb_dev] Currently allocated     3.05E-05 Mbytes, locked:    0 /   2
[tb_pin] Currently allocated     0.00E+00 Mbytes, locked:    0 /   0

     iteration # 24     ecut=    60.00 Ry     beta= 0.30
     Davidson diagonalization with overlap

---- Real-time Memory Report at c_bands before calling an iterative solver
           779 MiB given to the printing process from OS
             0 MiB allocation reported by mallinfo(arena+hblkhd)
       1341775 MiB available memory on the node where the printing process lives
     GPU memory used/free/total (MiB): 1130 / 80020 / 81151
------------------
     ethr =  1.52E-09,  avg # of iterations =  5.9

     total cpu time spent up to now is       43.7 secs

     total energy              =    -572.85533958 Ry
     estimated scf accuracy    <       0.00000026 Ry

     total magnetization       =     0.48 Bohr mag/cell
     absolute magnetization    =     0.89 Bohr mag/cell
[tb_dev] Currently allocated     3.05E-05 Mbytes, locked:    0 /   2
[tb_pin] Currently allocated     0.00E+00 Mbytes, locked:    0 /   0

     iteration # 25     ecut=    60.00 Ry     beta= 0.30
     Davidson diagonalization with overlap

---- Real-time Memory Report at c_bands before calling an iterative solver
           779 MiB given to the printing process from OS
             0 MiB allocation reported by mallinfo(arena+hblkhd)
       1359339 MiB available memory on the node where the printing process lives
     GPU memory used/free/total (MiB): 1130 / 80020 / 81151
------------------
     ethr =  6.77E-10,  avg # of iterations =  5.2
 
     Magnetic moment per site  (integrated on atomic sphere of radius R)
     atom   1 (R=0.275)  charge= 14.1128  magn=  0.5379
     atom   2 (R=0.275)  charge=  5.2205  magn=  0.0541
     atom   3 (R=0.275)  charge=  5.2371  magn=  0.0403
     atom   4 (R=0.413)  charge=  7.8262  magn= -0.0877

     total cpu time spent up to now is       45.5 secs

     End of self-consistent calculation

 ------ SPIN UP ------------


          k = 0.0000 0.0000 0.0000 (  3827 PWs)   bands (ev):

   -89.3486 -52.5741 -52.5550 -52.5550 -27.8895 -12.8803 -11.1674 -10.9925
    -9.8242  -9.8242   0.8177   1.3267   1.3267   4.1367   4.8526   4.8526
     4.8800   4.9440   4.9440   6.0964   7.7755   8.6696   8.6696   8.8768
    10.5884  10.5884  13.1736

     occupation numbers 
     1.0000   1.0000   1.0000   1.0000   1.0000   1.0000   1.0000   1.0000
     1.0000   1.0000   1.0000   1.0000   1.0000   1.0000   1.0000   1.0000
     1.0000   1.0000   1.0000   1.0784   0.0000   0.0000   0.0000   0.0000
     0.0000   0.0000   0.0000

          k = 0.0000 0.0000 0.0976 (  3838 PWs)   bands (ev):

   -89.3486 -52.5742 -52.5550 -52.5550 -27.8895 -12.8804 -11.1643 -10.9956
    -9.8242  -9.8242   0.8273   1.3266   1.3266   3.9745   4.8526   4.8526
     4.9440   4.9440   5.1242   6.0429   7.7755   8.6696   8.6696   8.7838
    10.5884  10.5884  13.4045

     occupation numbers 
     1.0000   1.0000   1.0000   1.0000   1.0000   1.0000   1.0000   1.0000
     1.0000   1.0000   1.0000   1.0000   1.0000   1.0000   1.0000   1.0000
     1.0000   1.0000   1.0000   1.0824   0.0000   0.0000   0.0000   0.0000
     0.0000   0.0000   0.0000

          k = 0.0000 0.1443 0.0000 (  3809 PWs)   bands (ev):

   -89.3479 -52.5729 -52.5627 -52.5569 -27.8031 -12.7124 -11.0946 -10.9909
   -10.2701  -9.9152   1.0001   1.1671   1.4382   3.7718   4.1786   4.5017
     5.2557   5.4156   5.5132   6.2092   7.9820   8.2480   8.5726   8.9762
     9.9543  11.1479  13.0608

     occupation numbers 
     1.0000   1.0000   1.0000   1.0000   1.0000   1.0000   1.0000   1.0000
     1.0000   1.0000   1.0000   1.0000   1.0000   1.0000   1.0000   1.0000
     1.0000   1.0000   1.0002   0.9778   0.0000   0.0000   0.0000   0.0000
     0.0000   0.0000   0.0000

          k = 0.0000 0.1443 0.0976 (  3828 PWs)   bands (ev):

   -89.3480 -52.5731 -52.5628 -52.5569 -27.8031 -12.7125 -11.0902 -10.9952
   -10.2701  -9.9152   1.0059   1.1670   1.4382   3.7740   4.1785   4.3941
     5.2420   5.5132   5.6481   6.1136   8.0107   8.1981   8.5726   8.9571
     9.9550  11.1479  12.8808

     occupation numbers 
     1.0000   1.0000   1.0000   1.0000   1.0000   1.0000   1.0000   1.0000
     1.0000   1.0000   1.0000   1.0000   1.0000   1.0000   1.0000   1.0000
     1.0000   1.0002   1.0020   1.0722   0.0000   0.0000   0.0000   0.0000
     0.0000   0.0000   0.0000

          k = 0.0000 0.2887 0.0000 (  3822 PWs)   bands (ev):

   -89.3463 -52.5815 -52.5704 -52.5614 -27.5859 -12.2719 -11.2577 -11.0378
   -10.8750 -10.1267   0.8865   1.4774   1.7047   2.4728   3.6195   4.7854
     5.3866   5.7239   5.9215   6.6364   7.4503   8.1131   8.4558   8.8245
    10.2075  12.6853  12.7248

     occupation numbers 
     1.0000   1.0000   1.0000   1.0000   1.0000   1.0000   1.0000   1.0000
     1.0000   1.0000   1.0000   1.0000   1.0000   1.0000   1.0000   1.0000
     1.0000   1.0062   1.0482   0.0774   0.0000   0.0000   0.0000   0.0000
     0.0000   0.0000   0.0000

          k = 0.0000 0.2887 0.0976 (  3809 PWs)   bands (ev):

   -89.3463 -52.5814 -52.5703 -52.5614 -27.5859 -12.2720 -11.2578 -11.0363
   -10.8763 -10.1267   0.8850   1.4801   1.7047   2.4751   3.6194   4.7744
     5.3756   5.7239   5.9586   6.5720   7.5943   7.9762   8.4559   8.8767
    10.2238  12.5878  12.6842

     occupation numbers 
     1.0000   1.0000   1.0000   1.0000   1.0000   1.0000   1.0000   1.0000
     1.0000   1.0000   1.0000   1.0000   1.0000   1.0000   1.0000   1.0000
     1.0000   1.0062   1.0610   0.1487   0.0000   0.0000   0.0000   0.0000
     0.0000   0.0000   0.0000

          k = 0.0000 0.4330 0.0000 (  3818 PWs)   bands (ev):

   -89.3446 -52.6002 -52.5676 -52.5659 -27.3552 -12.1571 -11.7414 -11.1090
   -10.6733 -10.3280   0.4379   1.4875   1.9184   2.5099   3.4320   4.3132
     5.2541   5.4840   5.7399   6.5619   7.3419   7.8614   8.4938   9.6253
    11.6820  12.8305  13.1164

     occupation numbers 
     1.0000   1.0000   1.0000   1.0000   1.0000   1.0000   1.0000   1.0000
     1.0000   1.0000   1.0000   1.0000   1.0000   1.0000   1.0000   1.0000
     1.0000   1.0001   1.0076   0.1633   0.0000   0.0000   0.0000   0.0000
     0.0000   0.0000   0.0000

          k = 0.0000 0.4330 0.0976 (  3823 PWs)   bands (ev):

   -89.3446 -52.6002 -52.5676 -52.5659 -27.3552 -12.1571 -11.7415 -11.1088
   -10.6734 -10.3280   0.4381   1.4865   1.9184   2.5116   3.4319   4.3099
     5.2557   5.4840   5.7387   6.5551   7.4510   7.7305   8.4938   9.6735
    11.6780  12.8303  13.0785

     occupation numbers 
     1.0000   1.0000   1.0000   1.0000   1.0000   1.0000   1.0000   1.0000
     1.0000   1.0000   1.0000   1.0000   1.0000   1.0000   1.0000   1.0000
     1.0000   1.0001   1.0075   0.1735   0.0000   0.0000   0.0000   0.0000
     0.0000   0.0000   0.0000

          k = 0.0000-0.5774 0.0000 (  3830 PWs)   bands (ev):

   -89.3440 -52.6080 -52.5678 -52.5665 -27.2551 -12.5114 -11.4029 -11.2443
   -10.5853 -10.4086   0.0616   1.6708   1.9646   2.6785   3.4855   4.0535
     5.0071   5.2693   5.6746   6.3102   7.1902   7.9813   8.5419  10.9866
    11.5497  12.6668  13.5780

     occupation numbers 
     1.0000   1.0000   1.0000   1.0000   1.0000   1.0000   1.0000   1.0000
     1.0000   1.0000   1.0000   1.0000   1.0000   1.0000   1.0000   1.0000
     1.0000   1.0000   1.0031   0.7631   0.0000   0.0000   0.0000   0.0000
     0.0000   0.0000   0.0000

          k = 0.0000-0.5774 0.0976 (  3834 PWs)   bands (ev):

   -89.3440 -52.6080 -52.5678 -52.5665 -27.2551 -12.5114 -11.4029 -11.2443
   -10.5853 -10.4086   0.0618   1.6700   1.9646   2.6802   3.4855   4.0475
     5.0081   5.2693   5.6769   6.3112   7.2166   7.9547   8.5419  10.9607
    11.5478  12.6666  13.6632

     occupation numbers 
     1.0000   1.0000   1.0000   1.0000   1.0000   1.0000   1.0000   1.0000
     1.0000   1.0000   1.0000   1.0000   1.0000   1.0000   1.0000   1.0000
     1.0000   1.0000   1.0032   0.7606   0.0000   0.0000   0.0000   0.0000
     0.0000   0.0000   0.0000

          k = 0.1250 0.2165 0.0000 (  3807 PWs)   bands (ev):

   -89.3468 -52.5751 -52.5711 -52.5609 -27.6509 -12.4081 -11.0330 -10.9352
   -10.9206 -10.1261   0.9770   1.3645   1.5921   2.9288   3.4845   4.8541
     5.3164   5.7977   5.9275   6.5692   7.6690   8.2909   8.3880   9.1013
     9.2784  12.3801  12.8600

     occupation numbers 
     1.0000   1.0000   1.0000   1.0000   1.0000   1.0000   1.0000   1.0000
     1.0000   1.0000   1.0000   1.0000   1.0000   1.0000   1.0000   1.0000
     1.0000   1.0154   1.0502   0.1527   0.0000   0.0000   0.0000   0.0000
     0.0000   0.0000   0.0000

          k = 0.1250 0.2165 0.0976 (  3820 PWs)   bands (ev):

   -89.3468 -52.5751 -52.5711 -52.5609 -27.6509 -12.4082 -11.0305 -10.9368
   -10.9215 -10.1261   0.9754   1.3682   1.5922   2.9311   3.4845   4.8219
     5.3162   5.7827   5.9881   6.5492   7.7633   8.1218   8.4388   9.1013
     9.3193  12.3798  12.7304

     occupation numbers 
     1.0000   1.0000   1.0000   1.0000   1.0000   1.0000   1.0000   1.0000
     1.0000   1.0000   1.0000   1.0000   1.0000   1.0000   1.0000   1.0000
     1.0000   1.0130   1.0706   0.1828   0.0000   0.0000   0.0000   0.0000
     0.0000   0.0000   0.0000

          k = 0.1250 0.3608 0.0000 (  3816 PWs)   bands (ev):

   -89.3451 -52.5919 -52.5686 -52.5671 -27.4248 -11.9242 -11.7592 -11.0658
   -10.7347 -10.4520   0.8445   1.3434   1.9237   2.4112   3.0617   4.6086
     5.3532   5.6240   5.9558   7.3217   7.5291   8.0025   8.1953   8.9734
    10.4766  12.1147  13.2854

     occupation numbers 
     1.0000   1.0000   1.0000   1.0000   1.0000   1.0000   1.0000   1.0000
     1.0000   1.0000   1.0000   1.0000   1.0000   1.0000   1.0000   1.0000
     1.0000   1.0014   1.0600   0.0000   0.0000   0.0000   0.0000   0.0000
     0.0000   0.0000   0.0000

          k = 0.1250 0.3608 0.0976 (  3805 PWs)   bands (ev):

   -89.3451 -52.5919 -52.5686 -52.5671 -27.4248 -11.9242 -11.7593 -11.0654
   -10.7349 -10.4520   0.8441   1.3432   1.9238   2.4129   3.0618   4.6078
     5.3534   5.6251   5.9549   7.2773   7.6410   7.8617   8.2522   8.9953
    10.4868  12.1108  13.2375

     occupation numbers 
     1.0000   1.0000   1.0000   1.0000   1.0000   1.0000   1.0000   1.0000
     1.0000   1.0000   1.0000   1.0000   1.0000   1.0000   1.0000   1.0000
     1.0000   1.0014   1.0597   0.0000   0.0000   0.0000   0.0000   0.0000
     0.0000   0.0000   0.0000

          k = 0.1250 0.5052 0.0000 (  3825 PWs)   bands (ev):

   -89.3440 -52.6037 -52.5720 -52.5665 -27.2563 -12.3178 -11.4815 -11.1661
   -10.6738 -10.5864   0.3461   1.3546   2.1869   2.6747   3.0164   4.0315
     5.0977   5.4021   5.8687   7.0414   7.4439   7.9553   8.2886  10.4516
    11.3854  11.5130  14.2221

     occupation numbers 
     1.0000   1.0000   1.0000   1.0000   1.0000   1.0000   1.0000   1.0000
     1.0000   1.0000   1.0000   1.0000   1.0000   1.0000   1.0000   1.0000
     1.0000   1.0000   1.0316   0.0001   0.0000   0.0000   0.0000   0.0000
     0.0000   0.0000   0.0000

          k = 0.1250 0.5052 0.0976 (  3819 PWs)   bands (ev):

   -89.3440 -52.6037 -52.5719 -52.5665 -27.2563 -12.3178 -11.4815 -11.1661
   -10.6738 -10.5864   0.3464   1.3543   2.1865   2.6760   3.0165   4.0282
     5.0982   5.4015   5.8706   7.0417   7.4733   7.9090   8.3053  10.4518
    11.3861  11.5088  14.2444

     occupation numbers 
     1.0000   1.0000   1.0000   1.0000   1.0000   1.0000   1.0000   1.0000
     1.0000   1.0000   1.0000   1.0000   1.0000   1.0000   1.0000   1.0000
     1.0000   1.0000   1.0321   0.0001   0.0000   0.0000   0.0000   0.0000
     0.0000   0.0000   0.0000

          k = 0.2500 0.4330 0.0000 (  3819 PWs)   bands (ev):

   -89.3440 -52.5979 -52.5777 -52.5665 -27.2575 -12.0360 -11.5323 -11.1158
   -11.0252 -10.5876   0.8933   1.0430   1.9639   2.6573   2.7907   4.0534
     5.1558   5.5057   6.0513   7.7362   7.9189   8.0409   8.5178   9.3311
    10.5451  11.0421  14.3422

     occupation numbers 
     1.0000   1.0000   1.0000   1.0000   1.0000   1.0000   1.0000   1.0000
     1.0000   1.0000   1.0000   1.0000   1.0000   1.0000   1.0000   1.0000
     1.0000   1.0002   1.0831   0.0000   0.0000   0.0000   0.0000   0.0000
     0.0000   0.0000   0.0000

          k = 0.2500 0.4330 0.0976 (  3817 PWs)   bands (ev):

   -89.3440 -52.5978 -52.5778 -52.5665 -27.2575 -12.0360 -11.5324 -11.1157
   -11.0253 -10.5876   0.8933   1.0430   1.9639   2.6571   2.7904   4.0539
     5.1555   5.5049   6.0549   7.6887   7.9292   8.0884   8.5147   9.3186
    10.5482  11.0375  14.3885

     occupation numbers 
     1.0000   1.0000   1.0000   1.0000   1.0000   1.0000   1.0000   1.0000
     1.0000   1.0000   1.0000   1.0000   1.0000   1.0000   1.0000   1.0000
     1.0000   1.0002   1.0832   0.0000   0.0000   0.0000   0.0000   0.0000
     0.0000   0.0000   0.0000

          k = 0.2500 0.5774 0.0000 (  3813 PWs)   bands (ev):

   -89.3435 -52.5983 -52.5841 -52.5656 -27.1863 -12.0644 -11.3529 -11.3252
   -11.1712 -10.5253   0.7466   1.1324   1.8001   2.7915   3.0235   3.6120
     4.8890   5.7007   5.9574   7.9023   7.9342   8.1747   8.5495   9.6790
    10.2168  11.5008  15.4457

     occupation numbers 
     1.0000   1.0000   1.0000   1.0000   1.0000   1.0000   1.0000   1.0000
     1.0000   1.0000   1.0000   1.0000   1.0000   1.0000   1.0000   1.0000
     1.0000   1.0045   1.0606   0.0000   0.0000   0.0000   0.0000   0.0000
     0.0000   0.0000   0.0000

          k = 0.2500 0.5774 0.0976 (  3823 PWs)   bands (ev):

   -89.3435 -52.5984 -52.5841 -52.5657 -27.1863 -12.0644 -11.3530 -11.3251
   -11.1712 -10.5253   0.7469   1.1324   1.8004   2.7908   3.0237   3.6110
     4.8891   5.7000   5.9594   7.8701   7.9232   8.2275   8.5417   9.6888
    10.2099  11.4981  15.4199

     occupation numbers 
     1.0000   1.0000   1.0000   1.0000   1.0000   1.0000   1.0000   1.0000
     1.0000   1.0000   1.0000   1.0000   1.0000   1.0000   1.0000   1.0000
     1.0000   1.0044   1.0613   0.0000   0.0000   0.0000   0.0000   0.0000
     0.0000   0.0000   0.0000

          k = 0.0000-0.1443 0.0976 (  3828 PWs)   bands (ev):

   -89.3480 -52.5731 -52.5628 -52.5569 -27.8031 -12.7125 -11.0902 -10.9952
   -10.2701  -9.9152   1.0066   1.1662   1.4382   3.7701   4.1786   4.4017
     5.2405   5.5132   5.6378   6.1284   7.9584   8.2385   8.5726   8.9628
     9.9548  11.1478  12.8953

     occupation numbers 
     1.0000   1.0000   1.0000   1.0000   1.0000   1.0000   1.0000   1.0000
     1.0000   1.0000   1.0000   1.0000   1.0000   1.0000   1.0000   1.0000
     1.0000   1.0002   1.0017   1.0645   0.0000   0.0000   0.0000   0.0000
     0.0000   0.0000   0.0000

          k = 0.0000-0.2887 0.0976 (  3809 PWs)   bands (ev):

   -89.3463 -52.5815 -52.5703 -52.5614 -27.5859 -12.2720 -11.2578 -11.0363
   -10.8763 -10.1267   0.8855   1.4786   1.7047   2.4760   3.6195   4.7745
     5.3792   5.7239   5.9322   6.6552   7.4349   8.1050   8.4558   8.8365
    10.2106  12.6782  12.6856

     occupation numbers 
     1.0000   1.0000   1.0000   1.0000   1.0000   1.0000   1.0000   1.0000
     1.0000   1.0000   1.0000   1.0000   1.0000   1.0000   1.0000   1.0000
     1.0000   1.0062   1.0519   0.0627   0.0000   0.0000   0.0000   0.0000
     0.0000   0.0000   0.0000

          k = 0.0000-0.4330 0.0976 (  3823 PWs)   bands (ev):

   -89.3446 -52.6002 -52.5676 -52.5659 -27.3552 -12.1571 -11.7415 -11.1088
   -10.6734 -10.3280   0.4379   1.4867   1.9184   2.5109   3.4320   4.3134
     5.2541   5.4840   5.7401   6.5662   7.3410   7.8629   8.4938   9.5967
    11.6792  12.8304  13.2161

     occupation numbers 
     1.0000   1.0000   1.0000   1.0000   1.0000   1.0000   1.0000   1.0000
     1.0000   1.0000   1.0000   1.0000   1.0000   1.0000   1.0000   1.0000
     1.0000   1.0001   1.0076   0.1568   0.0000   0.0000   0.0000   0.0000
     0.0000   0.0000   0.0000

          k =-0.1250-0.3608 0.0976 (  3805 PWs)   bands (ev):

   -89.3451 -52.5919 -52.5686 -52.5670 -27.4248 -11.9241 -11.7594 -11.0654
   -10.7349 -10.4520   0.8440   1.3431   1.9235   2.4135   3.0615   4.6094
     5.3530   5.6243   5.9546   7.3269   7.5205   7.9738   8.2242   8.9748
    10.4734  12.1197  13.3030

     occupation numbers 
     1.0000   1.0000   1.0000   1.0000   1.0000   1.0000   1.0000   1.0000
     1.0000   1.0000   1.0000   1.0000   1.0000   1.0000   1.0000   1.0000
     1.0000   1.0014   1.0596   0.0000   0.0000   0.0000   0.0000   0.0000
     0.0000   0.0000   0.0000

          k =-0.1250-0.5052 0.0976 (  3819 PWs)   bands (ev):

   -89.3440 -52.6037 -52.5719 -52.5665 -27.2563 -12.3178 -11.4815 -11.1661
   -10.6738 -10.5864   0.3463   1.3544   2.1869   2.6748   3.0164   4.0304
     5.0974   5.4011   5.8728   7.0460   7.4437   7.9463   8.2973  10.4247
    11.3902  11.5125  14.3292

     occupation numbers 
     1.0000   1.0000   1.0000   1.0000   1.0000   1.0000   1.0000   1.0000
     1.0000   1.0000   1.0000   1.0000   1.0000   1.0000   1.0000   1.0000
     1.0000   1.0000   1.0327   0.0001   0.0000   0.0000   0.0000   0.0000
     0.0000   0.0000   0.0000

 ------ SPIN DOWN ----------


          k = 0.0000 0.0000 0.0000 (  3827 PWs)   bands (ev):

   -88.6916 -51.9655 -51.9655 -51.8310 -27.9674 -12.8025 -11.2195 -10.9126
    -9.8993  -9.8993   1.0793   1.5258   1.5258   4.2290   4.5846   4.9964
     4.9964   5.3935   5.3935   6.8207   7.5642   8.7802   8.9490   8.9490
    10.4154  10.4154  13.2440

     occupation numbers 
     1.0000   1.0000   1.0000   1.0000   1.0000   1.0000   1.0000   1.0000
     1.0000   1.0000   1.0000   1.0000   1.0000   1.0000   1.0000   1.0000
     1.0000   1.0000   1.0000   0.0067   0.0000   0.0000   0.0000   0.0000
     0.0000   0.0000   0.0000

          k = 0.0000 0.0000 0.0976 (  3838 PWs)   bands (ev):

   -88.6916 -51.9655 -51.9655 -51.8311 -27.9674 -12.8026 -11.2177 -10.9144
    -9.8993  -9.8993   1.0922   1.5257   1.5257   3.9703   4.9020   4.9964
     4.9964   5.3935   5.3935   6.7746   7.5657   8.7064   8.9490   8.9490
    10.4154  10.4154  13.4473

     occupation numbers 
     1.0000   1.0000   1.0000   1.0000   1.0000   1.0000   1.0000   1.0000
     1.0000   1.0000   1.0000   1.0000   1.0000   1.0000   1.0000   1.0000
     1.0000   1.0000   1.0000   0.0133   0.0000   0.0000   0.0000   0.0000
     0.0000   0.0000   0.0000

          k = 0.0000 0.1443 0.0000 (  3809 PWs)   bands (ev):

   -88.6908 -51.9734 -51.9674 -51.8298 -27.8795 -12.6343 -11.1397 -10.9157
   -10.3564  -9.9917   1.2396   1.3753   1.6308   3.9438   4.4053   4.6236
     5.1358   5.7248   5.8982   6.8677   7.8058   8.4195   8.8445   8.9417
     9.7382  10.9800  13.0299

     occupation numbers 
     1.0000   1.0000   1.0000   1.0000   1.0000   1.0000   1.0000   1.0000
     1.0000   1.0000   1.0000   1.0000   1.0000   1.0000   1.0000   1.0000
     1.0000   1.0063   1.0405   0.0031   0.0000   0.0000   0.0000   0.0000
     0.0000   0.0000   0.0000

          k = 0.0000 0.1443 0.0976 (  3828 PWs)   bands (ev):

   -88.6909 -51.9735 -51.9674 -51.8299 -27.8795 -12.6344 -11.1376 -10.9178
   -10.3564  -9.9917   1.2447   1.3778   1.6308   3.9491   4.4053   4.4418
     5.3645   5.7415   5.8982   6.7990   7.8064   8.4104   8.8446   8.9308
     9.7392  10.9800  12.8499

     occupation numbers 
     1.0000   1.0000   1.0000   1.0000   1.0000   1.0000   1.0000   1.0000
     1.0000   1.0000   1.0000   1.0000   1.0000   1.0000   1.0000   1.0000
     1.0000   1.0078   1.0405   0.0093   0.0000   0.0000   0.0000   0.0000
     0.0000   0.0000   0.0000

          k = 0.0000 0.2887 0.0000 (  3822 PWs)   bands (ev):

   -88.6891 -51.9928 -51.9721 -51.8270 -27.6583 -12.1930 -11.3654 -10.9679
   -10.9090 -10.2063   1.0541   1.6927   1.8820   2.6554   3.8110   4.9392
     5.8755   6.1882   6.1955   6.7443   7.5417   8.0505   8.7104   8.7287
     9.9820  12.5329  12.6713

     occupation numbers 
     1.0000   1.0000   1.0000   1.0000   1.0000   1.0000   1.0000   1.0000
     1.0000   1.0000   1.0000   1.0000   1.0000   1.0000   1.0000   1.0000
     1.0335   1.0079   0.9981   0.0205   0.0000   0.0000   0.0000   0.0000
     0.0000   0.0000   0.0000

          k = 0.0000 0.2887 0.0976 (  3809 PWs)   bands (ev):

   -88.6891 -51.9928 -51.9720 -51.8270 -27.6583 -12.1931 -11.3654 -10.9635
   -10.9132 -10.2063   1.0524   1.6956   1.8820   2.6591   3.8110   4.9187
     5.8519   6.1882   6.2786   6.6672   7.7410   7.8356   8.7105   8.7860
    10.0068  12.5325  12.5352

     occupation numbers 
     1.0000   1.0000   1.0000   1.0000   1.0000   1.0000   1.0000   1.0000
     1.0000   1.0000   1.0000   1.0000   1.0000   1.0000   1.0000   1.0000
     1.0270   1.0079   0.8410   0.0546   0.0000   0.0000   0.0000   0.0000
     0.0000   0.0000   0.0000

          k = 0.0000 0.4330 0.0000 (  3818 PWs)   bands (ev):

   -88.6874 -52.0121 -51.9768 -51.8241 -27.4231 -12.2817 -11.6619 -11.0201
   -10.7195 -10.4104   0.5771   1.5894   2.0905   2.7787   3.5491   4.4675
     5.8737   6.0452   6.2337   6.3879   7.1848   8.1168   8.7432   9.4686
    11.4509  12.7583  13.0216

     occupation numbers 
     1.0000   1.0000   1.0000   1.0000   1.0000   1.0000   1.0000   1.0000
     1.0000   1.0000   1.0000   1.0000   1.0000   1.0000   1.0000   1.0000
     1.0330   1.0826   0.9357   0.5519   0.0000   0.0000   0.0000   0.0000
     0.0000   0.0000   0.0000

          k = 0.0000 0.4330 0.0976 (  3823 PWs)   bands (ev):

   -88.6874 -52.0121 -51.9768 -51.8241 -27.4231 -12.2817 -11.6620 -11.0198
   -10.7197 -10.4104   0.5773   1.5884   2.0905   2.7808   3.5490   4.4631
     5.8770   6.0452   6.2324   6.3803   7.2452   8.0192   8.7432   9.5333
    11.4475  12.7582  12.9833

     occupation numbers 
     1.0000   1.0000   1.0000   1.0000   1.0000   1.0000   1.0000   1.0000
     1.0000   1.0000   1.0000   1.0000   1.0000   1.0000   1.0000   1.0000
     1.0340   1.0826   0.9381   0.5728   0.0000   0.0000   0.0000   0.0000
     0.0000   0.0000   0.0000

          k = 0.0000-0.5774 0.0000 (  3830 PWs)   bands (ev):

   -88.6867 -52.0202 -51.9787 -51.8229 -27.3210 -12.6423 -11.3290 -11.1484
   -10.6296 -10.4920   0.1872   1.7422   2.1415   2.9548   3.5395   4.1825
     5.7594   5.8917   5.9904   6.2483   6.9816   8.3119   8.7933  10.9132
    11.2304  12.5921  13.4342

     occupation numbers 
     1.0000   1.0000   1.0000   1.0000   1.0000   1.0000   1.0000   1.0000
     1.0000   1.0000   1.0000   1.0000   1.0000   1.0000   1.0000   1.0000
     1.0098   1.0384   1.0712   0.9072   0.0004   0.0000   0.0000   0.0000
     0.0000   0.0000   0.0000

          k = 0.0000-0.5774 0.0976 (  3834 PWs)   bands (ev):

   -88.6867 -52.0202 -51.9787 -51.8229 -27.3210 -12.6423 -11.3290 -11.1484
   -10.6296 -10.4920   0.1875   1.7413   2.1415   2.9571   3.5395   4.1750
     5.7628   5.8917   5.9909   6.2514   6.9985   8.2921   8.7933  10.8864
    11.2307  12.5918  13.5136

     occupation numbers 
     1.0000   1.0000   1.0000   1.0000   1.0000   1.0000   1.0000   1.0000
     1.0000   1.0000   1.0000   1.0000   1.0000   1.0000   1.0000   1.0000
     1.0102   1.0384   1.0714   0.9008   0.0003   0.0000   0.0000   0.0000
     0.0000   0.0000   0.0000

          k = 0.1250 0.2165 0.0000 (  3807 PWs)   bands (ev):

   -88.6896 -51.9863 -51.9716 -51.8277 -27.7245 -12.3294 -11.0303 -11.0051
   -10.9201 -10.2066   1.1476   1.6087   1.7765   3.0864   3.6872   4.9799
     5.8614   6.0428   6.2183   6.8275   7.7648   8.3455   8.5542   8.8461
     9.1854  12.2185  12.8193

     occupation numbers 
     1.0000   1.0000   1.0000   1.0000   1.0000   1.0000   1.0000   1.0000
     1.0000   1.0000   1.0000   1.0000   1.0000   1.0000   1.0000   1.0000
     1.0296   1.0824   0.9630   0.0060   0.0000   0.0000   0.0000   0.0000
     0.0000   0.0000   0.0000

          k = 0.1250 0.2165 0.0976 (  3820 PWs)   bands (ev):

   -88.6896 -51.9863 -51.9716 -51.8278 -27.7245 -12.3296 -11.0305 -11.0015
   -10.9234 -10.2066   1.1456   1.6128   1.7770   3.0901   3.6871   4.9299
     5.8610   6.0597   6.3176   6.7518   7.8495   8.1737   8.6177   8.8462
     9.2301  12.2182  12.6914

     occupation numbers 
     1.0000   1.0000   1.0000   1.0000   1.0000   1.0000   1.0000   1.0000
     1.0000   1.0000   1.0000   1.0000   1.0000   1.0000   1.0000   1.0000
     1.0295   1.0833   0.7439   0.0185   0.0000   0.0000   0.0000   0.0000
     0.0000   0.0000   0.0000

          k = 0.1250 0.3608 0.0000 (  3816 PWs)   bands (ev):

   -88.6879 -52.0036 -51.9782 -51.8250 -27.4941 -11.8799 -11.8412 -10.9782
   -10.7817 -10.5387   0.9988   1.4720   2.0956   2.6512   3.2213   4.7559
     5.9298   6.3057   6.4715   7.0109   7.4967   8.0877   8.4037   8.8366
    10.3009  12.0005  13.2358

     occupation numbers 
     1.0000   1.0000   1.0000   1.0000   1.0000   1.0000   1.0000   1.0000
     1.0000   1.0000   1.0000   1.0000   1.0000   1.0000   1.0000   1.0000
     1.0511   0.7745   0.3358   0.0002   0.0000   0.0000   0.0000   0.0000
     0.0000   0.0000   0.0000

          k = 0.1250 0.3608 0.0976 (  3805 PWs)   bands (ev):

   -88.6879 -52.0036 -51.9781 -51.8249 -27.4941 -11.8795 -11.8417 -10.9775
   -10.7823 -10.5387   0.9983   1.4718   2.0956   2.6536   3.2214   4.7549
     5.9301   6.3063   6.4708   6.9950   7.5566   7.9655   8.4685   8.8526
    10.3160  11.9965  13.1871

     occupation numbers 
     1.0000   1.0000   1.0000   1.0000   1.0000   1.0000   1.0000   1.0000
     1.0000   1.0000   1.0000   1.0000   1.0000   1.0000   1.0000   1.0000
     1.0512   0.7732   0.3376   0.0003   0.0000   0.0000   0.0000   0.0000
     0.0000   0.0000   0.0000

          k = 0.1250 0.5052 0.0000 (  3825 PWs)   bands (ev):

   -88.6867 -52.0158 -51.9830 -51.8229 -27.3222 -12.4451 -11.4032 -11.0746
   -10.7645 -10.6308   0.4723   1.4664   2.3348   2.8855   3.1624   4.1790
     5.9012   5.9946   6.3727   6.7297   7.2501   8.2526   8.5440  10.2491
    11.1969  11.3853  14.1459

     occupation numbers 
     1.0000   1.0000   1.0000   1.0000   1.0000   1.0000   1.0000   1.0000
     1.0000   1.0000   1.0000   1.0000   1.0000   1.0000   1.0000   1.0000
     1.0415   1.0724   0.5940   0.0249   0.0000   0.0000   0.0000   0.0000
     0.0000   0.0000   0.0000

          k = 0.1250 0.5052 0.0976 (  3819 PWs)   bands (ev):

   -88.6867 -52.0158 -51.9830 -51.8229 -27.3222 -12.4451 -11.4032 -11.0745
   -10.7645 -10.6308   0.4726   1.4660   2.3343   2.8869   3.1628   4.1746
     5.9033   5.9936   6.3748   6.7304   7.2648   8.2206   8.5584  10.2508
    11.1962  11.3828  14.1669

     occupation numbers 
     1.0000   1.0000   1.0000   1.0000   1.0000   1.0000   1.0000   1.0000
     1.0000   1.0000   1.0000   1.0000   1.0000   1.0000   1.0000   1.0000
     1.0421   1.0722   0.5880   0.0247   0.0000   0.0000   0.0000   0.0000
     0.0000   0.0000   0.0000

          k = 0.2500 0.4330 0.0000 (  3819 PWs)   bands (ev):

   -88.6867 -52.0098 -51.9889 -51.8230 -27.3235 -12.1577 -11.4531 -11.1253
   -11.0249 -10.6320   1.0089   1.1849   2.0664   2.8286   3.0254   4.2045
     5.9913   6.0797   6.5269   7.5851   8.1660   8.1824   8.2945   9.0830
    10.3839  10.9470  14.2725

     occupation numbers 
     1.0000   1.0000   1.0000   1.0000   1.0000   1.0000   1.0000   1.0000
     1.0000   1.0000   1.0000   1.0000   1.0000   1.0000   1.0000   1.0000
     1.0715   1.0819   0.2209   0.0000   0.0000   0.0000   0.0000   0.0000
     0.0000   0.0000   0.0000

          k = 0.2500 0.4330 0.0976 (  3817 PWs)   bands (ev):

   -88.6867 -52.0097 -51.9890 -51.8229 -27.3235 -12.1577 -11.4532 -11.1253
   -11.0248 -10.6321   1.0090   1.1850   2.0665   2.8283   3.0249   4.2053
     5.9912   6.0782   6.5344   7.5558   8.1753   8.2254   8.2777   9.0688
    10.3874  10.9420  14.3166

     occupation numbers 
     1.0000   1.0000   1.0000   1.0000   1.0000   1.0000   1.0000   1.0000
     1.0000   1.0000   1.0000   1.0000   1.0000   1.0000   1.0000   1.0000
     1.0715   1.0822   0.2076   0.0000   0.0000   0.0000   0.0000   0.0000
     0.0000   0.0000   0.0000

          k = 0.2500 0.5774 0.0000 (  3813 PWs)   bands (ev):

   -88.6862 -52.0102 -51.9955 -51.8220 -27.2508 -12.1865 -11.4579 -11.2522
   -11.0752 -10.5683   0.8664   1.2538   1.8939   2.9532   3.2562   3.7402
     5.7835   6.2522   6.4690   7.8733   8.1473   8.2614   8.3197   9.5015
     9.9228  11.4543  15.2783

     occupation numbers 
     1.0000   1.0000   1.0000   1.0000   1.0000   1.0000   1.0000   1.0000
     1.0000   1.0000   1.0000   1.0000   1.0000   1.0000   1.0000   1.0000
     1.0131   0.8992   0.3417   0.0000   0.0000   0.0000   0.0000   0.0000
     0.0000   0.0000   0.0000

          k = 0.2500 0.5774 0.0976 (  3823 PWs)   bands (ev):

   -88.6862 -52.0103 -51.9955 -51.8221 -27.2508 -12.1865 -11.4579 -11.2522
   -11.0752 -10.5683   0.8667   1.2538   1.8942   2.9524   3.2565   3.7390
     5.7838   6.2510   6.4725   7.8405   8.1711   8.2754   8.3147   9.5139
     9.9150  11.4507  15.2468

     occupation numbers 
     1.0000   1.0000   1.0000   1.0000   1.0000   1.0000   1.0000   1.0000
     1.0000   1.0000   1.0000   1.0000   1.0000   1.0000   1.0000   1.0000
     1.0131   0.9017   0.3336   0.0000   0.0000   0.0000   0.0000   0.0000
     0.0000   0.0000   0.0000

          k = 0.0000-0.1443 0.0976 (  3828 PWs)   bands (ev):

   -88.6909 -51.9736 -51.9674 -51.8299 -27.8795 -12.6344 -11.1376 -10.9178
   -10.3564  -9.9917   1.2457   1.3768   1.6308   3.9406   4.4053   4.4587
     5.3468   5.7523   5.8982   6.8042   7.7862   8.4187   8.8446   8.9360
     9.7390  10.9800  12.8647

     occupation numbers 
     1.0000   1.0000   1.0000   1.0000   1.0000   1.0000   1.0000   1.0000
     1.0000   1.0000   1.0000   1.0000   1.0000   1.0000   1.0000   1.0000
     1.0000   1.0090   1.0405   0.0086   0.0000   0.0000   0.0000   0.0000
     0.0000   0.0000   0.0000

          k = 0.0000-0.2887 0.0976 (  3809 PWs)   bands (ev):

   -88.6891 -51.9928 -51.9720 -51.8270 -27.6583 -12.1931 -11.3655 -10.9635
   -10.9131 -10.2063   1.0528   1.6941   1.8820   2.6600   3.8110   4.9197
     5.8495   6.1882   6.2697   6.7227   7.5165   8.0553   8.7104   8.7398
     9.9876  12.5327  12.6243

     occupation numbers 
     1.0000   1.0000   1.0000   1.0000   1.0000   1.0000   1.0000   1.0000
     1.0000   1.0000   1.0000   1.0000   1.0000   1.0000   1.0000   1.0000
     1.0264   1.0079   0.8613   0.0274   0.0000   0.0000   0.0000   0.0000
     0.0000   0.0000   0.0000

          k = 0.0000-0.4330 0.0976 (  3823 PWs)   bands (ev):

   -88.6874 -52.0122 -51.9768 -51.8241 -27.4231 -12.2817 -11.6620 -11.0199
   -10.7197 -10.4104   0.5770   1.5886   2.0905   2.7797   3.5491   4.4682
     5.8758   6.0452   6.2243   6.4010   7.1801   8.1204   8.7432   9.4424
    11.4464  12.7581  13.1142

     occupation numbers 
     1.0000   1.0000   1.0000   1.0000   1.0000   1.0000   1.0000   1.0000
     1.0000   1.0000   1.0000   1.0000   1.0000   1.0000   1.0000   1.0000
     1.0336   1.0826   0.9527   0.5159   0.0000   0.0000   0.0000   0.0000
     0.0000   0.0000   0.0000

          k =-0.1250-0.3608 0.0976 (  3805 PWs)   bands (ev):

   -88.6879 -52.0036 -51.9781 -51.8249 -27.4941 -11.8793 -11.8419 -10.9776
   -10.7822 -10.5387   0.9981   1.4717   2.0953   2.6540   3.2211   4.7571
     5.9295   6.3067   6.4659   7.0207   7.4807   8.0720   8.4269   8.8372
    10.2987  12.0053  13.2508

     occupation numbers 
     1.0000   1.0000   1.0000   1.0000   1.0000   1.0000   1.0000   1.0000
     1.0000   1.0000   1.0000   1.0000   1.0000   1.0000   1.0000   1.0000
     1.0509   0.7722   0.3491   0.0002   0.0000   0.0000   0.0000   0.0000
     0.0000   0.0000   0.0000

          k =-0.1250-0.5052 0.0976 (  3819 PWs)   bands (ev):

   -88.6867 -52.0158 -51.9830 -51.8229 -27.3222 -12.4451 -11.4032 -11.0745
   -10.7646 -10.6308   0.4725   1.4661   2.3347   2.8855   3.1624   4.1776
     5.9014   5.9933   6.3795   6.7329   7.2465   8.2484   8.5503  10.2246
    11.1999  11.3838  14.2458

     occupation numbers 
     1.0000   1.0000   1.0000   1.0000   1.0000   1.0000   1.0000   1.0000
     1.0000   1.0000   1.0000   1.0000   1.0000   1.0000   1.0000   1.0000
     1.0415   1.0721   0.5751   0.0239   0.0000   0.0000   0.0000   0.0000
     0.0000   0.0000   0.0000

     the Fermi energy is     6.4448 ev

!    total energy              =    -572.85534562 Ry
     total all-electron energy =     -4291.966182 Ry
     estimated scf accuracy    <       0.00000008 Ry
     smearing contrib. (-TS)   =       0.00276002 Ry
     internal energy E=F+TS    =    -572.85810564 Ry

     The total energy is F=E-TS. E is the sum of the following terms:
     one-electron contribution =    -624.30697480 Ry
     hartree contribution      =     326.93736426 Ry
     xc contribution           =     -56.59925361 Ry
     ewald contribution        =     -56.68522208 Ry
     one-center paw contrib.   =    -162.20401941 Ry
      -> PAW hartree energy AE =     308.78291668 Ry
      -> PAW hartree energy PS =    -307.43555423 Ry
      -> PAW xc energy AE      =    -216.91423882 Ry
      -> PAW xc energy PS      =      53.36285697 Ry
      -> total E_H with PAW    =     328.28472670 Ry
      -> total E_XC with PAW   =    -220.15063546 Ry

     total magnetization       =     0.47 Bohr mag/cell
     absolute magnetization    =     0.91 Bohr mag/cell

     convergence has been achieved in  25 iterations

     Forces acting on atoms (cartesian axes, Ry/au):

     atom    1 type  1   force =     0.00000000    0.00000000    0.01489351
     atom    2 type  2   force =     0.00000000    0.00000000   -0.02780900
     atom    3 type  2   force =    -0.00000000   -0.00000000   -0.00292210
     atom    4 type  3   force =     0.00000000    0.00000000    0.01583759
     The non-local contrib.  to forces
     atom    1 type  1   force =     0.00000000    0.00000000    0.01119041
     atom    2 type  2   force =     0.00000000    0.00000000   -1.14856108
     atom    3 type  2   force =     0.00000000    0.00000000    0.91454869
     atom    4 type  3   force =     0.00000000    0.00000000    0.05931464
     The ionic contribution  to forces
     atom    1 type  1   force =    -0.00000000    0.00000000    7.47288010
     atom    2 type  2   force =     0.00000000   -0.00000000   37.27145435
     atom    3 type  2   force =    -0.00000000    0.00000000  -32.01234187
     atom    4 type  3   force =     0.00000000   -0.00000000  -12.73199258
     The local contribution  to forces
     atom    1 type  1   force =    -0.00000000   -0.00000000   -7.46815504
     atom    2 type  2   force =     0.00000001   -0.00000001  -36.16080155
     atom    3 type  2   force =    -0.00000001    0.00000001   31.10301798
     atom    4 type  3   force =     0.00000000    0.00000000   12.68953943
     The core correction contribution to forces
     atom    1 type  1   force =     0.00000000   -0.00000000   -0.00011792
     atom    2 type  2   force =    -0.00000000    0.00000000    0.01015492
     atom    3 type  2   force =     0.00000000   -0.00000000   -0.00779696
     atom    4 type  3   force =    -0.00000000    0.00000000   -0.00169647
     The Hubbard contrib.    to forces
     atom    1 type  1   force =     0.00000000    0.00000000    0.00000000
     atom    2 type  2   force =     0.00000000    0.00000000    0.00000000
     atom    3 type  2   force =     0.00000000    0.00000000    0.00000000
     atom    4 type  3   force =     0.00000000    0.00000000    0.00000000
     The SCF correction term to forces
     atom    1 type  1   force =     0.00000000   -0.00000000   -0.00093123
     atom    2 type  2   force =    -0.00000000    0.00000000   -0.00008285
     atom    3 type  2   force =     0.00000000   -0.00000000   -0.00037713
     atom    4 type  3   force =     0.00000000    0.00000000    0.00064539

     Total force =     0.035419     Total SCF correction =     0.001197

     Writing all to output data dir ./out/pw.save/ :
     XML data file, charge density, pseudopotentials, collected wavefunctions
 
     init_run     :     14.17s CPU      3.38s WALL (       1 calls)
     electrons    :    158.57s CPU     41.56s WALL (       1 calls)
     forces       :      0.63s CPU      0.59s WALL (       1 calls)

     Called by init_run:
     wfcinit      :      0.28s CPU      0.37s WALL (       1 calls)
     wfcinit:atom :      0.05s CPU      0.05s WALL (      50 calls)
     wfcinit:wfcr :      0.17s CPU      0.22s WALL (      50 calls)
     potinit      :     13.26s CPU      2.28s WALL (       1 calls)
     hinit0       :      0.53s CPU      0.55s WALL (       1 calls)

     Called by electrons:
     c_bands      :     17.67s CPU     17.69s WALL (      25 calls)
     sum_band     :      3.52s CPU      3.45s WALL (      25 calls)
     v_of_rho     :      0.43s CPU      0.23s WALL (      26 calls)
     v_h          :      0.28s CPU      0.05s WALL (      26 calls)
     v_xc         :      0.15s CPU      0.19s WALL (      27 calls)
     newd         :      0.81s CPU      0.71s WALL (      26 calls)
                                        0.71s GPU  (      26 calls)
     PAW_pot      :    140.02s CPU     19.33s WALL (      26 calls)
     mix_rho      :      0.91s CPU      0.86s WALL (      25 calls)

     Called by c_bands:
     init_us_2    :      1.12s CPU      1.06s WALL (    2600 calls)
     cegterg      :     15.36s CPU     15.45s WALL (    1250 calls)

     Called by sum_band:
     sum_band:wei :      0.03s CPU      0.03s WALL (      25 calls)
                                        0.03s GPU  (      25 calls)
     sum_band:loo :      1.91s CPU      1.83s WALL (      25 calls)
                                        1.83s GPU  (      25 calls)
     sum_band:buf :      0.25s CPU      0.28s WALL (    1250 calls)
                                        0.27s GPU  (    1250 calls)
     sum_band:ini :      0.54s CPU      0.52s WALL (    1250 calls)
                                        0.51s GPU  (    1250 calls)
     sum_band:cal :      0.05s CPU      0.08s WALL (    1250 calls)
                                        0.06s GPU  (    1250 calls)
     sum_band:bec :      0.28s CPU      0.30s WALL (    1250 calls)
                                        0.28s GPU  (    1250 calls)
     addusdens    :      1.37s CPU      1.38s WALL (      25 calls)
                                        1.38s GPU  (      25 calls)
     addusd:skk   :      0.00s CPU      0.01s WALL (      75 calls)
                                        0.00s GPU  (      75 calls)

     Called by *egterg:
     cdiaghg      :      5.16s CPU      5.35s WALL (    5992 calls)
                                        5.27s GPU  (    5992 calls)
     cegterg:over :      1.42s CPU      1.47s WALL (    4742 calls)
     cegterg:upda :      0.88s CPU      0.89s WALL (    4742 calls)
     cegterg:last :      0.16s CPU      0.16s WALL (    2355 calls)
     h_psi        :      5.58s CPU      5.63s WALL (    6042 calls)
                                        5.56s GPU  (    6042 calls)
     s_psi        :      0.92s CPU      0.98s WALL (    6042 calls)
     g_psi        :      0.02s CPU      0.12s WALL (    4742 calls)
                                        0.06s GPU  (    4742 calls)

     Called by h_psi:
     h_psi:calbec :      0.18s CPU      0.35s WALL (    6042 calls)
                                        0.27s GPU  (    6042 calls)
     vloc_psi     :      3.90s CPU      3.85s WALL (    6042 calls)
                                        3.77s GPU  (    6042 calls)
     add_vuspsi   :      0.83s CPU      1.01s WALL (    6042 calls)
                                        0.93s GPU  (    6042 calls)

     General routines
     calbec       :      0.20s CPU      0.23s WALL (    7492 calls)
     fft          :      3.72s CPU      0.66s WALL (     663 calls)
                                        0.02s GPU  (     611 calls)
     ffts         :      4.41s CPU      0.85s WALL (    1030 calls)
                                        0.03s GPU  (     978 calls)
     fftw         :      0.37s CPU      1.35s WALL (   19696 calls)
                                        1.13s GPU  (   19696 calls)
     interpolate  :      8.33s CPU      1.48s WALL (      52 calls)
 
     Parallel routines

     PAW routines
     PAW_pot      :    140.02s CPU     19.33s WALL (      26 calls)
     PAW_symme    :      0.01s CPU      0.01s WALL (      51 calls)
 
     PWSCF        :   2m54.37s CPU     46.17s WALL

 
   This run was terminated on:   5:40:18  12Jul2026            

=------------------------------------------------------------------------------=
   JOB DONE.
=------------------------------------------------------------------------------=
Warning: ieee_divide_by_zero is signaling
Warning: ieee_inexact is signaling
FORTRAN STOP
