
     Program PWSCF v.7.3.1 starts on 12Jul2026 at  2:22:58 

     This program is part of the open-source Quantum ESPRESSO suite
     for quantum simulation of materials; please cite
         "P. Giannozzi et al., J. Phys.:Condens. Matter 21 395502 (2009);
         "P. Giannozzi et al., J. Phys.:Condens. Matter 29 465901 (2017);
         "P. Giannozzi et al., J. Chem. Phys. 152 154105 (2020);
          URL http://www.quantum-espresso.org", 
     in publications or presentations arising from this work. More details at
     http://www.quantum-espresso.org/quote

     Parallel version (MPI & OpenMP), running on      14 processor cores
     Number of MPI processes:                 1
     Threads/MPI process:                    14

     MPI processes distributed on     1 nodes
     847615 MiB available memory on the printing compute node when the environment starts
 
     Reading input from pw.in

     Current dimensions of program PWSCF are:
     Max number of different atomic species (ntypx) = 10
     Max number of k-points (npk) =  40000
     Max angular momentum in pseudopotentials (lmaxx) =  4
     file Co.pbe-spn-kjpaw_psl.0.3.1.UPF: wavefunction(s)  3P 3D renormalized
     file O.pbe-n-kjpaw_psl.1.0.0.UPF: wavefunction(s)  2S 2P renormalized
     file Na.pbe-spn-kjpaw_psl.1.0.0.UPF: wavefunction(s)  2P renormalized
 
     Subspace diagonalization in iterative solution of the eigenvalue problem:
     a serial algorithm will be used

 
     G-vector sticks info
     --------------------
     sticks:   dense  smooth     PW     G-vecs:    dense   smooth      PW
     Sum        2941    1483    421               218019    77149   11513
 
     Using Slab Decomposition
 


     bravais-lattice index     =            4
     lattice parameter (alat)  =       9.4527  a.u.
     unit-cell volume          =    1228.3501 (a.u.)^3
     number of atoms/cell      =           10
     number of atomic types    =            3
     number of electrons       =        96.00
     number of Kohn-Sham states=           64
     kinetic-energy cutoff     =      60.0000  Ry
     charge density cutoff     =     480.0000  Ry
     scf convergence threshold =      1.0E-08
     mixing beta               =       0.3000
     number of iterations used =            8  plain     mixing
     Exchange-correlation= SLA  PW   PBX  PBC
                           (   1   4   3   4   0   0   0)

     GPU acceleration is ACTIVE.  1 visible GPUs per MPI rank
     GPU-aware MPI enabled


     GPU used by master process:

        Device Number: 0
        Device name: NVIDIA A100-SXM4-80GB
        Compute capability : 80
        Ratio of single to double precision performance  : 2
        Memory Clock Rate (KHz): 1593000
        Memory Bus Width (bits): 5120
        Peak Memory Bandwidth (GB/s): ******

     celldm(1)=   9.452718  celldm(2)=   0.000000  celldm(3)=   1.679274
     celldm(4)=   0.000000  celldm(5)=   0.000000  celldm(6)=   0.000000

     crystal axes: (cart. coord. in units of alat)
               a(1) = (   1.000000   0.000000   0.000000 )  
               a(2) = (  -0.500000   0.866025   0.000000 )  
               a(3) = (   0.000000   0.000000   1.679274 )  

     reciprocal axes: (cart. coord. in units 2 pi/alat)
               b(1) = (  1.000000  0.577350 -0.000000 )  
               b(2) = (  0.000000  1.154701  0.000000 )  
               b(3) = (  0.000000 -0.000000  0.595496 )  


     PseudoPot. # 1 for Co read from file:
     ../../pseudo/Co.pbe-spn-kjpaw_psl.0.3.1.UPF
     MD5 check sum: 3c0a43779828c046024e4f3be63f8e67
     Pseudo is Projector augmented-wave + core cor, Zval = 17.0
     Generated using &quot;atomic&quot; code by A. Dal Corso  v.6.2.2
     Shape of augmentation charge: PSQ
     Using radial grid of 1193 points,  6 beta functions with: 
                l(1) =   0
                l(2) =   0
                l(3) =   1
                l(4) =   1
                l(5) =   2
                l(6) =   2
     Q(r) pseudized with 0 coefficients 


     PseudoPot. # 2 for O  read from file:
     ../../pseudo/O.pbe-n-kjpaw_psl.1.0.0.UPF
     MD5 check sum: e99d9cef9b487d1ca56f5b95ecd0fd7a
     Pseudo is Projector augmented-wave + core cor, Zval =  6.0
     Generated using &quot;atomic&quot; code by A. Dal Corso  v.6.3
     Shape of augmentation charge: PSQ
     Using radial grid of 1095 points,  4 beta functions with: 
                l(1) =   0
                l(2) =   0
                l(3) =   1
                l(4) =   1
     Q(r) pseudized with 0 coefficients 


     PseudoPot. # 3 for Na read from file:
     ../../pseudo/Na.pbe-spn-kjpaw_psl.1.0.0.UPF
     MD5 check sum: 05b4deb74e3932c23ab016979dc8b5d4
     Pseudo is Projector augmented-wave + core cor, Zval =  9.0
     Generated using &quot;atomic&quot; code by A. Dal Corso  v.6.3
     Shape of augmentation charge: PSQ
     Using radial grid of 1121 points,  4 beta functions with: 
                l(1) =   0
                l(2) =   0
                l(3) =   1
                l(4) =   1
     Q(r) pseudized with 0 coefficients 


     atomic species   valence    mass     pseudopotential
     Co               17.00    58.93300     Co( 1.00)
     O                 6.00    15.99900     O ( 1.00)
     Na                9.00    22.98977     Na( 1.00)

     Starting magnetic structure 
     atomic species   magnetization
     Co              0.300
     O               0.000
     Na              0.000

      6 Sym. Ops. (no inversion) found ( 4 have fractional translation)


                                    s                        frac. trans.

      isym =  1     identity                                     

 cryst.   s( 1) = (     1          0          0      )
                  (     0          1          0      )
                  (     0          0          1      )

 cart.    s( 1) = (  1.0000000  0.0000000  0.0000000 )
                  (  0.0000000  1.0000000  0.0000000 )
                  (  0.0000000  0.0000000  1.0000000 )


      isym =  2     120 deg rotation - cryst. axis [0,0,1]       

 cryst.   s( 2) = (     0          1          0      )    f =(  0.3333333 )
                  (    -1         -1          0      )       ( -0.3333333 )
                  (     0          0          1      )       (  0.0000000 )

 cart.    s( 2) = ( -0.5000000 -0.8660254  0.0000000 )    f =(  0.5000000 )
                  (  0.8660254 -0.5000000  0.0000000 )       ( -0.2886751 )
                  (  0.0000000  0.0000000  1.0000000 )       (  0.0000000 )


      isym =  3     120 deg rotation - cryst. axis [0,0,-1]      

 cryst.   s( 3) = (    -1         -1          0      )    f =( -0.3333333 )
                  (     1          0          0      )       (  0.3333333 )
                  (     0          0          1      )       (  0.0000000 )

 cart.    s( 3) = ( -0.5000000  0.8660254  0.0000000 )    f =( -0.5000000 )
                  ( -0.8660254 -0.5000000  0.0000000 )       (  0.2886751 )
                  (  0.0000000  0.0000000  1.0000000 )       (  0.0000000 )


      isym =  4     inv. 180 deg rotation - cart. axis [0,1,0]   

 cryst.   s( 4) = (     1          0          0      )    f =( -0.3333333 )
                  (    -1         -1          0      )       (  0.3333333 )
                  (     0          0          1      )       (  0.0000000 )

 cart.    s( 4) = (  1.0000000  0.0000000  0.0000000 )    f =( -0.5000000 )
                  (  0.0000000 -1.0000000  0.0000000 )       (  0.2886751 )
                  (  0.0000000  0.0000000  1.0000000 )       (  0.0000000 )


      isym =  5     inv. 180 deg rotation - cryst. axis [1,-1,0] 

 cryst.   s( 5) = (     0          1          0      )
                  (     1          0          0      )
                  (     0          0          1      )

 cart.    s( 5) = ( -0.5000000  0.8660254  0.0000000 )
                  (  0.8660254  0.5000000  0.0000000 )
                  (  0.0000000  0.0000000  1.0000000 )


      isym =  6     inv. 180 deg rotation - cryst. axis [2,1,0]  

 cryst.   s( 6) = (    -1         -1          0      )    f =(  0.3333333 )
                  (     0          1          0      )       ( -0.3333333 )
                  (     0          0          1      )       (  0.0000000 )

 cart.    s( 6) = ( -0.5000000 -0.8660254  0.0000000 )    f =(  0.5000000 )
                  ( -0.8660254  0.5000000  0.0000000 )       ( -0.2886751 )
                  (  0.0000000  0.0000000  1.0000000 )       (  0.0000000 )


     point group C_3v (3m)  
     there are  3 classes
     the character table:

       E     2C3   3s_v 
A_1    1.00  1.00  1.00
A_2    1.00  1.00 -1.00
E      2.00 -1.00  0.00

     the symmetry operations in each class and the name of the first element:

     E        1
          identity                                               
     2C3      2    3
          120 deg rotation - cryst. axis [0,0,1]                 
     3s_v     4    6    5
          inv. 180 deg rotation - cart. axis [0,1,0]             

   Cartesian axes

     site n.     atom                  positions (alat units)
         1        Co     tau(   1) = (   0.0000000   0.0000000   0.0000000  )
         2        Co     tau(   2) = (  -0.0000000   0.5773503   0.0000000  )
         3        Co     tau(   3) = (   0.5000000   0.2886751   0.0000000  )
         4        O      tau(   4) = (   0.1666667   0.2886751   0.1919170  )
         5        O      tau(   5) = (   0.6666667   0.0000000   0.1919170  )
         6        O      tau(   6) = (  -0.3333333   0.5773503   0.1919170  )
         7        O      tau(   7) = (   0.3333333   0.0000000   1.4873567  )
         8        O      tau(   8) = (   0.3333333   0.5773503   1.4873567  )
         9        O      tau(   9) = (  -0.1666667   0.2886751   1.4873567  )
        10        Na     tau(  10) = (   0.1666667   0.2886751   0.8396368  )

   Crystallographic axes

     site n.     atom                  positions (cryst. coord.)
         1        Co     tau(   1) = (  0.0000000  0.0000000  0.0000000  )
         2        Co     tau(   2) = (  0.3333333  0.6666667  0.0000000  )
         3        Co     tau(   3) = (  0.6666667  0.3333333  0.0000000  )
         4        O      tau(   4) = (  0.3333333  0.3333333  0.1142857  )
         5        O      tau(   5) = (  0.6666667  0.0000000  0.1142857  )
         6        O      tau(   6) = (  0.0000000  0.6666667  0.1142857  )
         7        O      tau(   7) = (  0.3333333  0.0000000  0.8857143  )
         8        O      tau(   8) = (  0.6666667  0.6666667  0.8857143  )
         9        O      tau(   9) = ( -0.0000000  0.3333333  0.8857143  )
        10        Na     tau(  10) = (  0.3333333  0.3333333  0.5000000  )

     number of k points=    17  Marzari-Vanderbilt smearing, width (Ry)=  0.0200
                       cart. coord. in units 2pi/alat
        k(    1) = (   0.0000000   0.0000000   0.0000000), wk =   0.0092593
        k(    2) = (   0.0000000   0.0000000   0.1984985), wk =   0.0185185
        k(    3) = (   0.0000000   0.1924501   0.0000000), wk =   0.0555556
        k(    4) = (   0.0000000   0.1924501   0.1984985), wk =   0.1111111
        k(    5) = (   0.0000000   0.3849002   0.0000000), wk =   0.0555556
        k(    6) = (   0.0000000   0.3849002   0.1984985), wk =   0.1111111
        k(    7) = (   0.0000000  -0.5773503   0.0000000), wk =   0.0277778
        k(    8) = (   0.0000000  -0.5773503   0.1984985), wk =   0.0555556
        k(    9) = (   0.1666667   0.2886751   0.0000000), wk =   0.0555556
        k(   10) = (   0.1666667   0.2886751   0.1984985), wk =   0.0555556
        k(   11) = (   0.1666667   0.4811252   0.0000000), wk =   0.1111111
        k(   12) = (   0.1666667   0.4811252   0.1984985), wk =   0.1111111
        k(   13) = (   0.3333333   0.5773503   0.0000000), wk =   0.0185185
        k(   14) = (   0.3333333   0.5773503   0.1984985), wk =   0.0185185
        k(   15) = (  -0.1666667  -0.2886751   0.1984985), wk =   0.0555556
        k(   16) = (  -0.1666667  -0.4811252   0.1984985), wk =   0.1111111
        k(   17) = (  -0.3333333  -0.5773503   0.1984985), wk =   0.0185185

                       cryst. coord.
        k(    1) = (   0.0000000   0.0000000   0.0000000), wk =   0.0092593
        k(    2) = (   0.0000000   0.0000000   0.3333333), wk =   0.0185185
        k(    3) = (   0.0000000   0.1666667   0.0000000), wk =   0.0555556
        k(    4) = (   0.0000000   0.1666667   0.3333333), wk =   0.1111111
        k(    5) = (   0.0000000   0.3333333   0.0000000), wk =   0.0555556
        k(    6) = (   0.0000000   0.3333333   0.3333333), wk =   0.1111111
        k(    7) = (   0.0000000  -0.5000000   0.0000000), wk =   0.0277778
        k(    8) = (   0.0000000  -0.5000000   0.3333333), wk =   0.0555556
        k(    9) = (   0.1666667   0.1666667   0.0000000), wk =   0.0555556
        k(   10) = (   0.1666667   0.1666667   0.3333333), wk =   0.0555556
        k(   11) = (   0.1666667   0.3333333   0.0000000), wk =   0.1111111
        k(   12) = (   0.1666667   0.3333333   0.3333333), wk =   0.1111111
        k(   13) = (   0.3333333   0.3333333   0.0000000), wk =   0.0185185
        k(   14) = (   0.3333333   0.3333333   0.3333333), wk =   0.0185185
        k(   15) = (  -0.1666667  -0.1666667   0.3333333), wk =   0.0555556
        k(   16) = (  -0.1666667  -0.3333333   0.3333333), wk =   0.1111111
        k(   17) = (  -0.3333333  -0.3333333   0.3333333), wk =   0.0185185

     Dense  grid:   218019 G-vectors     FFT dimensions: (  72,  72, 120)

     Smooth grid:    77149 G-vectors     FFT dimensions: (  48,  48,  80)

     Dynamical RAM for                 wfc:       9.41 MB

     Dynamical RAM for     wfc (w. buffer):     329.49 MB

     Dynamical RAM for           str. fact:       9.98 MB

     Dynamical RAM for           local pot:       0.00 MB

     Dynamical RAM for          nlocal pot:      16.18 MB

     Dynamical RAM for                qrad:       5.27 MB

     Dynamical RAM for          rho,v,vnew:      48.44 MB

     Dynamical RAM for               rhoin:      16.15 MB

     Dynamical RAM for            rho*nmix:     106.45 MB

     Dynamical RAM for           G-vectors:      13.06 MB

     Dynamical RAM for          h,s,v(r/c):       0.75 MB

     Dynamical RAM for          <psi|beta>:       0.11 MB

     Dynamical RAM for                 psi:      18.83 MB

     Dynamical RAM for                hpsi:      18.83 MB

     Dynamical RAM for                spsi:      18.83 MB

     Dynamical RAM for      wfcinit/wfcrot:      18.92 MB

     Dynamical RAM for           addusdens:     642.05 MB

     Dynamical RAM for          addusforce:     675.37 MB

     Estimated static dynamical RAM per process >     480.36 MB

     Estimated max dynamical RAM per process >       1.23 GB

     Check: negative core charge=   -0.000007
     Generating pointlists ...
     new r_m :   0.1587 (alat units)  1.4998 (a.u.) for type    1
     new r_m :   0.1587 (alat units)  1.4998 (a.u.) for type    2
     new r_m :   0.2672 (alat units)  2.5256 (a.u.) for type    3

     Initial potential from superposition of free atoms

     starting charge      95.9928, renormalised to      96.0000
     Starting wfcs are   59 randomized atomic wfcs +    5 random wfcs
     Checking if some PAW data can be deallocated... 

     total cpu time spent up to now is        5.8 secs

     Self-consistent Calculation
[tb_dev] Currently allocated     9.94E-01 Mbytes, locked:    0 /   6
[tb_pin] Currently allocated     0.00E+00 Mbytes, locked:    0 /   0

     iteration #  1     ecut=    60.00 Ry     beta= 0.30
     Davidson diagonalization with overlap

---- Real-time Memory Report at c_bands before calling an iterative solver
          1058 MiB given to the printing process from OS
             0 MiB allocation reported by mallinfo(arena+hblkhd)
        846819 MiB available memory on the node where the printing process lives
     GPU memory used/free/total (MiB): 1768 / 79382 / 81151
------------------
     ethr =  1.00E-02,  avg # of iterations = 10.2

     total cpu time spent up to now is        9.8 secs

     total energy              =   -1486.67152301 Ry
     estimated scf accuracy    <       6.22242130 Ry

     total magnetization       =    14.00 Bohr mag/cell
     absolute magnetization    =    14.00 Bohr mag/cell
[tb_dev] Currently allocated     7.63E-05 Mbytes, locked:    0 /   2
[tb_pin] Currently allocated     0.00E+00 Mbytes, locked:    0 /   0

     iteration #  2     ecut=    60.00 Ry     beta= 0.30
     Davidson diagonalization with overlap

---- Real-time Memory Report at c_bands before calling an iterative solver
          1113 MiB given to the printing process from OS
             0 MiB allocation reported by mallinfo(arena+hblkhd)
        846780 MiB available memory on the node where the printing process lives
     GPU memory used/free/total (MiB): 1868 / 79282 / 81151
------------------
     ethr =  6.48E-03,  avg # of iterations =  2.2

     total cpu time spent up to now is       12.5 secs

     total energy              =   -1487.40437429 Ry
     estimated scf accuracy    <      17.37787126 Ry

     total magnetization       =     1.66 Bohr mag/cell
     absolute magnetization    =     1.93 Bohr mag/cell
[tb_dev] Currently allocated     7.63E-05 Mbytes, locked:    0 /   2
[tb_pin] Currently allocated     0.00E+00 Mbytes, locked:    0 /   0

     iteration #  3     ecut=    60.00 Ry     beta= 0.30
     Davidson diagonalization with overlap

---- Real-time Memory Report at c_bands before calling an iterative solver
          1124 MiB given to the printing process from OS
             0 MiB allocation reported by mallinfo(arena+hblkhd)
        846807 MiB available memory on the node where the printing process lives
     GPU memory used/free/total (MiB): 1868 / 79282 / 81151
------------------
     ethr =  6.48E-03,  avg # of iterations =  1.1

     total cpu time spent up to now is       15.0 secs

     total energy              =   -1488.75693953 Ry
     estimated scf accuracy    <       0.41429986 Ry

     total magnetization       =     8.43 Bohr mag/cell
     absolute magnetization    =     8.44 Bohr mag/cell
[tb_dev] Currently allocated     7.63E-05 Mbytes, locked:    0 /   2
[tb_pin] Currently allocated     0.00E+00 Mbytes, locked:    0 /   0

     iteration #  4     ecut=    60.00 Ry     beta= 0.30
     Davidson diagonalization with overlap

---- Real-time Memory Report at c_bands before calling an iterative solver
          1136 MiB given to the printing process from OS
             0 MiB allocation reported by mallinfo(arena+hblkhd)
        847409 MiB available memory on the node where the printing process lives
     GPU memory used/free/total (MiB): 1868 / 79282 / 81151
------------------
     c_bands:  2 eigenvalues not converged
     ethr =  4.32E-04,  avg # of iterations = 10.2

     total cpu time spent up to now is       18.9 secs

     total energy              =   -1488.93184325 Ry
     estimated scf accuracy    <       1.02306221 Ry

     total magnetization       =     4.50 Bohr mag/cell
     absolute magnetization    =     5.21 Bohr mag/cell
[tb_dev] Currently allocated     7.63E-05 Mbytes, locked:    0 /   2
[tb_pin] Currently allocated     0.00E+00 Mbytes, locked:    0 /   0

     iteration #  5     ecut=    60.00 Ry     beta= 0.30
     Davidson diagonalization with overlap

---- Real-time Memory Report at c_bands before calling an iterative solver
          1150 MiB given to the printing process from OS
             0 MiB allocation reported by mallinfo(arena+hblkhd)
        846991 MiB available memory on the node where the printing process lives
     GPU memory used/free/total (MiB): 1868 / 79282 / 81151
------------------
     ethr =  4.32E-04,  avg # of iterations =  2.0

     total cpu time spent up to now is       21.5 secs

     total energy              =   -1489.05388112 Ry
     estimated scf accuracy    <       0.29448882 Ry

     total magnetization       =     4.69 Bohr mag/cell
     absolute magnetization    =     5.37 Bohr mag/cell
[tb_dev] Currently allocated     7.63E-05 Mbytes, locked:    0 /   2
[tb_pin] Currently allocated     0.00E+00 Mbytes, locked:    0 /   0

     iteration #  6     ecut=    60.00 Ry     beta= 0.30
     Davidson diagonalization with overlap

---- Real-time Memory Report at c_bands before calling an iterative solver
          1156 MiB given to the printing process from OS
             0 MiB allocation reported by mallinfo(arena+hblkhd)
        846517 MiB available memory on the node where the printing process lives
     GPU memory used/free/total (MiB): 1868 / 79282 / 81151
------------------
     c_bands:  1 eigenvalues not converged
     ethr =  3.07E-04,  avg # of iterations =  4.3

     negative rho (up, down):  2.105E-03 3.736E-03

     total cpu time spent up to now is       24.5 secs

     total energy              =   -1489.18222270 Ry
     estimated scf accuracy    <       0.17942089 Ry

     total magnetization       =     2.17 Bohr mag/cell
     absolute magnetization    =     3.51 Bohr mag/cell
[tb_dev] Currently allocated     7.63E-05 Mbytes, locked:    0 /   2
[tb_pin] Currently allocated     0.00E+00 Mbytes, locked:    0 /   0

     iteration #  7     ecut=    60.00 Ry     beta= 0.30
     Davidson diagonalization with overlap

---- Real-time Memory Report at c_bands before calling an iterative solver
          1161 MiB given to the printing process from OS
             0 MiB allocation reported by mallinfo(arena+hblkhd)
        846439 MiB available memory on the node where the printing process lives
     GPU memory used/free/total (MiB): 1868 / 79282 / 81151
------------------
     c_bands:  1 eigenvalues not converged
     ethr =  1.87E-04,  avg # of iterations =  5.5

     total cpu time spent up to now is       27.6 secs

     total energy              =   -1489.17245374 Ry
     estimated scf accuracy    <       0.04337961 Ry

     total magnetization       =     2.35 Bohr mag/cell
     absolute magnetization    =     2.74 Bohr mag/cell
[tb_dev] Currently allocated     7.63E-05 Mbytes, locked:    0 /   2
[tb_pin] Currently allocated     0.00E+00 Mbytes, locked:    0 /   0

     iteration #  8     ecut=    60.00 Ry     beta= 0.30
     Davidson diagonalization with overlap

---- Real-time Memory Report at c_bands before calling an iterative solver
          1167 MiB given to the printing process from OS
             0 MiB allocation reported by mallinfo(arena+hblkhd)
        846464 MiB available memory on the node where the printing process lives
     GPU memory used/free/total (MiB): 1868 / 79282 / 81151
------------------
     c_bands:  1 eigenvalues not converged
     c_bands:  1 eigenvalues not converged
     c_bands:  1 eigenvalues not converged
     c_bands:  2 eigenvalues not converged
     c_bands:  1 eigenvalues not converged
     ethr =  4.52E-05,  avg # of iterations = 11.6

     total cpu time spent up to now is       31.9 secs

     total energy              =   -1489.19177952 Ry
     estimated scf accuracy    <       0.12297968 Ry

     total magnetization       =     2.00 Bohr mag/cell
     absolute magnetization    =     2.84 Bohr mag/cell
[tb_dev] Currently allocated     7.63E-05 Mbytes, locked:    0 /   2
[tb_pin] Currently allocated     0.00E+00 Mbytes, locked:    0 /   0

     iteration #  9     ecut=    60.00 Ry     beta= 0.30
     Davidson diagonalization with overlap

---- Real-time Memory Report at c_bands before calling an iterative solver
          1171 MiB given to the printing process from OS
             0 MiB allocation reported by mallinfo(arena+hblkhd)
        846450 MiB available memory on the node where the printing process lives
     GPU memory used/free/total (MiB): 1868 / 79282 / 81151
------------------
     ethr =  4.52E-05,  avg # of iterations =  1.4

     total cpu time spent up to now is       34.5 secs

     total energy              =   -1489.21344822 Ry
     estimated scf accuracy    <       0.08765263 Ry

     total magnetization       =     2.00 Bohr mag/cell
     absolute magnetization    =     2.67 Bohr mag/cell
[tb_dev] Currently allocated     7.63E-05 Mbytes, locked:    0 /   2
[tb_pin] Currently allocated     0.00E+00 Mbytes, locked:    0 /   0

     iteration # 10     ecut=    60.00 Ry     beta= 0.30
     Davidson diagonalization with overlap

---- Real-time Memory Report at c_bands before calling an iterative solver
          1181 MiB given to the printing process from OS
             0 MiB allocation reported by mallinfo(arena+hblkhd)
        846470 MiB available memory on the node where the printing process lives
     GPU memory used/free/total (MiB): 1868 / 79282 / 81151
------------------
     ethr =  4.52E-05,  avg # of iterations =  1.7

     total cpu time spent up to now is       37.0 secs

     total energy              =   -1489.21495996 Ry
     estimated scf accuracy    <       0.02313895 Ry

     total magnetization       =     2.22 Bohr mag/cell
     absolute magnetization    =     2.37 Bohr mag/cell
[tb_dev] Currently allocated     7.63E-05 Mbytes, locked:    0 /   2
[tb_pin] Currently allocated     0.00E+00 Mbytes, locked:    0 /   0

     iteration # 11     ecut=    60.00 Ry     beta= 0.30
     Davidson diagonalization with overlap

---- Real-time Memory Report at c_bands before calling an iterative solver
          1181 MiB given to the printing process from OS
             0 MiB allocation reported by mallinfo(arena+hblkhd)
        846467 MiB available memory on the node where the printing process lives
     GPU memory used/free/total (MiB): 1868 / 79282 / 81151
------------------
     ethr =  2.41E-05,  avg # of iterations =  2.6

     total cpu time spent up to now is       39.8 secs

     total energy              =   -1489.21614402 Ry
     estimated scf accuracy    <       0.00335902 Ry

     total magnetization       =     2.37 Bohr mag/cell
     absolute magnetization    =     2.44 Bohr mag/cell
[tb_dev] Currently allocated     7.63E-05 Mbytes, locked:    0 /   2
[tb_pin] Currently allocated     0.00E+00 Mbytes, locked:    0 /   0

     iteration # 12     ecut=    60.00 Ry     beta= 0.30
     Davidson diagonalization with overlap

---- Real-time Memory Report at c_bands before calling an iterative solver
          1181 MiB given to the printing process from OS
             0 MiB allocation reported by mallinfo(arena+hblkhd)
        846412 MiB available memory on the node where the printing process lives
     GPU memory used/free/total (MiB): 1868 / 79282 / 81151
------------------
     c_bands:  1 eigenvalues not converged
     c_bands:  2 eigenvalues not converged
     c_bands:  1 eigenvalues not converged
     c_bands:  2 eigenvalues not converged
     ethr =  3.50E-06,  avg # of iterations =  9.7

     total cpu time spent up to now is       43.9 secs

     total energy              =   -1489.21773340 Ry
     estimated scf accuracy    <       0.00172170 Ry

     total magnetization       =     2.33 Bohr mag/cell
     absolute magnetization    =     2.39 Bohr mag/cell
[tb_dev] Currently allocated     7.63E-05 Mbytes, locked:    0 /   2
[tb_pin] Currently allocated     0.00E+00 Mbytes, locked:    0 /   0

     iteration # 13     ecut=    60.00 Ry     beta= 0.30
     Davidson diagonalization with overlap

---- Real-time Memory Report at c_bands before calling an iterative solver
          1181 MiB given to the printing process from OS
             0 MiB allocation reported by mallinfo(arena+hblkhd)
        846711 MiB available memory on the node where the printing process lives
     GPU memory used/free/total (MiB): 1868 / 79282 / 81151
------------------
     c_bands:  1 eigenvalues not converged
     ethr =  1.79E-06,  avg # of iterations =  7.1

     total cpu time spent up to now is       47.5 secs

     total energy              =   -1489.21857415 Ry
     estimated scf accuracy    <       0.00176135 Ry

     total magnetization       =     2.38 Bohr mag/cell
     absolute magnetization    =     2.41 Bohr mag/cell
[tb_dev] Currently allocated     7.63E-05 Mbytes, locked:    0 /   2
[tb_pin] Currently allocated     0.00E+00 Mbytes, locked:    0 /   0

     iteration # 14     ecut=    60.00 Ry     beta= 0.30
     Davidson diagonalization with overlap

---- Real-time Memory Report at c_bands before calling an iterative solver
          1181 MiB given to the printing process from OS
             0 MiB allocation reported by mallinfo(arena+hblkhd)
        846606 MiB available memory on the node where the printing process lives
     GPU memory used/free/total (MiB): 1868 / 79282 / 81151
------------------
     ethr =  1.79E-06,  avg # of iterations =  1.9

     total cpu time spent up to now is       50.1 secs

     total energy              =   -1489.21883680 Ry
     estimated scf accuracy    <       0.00096535 Ry

     total magnetization       =     2.36 Bohr mag/cell
     absolute magnetization    =     2.39 Bohr mag/cell
[tb_dev] Currently allocated     7.63E-05 Mbytes, locked:    0 /   2
[tb_pin] Currently allocated     0.00E+00 Mbytes, locked:    0 /   0

     iteration # 15     ecut=    60.00 Ry     beta= 0.30
     Davidson diagonalization with overlap

---- Real-time Memory Report at c_bands before calling an iterative solver
          1181 MiB given to the printing process from OS
             0 MiB allocation reported by mallinfo(arena+hblkhd)
        846081 MiB available memory on the node where the printing process lives
     GPU memory used/free/total (MiB): 1868 / 79282 / 81151
------------------
     ethr =  1.01E-06,  avg # of iterations =  2.9

     total cpu time spent up to now is       53.0 secs

     total energy              =   -1489.21896988 Ry
     estimated scf accuracy    <       0.00011501 Ry

     total magnetization       =     2.28 Bohr mag/cell
     absolute magnetization    =     2.32 Bohr mag/cell
[tb_dev] Currently allocated     7.63E-05 Mbytes, locked:    0 /   2
[tb_pin] Currently allocated     0.00E+00 Mbytes, locked:    0 /   0

     iteration # 16     ecut=    60.00 Ry     beta= 0.30
     Davidson diagonalization with overlap

---- Real-time Memory Report at c_bands before calling an iterative solver
          1183 MiB given to the printing process from OS
             0 MiB allocation reported by mallinfo(arena+hblkhd)
        846040 MiB available memory on the node where the printing process lives
     GPU memory used/free/total (MiB): 1868 / 79282 / 81151
------------------
     ethr =  1.20E-07,  avg # of iterations =  6.9

     total cpu time spent up to now is       56.5 secs

     total energy              =   -1489.21899213 Ry
     estimated scf accuracy    <       0.00005644 Ry

     total magnetization       =     2.29 Bohr mag/cell
     absolute magnetization    =     2.33 Bohr mag/cell
[tb_dev] Currently allocated     7.63E-05 Mbytes, locked:    0 /   2
[tb_pin] Currently allocated     0.00E+00 Mbytes, locked:    0 /   0

     iteration # 17     ecut=    60.00 Ry     beta= 0.30
     Davidson diagonalization with overlap

---- Real-time Memory Report at c_bands before calling an iterative solver
          1183 MiB given to the printing process from OS
             0 MiB allocation reported by mallinfo(arena+hblkhd)
        846018 MiB available memory on the node where the printing process lives
     GPU memory used/free/total (MiB): 1868 / 79282 / 81151
------------------
     ethr =  5.88E-08,  avg # of iterations =  5.7

     total cpu time spent up to now is       59.8 secs

     total energy              =   -1489.21901758 Ry
     estimated scf accuracy    <       0.00002459 Ry

     total magnetization       =     2.29 Bohr mag/cell
     absolute magnetization    =     2.33 Bohr mag/cell
[tb_dev] Currently allocated     7.63E-05 Mbytes, locked:    0 /   2
[tb_pin] Currently allocated     0.00E+00 Mbytes, locked:    0 /   0

     iteration # 18     ecut=    60.00 Ry     beta= 0.30
     Davidson diagonalization with overlap

---- Real-time Memory Report at c_bands before calling an iterative solver
          1183 MiB given to the printing process from OS
             0 MiB allocation reported by mallinfo(arena+hblkhd)
        846027 MiB available memory on the node where the printing process lives
     GPU memory used/free/total (MiB): 1868 / 79282 / 81151
------------------
     ethr =  2.56E-08,  avg # of iterations =  3.2

     total cpu time spent up to now is       62.7 secs

     total energy              =   -1489.21902155 Ry
     estimated scf accuracy    <       0.00001150 Ry

     total magnetization       =     2.29 Bohr mag/cell
     absolute magnetization    =     2.33 Bohr mag/cell
[tb_dev] Currently allocated     7.63E-05 Mbytes, locked:    0 /   2
[tb_pin] Currently allocated     0.00E+00 Mbytes, locked:    0 /   0

     iteration # 19     ecut=    60.00 Ry     beta= 0.30
     Davidson diagonalization with overlap

---- Real-time Memory Report at c_bands before calling an iterative solver
          1183 MiB given to the printing process from OS
             0 MiB allocation reported by mallinfo(arena+hblkhd)
        846048 MiB available memory on the node where the printing process lives
     GPU memory used/free/total (MiB): 1868 / 79282 / 81151
------------------
     ethr =  1.20E-08,  avg # of iterations =  4.3

     total cpu time spent up to now is       65.7 secs

     total energy              =   -1489.21901452 Ry
     estimated scf accuracy    <       0.00001265 Ry

     total magnetization       =     2.29 Bohr mag/cell
     absolute magnetization    =     2.33 Bohr mag/cell
[tb_dev] Currently allocated     7.63E-05 Mbytes, locked:    0 /   2
[tb_pin] Currently allocated     0.00E+00 Mbytes, locked:    0 /   0

     iteration # 20     ecut=    60.00 Ry     beta= 0.30
     Davidson diagonalization with overlap

---- Real-time Memory Report at c_bands before calling an iterative solver
          1183 MiB given to the printing process from OS
             0 MiB allocation reported by mallinfo(arena+hblkhd)
        846016 MiB available memory on the node where the printing process lives
     GPU memory used/free/total (MiB): 1868 / 79282 / 81151
------------------
     ethr =  1.20E-08,  avg # of iterations =  6.0

     total cpu time spent up to now is       69.2 secs

     total energy              =   -1489.21901943 Ry
     estimated scf accuracy    <       0.00000471 Ry

     total magnetization       =     2.29 Bohr mag/cell
     absolute magnetization    =     2.33 Bohr mag/cell
[tb_dev] Currently allocated     7.63E-05 Mbytes, locked:    0 /   2
[tb_pin] Currently allocated     0.00E+00 Mbytes, locked:    0 /   0

     iteration # 21     ecut=    60.00 Ry     beta= 0.30
     Davidson diagonalization with overlap

---- Real-time Memory Report at c_bands before calling an iterative solver
          1183 MiB given to the printing process from OS
             0 MiB allocation reported by mallinfo(arena+hblkhd)
        846018 MiB available memory on the node where the printing process lives
     GPU memory used/free/total (MiB): 1868 / 79282 / 81151
------------------
     ethr =  4.90E-09,  avg # of iterations =  4.0

     total cpu time spent up to now is       72.2 secs

     total energy              =   -1489.21902006 Ry
     estimated scf accuracy    <       0.00000046 Ry

     total magnetization       =     2.29 Bohr mag/cell
     absolute magnetization    =     2.33 Bohr mag/cell
[tb_dev] Currently allocated     7.63E-05 Mbytes, locked:    0 /   2
[tb_pin] Currently allocated     0.00E+00 Mbytes, locked:    0 /   0

     iteration # 22     ecut=    60.00 Ry     beta= 0.30
     Davidson diagonalization with overlap

---- Real-time Memory Report at c_bands before calling an iterative solver
          1183 MiB given to the printing process from OS
             0 MiB allocation reported by mallinfo(arena+hblkhd)
        846048 MiB available memory on the node where the printing process lives
     GPU memory used/free/total (MiB): 1868 / 79282 / 81151
------------------
     ethr =  4.83E-10,  avg # of iterations =  8.8

     total cpu time spent up to now is       76.1 secs

     total energy              =   -1489.21902049 Ry
     estimated scf accuracy    <       0.00000003 Ry

     total magnetization       =     2.29 Bohr mag/cell
     absolute magnetization    =     2.33 Bohr mag/cell
[tb_dev] Currently allocated     7.63E-05 Mbytes, locked:    0 /   2
[tb_pin] Currently allocated     0.00E+00 Mbytes, locked:    0 /   0

     iteration # 23     ecut=    60.00 Ry     beta= 0.30
     Davidson diagonalization with overlap

---- Real-time Memory Report at c_bands before calling an iterative solver
          1183 MiB given to the printing process from OS
             0 MiB allocation reported by mallinfo(arena+hblkhd)
        845944 MiB available memory on the node where the printing process lives
     GPU memory used/free/total (MiB): 1868 / 79282 / 81151
------------------
     ethr =  3.00E-11,  avg # of iterations =  9.7

     total cpu time spent up to now is       80.2 secs

     total energy              =   -1489.21902048 Ry
     estimated scf accuracy    <       0.00000013 Ry

     total magnetization       =     2.29 Bohr mag/cell
     absolute magnetization    =     2.33 Bohr mag/cell
[tb_dev] Currently allocated     7.63E-05 Mbytes, locked:    0 /   2
[tb_pin] Currently allocated     0.00E+00 Mbytes, locked:    0 /   0

     iteration # 24     ecut=    60.00 Ry     beta= 0.30
     Davidson diagonalization with overlap

---- Real-time Memory Report at c_bands before calling an iterative solver
          1183 MiB given to the printing process from OS
             0 MiB allocation reported by mallinfo(arena+hblkhd)
        845933 MiB available memory on the node where the printing process lives
     GPU memory used/free/total (MiB): 1868 / 79282 / 81151
------------------
     ethr =  3.00E-11,  avg # of iterations =  5.9
 
     Magnetic moment per site  (integrated on atomic sphere of radius R)
     atom   1 (R=0.159)  charge= 14.0973  magn=  0.5903
     atom   2 (R=0.159)  charge= 14.0973  magn=  0.5903
     atom   3 (R=0.159)  charge= 14.0973  magn=  0.5903
     atom   4 (R=0.159)  charge=  5.2252  magn=  0.0447
     atom   5 (R=0.159)  charge=  5.2191  magn=  0.0606
     atom   6 (R=0.159)  charge=  5.2191  magn=  0.0606
     atom   7 (R=0.159)  charge=  5.2210  magn=  0.0551
     atom   8 (R=0.159)  charge=  5.2210  magn=  0.0551
     atom   9 (R=0.159)  charge=  5.2210  magn=  0.0551
     atom  10 (R=0.267)  charge=  8.0226  magn=  0.0048

     total cpu time spent up to now is       83.6 secs

     End of self-consistent calculation

 ------ SPIN UP ------------


          k = 0.0000 0.0000 0.0000 (  9645 PWs)   bands (ev):

   -92.1270 -92.1214 -92.1214 -55.3738 -55.3698 -55.3698 -55.3652 -55.3504
   -55.3431 -55.3431 -55.3289 -55.3289 -50.9148 -22.8406 -22.8406 -22.7585
   -15.6085 -13.9533 -13.9335 -13.9335 -13.9174 -13.7053  -1.8919  -1.6886
    -1.6765  -1.6765  -1.6656  -1.4178  -1.4178  -1.2664  -1.2664   0.2852
     0.3203   0.3203   0.3471   0.7040   0.7040   1.5881   2.0669   2.0669
     2.0916   2.0916   2.2761   2.2761   3.1375   3.1429   3.1429   3.1449
     3.2088   4.3203   5.2363   5.2471   5.2471   5.2601   5.9922   5.9922
     8.5927  10.8726  10.9748  10.9748  12.0883  12.0883  12.5967  13.1441

     occupation numbers 
     1.0000   1.0000   1.0000   1.0000   1.0000   1.0000   1.0000   1.0000
     1.0000   1.0000   1.0000   1.0000   1.0000   1.0000   1.0000   1.0000
     1.0000   1.0000   1.0000   1.0000   1.0000   1.0000   1.0000   1.0000
     1.0000   1.0000   1.0000   1.0000   1.0000   1.0000   1.0000   1.0000
     1.0000   1.0000   1.0000   1.0000   1.0000   1.0000   1.0000   1.0000
     1.0000   1.0000   1.0000   1.0000   1.0213   1.0225   1.0225   1.0229
     1.0407   0.0002   0.0000   0.0000   0.0000   0.0000   0.0000   0.0000
     0.0000   0.0000   0.0000   0.0000   0.0000   0.0000   0.0000   0.0000

          k = 0.0000 0.0000 0.1985 (  9645 PWs)   bands (ev):

   -92.1270 -92.1214 -92.1214 -55.3738 -55.3697 -55.3697 -55.3652 -55.3505
   -55.3431 -55.3431 -55.3289 -55.3289 -50.9148 -22.8406 -22.8406 -22.7586
   -15.6085 -13.9533 -13.9335 -13.9335 -13.9174 -13.7054  -1.8818  -1.6890
    -1.6766  -1.6766  -1.6657  -1.4178  -1.4178  -1.2662  -1.2662   0.2855
     0.3205   0.3205   0.3473   0.7035   0.7035   1.4958   2.0669   2.0669
     2.0916   2.0916   2.2760   2.2760   3.1382   3.1426   3.1426   3.1446
     3.2917   4.4320   5.2360   5.2492   5.2492   5.2615   5.9923   5.9923
     8.1151  10.9615  10.9615  11.7693  12.0708  12.0708  12.5596  13.1113

     occupation numbers 
     1.0000   1.0000   1.0000   1.0000   1.0000   1.0000   1.0000   1.0000
     1.0000   1.0000   1.0000   1.0000   1.0000   1.0000   1.0000   1.0000
     1.0000   1.0000   1.0000   1.0000   1.0000   1.0000   1.0000   1.0000
     1.0000   1.0000   1.0000   1.0000   1.0000   1.0000   1.0000   1.0000
     1.0000   1.0000   1.0000   1.0000   1.0000   1.0000   1.0000   1.0000
     1.0000   1.0000   1.0000   1.0000   1.0215   1.0224   1.0224   1.0229
     1.0687   0.0000   0.0000   0.0000   0.0000   0.0000   0.0000   0.0000
     0.0000   0.0000   0.0000   0.0000   0.0000   0.0000   0.0000   0.0000

          k = 0.0000 0.1925 0.0000 (  9638 PWs)   bands (ev):

   -92.1266 -92.1217 -92.1216 -55.3797 -55.3747 -55.3614 -55.3576 -55.3491
   -55.3439 -55.3435 -55.3331 -55.3299 -50.9148 -22.8407 -22.8406 -22.7586
   -15.5056 -14.0862 -13.9974 -13.9250 -13.8621 -13.7081  -2.1058  -1.8439
    -1.7711  -1.6916  -1.5640  -1.5276  -1.3498  -0.8916  -0.7050  -0.0081
     0.0642   0.1782   0.2733   1.0067   1.0807   1.4276   1.5165   1.8586
     2.1479   2.2140   2.4926   2.6946   2.8872   2.9006   3.2337   3.2660
     3.3016   4.5379   5.2347   5.2671   5.2915   5.3452   5.7063   5.9231
     8.7809   9.5142  10.4089  11.2369  11.3541  12.8559  13.0682  13.7867

     occupation numbers 
     1.0000   1.0000   1.0000   1.0000   1.0000   1.0000   1.0000   1.0000
     1.0000   1.0000   1.0000   1.0000   1.0000   1.0000   1.0000   1.0000
     1.0000   1.0000   1.0000   1.0000   1.0000   1.0000   1.0000   1.0000
     1.0000   1.0000   1.0000   1.0000   1.0000   1.0000   1.0000   1.0000
     1.0000   1.0000   1.0000   1.0000   1.0000   1.0000   1.0000   1.0000
     1.0000   1.0000   1.0000   1.0000   1.0006   1.0008   1.0490   1.0602
     1.0717   0.0000   0.0000   0.0000   0.0000   0.0000   0.0000   0.0000
     0.0000   0.0000   0.0000   0.0000   0.0000   0.0000   0.0000   0.0000

          k = 0.0000 0.1925 0.1985 (  9664 PWs)   bands (ev):

   -92.1266 -92.1217 -92.1216 -55.3798 -55.3748 -55.3614 -55.3576 -55.3491
   -55.3439 -55.3436 -55.3332 -55.3299 -50.9148 -22.8409 -22.8407 -22.7586
   -15.5056 -14.0862 -13.9974 -13.9250 -13.8621 -13.7082  -2.1061  -1.8440
    -1.7617  -1.6920  -1.5643  -1.5288  -1.3498  -0.8915  -0.7050  -0.0082
     0.0637   0.1794   0.2733   1.0074   1.0806   1.4283   1.5035   1.7910
     2.1479   2.2140   2.4926   2.6921   2.8877   2.9010   3.2328   3.3000
     3.3422   4.6129   5.2376   5.2681   5.2909   5.3469   5.7357   5.9201
     8.3703   9.4860  10.3863  11.2989  12.0985  12.9334  13.0537  13.5257

     occupation numbers 
     1.0000   1.0000   1.0000   1.0000   1.0000   1.0000   1.0000   1.0000
     1.0000   1.0000   1.0000   1.0000   1.0000   1.0000   1.0000   1.0000
     1.0000   1.0000   1.0000   1.0000   1.0000   1.0000   1.0000   1.0000
     1.0000   1.0000   1.0000   1.0000   1.0000   1.0000   1.0000   1.0000
     1.0000   1.0000   1.0000   1.0000   1.0000   1.0000   1.0000   1.0000
     1.0000   1.0000   1.0000   1.0000   1.0006   1.0008   1.0487   1.0712
     1.0811   0.0000   0.0000   0.0000   0.0000   0.0000   0.0000   0.0000
     0.0000   0.0000   0.0000   0.0000   0.0000   0.0000   0.0000   0.0000

          k = 0.0000 0.3849 0.0000 (  9664 PWs)   bands (ev):

   -92.1254 -92.1225 -92.1219 -55.3847 -55.3733 -55.3525 -55.3515 -55.3489
   -55.3451 -55.3444 -55.3399 -55.3330 -50.9148 -22.8410 -22.8408 -22.7587
   -15.2192 -14.4003 -14.0417 -13.9706 -13.7990 -13.7197  -2.5217  -1.7335
    -1.7154  -1.6750  -1.4472  -1.3039  -1.1879  -0.6931  -0.4405  -0.1435
    -0.0961   0.0108   0.4258   0.4476   0.9095   1.2876   1.6541   2.1949
     2.2428   2.5623   2.6250   2.6375   2.6708   3.0475   3.0885   3.2909
     3.3528   5.0703   5.2016   5.2228   5.2745   5.2823   5.6675   5.7608
     7.7580   9.2800   9.8636  10.6797  11.4015  12.2405  13.2035  13.9356

     occupation numbers 
     1.0000   1.0000   1.0000   1.0000   1.0000   1.0000   1.0000   1.0000
     1.0000   1.0000   1.0000   1.0000   1.0000   1.0000   1.0000   1.0000
     1.0000   1.0000   1.0000   1.0000   1.0000   1.0000   1.0000   1.0000
     1.0000   1.0000   1.0000   1.0000   1.0000   1.0000   1.0000   1.0000
     1.0000   1.0000   1.0000   1.0000   1.0000   1.0000   1.0000   1.0000
     1.0000   1.0000   1.0000   1.0000   1.0000   1.0074   1.0124   1.0684
     1.0824   0.0000   0.0000   0.0000   0.0000   0.0000   0.0000   0.0000
     0.0000   0.0000   0.0000   0.0000   0.0000   0.0000   0.0000   0.0000

          k = 0.0000 0.3849 0.1985 (  9643 PWs)   bands (ev):

   -92.1254 -92.1225 -92.1219 -55.3847 -55.3733 -55.3525 -55.3515 -55.3488
   -55.3450 -55.3444 -55.3399 -55.3329 -50.9148 -22.8409 -22.8408 -22.7586
   -15.2192 -14.4003 -14.0417 -13.9707 -13.7990 -13.7198  -2.5219  -1.7351
    -1.7173  -1.6752  -1.4402  -1.3043  -1.1879  -0.6930  -0.4407  -0.1401
    -0.0958   0.0104   0.4261   0.4495   0.9094   1.2900   1.6535   2.1516
     2.2422   2.5624   2.6258   2.6378   2.6719   3.0380   3.0875   3.3290
     3.3483   4.9331   5.2069   5.2676   5.2831   5.4737   5.6688   5.7257
     7.7495   9.0299   9.8324  10.6561  11.4202  12.9049  13.3911  13.9454

     occupation numbers 
     1.0000   1.0000   1.0000   1.0000   1.0000   1.0000   1.0000   1.0000
     1.0000   1.0000   1.0000   1.0000   1.0000   1.0000   1.0000   1.0000
     1.0000   1.0000   1.0000   1.0000   1.0000   1.0000   1.0000   1.0000
     1.0000   1.0000   1.0000   1.0000   1.0000   1.0000   1.0000   1.0000
     1.0000   1.0000   1.0000   1.0000   1.0000   1.0000   1.0000   1.0000
     1.0000   1.0000   1.0000   1.0000   1.0000   1.0065   1.0122   1.0787
     1.0819   0.0000   0.0000   0.0000   0.0000   0.0000   0.0000   0.0000
     0.0000   0.0000   0.0000   0.0000   0.0000   0.0000   0.0000   0.0000

          k = 0.0000-0.5774 0.0000 (  9656 PWs)   bands (ev):

   -92.1239 -92.1239 -92.1220 -55.3866 -55.3656 -55.3606 -55.3486 -55.3474
   -55.3465 -55.3437 -55.3381 -55.3362 -50.9148 -22.8412 -22.8408 -22.7586
   -14.8252 -14.8067 -14.0574 -13.9958 -13.7590 -13.7398  -2.6732  -1.7904
    -1.7782  -1.2869  -1.2821  -1.0251  -0.9575  -0.9267  -0.7738  -0.2278
    -0.2158  -0.0534   0.3458   0.3533   0.8053   1.3859   2.1411   2.1594
     2.2462   2.5065   2.5824   2.5896   2.9432   3.0659   3.0892   3.2514
     3.2680   5.0521   5.0724   5.2600   5.3097   5.4074   5.8680   6.0166
     6.6317   9.6726   9.8127  10.4566  10.5323  12.9723  13.4148  13.6473

     occupation numbers 
     1.0000   1.0000   1.0000   1.0000   1.0000   1.0000   1.0000   1.0000
     1.0000   1.0000   1.0000   1.0000   1.0000   1.0000   1.0000   1.0000
     1.0000   1.0000   1.0000   1.0000   1.0000   1.0000   1.0000   1.0000
     1.0000   1.0000   1.0000   1.0000   1.0000   1.0000   1.0000   1.0000
     1.0000   1.0000   1.0000   1.0000   1.0000   1.0000   1.0000   1.0000
     1.0000   1.0000   1.0000   1.0000   1.0016   1.0094   1.0125   1.0551
     1.0609   0.0000   0.0000   0.0000   0.0000   0.0000   0.0000   0.0000
     0.0000   0.0000   0.0000   0.0000   0.0000   0.0000   0.0000   0.0000

          k = 0.0000-0.5774 0.1985 (  9638 PWs)   bands (ev):

   -92.1239 -92.1239 -92.1220 -55.3867 -55.3656 -55.3605 -55.3485 -55.3474
   -55.3465 -55.3437 -55.3380 -55.3362 -50.9148 -22.8411 -22.8408 -22.7585
   -14.8252 -14.8067 -14.0574 -13.9958 -13.7590 -13.7398  -2.6734  -1.7931
    -1.7797  -1.2860  -1.2817  -1.0257  -0.9548  -0.9252  -0.7739  -0.2232
    -0.2130  -0.0533   0.3457   0.3532   0.8053   1.3894   2.1305   2.1540
     2.2459   2.5065   2.5827   2.5904   2.9425   3.0774   3.0956   3.2365
     3.2598   4.9576   5.0319   5.2663   5.4033   5.4390   5.8680   6.0468
     6.6707   9.6389   9.7244  10.4293  10.4394  13.1779  13.6878  13.8485

     occupation numbers 
     1.0000   1.0000   1.0000   1.0000   1.0000   1.0000   1.0000   1.0000
     1.0000   1.0000   1.0000   1.0000   1.0000   1.0000   1.0000   1.0000
     1.0000   1.0000   1.0000   1.0000   1.0000   1.0000   1.0000   1.0000
     1.0000   1.0000   1.0000   1.0000   1.0000   1.0000   1.0000   1.0000
     1.0000   1.0000   1.0000   1.0000   1.0000   1.0000   1.0000   1.0000
     1.0000   1.0000   1.0000   1.0000   1.0016   1.0108   1.0134   1.0500
     1.0580   0.0000   0.0000   0.0000   0.0000   0.0000   0.0000   0.0000
     0.0000   0.0000   0.0000   0.0000   0.0000   0.0000   0.0000   0.0000

          k = 0.1667 0.2887 0.0000 (  9639 PWs)   bands (ev):

   -92.1258 -92.1220 -92.1220 -55.3815 -55.3772 -55.3540 -55.3526 -55.3472
   -55.3457 -55.3442 -55.3390 -55.3317 -50.9148 -22.8409 -22.8407 -22.7586
   -15.3110 -14.2073 -14.1893 -13.8650 -13.8460 -13.7156  -2.1893  -2.1791
    -1.6863  -1.5404  -1.4896  -1.4804  -1.2225  -0.5576  -0.5512  -0.0550
    -0.0352   0.1278   0.1459   0.5936   1.2407   1.3369   1.3610   2.0630
     2.3721   2.3747   2.5887   2.7079   2.7083   2.9276   3.2470   3.2503
     3.3068   4.8850   5.2095   5.2211   5.3187   5.4641   5.4739   5.8426
     8.5570   8.9979   9.1216  11.9116  12.0016  12.2329  12.5931  12.8831

     occupation numbers 
     1.0000   1.0000   1.0000   1.0000   1.0000   1.0000   1.0000   1.0000
     1.0000   1.0000   1.0000   1.0000   1.0000   1.0000   1.0000   1.0000
     1.0000   1.0000   1.0000   1.0000   1.0000   1.0000   1.0000   1.0000
     1.0000   1.0000   1.0000   1.0000   1.0000   1.0000   1.0000   1.0000
     1.0000   1.0000   1.0000   1.0000   1.0000   1.0000   1.0000   1.0000
     1.0000   1.0000   1.0000   1.0000   1.0000   1.0012   1.0536   1.0548
     1.0731   0.0000   0.0000   0.0000   0.0000   0.0000   0.0000   0.0000
     0.0000   0.0000   0.0000   0.0000   0.0000   0.0000   0.0000   0.0000

          k = 0.1667 0.2887 0.1985 (  9642 PWs)   bands (ev):

   -92.1258 -92.1220 -92.1220 -55.3815 -55.3771 -55.3540 -55.3526 -55.3472
   -55.3457 -55.3442 -55.3390 -55.3317 -50.9148 -22.8409 -22.8407 -22.7586
   -15.3109 -14.2072 -14.1893 -13.8651 -13.8460 -13.7157  -2.1896  -2.1793
    -1.6891  -1.5321  -1.4901  -1.4807  -1.2225  -0.5580  -0.5514  -0.0533
    -0.0342   0.1277   0.1458   0.5957   1.2406   1.3385   1.3619   2.0142
     2.3721   2.3747   2.5750   2.7085   2.7086   2.9276   3.2454   3.2493
     3.3609   4.8002   5.2033   5.2179   5.4630   5.4768   5.5059   5.8426
     8.5478   8.7911   8.9916  11.9861  12.2075  12.6126  12.6617  12.8804

     occupation numbers 
     1.0000   1.0000   1.0000   1.0000   1.0000   1.0000   1.0000   1.0000
     1.0000   1.0000   1.0000   1.0000   1.0000   1.0000   1.0000   1.0000
     1.0000   1.0000   1.0000   1.0000   1.0000   1.0000   1.0000   1.0000
     1.0000   1.0000   1.0000   1.0000   1.0000   1.0000   1.0000   1.0000
     1.0000   1.0000   1.0000   1.0000   1.0000   1.0000   1.0000   1.0000
     1.0000   1.0000   1.0000   1.0000   1.0000   1.0012   1.0531   1.0544
     1.0831   0.0000   0.0000   0.0000   0.0000   0.0000   0.0000   0.0000
     0.0000   0.0000   0.0000   0.0000   0.0000   0.0000   0.0000   0.0000

          k = 0.1667 0.4811 0.0000 (  9636 PWs)   bands (ev):

   -92.1244 -92.1230 -92.1223 -55.3828 -55.3723 -55.3589 -55.3487 -55.3479
   -55.3455 -55.3440 -55.3385 -55.3345 -50.9148 -22.8410 -22.8408 -22.7586
   -14.9667 -14.5587 -14.2709 -13.8674 -13.7847 -13.7366  -2.4535  -1.9733
    -1.8273  -1.3794  -1.2305  -1.2175  -1.0344  -0.7633  -0.7178  -0.2866
    -0.2299  -0.0865   0.3832   0.6387   0.7930   1.4683   1.8380   2.1593
     2.4115   2.6024   2.6146   2.6415   2.8138   3.0283   3.0558   3.2182
     3.2316   4.8816   5.0245   5.1708   5.5509   5.6461   5.7841   5.8530
     7.1665   8.4183   9.7025  10.9222  11.9526  12.1357  13.0157  14.1899

     occupation numbers 
     1.0000   1.0000   1.0000   1.0000   1.0000   1.0000   1.0000   1.0000
     1.0000   1.0000   1.0000   1.0000   1.0000   1.0000   1.0000   1.0000
     1.0000   1.0000   1.0000   1.0000   1.0000   1.0000   1.0000   1.0000
     1.0000   1.0000   1.0000   1.0000   1.0000   1.0000   1.0000   1.0000
     1.0000   1.0000   1.0000   1.0000   1.0000   1.0000   1.0000   1.0000
     1.0000   1.0000   1.0000   1.0000   1.0002   1.0057   1.0083   1.0438
     1.0483   0.0000   0.0000   0.0000   0.0000   0.0000   0.0000   0.0000
     0.0000   0.0000   0.0000   0.0000   0.0000   0.0000   0.0000   0.0000

          k = 0.1667 0.4811 0.1985 (  9621 PWs)   bands (ev):

   -92.1244 -92.1230 -92.1223 -55.3827 -55.3723 -55.3588 -55.3486 -55.3479
   -55.3454 -55.3440 -55.3385 -55.3345 -50.9148 -22.8410 -22.8408 -22.7585
   -14.9667 -14.5587 -14.2709 -13.8674 -13.7847 -13.7367  -2.4538  -1.9745
    -1.8298  -1.3797  -1.2269  -1.2179  -1.0337  -0.7629  -0.7180  -0.2828
    -0.2270  -0.0853   0.3833   0.6387   0.7931   1.4714   1.8379   2.1489
     2.4113   2.6023   2.6144   2.6334   2.8154   3.0279   3.0513   3.2219
     3.2459   4.7715   4.9941   5.1608   5.5783   5.7131   5.7874   5.9406
     7.2109   8.4373   9.5095  10.8286  11.9413  12.0558  13.6012  14.3404

     occupation numbers 
     1.0000   1.0000   1.0000   1.0000   1.0000   1.0000   1.0000   1.0000
     1.0000   1.0000   1.0000   1.0000   1.0000   1.0000   1.0000   1.0000
     1.0000   1.0000   1.0000   1.0000   1.0000   1.0000   1.0000   1.0000
     1.0000   1.0000   1.0000   1.0000   1.0000   1.0000   1.0000   1.0000
     1.0000   1.0000   1.0000   1.0000   1.0000   1.0000   1.0000   1.0000
     1.0000   1.0000   1.0000   1.0000   1.0002   1.0057   1.0078   1.0451
     1.0532   0.0000   0.0000   0.0000   0.0000   0.0000   0.0000   0.0000
     0.0000   0.0000   0.0000   0.0000   0.0000   0.0000   0.0000   0.0000

          k = 0.3333 0.5774 0.0000 (  9594 PWs)   bands (ev):

   -92.1233 -92.1233 -92.1233 -55.3748 -55.3748 -55.3678 -55.3470 -55.3470
   -55.3452 -55.3446 -55.3358 -55.3358 -50.9148 -22.8409 -22.8409 -22.7584
   -14.6368 -14.6094 -14.6094 -13.8019 -13.7728 -13.7728  -2.0978  -2.0771
    -2.0771  -1.2313  -1.2235  -1.2235  -0.8710  -0.8710  -0.8613  -0.3947
    -0.3424  -0.3424   0.7371   0.7371   0.7466   1.8239   1.8528   1.8528
     2.5965   2.6072   2.6072   2.8539   2.8579   2.8579   3.0653   3.0887
     3.0887   4.8877   4.9544   4.9544   5.7898   5.7898   5.8016   6.3177
     7.2024   7.2024  10.0537  11.0138  11.0138  13.7627  13.8901  13.8901

     occupation numbers 
     1.0000   1.0000   1.0000   1.0000   1.0000   1.0000   1.0000   1.0000
     1.0000   1.0000   1.0000   1.0000   1.0000   1.0000   1.0000   1.0000
     1.0000   1.0000   1.0000   1.0000   1.0000   1.0000   1.0000   1.0000
     1.0000   1.0000   1.0000   1.0000   1.0000   1.0000   1.0000   1.0000
     1.0000   1.0000   1.0000   1.0000   1.0000   1.0000   1.0000   1.0000
     1.0000   1.0000   1.0000   1.0003   1.0004   1.0004   1.0093   1.0124
     1.0124   0.0000   0.0000   0.0000   0.0000   0.0000   0.0000   0.0000
     0.0000   0.0000   0.0000   0.0000   0.0000   0.0000   0.0000   0.0000

          k = 0.3333 0.5774 0.1985 (  9648 PWs)   bands (ev):

   -92.1233 -92.1233 -92.1233 -55.3749 -55.3749 -55.3679 -55.3470 -55.3470
   -55.3452 -55.3447 -55.3358 -55.3358 -50.9148 -22.8410 -22.8410 -22.7586
   -14.6367 -14.6094 -14.6094 -13.8020 -13.7729 -13.7729  -2.0998  -2.0779
    -2.0779  -1.2316  -1.2238  -1.2238  -0.8710  -0.8710  -0.8613  -0.3886
    -0.3394  -0.3394   0.7371   0.7371   0.7466   1.8248   1.8532   1.8532
     2.5928   2.6055   2.6055   2.8539   2.8579   2.8579   3.0721   3.0920
     3.0920   4.8105   4.9225   4.9225   5.7897   5.7897   5.8015   6.4381
     7.2709   7.2709   9.9282  10.8810  10.8810  13.8942  13.8942  14.1163

     occupation numbers 
     1.0000   1.0000   1.0000   1.0000   1.0000   1.0000   1.0000   1.0000
     1.0000   1.0000   1.0000   1.0000   1.0000   1.0000   1.0000   1.0000
     1.0000   1.0000   1.0000   1.0000   1.0000   1.0000   1.0000   1.0000
     1.0000   1.0000   1.0000   1.0000   1.0000   1.0000   1.0000   1.0000
     1.0000   1.0000   1.0000   1.0000   1.0000   1.0000   1.0000   1.0000
     1.0000   1.0000   1.0000   1.0003   1.0004   1.0004   1.0102   1.0129
     1.0129   0.0000   0.0000   0.0000   0.0000   0.0000   0.0000   0.0000
     0.0000   0.0000   0.0000   0.0000   0.0000   0.0000   0.0000   0.0000

          k =-0.1667-0.2887 0.1985 (  9642 PWs)   bands (ev):

   -92.1258 -92.1220 -92.1220 -55.3815 -55.3771 -55.3540 -55.3526 -55.3472
   -55.3457 -55.3442 -55.3390 -55.3317 -50.9148 -22.8409 -22.8407 -22.7586
   -15.3109 -14.2072 -14.1893 -13.8651 -13.8460 -13.7157  -2.1897  -2.1793
    -1.6870  -1.5342  -1.4900  -1.4806  -1.2225  -0.5579  -0.5514  -0.0535
    -0.0345   0.1286   0.1464   0.5946   1.2406   1.3371   1.3612   2.0145
     2.3724   2.3749   2.5768   2.7085   2.7087   2.9276   3.2439   3.2486
     3.3501   4.9297   5.2093   5.2251   5.3542   5.4643   5.4741   5.8427
     8.5172   8.8560   8.9593  12.0838  12.2312  12.5923  12.7567  12.9075

     occupation numbers 
     1.0000   1.0000   1.0000   1.0000   1.0000   1.0000   1.0000   1.0000
     1.0000   1.0000   1.0000   1.0000   1.0000   1.0000   1.0000   1.0000
     1.0000   1.0000   1.0000   1.0000   1.0000   1.0000   1.0000   1.0000
     1.0000   1.0000   1.0000   1.0000   1.0000   1.0000   1.0000   1.0000
     1.0000   1.0000   1.0000   1.0000   1.0000   1.0000   1.0000   1.0000
     1.0000   1.0000   1.0000   1.0000   1.0000   1.0012   1.0526   1.0542
     1.0821   0.0000   0.0000   0.0000   0.0000   0.0000   0.0000   0.0000
     0.0000   0.0000   0.0000   0.0000   0.0000   0.0000   0.0000   0.0000

          k =-0.1667-0.4811 0.1985 (  9621 PWs)   bands (ev):

   -92.1244 -92.1230 -92.1223 -55.3827 -55.3723 -55.3588 -55.3486 -55.3479
   -55.3454 -55.3440 -55.3385 -55.3345 -50.9148 -22.8410 -22.8408 -22.7585
   -14.9667 -14.5587 -14.2709 -13.8674 -13.7847 -13.7367  -2.4539  -1.9744
    -1.8290  -1.3799  -1.2280  -1.2180  -1.0339  -0.7634  -0.7180  -0.2813
    -0.2263  -0.0843   0.3831   0.6387   0.7931   1.4688   1.8353   2.1448
     2.4121   2.6033   2.6145   2.6366   2.8159   3.0263   3.0549   3.2135
     3.2329   4.8818   5.0287   5.1749   5.5578   5.6679   5.7850   5.8560
     7.1536   8.3739   9.6217  10.9582  12.0466  12.2298  13.4057  14.2422

     occupation numbers 
     1.0000   1.0000   1.0000   1.0000   1.0000   1.0000   1.0000   1.0000
     1.0000   1.0000   1.0000   1.0000   1.0000   1.0000   1.0000   1.0000
     1.0000   1.0000   1.0000   1.0000   1.0000   1.0000   1.0000   1.0000
     1.0000   1.0000   1.0000   1.0000   1.0000   1.0000   1.0000   1.0000
     1.0000   1.0000   1.0000   1.0000   1.0000   1.0000   1.0000   1.0000
     1.0000   1.0000   1.0000   1.0000   1.0002   1.0056   1.0082   1.0423
     1.0488   0.0000   0.0000   0.0000   0.0000   0.0000   0.0000   0.0000
     0.0000   0.0000   0.0000   0.0000   0.0000   0.0000   0.0000   0.0000

          k =-0.3333-0.5774 0.1985 (  9648 PWs)   bands (ev):

   -92.1233 -92.1233 -92.1233 -55.3749 -55.3749 -55.3679 -55.3470 -55.3470
   -55.3452 -55.3447 -55.3359 -55.3359 -50.9148 -22.8410 -22.8410 -22.7586
   -14.6367 -14.6094 -14.6094 -13.8020 -13.7729 -13.7729  -2.0993  -2.0778
    -2.0778  -1.2328  -1.2243  -1.2243  -0.8710  -0.8710  -0.8613  -0.3865
    -0.3385  -0.3385   0.7371   0.7371   0.7466   1.8185   1.8506   1.8506
     2.5969   2.6073   2.6073   2.8539   2.8579   2.8579   3.0594   3.0858
     3.0858   4.8990   4.9588   4.9588   5.7897   5.7897   5.8015   6.2972
     7.1838   7.1838  10.1027  11.0851  11.0851  13.8309  13.8769  13.8770

     occupation numbers 
     1.0000   1.0000   1.0000   1.0000   1.0000   1.0000   1.0000   1.0000
     1.0000   1.0000   1.0000   1.0000   1.0000   1.0000   1.0000   1.0000
     1.0000   1.0000   1.0000   1.0000   1.0000   1.0000   1.0000   1.0000
     1.0000   1.0000   1.0000   1.0000   1.0000   1.0000   1.0000   1.0000
     1.0000   1.0000   1.0000   1.0000   1.0000   1.0000   1.0000   1.0000
     1.0000   1.0000   1.0000   1.0003   1.0004   1.0004   1.0086   1.0120
     1.0120   0.0000   0.0000   0.0000   0.0000   0.0000   0.0000   0.0000
     0.0000   0.0000   0.0000   0.0000   0.0000   0.0000   0.0000   0.0000

 ------ SPIN DOWN ----------


          k = 0.0000 0.0000 0.0000 (  9645 PWs)   bands (ev):

   -91.4045 -91.3986 -91.3986 -54.7217 -54.7204 -54.7204 -54.7190 -54.6804
   -54.6804 -54.5378 -54.5281 -54.5281 -50.9134 -22.8383 -22.8383 -22.7559
   -15.5169 -13.8632 -13.8335 -13.8335 -13.8081 -13.6054  -1.5875  -1.5463
    -1.5309  -1.5309  -1.5162  -1.1982  -1.1982  -1.1757  -1.1757   0.5336
     0.5800   0.5800   0.6179   0.7714   0.7714   1.7377   2.3413   2.3413
     2.6819   2.6819   3.0721   3.0721   3.7157   3.7301   3.7301   3.7393
     3.8399   4.5145   5.5450   5.5584   5.5584   5.5734   6.3002   6.3002
     8.6173  10.9408  10.9782  10.9782  12.0236  12.0236  12.5649  13.0451

     occupation numbers 
     1.0000   1.0000   1.0000   1.0000   1.0000   1.0000   1.0000   1.0000
     1.0000   1.0000   1.0000   1.0000   1.0000   1.0000   1.0000   1.0000
     1.0000   1.0000   1.0000   1.0000   1.0000   1.0000   1.0000   1.0000
     1.0000   1.0000   1.0000   1.0000   1.0000   1.0000   1.0000   1.0000
     1.0000   1.0000   1.0000   1.0000   1.0000   1.0000   1.0000   1.0000
     1.0000   1.0000   1.0101   1.0101   0.5025   0.4637   0.4637   0.4397
     0.2151   0.0000   0.0000   0.0000   0.0000   0.0000   0.0000   0.0000
     0.0000   0.0000   0.0000   0.0000   0.0000   0.0000   0.0000   0.0000

          k = 0.0000 0.0000 0.1985 (  9645 PWs)   bands (ev):

   -91.4045 -91.3986 -91.3986 -54.7217 -54.7204 -54.7204 -54.7190 -54.6804
   -54.6804 -54.5379 -54.5281 -54.5281 -50.9134 -22.8383 -22.8383 -22.7560
   -15.5169 -13.8632 -13.8335 -13.8335 -13.8081 -13.6056  -1.5752  -1.5465
    -1.5310  -1.5310  -1.5163  -1.1982  -1.1982  -1.1755  -1.1755   0.5338
     0.5803   0.5803   0.6181   0.7710   0.7710   1.6330   2.3411   2.3411
     2.6819   2.6819   3.0722   3.0722   3.7182   3.7298   3.7298   3.7390
     4.0761   4.4825   5.5454   5.5608   5.5608   5.5749   6.3002   6.3002
     8.1382  10.9636  10.9636  11.8261  12.0048  12.0048  12.5418  13.0121

     occupation numbers 
     1.0000   1.0000   1.0000   1.0000   1.0000   1.0000   1.0000   1.0000
     1.0000   1.0000   1.0000   1.0000   1.0000   1.0000   1.0000   1.0000
     1.0000   1.0000   1.0000   1.0000   1.0000   1.0000   1.0000   1.0000
     1.0000   1.0000   1.0000   1.0000   1.0000   1.0000   1.0000   1.0000
     1.0000   1.0000   1.0000   1.0000   1.0000   1.0000   1.0000   1.0000
     1.0000   1.0000   1.0102   1.0102   0.4958   0.4646   0.4646   0.4403
     0.0150   0.0000   0.0000   0.0000   0.0000   0.0000   0.0000   0.0000
     0.0000   0.0000   0.0000   0.0000   0.0000   0.0000   0.0000   0.0000

          k = 0.0000 0.1925 0.0000 (  9638 PWs)   bands (ev):

   -91.4040 -91.3989 -91.3988 -54.7295 -54.7268 -54.7104 -54.7086 -54.6854
   -54.6816 -54.5370 -54.5286 -54.5284 -50.9134 -22.8384 -22.8383 -22.7560
   -15.4137 -13.9896 -13.8985 -13.8252 -13.7588 -13.6078  -1.9686  -1.7176
    -1.5325  -1.4667  -1.4272  -1.3127  -1.1301  -0.7869  -0.5899   0.1671
     0.2435   0.4520   0.5435   1.1571   1.2391   1.6418   1.7699   2.0292
     2.9795   3.0803   3.1242   3.1776   3.5025   3.5175   3.7902   3.8518
     3.9390   4.6623   5.5411   5.5974   5.6118   5.6442   6.0146   6.2262
     8.8089   9.4882  10.3915  11.2321  11.3630  12.8528  13.0339  13.7979

     occupation numbers 
     1.0000   1.0000   1.0000   1.0000   1.0000   1.0000   1.0000   1.0000
     1.0000   1.0000   1.0000   1.0000   1.0000   1.0000   1.0000   1.0000
     1.0000   1.0000   1.0000   1.0000   1.0000   1.0000   1.0000   1.0000
     1.0000   1.0000   1.0000   1.0000   1.0000   1.0000   1.0000   1.0000
     1.0000   1.0000   1.0000   1.0000   1.0000   1.0000   1.0000   1.0000
     1.0028   1.0112   1.0185   1.0313   1.0019   0.9800   0.3155   0.1945
     0.0836   0.0000   0.0000   0.0000   0.0000   0.0000   0.0000   0.0000
     0.0000   0.0000   0.0000   0.0000   0.0000   0.0000   0.0000   0.0000

          k = 0.0000 0.1925 0.1985 (  9664 PWs)   bands (ev):

   -91.4040 -91.3989 -91.3988 -54.7297 -54.7268 -54.7104 -54.7086 -54.6855
   -54.6816 -54.5370 -54.5286 -54.5285 -50.9134 -22.8385 -22.8383 -22.7560
   -15.4137 -13.9896 -13.8985 -13.8252 -13.7589 -13.6079  -1.9689  -1.7177
    -1.5330  -1.4552  -1.4274  -1.3142  -1.1301  -0.7868  -0.5899   0.1668
     0.2430   0.4535   0.5435   1.1579   1.2389   1.6432   1.7383   1.9708
     2.9799   3.0754   3.1241   3.1776   3.5033   3.5178   3.7893   3.8505
     4.1228   4.6410   5.5452   5.5978   5.6116   5.6463   6.0438   6.2233
     8.3932   9.4588  10.3676  11.2327  12.1687  12.9300  13.0277  13.5802

     occupation numbers 
     1.0000   1.0000   1.0000   1.0000   1.0000   1.0000   1.0000   1.0000
     1.0000   1.0000   1.0000   1.0000   1.0000   1.0000   1.0000   1.0000
     1.0000   1.0000   1.0000   1.0000   1.0000   1.0000   1.0000   1.0000
     1.0000   1.0000   1.0000   1.0000   1.0000   1.0000   1.0000   1.0000
     1.0000   1.0000   1.0000   1.0000   1.0000   1.0000   1.0000   1.0000
     1.0029   1.0106   1.0185   1.0313   1.0008   0.9796   0.3176   0.1966
     0.0075   0.0000   0.0000   0.0000   0.0000   0.0000   0.0000   0.0000
     0.0000   0.0000   0.0000   0.0000   0.0000   0.0000   0.0000   0.0000

          k = 0.0000 0.3849 0.0000 (  9664 PWs)   bands (ev):

   -91.4028 -91.3998 -91.3992 -54.7357 -54.7245 -54.7005 -54.6991 -54.6974
   -54.6854 -54.5351 -54.5302 -54.5290 -50.9134 -22.8387 -22.8384 -22.7561
   -15.1265 -14.3043 -13.9445 -13.8696 -13.6974 -13.6180  -2.3803  -1.5595
    -1.5494  -1.5083  -1.1814  -1.1529  -0.9814  -0.5486  -0.2779   0.1299
     0.1670   0.1875   0.5771   0.6292   1.1498   1.4451   1.8290   2.3422
     3.1450   3.1477   3.2903   3.3056   3.4785   3.5134   3.6561   3.8616
     4.0568   5.1089   5.5162   5.5426   5.5708   5.6390   5.9496   6.0419
     7.7238   9.3091   9.8398  10.6158  11.4131  12.3041  13.2055  13.9614

     occupation numbers 
     1.0000   1.0000   1.0000   1.0000   1.0000   1.0000   1.0000   1.0000
     1.0000   1.0000   1.0000   1.0000   1.0000   1.0000   1.0000   1.0000
     1.0000   1.0000   1.0000   1.0000   1.0000   1.0000   1.0000   1.0000
     1.0000   1.0000   1.0000   1.0000   1.0000   1.0000   1.0000   1.0000
     1.0000   1.0000   1.0000   1.0000   1.0000   1.0000   1.0000   1.0000
     1.0230   1.0236   1.0682   1.0728   1.0310   0.9863   0.6666   0.1786
     0.0197   0.0000   0.0000   0.0000   0.0000   0.0000   0.0000   0.0000
     0.0000   0.0000   0.0000   0.0000   0.0000   0.0000   0.0000   0.0000

          k = 0.0000 0.3849 0.1985 (  9643 PWs)   bands (ev):

   -91.4028 -91.3998 -91.3991 -54.7357 -54.7245 -54.7005 -54.6990 -54.6973
   -54.6854 -54.5351 -54.5301 -54.5290 -50.9134 -22.8386 -22.8384 -22.7560
   -15.1265 -14.3043 -13.9445 -13.8696 -13.6974 -13.6181  -2.3805  -1.5611
    -1.5498  -1.5105  -1.1817  -1.1447  -0.9812  -0.5486  -0.2781   0.1318
     0.1695   0.1871   0.5772   0.6325   1.1495   1.4476   1.8280   2.2935
     3.1449   3.1474   3.2906   3.3061   3.4659   3.5142   3.6553   3.8563
     4.1236   5.0254   5.5220   5.5801   5.6386   5.7021   5.9511   6.0110
     7.7176   9.0512   9.8075  10.5927  11.4323  12.9678  13.3967  13.9737

     occupation numbers 
     1.0000   1.0000   1.0000   1.0000   1.0000   1.0000   1.0000   1.0000
     1.0000   1.0000   1.0000   1.0000   1.0000   1.0000   1.0000   1.0000
     1.0000   1.0000   1.0000   1.0000   1.0000   1.0000   1.0000   1.0000
     1.0000   1.0000   1.0000   1.0000   1.0000   1.0000   1.0000   1.0000
     1.0000   1.0000   1.0000   1.0000   1.0000   1.0000   1.0000   1.0000
     1.0230   1.0235   1.0683   1.0730   1.0435   0.9850   0.6688   0.1871
     0.0074   0.0000   0.0000   0.0000   0.0000   0.0000   0.0000   0.0000
     0.0000   0.0000   0.0000   0.0000   0.0000   0.0000   0.0000   0.0000

          k = 0.0000-0.5774 0.0000 (  9656 PWs)   bands (ev):

   -91.4012 -91.4012 -91.3993 -54.7378 -54.7143 -54.7129 -54.6946 -54.6919
   -54.6910 -54.5325 -54.5325 -54.5292 -50.9134 -22.8388 -22.8385 -22.7560
   -14.7353 -14.7082 -13.9607 -13.8945 -13.6610 -13.6342  -2.5299  -1.6058
    -1.5919  -1.1115  -1.1061  -0.9420  -0.7236  -0.6857  -0.5764  -0.0147
     0.0072   0.2650   0.5460   0.5600   0.8699   1.5291   2.2949   2.3221
     3.0763   3.1950   3.2153   3.2190   3.5757   3.7247   3.7456   3.8868
     3.9097   5.3683   5.3917   5.5005   5.6525   5.6770   6.1076   6.1429
     6.5953   9.6476   9.8387  10.3931  10.5496  12.9749  13.4724  13.7053

     occupation numbers 
     1.0000   1.0000   1.0000   1.0000   1.0000   1.0000   1.0000   1.0000
     1.0000   1.0000   1.0000   1.0000   1.0000   1.0000   1.0000   1.0000
     1.0000   1.0000   1.0000   1.0000   1.0000   1.0000   1.0000   1.0000
     1.0000   1.0000   1.0000   1.0000   1.0000   1.0000   1.0000   1.0000
     1.0000   1.0000   1.0000   1.0000   1.0000   1.0000   1.0000   1.0000
     1.0107   1.0364   1.0429   1.0441   0.8697   0.4782   0.4232   0.1418
     0.1134   0.0000   0.0000   0.0000   0.0000   0.0000   0.0000   0.0000
     0.0000   0.0000   0.0000   0.0000   0.0000   0.0000   0.0000   0.0000

          k = 0.0000-0.5774 0.1985 (  9638 PWs)   bands (ev):

   -91.4012 -91.4012 -91.3993 -54.7379 -54.7143 -54.7129 -54.6946 -54.6919
   -54.6910 -54.5325 -54.5324 -54.5292 -50.9134 -22.8388 -22.8385 -22.7559
   -14.7352 -14.7081 -13.9607 -13.8946 -13.6611 -13.6342  -2.5301  -1.6088
    -1.5936  -1.1109  -1.1059  -0.9427  -0.7208  -0.6842  -0.5764  -0.0077
     0.0115   0.2651   0.5459   0.5600   0.8699   1.5327   2.2817   2.3150
     3.0756   3.1949   3.2156   3.2191   3.5753   3.7073   3.7363   3.9014
     3.9173   5.2147   5.3287   5.6436   5.6881   5.7286   6.1228   6.1429
     6.6410   9.6127   9.7447  10.3772  10.4417  13.1849  13.7198  13.8888

     occupation numbers 
     1.0000   1.0000   1.0000   1.0000   1.0000   1.0000   1.0000   1.0000
     1.0000   1.0000   1.0000   1.0000   1.0000   1.0000   1.0000   1.0000
     1.0000   1.0000   1.0000   1.0000   1.0000   1.0000   1.0000   1.0000
     1.0000   1.0000   1.0000   1.0000   1.0000   1.0000   1.0000   1.0000
     1.0000   1.0000   1.0000   1.0000   1.0000   1.0000   1.0000   1.0000
     1.0106   1.0364   1.0430   1.0441   0.8706   0.5253   0.4475   0.1232
     0.1051   0.0000   0.0000   0.0000   0.0000   0.0000   0.0000   0.0000
     0.0000   0.0000   0.0000   0.0000   0.0000   0.0000   0.0000   0.0000

          k = 0.1667 0.2887 0.0000 (  9639 PWs)   bands (ev):

   -91.4031 -91.3993 -91.3993 -54.7311 -54.7298 -54.7022 -54.7009 -54.6946
   -54.6838 -54.5357 -54.5292 -54.5292 -50.9134 -22.8385 -22.8383 -22.7560
   -15.2185 -14.1144 -14.0875 -13.7690 -13.7399 -13.6145  -2.0461  -2.0337
    -1.4794  -1.3532  -1.3416  -1.2456  -1.0107  -0.4089  -0.4004   0.1394
     0.1555   0.3585   0.3937   0.7832   1.4935   1.5022   1.5385   2.2240
     3.1085   3.2790   3.2846   3.3422   3.3479   3.3667   3.7848   3.7917
     4.0466   4.9461   5.5484   5.5658   5.6177   5.7532   5.7663   6.1354
     8.5361   8.9452   9.1507  11.9533  12.0278  12.1987  12.6011  12.8384

     occupation numbers 
     1.0000   1.0000   1.0000   1.0000   1.0000   1.0000   1.0000   1.0000
     1.0000   1.0000   1.0000   1.0000   1.0000   1.0000   1.0000   1.0000
     1.0000   1.0000   1.0000   1.0000   1.0000   1.0000   1.0000   1.0000
     1.0000   1.0000   1.0000   1.0000   1.0000   1.0000   1.0000   1.0000
     1.0000   1.0000   1.0000   1.0000   1.0000   1.0000   1.0000   1.0000
     1.0156   1.0646   1.0664   1.0811   1.0819   1.0833   0.3277   0.3121
     0.0227   0.0000   0.0000   0.0000   0.0000   0.0000   0.0000   0.0000
     0.0000   0.0000   0.0000   0.0000   0.0000   0.0000   0.0000   0.0000

          k = 0.1667 0.2887 0.1985 (  9642 PWs)   bands (ev):

   -91.4031 -91.3993 -91.3993 -54.7311 -54.7297 -54.7022 -54.7009 -54.6946
   -54.6838 -54.5357 -54.5292 -54.5292 -50.9134 -22.8385 -22.8384 -22.7560
   -15.2185 -14.1144 -14.0875 -13.7690 -13.7399 -13.6146  -2.0465  -2.0338
    -1.4825  -1.3538  -1.3419  -1.2357  -1.0107  -0.4093  -0.4006   0.1404
     0.1561   0.3592   0.3942   0.7867   1.4935   1.5040   1.5396   2.1640
     3.0983   3.2788   3.2844   3.3429   3.3482   3.3667   3.7832   3.7907
     4.1500   4.8579   5.5425   5.5618   5.7517   5.7695   5.7704   6.1353
     8.5281   8.8098   8.9396  11.9988  12.1746  12.6213  12.6628  12.8972

     occupation numbers 
     1.0000   1.0000   1.0000   1.0000   1.0000   1.0000   1.0000   1.0000
     1.0000   1.0000   1.0000   1.0000   1.0000   1.0000   1.0000   1.0000
     1.0000   1.0000   1.0000   1.0000   1.0000   1.0000   1.0000   1.0000
     1.0000   1.0000   1.0000   1.0000   1.0000   1.0000   1.0000   1.0000
     1.0000   1.0000   1.0000   1.0000   1.0000   1.0000   1.0000   1.0000
     1.0139   1.0645   1.0663   1.0812   1.0819   1.0833   0.3314   0.3144
     0.0049   0.0000   0.0000   0.0000   0.0000   0.0000   0.0000   0.0000
     0.0000   0.0000   0.0000   0.0000   0.0000   0.0000   0.0000   0.0000

          k = 0.1667 0.4811 0.0000 (  9636 PWs)   bands (ev):

   -91.4018 -91.4003 -91.3996 -54.7336 -54.7232 -54.7095 -54.6950 -54.6934
   -54.6878 -54.5334 -54.5310 -54.5298 -50.9134 -22.8387 -22.8384 -22.7560
   -14.8733 -14.4633 -14.1736 -13.7683 -13.6832 -13.6334  -2.3042  -1.8025
    -1.6359  -1.2392  -1.1026  -0.9967  -0.8227  -0.5788  -0.5344  -0.0292
     0.0129   0.2215   0.5524   0.7486   1.0109   1.6351   2.0107   2.3379
     3.1766   3.2034   3.2413   3.2901   3.5527   3.5710   3.6563   3.8049
     4.0038   5.1855   5.3695   5.5431   5.7292   5.8620   6.0405   6.0662
     7.1303   8.3723   9.7291  10.9368  11.9396  12.1168  13.0747  14.2246

     occupation numbers 
     1.0000   1.0000   1.0000   1.0000   1.0000   1.0000   1.0000   1.0000
     1.0000   1.0000   1.0000   1.0000   1.0000   1.0000   1.0000   1.0000
     1.0000   1.0000   1.0000   1.0000   1.0000   1.0000   1.0000   1.0000
     1.0000   1.0000   1.0000   1.0000   1.0000   1.0000   1.0000   1.0000
     1.0000   1.0000   1.0000   1.0000   1.0000   1.0000   1.0000   1.0000
     1.0310   1.0391   1.0517   1.0681   0.9179   0.8801   0.6661   0.2835
     0.0395   0.0000   0.0000   0.0000   0.0000   0.0000   0.0000   0.0000
     0.0000   0.0000   0.0000   0.0000   0.0000   0.0000   0.0000   0.0000

          k = 0.1667 0.4811 0.1985 (  9621 PWs)   bands (ev):

   -91.4018 -91.4003 -91.3996 -54.7336 -54.7232 -54.7094 -54.6950 -54.6934
   -54.6878 -54.5334 -54.5310 -54.5297 -50.9134 -22.8386 -22.8384 -22.7560
   -14.8732 -14.4633 -14.1735 -13.7684 -13.6832 -13.6335  -2.3045  -1.8038
    -1.6386  -1.2397  -1.1033  -0.9933  -0.8214  -0.5786  -0.5345  -0.0234
     0.0168   0.2227   0.5525   0.7486   1.0110   1.6385   2.0101   2.3218
     3.1750   3.1981   3.2409   3.2900   3.5475   3.5693   3.6564   3.8068
     4.0317   5.0236   5.3280   5.5306   5.8597   5.9858   6.0298   6.0638
     7.1854   8.3953   9.5265  10.8398  11.9393  12.0269  13.6581  14.3440

     occupation numbers 
     1.0000   1.0000   1.0000   1.0000   1.0000   1.0000   1.0000   1.0000
     1.0000   1.0000   1.0000   1.0000   1.0000   1.0000   1.0000   1.0000
     1.0000   1.0000   1.0000   1.0000   1.0000   1.0000   1.0000   1.0000
     1.0000   1.0000   1.0000   1.0000   1.0000   1.0000   1.0000   1.0000
     1.0000   1.0000   1.0000   1.0000   1.0000   1.0000   1.0000   1.0000
     1.0306   1.0374   1.0515   1.0681   0.9280   0.8837   0.6659   0.2795
     0.0276   0.0000   0.0000   0.0000   0.0000   0.0000   0.0000   0.0000
     0.0000   0.0000   0.0000   0.0000   0.0000   0.0000   0.0000   0.0000

          k = 0.3333 0.5774 0.0000 (  9594 PWs)   bands (ev):

   -91.4005 -91.4005 -91.4005 -54.7241 -54.7241 -54.7221 -54.6920 -54.6899
   -54.6899 -54.5313 -54.5313 -54.5313 -50.9134 -22.8385 -22.8385 -22.7559
   -14.5500 -14.5099 -14.5099 -13.7094 -13.6671 -13.6671  -1.9278  -1.9026
    -1.9026  -1.0993  -1.0905  -1.0905  -0.6796  -0.6796  -0.6671  -0.1055
    -0.0340  -0.0340   0.9057   0.9057   0.9238   1.9931   2.0397   2.0397
     3.2039   3.2242   3.2242   3.4344   3.4344   3.4386   3.8113   3.8313
     3.8313   5.2394   5.3216   5.3216   6.0622   6.0622   6.0753   6.3433
     7.1459   7.1459  10.0780  11.0270  11.0270  13.8033  13.8960  13.8960

     occupation numbers 
     1.0000   1.0000   1.0000   1.0000   1.0000   1.0000   1.0000   1.0000
     1.0000   1.0000   1.0000   1.0000   1.0000   1.0000   1.0000   1.0000
     1.0000   1.0000   1.0000   1.0000   1.0000   1.0000   1.0000   1.0000
     1.0000   1.0000   1.0000   1.0000   1.0000   1.0000   1.0000   1.0000
     1.0000   1.0000   1.0000   1.0000   1.0000   1.0000   1.0000   1.0000
     1.0392   1.0458   1.0458   1.0666   1.0666   1.0642   0.2700   0.2308
     0.2308   0.0000   0.0000   0.0000   0.0000   0.0000   0.0000   0.0000
     0.0000   0.0000   0.0000   0.0000   0.0000   0.0000   0.0000   0.0000

          k = 0.3333 0.5774 0.1985 (  9648 PWs)   bands (ev):

   -91.4006 -91.4006 -91.4006 -54.7242 -54.7242 -54.7221 -54.6921 -54.6900
   -54.6900 -54.5314 -54.5314 -54.5314 -50.9134 -22.8386 -22.8386 -22.7561
   -14.5500 -14.5099 -14.5099 -13.7095 -13.6671 -13.6671  -1.9299  -1.9035
    -1.9035  -1.0998  -1.0909  -1.0909  -0.6796  -0.6796  -0.6672  -0.0978
    -0.0301  -0.0301   0.9056   0.9056   0.9238   1.9929   2.0395   2.0395
     3.1989   3.2220   3.2220   3.4343   3.4343   3.4385   3.8199   3.8352
     3.8352   5.1328   5.2772   5.2772   6.0621   6.0621   6.0752   6.4990
     7.2307   7.2307   9.9445  10.8894  10.8894  13.8795  13.8795  14.1451

     occupation numbers 
     1.0000   1.0000   1.0000   1.0000   1.0000   1.0000   1.0000   1.0000
     1.0000   1.0000   1.0000   1.0000   1.0000   1.0000   1.0000   1.0000
     1.0000   1.0000   1.0000   1.0000   1.0000   1.0000   1.0000   1.0000
     1.0000   1.0000   1.0000   1.0000   1.0000   1.0000   1.0000   1.0000
     1.0000   1.0000   1.0000   1.0000   1.0000   1.0000   1.0000   1.0000
     1.0376   1.0451   1.0451   1.0667   1.0667   1.0642   0.2528   0.2237
     0.2237   0.0000   0.0000   0.0000   0.0000   0.0000   0.0000   0.0000
     0.0000   0.0000   0.0000   0.0000   0.0000   0.0000   0.0000   0.0000

          k =-0.1667-0.2887 0.1985 (  9642 PWs)   bands (ev):

   -91.4031 -91.3993 -91.3993 -54.7311 -54.7298 -54.7022 -54.7009 -54.6946
   -54.6838 -54.5357 -54.5292 -54.5292 -50.9134 -22.8385 -22.8384 -22.7560
   -15.2185 -14.1144 -14.0875 -13.7691 -13.7399 -13.6146  -2.0466  -2.0339
    -1.4812  -1.3537  -1.3418  -1.2369  -1.0108  -0.4093  -0.4005   0.1399
     0.1557   0.3608   0.3952   0.7850   1.4934   1.5021   1.5386   2.1668
     3.0945   3.2791   3.2846   3.3429   3.3482   3.3667   3.7815   3.7898
     4.1325   4.9677   5.5510   5.5708   5.6451   5.7524   5.7662   6.1354
     8.4957   8.8791   8.9064  12.0960  12.1967  12.6162  12.7659  12.8952

     occupation numbers 
     1.0000   1.0000   1.0000   1.0000   1.0000   1.0000   1.0000   1.0000
     1.0000   1.0000   1.0000   1.0000   1.0000   1.0000   1.0000   1.0000
     1.0000   1.0000   1.0000   1.0000   1.0000   1.0000   1.0000   1.0000
     1.0000   1.0000   1.0000   1.0000   1.0000   1.0000   1.0000   1.0000
     1.0000   1.0000   1.0000   1.0000   1.0000   1.0000   1.0000   1.0000
     1.0133   1.0646   1.0664   1.0812   1.0819   1.0833   0.3352   0.3163
     0.0064   0.0000   0.0000   0.0000   0.0000   0.0000   0.0000   0.0000
     0.0000   0.0000   0.0000   0.0000   0.0000   0.0000   0.0000   0.0000

          k =-0.1667-0.4811 0.1985 (  9621 PWs)   bands (ev):

   -91.4018 -91.4003 -91.3996 -54.7336 -54.7232 -54.7094 -54.6950 -54.6934
   -54.6878 -54.5334 -54.5310 -54.5297 -50.9134 -22.8386 -22.8384 -22.7560
   -14.8732 -14.4633 -14.1735 -13.7684 -13.6832 -13.6335  -2.3046  -1.8037
    -1.6379  -1.2399  -1.1033  -0.9943  -0.8217  -0.5790  -0.5345  -0.0222
     0.0181   0.2242   0.5523   0.7486   1.0110   1.6354   2.0069   2.3180
     3.1758   3.1979   3.2415   3.2899   3.5480   3.5709   3.6547   3.7992
     4.0144   5.1855   5.3744   5.5483   5.7689   5.8686   6.0335   6.0644
     7.1197   8.3281   9.6434  10.9714  12.0077  12.2366  13.4549  14.2589

     occupation numbers 
     1.0000   1.0000   1.0000   1.0000   1.0000   1.0000   1.0000   1.0000
     1.0000   1.0000   1.0000   1.0000   1.0000   1.0000   1.0000   1.0000
     1.0000   1.0000   1.0000   1.0000   1.0000   1.0000   1.0000   1.0000
     1.0000   1.0000   1.0000   1.0000   1.0000   1.0000   1.0000   1.0000
     1.0000   1.0000   1.0000   1.0000   1.0000   1.0000   1.0000   1.0000
     1.0308   1.0373   1.0517   1.0681   0.9271   0.8802   0.6705   0.2957
     0.0346   0.0000   0.0000   0.0000   0.0000   0.0000   0.0000   0.0000
     0.0000   0.0000   0.0000   0.0000   0.0000   0.0000   0.0000   0.0000

          k =-0.3333-0.5774 0.1985 (  9648 PWs)   bands (ev):

   -91.4006 -91.4006 -91.4006 -54.7242 -54.7242 -54.7221 -54.6921 -54.6900
   -54.6900 -54.5314 -54.5314 -54.5314 -50.9134 -22.8386 -22.8386 -22.7561
   -14.5500 -14.5099 -14.5099 -13.7095 -13.6671 -13.6671  -1.9295  -1.9034
    -1.9034  -1.1009  -1.0914  -1.0914  -0.6796  -0.6796  -0.6672  -0.0952
    -0.0290  -0.0290   0.9056   0.9056   0.9238   1.9853   2.0362   2.0362
     3.1998   3.2222   3.2222   3.4344   3.4344   3.4386   3.8076   3.8293
     3.8293   5.2549   5.3271   5.3271   6.0621   6.0621   6.0752   6.3233
     7.1296   7.1296  10.1248  11.0966  11.0966  13.8619  13.8686  13.8687

     occupation numbers 
     1.0000   1.0000   1.0000   1.0000   1.0000   1.0000   1.0000   1.0000
     1.0000   1.0000   1.0000   1.0000   1.0000   1.0000   1.0000   1.0000
     1.0000   1.0000   1.0000   1.0000   1.0000   1.0000   1.0000   1.0000
     1.0000   1.0000   1.0000   1.0000   1.0000   1.0000   1.0000   1.0000
     1.0000   1.0000   1.0000   1.0000   1.0000   1.0000   1.0000   1.0000
     1.0379   1.0452   1.0452   1.0667   1.0667   1.0642   0.2778   0.2345
     0.2345   0.0000   0.0000   0.0000   0.0000   0.0000   0.0000   0.0000
     0.0000   0.0000   0.0000   0.0000   0.0000   0.0000   0.0000   0.0000

     the Fermi energy is     3.7545 ev

!    total energy              =   -1489.21902050 Ry
     total all-electron energy =     -9588.453828 Ry
     estimated scf accuracy    <          4.4E-09 Ry
     smearing contrib. (-TS)   =       0.00953504 Ry
     internal energy E=F+TS    =   -1489.22855555 Ry

     The total energy is F=E-TS. E is the sum of the following terms:
     one-electron contribution =   -1938.80947895 Ry
     hartree contribution      =    1000.66668245 Ry
     xc contribution           =    -150.49698399 Ry
     ewald contribution        =     -65.07675810 Ry
     one-center paw contrib.   =    -335.51201695 Ry
      -> PAW hartree energy AE =     884.06802167 Ry
      -> PAW hartree energy PS =    -881.78588205 Ry
      -> PAW xc energy AE      =    -480.26253948 Ry
      -> PAW xc energy PS      =     142.46838292 Ry
      -> total E_H with PAW    =    1002.94882206 Ry
      -> total E_XC with PAW   =    -488.29114055 Ry

     total magnetization       =     2.29 Bohr mag/cell
     absolute magnetization    =     2.33 Bohr mag/cell

     convergence has been achieved in  24 iterations

     Forces acting on atoms (cartesian axes, Ry/au):

     atom    1 type  1   force =    -0.00187142   -0.00324140    0.00010054
     atom    2 type  1   force =    -0.00187142    0.00324140    0.00010054
     atom    3 type  1   force =     0.00374285    0.00000000    0.00010054
     atom    4 type  2   force =     0.00000000    0.00000000   -0.00482591
     atom    5 type  2   force =     0.00000000   -0.00000000   -0.01820638
     atom    6 type  2   force =     0.00000000   -0.00000000   -0.01820638
     atom    7 type  2   force =    -0.00123427    0.00213782    0.01396978
     atom    8 type  2   force =    -0.00123427   -0.00213782    0.01396978
     atom    9 type  2   force =     0.00246855   -0.00000000    0.01396978
     atom   10 type  3   force =     0.00000000   -0.00000000   -0.00097228
     The non-local contrib.  to forces
     atom    1 type  1   force =    -0.00147180   -0.00254923   -0.00035373
     atom    2 type  1   force =    -0.00147180    0.00254923   -0.00035373
     atom    3 type  1   force =     0.00294359    0.00000000   -0.00035373
     atom    4 type  2   force =     0.00000000    0.00000000   -1.01448087
     atom    5 type  2   force =     0.00000000    0.00000000   -1.11541801
     atom    6 type  2   force =     0.00000000    0.00000000   -1.11541801
     atom    7 type  2   force =    -0.00767060    0.01328587    1.08425946
     atom    8 type  2   force =    -0.00767060   -0.01328587    1.08425946
     atom    9 type  2   force =     0.01534120   -0.00000000    1.08425946
     atom   10 type  3   force =     0.00000000    0.00000000    0.01746405
     The ionic contribution  to forces
     atom    1 type  1   force =    -0.16818420   -0.29130358    0.00000000
     atom    2 type  1   force =    -0.16818418    0.29130357   -0.00000000
     atom    3 type  1   force =     0.33636838    0.00000001    0.00000000
     atom    4 type  2   force =     0.00000000    0.00000001   34.70917154
     atom    5 type  2   force =    -0.00000000   -0.00000000   35.39027578
     atom    6 type  2   force =    -0.00000000   -0.00000000   35.39027578
     atom    7 type  2   force =     0.12599643   -0.21823221  -35.18609129
     atom    8 type  2   force =     0.12599642    0.21823221  -35.18609129
     atom    9 type  2   force =    -0.25199285    0.00000000  -35.18609129
     atom   10 type  3   force =     0.00000000    0.00000000    0.06855078
     The local contribution  to forces
     atom    1 type  1   force =     0.16774802    0.29054802    0.00044991
     atom    2 type  1   force =     0.16774822   -0.29054801    0.00044991
     atom    3 type  1   force =    -0.33549601    0.00000018    0.00044991
     atom    4 type  2   force =     0.00000001    0.00000001  -33.70830172
     atom    5 type  2   force =    -0.00000000    0.00000000  -34.30285987
     atom    6 type  2   force =     0.00000001   -0.00000000  -34.30285987
     atom    7 type  2   force =    -0.11962263    0.20719251   34.12529032
     atom    8 type  2   force =    -0.11962265   -0.20719251   34.12529032
     atom    9 type  2   force =     0.23924529    0.00000001   34.12529032
     atom   10 type  3   force =     0.00000006    0.00000010   -0.08697701
     The core correction contribution to forces
     atom    1 type  1   force =     0.00001344    0.00002328    0.00000334
     atom    2 type  1   force =     0.00001344   -0.00002328    0.00000334
     atom    3 type  1   force =    -0.00002688    0.00000000    0.00000334
     atom    4 type  2   force =     0.00000000   -0.00000000    0.00877755
     atom    5 type  2   force =     0.00000000   -0.00000000    0.00978897
     atom    6 type  2   force =     0.00000000    0.00000000    0.00978897
     atom    7 type  2   force =     0.00006485   -0.00011233   -0.00947885
     atom    8 type  2   force =     0.00006485    0.00011233   -0.00947885
     atom    9 type  2   force =    -0.00012971   -0.00000000   -0.00947885
     atom   10 type  3   force =     0.00000000    0.00000000   -0.00000848
     The Hubbard contrib.    to forces
     atom    1 type  1   force =     0.00000000    0.00000000    0.00000000
     atom    2 type  1   force =     0.00000000    0.00000000    0.00000000
     atom    3 type  1   force =     0.00000000    0.00000000    0.00000000
     atom    4 type  2   force =     0.00000000    0.00000000    0.00000000
     atom    5 type  2   force =     0.00000000    0.00000000    0.00000000
     atom    6 type  2   force =     0.00000000    0.00000000    0.00000000
     atom    7 type  2   force =     0.00000000    0.00000000    0.00000000
     atom    8 type  2   force =     0.00000000    0.00000000    0.00000000
     atom    9 type  2   force =     0.00000000    0.00000000    0.00000000
     atom   10 type  3   force =     0.00000000    0.00000000    0.00000000
     The SCF correction term to forces
     atom    1 type  1   force =     0.00002311    0.00004003    0.00000063
     atom    2 type  1   force =     0.00002311   -0.00004003    0.00000063
     atom    3 type  1   force =    -0.00004623   -0.00000000    0.00000063
     atom    4 type  2   force =     0.00000000   -0.00000000    0.00000722
     atom    5 type  2   force =     0.00000000   -0.00000000    0.00000637
     atom    6 type  2   force =    -0.00000000    0.00000000    0.00000637
     atom    7 type  2   force =    -0.00000230    0.00000399   -0.00001023
     atom    8 type  2   force =    -0.00000230   -0.00000399   -0.00001023
     atom    9 type  2   force =     0.00000461   -0.00000000   -0.00001023
     atom   10 type  3   force =    -0.00000000   -0.00000000   -0.00000198

     Total force =     0.036510     Total SCF correction =     0.000083

     Writing all to output data dir ./out/pw.save/ :
     XML data file, charge density, pseudopotentials, collected wavefunctions
 
     init_run     :     23.69s CPU      5.40s WALL (       1 calls)
     electrons    :    316.71s CPU     77.76s WALL (       1 calls)
     forces       :      1.29s CPU      0.89s WALL (       1 calls)

     Called by init_run:
     wfcinit      :      0.55s CPU      0.68s WALL (       1 calls)
     wfcinit:atom :      0.06s CPU      0.06s WALL (      34 calls)
     wfcinit:wfcr :      0.34s CPU      0.37s WALL (      34 calls)
     potinit      :     22.44s CPU      3.97s WALL (       1 calls)
     hinit0       :      0.55s CPU      0.53s WALL (       1 calls)

     Called by electrons:
     c_bands      :     35.24s CPU     35.31s WALL (      24 calls)
     sum_band     :      5.35s CPU      5.32s WALL (      24 calls)
     v_of_rho     :      0.62s CPU      0.39s WALL (      25 calls)
     v_h          :      0.38s CPU      0.10s WALL (      25 calls)
     v_xc         :      0.26s CPU      0.30s WALL (      26 calls)
     newd         :      0.58s CPU      0.53s WALL (      25 calls)
                                        0.52s GPU  (      25 calls)
     PAW_pot      :    283.56s CPU     36.43s WALL (      25 calls)
     mix_rho      :      0.79s CPU      0.81s WALL (      24 calls)

     Called by c_bands:
     init_us_2    :      1.07s CPU      1.02s WALL (    1700 calls)
     cegterg      :     29.42s CPU     29.53s WALL (     816 calls)

     Called by sum_band:
     sum_band:wei :      0.05s CPU      0.05s WALL (      24 calls)
                                        0.05s GPU  (      24 calls)
     sum_band:loo :      3.73s CPU      3.68s WALL (      24 calls)
                                        3.68s GPU  (      24 calls)
     sum_band:buf :      1.13s CPU      1.16s WALL (     816 calls)
                                        1.15s GPU  (     816 calls)
     sum_band:ini :      0.52s CPU      0.51s WALL (     816 calls)
                                        0.50s GPU  (     816 calls)
     sum_band:cal :      0.10s CPU      0.14s WALL (     816 calls)
                                        0.10s GPU  (     816 calls)
     sum_band:bec :      0.41s CPU      0.42s WALL (     816 calls)
                                        0.41s GPU  (     816 calls)
     addusdens    :      0.94s CPU      0.95s WALL (      24 calls)
                                        0.95s GPU  (      24 calls)
     addusd:skk   :      0.01s CPU      0.01s WALL (      72 calls)
                                        0.01s GPU  (      72 calls)

     Called by *egterg:
     cdiaghg      :     12.27s CPU     12.41s WALL (    5200 calls)
                                       12.35s GPU  (    5200 calls)
     cegterg:over :      1.55s CPU      1.57s WALL (    4384 calls)
     cegterg:upda :      1.69s CPU      1.70s WALL (    4384 calls)
     cegterg:last :      0.29s CPU      0.29s WALL (    1896 calls)
     h_psi        :     10.75s CPU     10.89s WALL (    5234 calls)
                                       10.83s GPU  (    5234 calls)
     s_psi        :      1.65s CPU      1.69s WALL (    5234 calls)
     g_psi        :      0.02s CPU      0.18s WALL (    4384 calls)
                                        0.12s GPU  (    4384 calls)

     Called by h_psi:
     h_psi:calbec :      0.23s CPU      0.48s WALL (    5234 calls)
                                        0.41s GPU  (    5234 calls)
     vloc_psi     :      8.16s CPU      8.19s WALL (    5234 calls)
                                        8.12s GPU  (    5234 calls)
     add_vuspsi   :      1.58s CPU      1.83s WALL (    5234 calls)
                                        1.77s GPU  (    5234 calls)

     General routines
     calbec       :      0.28s CPU      0.31s WALL (    6186 calls)
     fft          :      8.42s CPU      1.62s WALL (     638 calls)
                                        0.03s GPU  (     588 calls)
     ffts         :      3.87s CPU      0.91s WALL (      98 calls)
                                        0.00s GPU  (      48 calls)
     fftw         :      0.44s CPU      4.92s WALL (   26090 calls)
                                        4.62s GPU  (   26090 calls)
     interpolate  :     12.62s CPU      2.58s WALL (      50 calls)
 
     Parallel routines

     PAW routines
     PAW_pot      :    283.56s CPU     36.43s WALL (      25 calls)
     PAW_symme    :      0.04s CPU      0.01s WALL (      49 calls)
 
     PWSCF        :   5m42.55s CPU   1m24.73s WALL

 
   This run was terminated on:   2:24:23  12Jul2026            

=------------------------------------------------------------------------------=
   JOB DONE.
=------------------------------------------------------------------------------=
Warning: ieee_invalid is signaling
Warning: ieee_divide_by_zero is signaling
Warning: ieee_inexact is signaling
FORTRAN STOP
