
     Program PWSCF v.7.3.1 starts on 12Jul2026 at  2:42:35 

     This program is part of the open-source Quantum ESPRESSO suite
     for quantum simulation of materials; please cite
         "P. Giannozzi et al., J. Phys.:Condens. Matter 21 395502 (2009);
         "P. Giannozzi et al., J. Phys.:Condens. Matter 29 465901 (2017);
         "P. Giannozzi et al., J. Chem. Phys. 152 154105 (2020);
          URL http://www.quantum-espresso.org", 
     in publications or presentations arising from this work. More details at
     http://www.quantum-espresso.org/quote

     Parallel version (MPI & OpenMP), running on      14 processor cores
     Number of MPI processes:                 1
     Threads/MPI process:                    14

     MPI processes distributed on     1 nodes
     848913 MiB available memory on the printing compute node when the environment starts
 
     Reading input from pw.in

     Current dimensions of program PWSCF are:
     Max number of different atomic species (ntypx) = 10
     Max number of k-points (npk) =  40000
     Max angular momentum in pseudopotentials (lmaxx) =  4
     file Co.pbe-spn-kjpaw_psl.0.3.1.UPF: wavefunction(s)  3P 3D renormalized
     file O.pbe-n-kjpaw_psl.1.0.0.UPF: wavefunction(s)  2S 2P renormalized
 
     Subspace diagonalization in iterative solution of the eigenvalue problem:
     a serial algorithm will be used

 
     G-vector sticks info
     --------------------
     sticks:   dense  smooth     PW     G-vecs:    dense   smooth      PW
     Sum         931     475    139                69237    24541    3997
 
     Using Slab Decomposition
 


     bravais-lattice index     =            4
     lattice parameter (alat)  =       5.3290  a.u.
     unit-cell volume          =     390.3954 (a.u.)^3
     number of atoms/cell      =            4
     number of atomic types    =            3
     number of electrons       =        32.00
     number of Kohn-Sham states=           24
     kinetic-energy cutoff     =      60.0000  Ry
     charge density cutoff     =     480.0000  Ry
     scf convergence threshold =      1.0E-07
     mixing beta               =       0.3000
     number of iterations used =            8  local-TF  mixing
     Exchange-correlation= SLA  PW   PBX  PBC
                           (   1   4   3   4   0   0   0)

     GPU acceleration is ACTIVE.  1 visible GPUs per MPI rank
     GPU-aware MPI enabled


     GPU used by master process:

        Device Number: 0
        Device name: NVIDIA A100-SXM4-80GB
        Compute capability : 80
        Ratio of single to double precision performance  : 2
        Memory Clock Rate (KHz): 1593000
        Memory Bus Width (bits): 5120
        Peak Memory Bandwidth (GB/s): ******

     celldm(1)=   5.329028  celldm(2)=   0.000000  celldm(3)=   2.978723
     celldm(4)=   0.000000  celldm(5)=   0.000000  celldm(6)=   0.000000

     crystal axes: (cart. coord. in units of alat)
               a(1) = (   1.000000   0.000000   0.000000 )  
               a(2) = (  -0.500000   0.866025   0.000000 )  
               a(3) = (   0.000000   0.000000   2.978723 )  

     reciprocal axes: (cart. coord. in units 2 pi/alat)
               b(1) = (  1.000000  0.577350 -0.000000 )  
               b(2) = (  0.000000  1.154701  0.000000 )  
               b(3) = (  0.000000 -0.000000  0.335714 )  


     PseudoPot. # 1 for Co read from file:
     ../../pseudo/Co.pbe-spn-kjpaw_psl.0.3.1.UPF
     MD5 check sum: 3c0a43779828c046024e4f3be63f8e67
     Pseudo is Projector augmented-wave + core cor, Zval = 17.0
     Generated using &quot;atomic&quot; code by A. Dal Corso  v.6.2.2
     Shape of augmentation charge: PSQ
     Using radial grid of 1193 points,  6 beta functions with: 
                l(1) =   0
                l(2) =   0
                l(3) =   1
                l(4) =   1
                l(5) =   2
                l(6) =   2
     Q(r) pseudized with 0 coefficients 


     PseudoPot. # 2 for O  read from file:
     ../../pseudo/O.pbe-n-kjpaw_psl.1.0.0.UPF
     MD5 check sum: e99d9cef9b487d1ca56f5b95ecd0fd7a
     Pseudo is Projector augmented-wave + core cor, Zval =  6.0
     Generated using &quot;atomic&quot; code by A. Dal Corso  v.6.3
     Shape of augmentation charge: PSQ
     Using radial grid of 1095 points,  4 beta functions with: 
                l(1) =   0
                l(2) =   0
                l(3) =   1
                l(4) =   1
     Q(r) pseudized with 0 coefficients 


     PseudoPot. # 3 for Li read from file:
     ../../pseudo/Li.pbe-s-kjpaw_psl.1.0.0.UPF
     MD5 check sum: 3974953fb0fea6c4f83fb01d64ffc134
     Pseudo is Projector augmented-wave, Zval =  3.0
     Generated using &quot;atomic&quot; code by A. Dal Corso  v.6.3
     Shape of augmentation charge: PSQ
     Using radial grid of 1017 points,  4 beta functions with: 
                l(1) =   0
                l(2) =   0
                l(3) =   1
                l(4) =   1
     Q(r) pseudized with 0 coefficients 


     atomic species   valence    mass     pseudopotential
     Co               17.00    58.93300     Co( 1.00)
     O                 6.00    15.99900     O ( 1.00)
     Li                3.00     6.94100     Li( 1.00)

     Starting magnetic structure 
     atomic species   magnetization
     Co              0.300
     O               0.000
     Li              0.000

      6 Sym. Ops. (no inversion) found


                                    s                        frac. trans.

      isym =  1     identity                                     

 cryst.   s( 1) = (     1          0          0      )
                  (     0          1          0      )
                  (     0          0          1      )

 cart.    s( 1) = (  1.0000000  0.0000000  0.0000000 )
                  (  0.0000000  1.0000000  0.0000000 )
                  (  0.0000000  0.0000000  1.0000000 )


      isym =  2     120 deg rotation - cryst. axis [0,0,1]       

 cryst.   s( 2) = (     0          1          0      )
                  (    -1         -1          0      )
                  (     0          0          1      )

 cart.    s( 2) = ( -0.5000000 -0.8660254  0.0000000 )
                  (  0.8660254 -0.5000000  0.0000000 )
                  (  0.0000000  0.0000000  1.0000000 )


      isym =  3     120 deg rotation - cryst. axis [0,0,-1]      

 cryst.   s( 3) = (    -1         -1          0      )
                  (     1          0          0      )
                  (     0          0          1      )

 cart.    s( 3) = ( -0.5000000  0.8660254  0.0000000 )
                  ( -0.8660254 -0.5000000  0.0000000 )
                  (  0.0000000  0.0000000  1.0000000 )


      isym =  4     inv. 180 deg rotation - cart. axis [1,0,0]   

 cryst.   s( 4) = (    -1          0          0      )
                  (     1          1          0      )
                  (     0          0          1      )

 cart.    s( 4) = ( -1.0000000  0.0000000  0.0000000 )
                  (  0.0000000  1.0000000  0.0000000 )
                  (  0.0000000  0.0000000  1.0000000 )


      isym =  5     inv. 180 deg rotation - cryst. axis [0,1,0]  

 cryst.   s( 5) = (     1          1          0      )
                  (     0         -1          0      )
                  (     0          0          1      )

 cart.    s( 5) = (  0.5000000  0.8660254  0.0000000 )
                  (  0.8660254 -0.5000000  0.0000000 )
                  (  0.0000000  0.0000000  1.0000000 )


      isym =  6     inv. 180 deg rotation - cryst. axis [1,1,0]  

 cryst.   s( 6) = (     0         -1          0      )
                  (    -1          0          0      )
                  (     0          0          1      )

 cart.    s( 6) = (  0.5000000 -0.8660254  0.0000000 )
                  ( -0.8660254 -0.5000000  0.0000000 )
                  (  0.0000000  0.0000000  1.0000000 )


     point group C_3v (3m)  
     there are  3 classes
     the character table:

       E     2C3   3s_v 
A_1    1.00  1.00  1.00
A_2    1.00  1.00 -1.00
E      2.00 -1.00  0.00

     the symmetry operations in each class and the name of the first element:

     E        1
          identity                                               
     2C3      2    3
          120 deg rotation - cryst. axis [0,0,1]                 
     3s_v     4    5    6
          inv. 180 deg rotation - cart. axis [1,0,0]             

   Cartesian axes

     site n.     atom                  positions (alat units)
         1        Co     tau(   1) = (   0.0000000   0.0000000   0.0000000  )
         2        O      tau(   2) = (  -0.0000000   0.5773503   0.3404255  )
         3        O      tau(   3) = (   0.5000000   0.2886751   2.6382979  )
         4        Li     tau(   4) = (   0.0000000   0.0000000   1.6666667  )

   Crystallographic axes

     site n.     atom                  positions (cryst. coord.)
         1        Co     tau(   1) = (  0.0000000  0.0000000  0.0000000  )
         2        O      tau(   2) = (  0.3333333  0.6666667  0.1142857  )
         3        O      tau(   3) = (  0.6666667  0.3333333  0.8857143  )
         4        Li     tau(   4) = (  0.0000000  0.0000000  0.5595238  )

     number of k points=    25  Marzari-Vanderbilt smearing, width (Ry)=  0.0200
                       cart. coord. in units 2pi/alat
        k(    1) = (   0.0000000   0.0000000   0.0000000), wk =   0.0052083
        k(    2) = (   0.0000000   0.0000000   0.1119048), wk =   0.0104167
        k(    3) = (   0.0000000   0.1443376   0.0000000), wk =   0.0312500
        k(    4) = (   0.0000000   0.1443376   0.1119048), wk =   0.0312500
        k(    5) = (   0.0000000   0.2886751   0.0000000), wk =   0.0312500
        k(    6) = (   0.0000000   0.2886751   0.1119048), wk =   0.0312500
        k(    7) = (   0.0000000   0.4330127   0.0000000), wk =   0.0312500
        k(    8) = (   0.0000000   0.4330127   0.1119048), wk =   0.0312500
        k(    9) = (   0.0000000  -0.5773503   0.0000000), wk =   0.0156250
        k(   10) = (   0.0000000  -0.5773503   0.1119048), wk =   0.0312500
        k(   11) = (   0.1250000   0.2165064   0.0000000), wk =   0.0312500
        k(   12) = (   0.1250000   0.2165064   0.1119048), wk =   0.0625000
        k(   13) = (   0.1250000   0.3608439   0.0000000), wk =   0.0625000
        k(   14) = (   0.1250000   0.3608439   0.1119048), wk =   0.0625000
        k(   15) = (   0.1250000   0.5051815   0.0000000), wk =   0.0625000
        k(   16) = (   0.1250000   0.5051815   0.1119048), wk =   0.0625000
        k(   17) = (   0.2500000   0.4330127   0.0000000), wk =   0.0312500
        k(   18) = (   0.2500000   0.4330127   0.1119048), wk =   0.0625000
        k(   19) = (   0.2500000   0.5773503   0.0000000), wk =   0.0312500
        k(   20) = (   0.2500000   0.5773503   0.1119048), wk =   0.0625000
        k(   21) = (   0.0000000  -0.1443376   0.1119048), wk =   0.0312500
        k(   22) = (   0.0000000  -0.2886751   0.1119048), wk =   0.0312500
        k(   23) = (   0.0000000  -0.4330127   0.1119048), wk =   0.0312500
        k(   24) = (  -0.1250000  -0.3608439   0.1119048), wk =   0.0625000
        k(   25) = (  -0.1250000  -0.5051815   0.1119048), wk =   0.0625000

                       cryst. coord.
        k(    1) = (   0.0000000   0.0000000   0.0000000), wk =   0.0052083
        k(    2) = (   0.0000000   0.0000000   0.3333333), wk =   0.0104167
        k(    3) = (   0.0000000   0.1250000   0.0000000), wk =   0.0312500
        k(    4) = (   0.0000000   0.1250000   0.3333333), wk =   0.0312500
        k(    5) = (   0.0000000   0.2500000   0.0000000), wk =   0.0312500
        k(    6) = (   0.0000000   0.2500000   0.3333333), wk =   0.0312500
        k(    7) = (   0.0000000   0.3750000   0.0000000), wk =   0.0312500
        k(    8) = (   0.0000000   0.3750000   0.3333333), wk =   0.0312500
        k(    9) = (   0.0000000  -0.5000000   0.0000000), wk =   0.0156250
        k(   10) = (   0.0000000  -0.5000000   0.3333333), wk =   0.0312500
        k(   11) = (   0.1250000   0.1250000   0.0000000), wk =   0.0312500
        k(   12) = (   0.1250000   0.1250000   0.3333333), wk =   0.0625000
        k(   13) = (   0.1250000   0.2500000   0.0000000), wk =   0.0625000
        k(   14) = (   0.1250000   0.2500000   0.3333333), wk =   0.0625000
        k(   15) = (   0.1250000   0.3750000   0.0000000), wk =   0.0625000
        k(   16) = (   0.1250000   0.3750000   0.3333333), wk =   0.0625000
        k(   17) = (   0.2500000   0.2500000   0.0000000), wk =   0.0312500
        k(   18) = (   0.2500000   0.2500000   0.3333333), wk =   0.0625000
        k(   19) = (   0.2500000   0.3750000   0.0000000), wk =   0.0312500
        k(   20) = (   0.2500000   0.3750000   0.3333333), wk =   0.0625000
        k(   21) = (   0.0000000  -0.1250000   0.3333333), wk =   0.0312500
        k(   22) = (   0.0000000  -0.2500000   0.3333333), wk =   0.0312500
        k(   23) = (   0.0000000  -0.3750000   0.3333333), wk =   0.0312500
        k(   24) = (  -0.1250000  -0.2500000   0.3333333), wk =   0.0625000
        k(   25) = (  -0.1250000  -0.3750000   0.3333333), wk =   0.0625000

     Dense  grid:    69237 G-vectors     FFT dimensions: (  40,  40, 120)

     Smooth grid:    24541 G-vectors     FFT dimensions: (  27,  27,  80)

     Dynamical RAM for                 wfc:       1.12 MB

     Dynamical RAM for     wfc (w. buffer):      57.23 MB

     Dynamical RAM for           str. fact:       3.17 MB

     Dynamical RAM for           local pot:       0.00 MB

     Dynamical RAM for          nlocal pot:       1.96 MB

     Dynamical RAM for                qrad:       5.27 MB

     Dynamical RAM for          rho,v,vnew:      15.13 MB

     Dynamical RAM for               rhoin:       5.04 MB

     Dynamical RAM for            rho*nmix:      33.81 MB

     Dynamical RAM for           G-vectors:       4.15 MB

     Dynamical RAM for          h,s,v(r/c):       0.11 MB

     Dynamical RAM for          <psi|beta>:       0.02 MB

     Dynamical RAM for                 psi:       2.24 MB

     Dynamical RAM for                hpsi:       2.24 MB

     Dynamical RAM for                spsi:       2.24 MB

     Dynamical RAM for      wfcinit/wfcrot:       2.26 MB

     Dynamical RAM for           addusdens:     199.67 MB

     Dynamical RAM for          addusforce:     201.80 MB

     Estimated static dynamical RAM per process >     104.97 MB

     Estimated max dynamical RAM per process >     340.57 MB

     Check: negative core charge=   -0.000007
     Generating pointlists ...
     new r_m :   0.2765 (alat units)  1.4733 (a.u.) for type    1
     new r_m :   0.2765 (alat units)  1.4733 (a.u.) for type    2
     new r_m :   0.4125 (alat units)  2.1982 (a.u.) for type    3

     Initial potential from superposition of free atoms

     starting charge      31.9951, renormalised to      32.0000
     Starting wfcs are   23 randomized atomic wfcs +    1 random wfcs
     Checking if some PAW data can be deallocated... 

     total cpu time spent up to now is        3.5 secs

     Self-consistent Calculation
[tb_dev] Currently allocated     6.36E-01 Mbytes, locked:    0 /   6
[tb_pin] Currently allocated     0.00E+00 Mbytes, locked:    0 /   0

     iteration #  1     ecut=    60.00 Ry     beta= 0.30
     Davidson diagonalization with overlap

---- Real-time Memory Report at c_bands before calling an iterative solver
           679 MiB given to the printing process from OS
             0 MiB allocation reported by mallinfo(arena+hblkhd)
        848505 MiB available memory on the node where the printing process lives
     GPU memory used/free/total (MiB): 1046 / 80104 / 81151
------------------
     ethr =  1.00E-02,  avg # of iterations =  8.0

     total cpu time spent up to now is        5.4 secs

     total energy              =    -474.72229053 Ry
     estimated scf accuracy    <       1.73508510 Ry

     total magnetization       =     4.33 Bohr mag/cell
     absolute magnetization    =     4.36 Bohr mag/cell
[tb_dev] Currently allocated     3.05E-05 Mbytes, locked:    0 /   2
[tb_pin] Currently allocated     0.00E+00 Mbytes, locked:    0 /   0

     iteration #  2     ecut=    60.00 Ry     beta= 0.30
     Davidson diagonalization with overlap

---- Real-time Memory Report at c_bands before calling an iterative solver
           724 MiB given to the printing process from OS
             0 MiB allocation reported by mallinfo(arena+hblkhd)
        848425 MiB available memory on the node where the printing process lives
     GPU memory used/free/total (MiB): 1068 / 80082 / 81151
------------------
     ethr =  5.42E-03,  avg # of iterations =  1.8

     total cpu time spent up to now is        6.4 secs

     total energy              =    -474.79814168 Ry
     estimated scf accuracy    <       0.77015743 Ry

     total magnetization       =     3.43 Bohr mag/cell
     absolute magnetization    =     3.44 Bohr mag/cell
[tb_dev] Currently allocated     3.05E-05 Mbytes, locked:    0 /   2
[tb_pin] Currently allocated     0.00E+00 Mbytes, locked:    0 /   0

     iteration #  3     ecut=    60.00 Ry     beta= 0.30
     Davidson diagonalization with overlap

---- Real-time Memory Report at c_bands before calling an iterative solver
           727 MiB given to the printing process from OS
             0 MiB allocation reported by mallinfo(arena+hblkhd)
        848430 MiB available memory on the node where the printing process lives
     GPU memory used/free/total (MiB): 1068 / 80082 / 81151
------------------
     ethr =  2.41E-03,  avg # of iterations =  1.9

     total cpu time spent up to now is        7.5 secs

     total energy              =    -474.88571703 Ry
     estimated scf accuracy    <       0.44673378 Ry

     total magnetization       =     2.17 Bohr mag/cell
     absolute magnetization    =     2.20 Bohr mag/cell
[tb_dev] Currently allocated     3.05E-05 Mbytes, locked:    0 /   2
[tb_pin] Currently allocated     0.00E+00 Mbytes, locked:    0 /   0

     iteration #  4     ecut=    60.00 Ry     beta= 0.30
     Davidson diagonalization with overlap

---- Real-time Memory Report at c_bands before calling an iterative solver
           729 MiB given to the printing process from OS
             0 MiB allocation reported by mallinfo(arena+hblkhd)
        848427 MiB available memory on the node where the printing process lives
     GPU memory used/free/total (MiB): 1068 / 80082 / 81151
------------------
     ethr =  1.40E-03,  avg # of iterations =  1.4

     total cpu time spent up to now is        8.5 secs

     total energy              =    -474.91572359 Ry
     estimated scf accuracy    <       0.15595173 Ry

     total magnetization       =     2.04 Bohr mag/cell
     absolute magnetization    =     2.15 Bohr mag/cell
[tb_dev] Currently allocated     3.05E-05 Mbytes, locked:    0 /   2
[tb_pin] Currently allocated     0.00E+00 Mbytes, locked:    0 /   0

     iteration #  5     ecut=    60.00 Ry     beta= 0.30
     Davidson diagonalization with overlap

---- Real-time Memory Report at c_bands before calling an iterative solver
           730 MiB given to the printing process from OS
             0 MiB allocation reported by mallinfo(arena+hblkhd)
        848429 MiB available memory on the node where the printing process lives
     GPU memory used/free/total (MiB): 1068 / 80082 / 81151
------------------
     ethr =  4.87E-04,  avg # of iterations =  2.5

     total cpu time spent up to now is        9.6 secs

     total energy              =    -474.98537804 Ry
     estimated scf accuracy    <       0.11576958 Ry

     total magnetization       =     0.65 Bohr mag/cell
     absolute magnetization    =     1.04 Bohr mag/cell
[tb_dev] Currently allocated     3.05E-05 Mbytes, locked:    0 /   2
[tb_pin] Currently allocated     0.00E+00 Mbytes, locked:    0 /   0

     iteration #  6     ecut=    60.00 Ry     beta= 0.30
     Davidson diagonalization with overlap

---- Real-time Memory Report at c_bands before calling an iterative solver
           733 MiB given to the printing process from OS
             0 MiB allocation reported by mallinfo(arena+hblkhd)
        848430 MiB available memory on the node where the printing process lives
     GPU memory used/free/total (MiB): 1068 / 80082 / 81151
------------------
     ethr =  3.62E-04,  avg # of iterations =  3.1

     total cpu time spent up to now is       10.8 secs

     total energy              =    -474.99731719 Ry
     estimated scf accuracy    <       0.01352377 Ry

     total magnetization       =     0.53 Bohr mag/cell
     absolute magnetization    =     0.72 Bohr mag/cell
[tb_dev] Currently allocated     3.05E-05 Mbytes, locked:    0 /   2
[tb_pin] Currently allocated     0.00E+00 Mbytes, locked:    0 /   0

     iteration #  7     ecut=    60.00 Ry     beta= 0.30
     Davidson diagonalization with overlap

---- Real-time Memory Report at c_bands before calling an iterative solver
           735 MiB given to the printing process from OS
             0 MiB allocation reported by mallinfo(arena+hblkhd)
        848456 MiB available memory on the node where the printing process lives
     GPU memory used/free/total (MiB): 1068 / 80082 / 81151
------------------
     ethr =  4.23E-05,  avg # of iterations =  8.2

     total cpu time spent up to now is       12.6 secs

     total energy              =    -474.99841524 Ry
     estimated scf accuracy    <       0.00823962 Ry

     total magnetization       =     0.61 Bohr mag/cell
     absolute magnetization    =     0.74 Bohr mag/cell
[tb_dev] Currently allocated     3.05E-05 Mbytes, locked:    0 /   2
[tb_pin] Currently allocated     0.00E+00 Mbytes, locked:    0 /   0

     iteration #  8     ecut=    60.00 Ry     beta= 0.30
     Davidson diagonalization with overlap

---- Real-time Memory Report at c_bands before calling an iterative solver
           738 MiB given to the printing process from OS
             0 MiB allocation reported by mallinfo(arena+hblkhd)
        848919 MiB available memory on the node where the printing process lives
     GPU memory used/free/total (MiB): 1068 / 80082 / 81151
------------------
     ethr =  2.57E-05,  avg # of iterations =  3.2

     total cpu time spent up to now is       13.8 secs

     total energy              =    -475.00186323 Ry
     estimated scf accuracy    <       0.00257575 Ry

     total magnetization       =     0.42 Bohr mag/cell
     absolute magnetization    =     0.51 Bohr mag/cell
[tb_dev] Currently allocated     3.05E-05 Mbytes, locked:    0 /   2
[tb_pin] Currently allocated     0.00E+00 Mbytes, locked:    0 /   0

     iteration #  9     ecut=    60.00 Ry     beta= 0.30
     Davidson diagonalization with overlap

---- Real-time Memory Report at c_bands before calling an iterative solver
           739 MiB given to the printing process from OS
             0 MiB allocation reported by mallinfo(arena+hblkhd)
        848720 MiB available memory on the node where the printing process lives
     GPU memory used/free/total (MiB): 1068 / 80082 / 81151
------------------
     ethr =  8.05E-06,  avg # of iterations =  3.3

     total cpu time spent up to now is       15.0 secs

     total energy              =    -475.00290912 Ry
     estimated scf accuracy    <       0.00084228 Ry

     total magnetization       =     0.58 Bohr mag/cell
     absolute magnetization    =     0.67 Bohr mag/cell
[tb_dev] Currently allocated     3.05E-05 Mbytes, locked:    0 /   2
[tb_pin] Currently allocated     0.00E+00 Mbytes, locked:    0 /   0

     iteration # 10     ecut=    60.00 Ry     beta= 0.30
     Davidson diagonalization with overlap

---- Real-time Memory Report at c_bands before calling an iterative solver
           740 MiB given to the printing process from OS
             0 MiB allocation reported by mallinfo(arena+hblkhd)
        848620 MiB available memory on the node where the printing process lives
     GPU memory used/free/total (MiB): 1068 / 80082 / 81151
------------------
     ethr =  2.63E-06,  avg # of iterations =  5.8

     total cpu time spent up to now is       16.6 secs

     total energy              =    -475.00322357 Ry
     estimated scf accuracy    <       0.00098680 Ry

     total magnetization       =     0.63 Bohr mag/cell
     absolute magnetization    =     0.73 Bohr mag/cell
[tb_dev] Currently allocated     3.05E-05 Mbytes, locked:    0 /   2
[tb_pin] Currently allocated     0.00E+00 Mbytes, locked:    0 /   0

     iteration # 11     ecut=    60.00 Ry     beta= 0.30
     Davidson diagonalization with overlap

---- Real-time Memory Report at c_bands before calling an iterative solver
           740 MiB given to the printing process from OS
             0 MiB allocation reported by mallinfo(arena+hblkhd)
        848607 MiB available memory on the node where the printing process lives
     GPU memory used/free/total (MiB): 1068 / 80082 / 81151
------------------
     ethr =  2.63E-06,  avg # of iterations =  1.5

     total cpu time spent up to now is       17.6 secs

     total energy              =    -475.00339784 Ry
     estimated scf accuracy    <       0.00005142 Ry

     total magnetization       =     0.61 Bohr mag/cell
     absolute magnetization    =     0.71 Bohr mag/cell
[tb_dev] Currently allocated     3.05E-05 Mbytes, locked:    0 /   2
[tb_pin] Currently allocated     0.00E+00 Mbytes, locked:    0 /   0

     iteration # 12     ecut=    60.00 Ry     beta= 0.30
     Davidson diagonalization with overlap

---- Real-time Memory Report at c_bands before calling an iterative solver
           740 MiB given to the printing process from OS
             0 MiB allocation reported by mallinfo(arena+hblkhd)
        848455 MiB available memory on the node where the printing process lives
     GPU memory used/free/total (MiB): 1068 / 80082 / 81151
------------------
     ethr =  1.61E-07,  avg # of iterations =  6.3

     total cpu time spent up to now is       19.2 secs

     total energy              =    -475.00346197 Ry
     estimated scf accuracy    <       0.00002797 Ry

     total magnetization       =     0.61 Bohr mag/cell
     absolute magnetization    =     0.72 Bohr mag/cell
[tb_dev] Currently allocated     3.05E-05 Mbytes, locked:    0 /   2
[tb_pin] Currently allocated     0.00E+00 Mbytes, locked:    0 /   0

     iteration # 13     ecut=    60.00 Ry     beta= 0.30
     Davidson diagonalization with overlap

---- Real-time Memory Report at c_bands before calling an iterative solver
           740 MiB given to the printing process from OS
             0 MiB allocation reported by mallinfo(arena+hblkhd)
        848472 MiB available memory on the node where the printing process lives
     GPU memory used/free/total (MiB): 1068 / 80082 / 81151
------------------
     ethr =  8.74E-08,  avg # of iterations =  2.0

     total cpu time spent up to now is       20.3 secs

     total energy              =    -475.00347040 Ry
     estimated scf accuracy    <       0.00000796 Ry

     total magnetization       =     0.61 Bohr mag/cell
     absolute magnetization    =     0.72 Bohr mag/cell
[tb_dev] Currently allocated     3.05E-05 Mbytes, locked:    0 /   2
[tb_pin] Currently allocated     0.00E+00 Mbytes, locked:    0 /   0

     iteration # 14     ecut=    60.00 Ry     beta= 0.30
     Davidson diagonalization with overlap

---- Real-time Memory Report at c_bands before calling an iterative solver
           740 MiB given to the printing process from OS
             0 MiB allocation reported by mallinfo(arena+hblkhd)
        848950 MiB available memory on the node where the printing process lives
     GPU memory used/free/total (MiB): 1068 / 80082 / 81151
------------------
     ethr =  2.49E-08,  avg # of iterations =  4.0

     total cpu time spent up to now is       21.7 secs

     total energy              =    -475.00347458 Ry
     estimated scf accuracy    <       0.00000143 Ry

     total magnetization       =     0.60 Bohr mag/cell
     absolute magnetization    =     0.72 Bohr mag/cell
[tb_dev] Currently allocated     3.05E-05 Mbytes, locked:    0 /   2
[tb_pin] Currently allocated     0.00E+00 Mbytes, locked:    0 /   0

     iteration # 15     ecut=    60.00 Ry     beta= 0.30
     Davidson diagonalization with overlap

---- Real-time Memory Report at c_bands before calling an iterative solver
           740 MiB given to the printing process from OS
             0 MiB allocation reported by mallinfo(arena+hblkhd)
        848806 MiB available memory on the node where the printing process lives
     GPU memory used/free/total (MiB): 1068 / 80082 / 81151
------------------
     ethr =  4.47E-09,  avg # of iterations =  5.1

     total cpu time spent up to now is       23.2 secs

     total energy              =    -475.00347558 Ry
     estimated scf accuracy    <       0.00000040 Ry

     total magnetization       =     0.60 Bohr mag/cell
     absolute magnetization    =     0.72 Bohr mag/cell
[tb_dev] Currently allocated     3.05E-05 Mbytes, locked:    0 /   2
[tb_pin] Currently allocated     0.00E+00 Mbytes, locked:    0 /   0

     iteration # 16     ecut=    60.00 Ry     beta= 0.30
     Davidson diagonalization with overlap

---- Real-time Memory Report at c_bands before calling an iterative solver
           740 MiB given to the printing process from OS
             0 MiB allocation reported by mallinfo(arena+hblkhd)
        848616 MiB available memory on the node where the printing process lives
     GPU memory used/free/total (MiB): 1068 / 80082 / 81151
------------------
     ethr =  1.26E-09,  avg # of iterations =  3.5

     total cpu time spent up to now is       24.5 secs

     total energy              =    -475.00347580 Ry
     estimated scf accuracy    <       0.00000012 Ry

     total magnetization       =     0.60 Bohr mag/cell
     absolute magnetization    =     0.72 Bohr mag/cell
[tb_dev] Currently allocated     3.05E-05 Mbytes, locked:    0 /   2
[tb_pin] Currently allocated     0.00E+00 Mbytes, locked:    0 /   0

     iteration # 17     ecut=    60.00 Ry     beta= 0.30
     Davidson diagonalization with overlap

---- Real-time Memory Report at c_bands before calling an iterative solver
           740 MiB given to the printing process from OS
             0 MiB allocation reported by mallinfo(arena+hblkhd)
        849011 MiB available memory on the node where the printing process lives
     GPU memory used/free/total (MiB): 1068 / 80082 / 81151
------------------
     ethr =  3.73E-10,  avg # of iterations =  4.5
 
     Magnetic moment per site  (integrated on atomic sphere of radius R)
     atom   1 (R=0.276)  charge= 14.0232  magn=  0.4972
     atom   2 (R=0.276)  charge=  5.1567  magn=  0.0606
     atom   3 (R=0.276)  charge=  5.1736  magn=  0.0503
     atom   4 (R=0.413)  charge=  2.3162  magn= -0.0272

     total cpu time spent up to now is       25.8 secs

     End of self-consistent calculation

 ------ SPIN UP ------------


          k = 0.0000 0.0000 0.0000 (  3123 PWs)   bands (ev):

   -91.4737 -54.7256 -54.6703 -54.6703 -42.9708 -15.3862 -13.3421  -1.6627
    -1.0224  -1.0224   1.8647   2.6935   2.6935   2.8566   2.8566   2.9015
     4.2034   6.8405   6.8405   7.0219  11.4489  14.4659  15.7364  19.9936

     occupation numbers 
     1.0000   1.0000   1.0000   1.0000   1.0000   1.0000   1.0000   1.0000
     1.0000   1.0000   1.0000   1.0000   1.0000   1.0000   1.0000   1.0000
     0.9056   0.0000   0.0000   0.0000   0.0000   0.0000   0.0000   0.0000

          k = 0.0000 0.0000 0.1119 (  3075 PWs)   bands (ev):

   -91.4737 -54.7253 -54.6701 -54.6701 -42.9707 -15.3861 -13.3421  -1.6512
    -1.0223  -1.0223   1.6556   2.6935   2.6935   2.8566   2.8566   3.3182
     4.0765   6.7787   6.8407   6.8407  12.1336  13.7157  15.7595  19.9947

     occupation numbers 
     1.0000   1.0000   1.0000   1.0000   1.0000   1.0000   1.0000   1.0000
     1.0000   1.0000   1.0000   1.0000   1.0000   1.0000   1.0000   1.0000
     1.0680   0.0000   0.0000   0.0000   0.0000   0.0000   0.0000   0.0000

          k = 0.0000 0.1443 0.0000 (  3099 PWs)   bands (ev):

   -91.4727 -54.7240 -54.6810 -54.6727 -42.9666 -15.1956 -13.3435  -1.4622
    -1.2123  -0.9025   1.5610   1.9891   2.2641   3.0957   3.1977   3.4581
     4.2964   6.2772   6.7344   7.4365  11.9731  15.1082  15.9987  18.1804

     occupation numbers 
     1.0000   1.0000   1.0000   1.0000   1.0000   1.0000   1.0000   1.0000
     1.0000   1.0000   1.0000   1.0000   1.0000   1.0000   1.0000   1.0002
     0.6781   0.0000   0.0000   0.0000   0.0000   0.0000   0.0000   0.0000

          k = 0.0000 0.1443 0.1119 (  3086 PWs)   bands (ev):

   -91.4726 -54.7239 -54.6809 -54.6727 -42.9665 -15.1955 -13.3435  -1.4537
    -1.2125  -0.9025   1.5634   1.9891   2.0688   3.1307   3.4580   3.5453
     4.1446   6.3680   6.7344   7.1713  12.5910  14.2064  16.3185  18.1916

     occupation numbers 
     1.0000   1.0000   1.0000   1.0000   1.0000   1.0000   1.0000   1.0000
     1.0000   1.0000   1.0000   1.0000   1.0000   1.0000   1.0002   1.0008
     1.0052   0.0000   0.0000   0.0000   0.0000   0.0000   0.0000   0.0000

          k = 0.0000 0.2887 0.0000 (  3067 PWs)   bands (ev):

   -91.4701 -54.7199 -54.7071 -54.6788 -42.9564 -14.6952 -13.3600  -1.5488
    -0.8854  -0.6257   0.1156   1.4031   2.6111   3.2524   3.6689   3.7025
     4.3000   5.7071   6.6058   8.3325  12.8943  14.7255  16.4110  17.1213

     occupation numbers 
     1.0000   1.0000   1.0000   1.0000   1.0000   1.0000   1.0000   1.0000
     1.0000   1.0000   1.0000   1.0000   1.0000   1.0000   1.0054   1.0085
     0.6684   0.0000   0.0000   0.0000   0.0000   0.0000   0.0000   0.0000

          k = 0.0000 0.2887 0.1119 (  3070 PWs)   bands (ev):

   -91.4701 -54.7200 -54.7071 -54.6788 -42.9564 -14.6952 -13.3600  -1.5519
    -0.8787  -0.6257   0.1197   1.4031   2.5655   3.1989   3.7025   3.8936
     4.1077   5.8665   6.6058   8.1506  13.2051  14.7079  15.6696  17.3755

     occupation numbers 
     1.0000   1.0000   1.0000   1.0000   1.0000   1.0000   1.0000   1.0000
     1.0000   1.0000   1.0000   1.0000   1.0000   1.0000   1.0085   1.0544
     1.0459   0.0000   0.0000   0.0000   0.0000   0.0000   0.0000   0.0000

          k = 0.0000 0.4330 0.0000 (  3054 PWs)   bands (ev):

   -91.4676 -54.7335 -54.7158 -54.6849 -42.9463 -14.0976 -13.4236  -2.0142
    -0.8952  -0.4314   0.1418   1.2525   2.0802   3.1503   3.4500   3.7232
     4.9812   5.9881   6.6476   9.7698  11.2167  14.9707  15.6159  16.3372

     occupation numbers 
     1.0000   1.0000   1.0000   1.0000   1.0000   1.0000   1.0000   1.0000
     1.0000   1.0000   1.0000   1.0000   1.0000   1.0000   1.0001   1.0110
     0.0001   0.0000   0.0000   0.0000   0.0000   0.0000   0.0000   0.0000

          k = 0.0000 0.4330 0.1119 (  3062 PWs)   bands (ev):

   -91.4676 -54.7335 -54.7158 -54.6850 -42.9463 -14.0977 -13.4236  -2.0152
    -0.8957  -0.4315   0.1452   1.2525   2.0888   3.1440   3.4499   3.7309
     4.8843   6.1038   6.6474   9.7199  11.1951  15.0688  15.9556  16.3397

     occupation numbers 
     1.0000   1.0000   1.0000   1.0000   1.0000   1.0000   1.0000   1.0000
     1.0000   1.0000   1.0000   1.0000   1.0000   1.0000   1.0001   1.0121
     0.0010   0.0000   0.0000   0.0000   0.0000   0.0000   0.0000   0.0000

          k = 0.0000-0.5774 0.0000 (  3050 PWs)   bands (ev):

   -91.4665 -54.7443 -54.7142 -54.6876 -42.9420 -13.7359 -13.5445  -2.4275
    -0.7066  -0.4034   0.3259   1.3442   1.7935   2.9144   3.2144   3.6547
     5.7216   6.1931   6.7006   9.7807  11.4688  13.2270  15.9814  16.1418

     occupation numbers 
     1.0000   1.0000   1.0000   1.0000   1.0000   1.0000   1.0000   1.0000
     1.0000   1.0000   1.0000   1.0000   1.0000   1.0000   1.0000   1.0045
     0.0000   0.0000   0.0000   0.0000   0.0000   0.0000   0.0000   0.0000

          k = 0.0000-0.5774 0.1119 (  3058 PWs)   bands (ev):

   -91.4665 -54.7444 -54.7142 -54.6876 -42.9421 -13.7359 -13.5445  -2.4281
    -0.7067  -0.4034   0.3245   1.3441   1.8051   2.9119   3.2144   3.6508
     5.6555   6.2581   6.7005   9.7413  11.5619  13.2291  15.9876  16.8363

     occupation numbers 
     1.0000   1.0000   1.0000   1.0000   1.0000   1.0000   1.0000   1.0000
     1.0000   1.0000   1.0000   1.0000   1.0000   1.0000   1.0000   1.0042
     0.0000   0.0000   0.0000   0.0000   0.0000   0.0000   0.0000   0.0000

          k = 0.1250 0.2165 0.0000 (  3085 PWs)   bands (ev):

   -91.4709 -54.7211 -54.6982 -54.6783 -42.9594 -14.8497 -13.3518  -1.4535
    -1.0257  -0.7489   0.6575   1.2331   2.6558   3.2312   3.4906   3.7948
     4.2974   5.8770   6.4723   8.0518  12.7741  15.6772  16.0536  16.3236

     occupation numbers 
     1.0000   1.0000   1.0000   1.0000   1.0000   1.0000   1.0000   1.0000
     1.0000   1.0000   1.0000   1.0000   1.0000   1.0000   1.0003   1.0242
     0.6754   0.0000   0.0000   0.0000   0.0000   0.0000   0.0000   0.0000

          k = 0.1250 0.2165 0.1119 (  3077 PWs)   bands (ev):

   -91.4709 -54.7211 -54.6982 -54.6783 -42.9594 -14.8497 -13.3518  -1.4560
    -1.0177  -0.7487   0.6607   1.2331   2.5370   3.2339   3.5964   3.9081
     4.1909   5.9782   6.4316   7.9129  13.1442  15.0387  15.7799  17.0116

     occupation numbers 
     1.0000   1.0000   1.0000   1.0000   1.0000   1.0000   1.0000   1.0000
     1.0000   1.0000   1.0000   1.0000   1.0000   1.0000   1.0019   1.0594
     0.9300   0.0000   0.0000   0.0000   0.0000   0.0000   0.0000   0.0000

          k = 0.1250 0.3608 0.0000 (  3058 PWs)   bands (ev):

   -91.4683 -54.7219 -54.7170 -54.6871 -42.9492 -14.3002 -13.3844  -1.5930
    -1.0278  -0.3929   0.0420   0.7990   2.4134   3.2633   3.5984   3.9202
     4.6541   5.8985   6.3627   9.2249  12.3714  13.9983  15.9281  17.1315

     occupation numbers 
     1.0000   1.0000   1.0000   1.0000   1.0000   1.0000   1.0000   1.0000
     1.0000   1.0000   1.0000   1.0000   1.0000   1.0000   1.0019   1.0635
     0.0367   0.0000   0.0000   0.0000   0.0000   0.0000   0.0000   0.0000

          k = 0.1250 0.3608 0.1119 (  3067 PWs)   bands (ev):

   -91.4683 -54.7219 -54.7170 -54.6872 -42.9493 -14.3002 -13.3845  -1.5951
    -1.0279  -0.3906   0.0465   0.7992   2.4088   3.2625   3.6088   3.8984
     4.6152   6.0229   6.3208   9.1653  12.3800  14.0694  15.8850  16.9081

     occupation numbers 
     1.0000   1.0000   1.0000   1.0000   1.0000   1.0000   1.0000   1.0000
     1.0000   1.0000   1.0000   1.0000   1.0000   1.0000   1.0023   1.0560
     0.0587   0.0000   0.0000   0.0000   0.0000   0.0000   0.0000   0.0000

          k = 0.1250 0.5052 0.0000 (  3055 PWs)   bands (ev):

   -91.4665 -54.7384 -54.7143 -54.6935 -42.9421 -13.8110 -13.4711  -2.1192
    -1.0546  -0.1543   0.3554   0.7838   1.7847   3.0392   3.3525   3.8463
     5.6776   6.1688   6.4781   9.9714  11.0850  14.2732  14.4652  16.4350

     occupation numbers 
     1.0000   1.0000   1.0000   1.0000   1.0000   1.0000   1.0000   1.0000
     1.0000   1.0000   1.0000   1.0000   1.0000   1.0000   1.0000   1.0385
     0.0000   0.0000   0.0000   0.0000   0.0000   0.0000   0.0000   0.0000

          k = 0.1250 0.5052 0.1119 (  3051 PWs)   bands (ev):

   -91.4665 -54.7384 -54.7142 -54.6936 -42.9421 -13.8110 -13.4711  -2.1198
    -1.0549  -0.1543   0.3554   0.7837   1.7923   3.0378   3.3537   3.8411
     5.6295   6.2465   6.4470   9.9594  11.0886  14.2961  14.4861  16.7561

     occupation numbers 
     1.0000   1.0000   1.0000   1.0000   1.0000   1.0000   1.0000   1.0000
     1.0000   1.0000   1.0000   1.0000   1.0000   1.0000   1.0000   1.0369
     0.0000   0.0000   0.0000   0.0000   0.0000   0.0000   0.0000   0.0000

          k = 0.2500 0.4330 0.0000 (  3067 PWs)   bands (ev):

   -91.4665 -54.7302 -54.7144 -54.7019 -42.9421 -13.8623 -13.4216  -1.5417
    -1.3826  -0.3198   0.3091   0.4889   1.8192   3.1205   3.4534   4.0389
     5.5881   6.1319   6.2927  10.2664  10.7988  13.4356  16.0375  16.7440

     occupation numbers 
     1.0000   1.0000   1.0000   1.0000   1.0000   1.0000   1.0000   1.0000
     1.0000   1.0000   1.0000   1.0000   1.0000   1.0000   1.0001   1.0811
     0.0000   0.0000   0.0000   0.0000   0.0000   0.0000   0.0000   0.0000

          k = 0.2500 0.4330 0.1119 (  3068 PWs)   bands (ev):

   -91.4665 -54.7301 -54.7144 -54.7019 -42.9421 -13.8623 -13.4216  -1.5420
    -1.3836  -0.3199   0.3104   0.4912   1.8184   3.1217   3.4557   4.0250
     5.6482   6.0877   6.2732  10.2672  10.8319  13.3974  15.9904  16.7805

     occupation numbers 
     1.0000   1.0000   1.0000   1.0000   1.0000   1.0000   1.0000   1.0000
     1.0000   1.0000   1.0000   1.0000   1.0000   1.0000   1.0001   1.0829
     0.0000   0.0000   0.0000   0.0000   0.0000   0.0000   0.0000   0.0000

          k = 0.2500 0.5774 0.0000 (  3044 PWs)   bands (ev):

   -91.4658 -54.7306 -54.7131 -54.7107 -42.9391 -13.6514 -13.4555  -1.7000
    -1.2998  -0.5090   0.4756   0.7368   1.3466   2.8244   3.6758   3.9451
     6.0336   6.1056   6.9680   8.7301  12.3505  13.2691  14.3062  16.6012

     occupation numbers 
     1.0000   1.0000   1.0000   1.0000   1.0000   1.0000   1.0000   1.0000
     1.0000   1.0000   1.0000   1.0000   1.0000   1.0000   1.0060   1.0714
     0.0000   0.0000   0.0000   0.0000   0.0000   0.0000   0.0000   0.0000

          k = 0.2500 0.5774 0.1119 (  3050 PWs)   bands (ev):

   -91.4658 -54.7307 -54.7131 -54.7108 -42.9391 -13.6514 -13.4555  -1.7004
    -1.3001  -0.5093   0.4765   0.7367   1.3483   2.8242   3.6766   3.9409
     6.0684   6.1109   6.9240   8.7086  12.3763  13.2568  14.3741  16.5718

     occupation numbers 
     1.0000   1.0000   1.0000   1.0000   1.0000   1.0000   1.0000   1.0000
     1.0000   1.0000   1.0000   1.0000   1.0000   1.0000   1.0060   1.0701
     0.0000   0.0000   0.0000   0.0000   0.0000   0.0000   0.0000   0.0000

          k = 0.0000-0.1443 0.1119 (  3086 PWs)   bands (ev):

   -91.4726 -54.7239 -54.6809 -54.6727 -42.9665 -15.1955 -13.3435  -1.4528
    -1.2133  -0.9025   1.5562   1.9891   2.0778   3.1332   3.4581   3.5301
     4.1689   6.2925   6.7344   7.2461  12.5361  14.2508  16.3443  18.1420

     occupation numbers 
     1.0000   1.0000   1.0000   1.0000   1.0000   1.0000   1.0000   1.0000
     1.0000   1.0000   1.0000   1.0000   1.0000   1.0000   1.0002   1.0006
     0.9690   0.0000   0.0000   0.0000   0.0000   0.0000   0.0000   0.0000

          k = 0.0000-0.2887 0.1119 (  3070 PWs)   bands (ev):

   -91.4701 -54.7200 -54.7071 -54.6788 -42.9564 -14.6952 -13.3600  -1.5505
    -0.8803  -0.6257   0.1204   1.4032   2.5432   3.2228   3.7025   3.7834
     4.3033   5.7006   6.6058   8.2841  12.9871  14.8223  15.7896  17.3753

     occupation numbers 
     1.0000   1.0000   1.0000   1.0000   1.0000   1.0000   1.0000   1.0000
     1.0000   1.0000   1.0000   1.0000   1.0000   1.0000   1.0085   1.0216
     0.6591   0.0000   0.0000   0.0000   0.0000   0.0000   0.0000   0.0000

          k = 0.0000-0.4330 0.1119 (  3062 PWs)   bands (ev):

   -91.4676 -54.7335 -54.7158 -54.6850 -42.9463 -14.0976 -13.4236  -2.0150
    -0.8961  -0.4314   0.1483   1.2524   2.0762   3.1522   3.4499   3.7098
     4.9946   5.9722   6.6475   9.8539  11.1678  14.7898  15.6257  16.3394

     occupation numbers 
     1.0000   1.0000   1.0000   1.0000   1.0000   1.0000   1.0000   1.0000
     1.0000   1.0000   1.0000   1.0000   1.0000   1.0000   1.0001   1.0093
     0.0001   0.0000   0.0000   0.0000   0.0000   0.0000   0.0000   0.0000

          k =-0.1250-0.3608 0.1119 (  3067 PWs)   bands (ev):

   -91.4683 -54.7219 -54.7170 -54.6872 -42.9493 -14.3002 -13.3845  -1.5946
    -1.0283  -0.3914   0.0484   0.7990   2.3991   3.2695   3.6169   3.8601
     4.7088   5.8934   6.3584   9.2393  12.3380  13.9993  15.9423  16.8722

     occupation numbers 
     1.0000   1.0000   1.0000   1.0000   1.0000   1.0000   1.0000   1.0000
     1.0000   1.0000   1.0000   1.0000   1.0000   1.0000   1.0026   1.0430
     0.0178   0.0000   0.0000   0.0000   0.0000   0.0000   0.0000   0.0000

          k =-0.1250-0.5052 0.1119 (  3051 PWs)   bands (ev):

   -91.4665 -54.7384 -54.7142 -54.6936 -42.9421 -13.8110 -13.4711  -2.1198
    -1.0548  -0.1547   0.3575   0.7842   1.7873   3.0402   3.3540   3.8362
     5.6942   6.1579   6.4652   9.9471  11.1821  14.2194  14.3879  16.4888

     occupation numbers 
     1.0000   1.0000   1.0000   1.0000   1.0000   1.0000   1.0000   1.0000
     1.0000   1.0000   1.0000   1.0000   1.0000   1.0000   1.0000   1.0354
     0.0000   0.0000   0.0000   0.0000   0.0000   0.0000   0.0000   0.0000

 ------ SPIN DOWN ----------


          k = 0.0000 0.0000 0.0000 (  3123 PWs)   bands (ev):

   -90.8613 -54.1171 -54.1171 -54.0414 -42.9883 -15.2964 -13.2424  -1.4148
    -0.8272  -0.8272   1.9823   2.8505   2.9273   2.9273   3.2215   3.2215
     4.8428   6.9804   7.1048   7.1048  11.4920  14.5441  15.8067  19.9417

     occupation numbers 
     1.0000   1.0000   1.0000   1.0000   1.0000   1.0000   1.0000   1.0000
     1.0000   1.0000   1.0000   1.0000   1.0000   1.0000   1.0000   1.0000
     0.0022   0.0000   0.0000   0.0000   0.0000   0.0000   0.0000   0.0000

          k = 0.0000 0.0000 0.1119 (  3075 PWs)   bands (ev):

   -90.8612 -54.1170 -54.1170 -54.0412 -42.9882 -15.2964 -13.2424  -1.3998
    -0.8271  -0.8271   1.7188   2.9274   2.9274   3.2215   3.2215   3.3001
     4.7244   6.7462   7.1049   7.1049  12.1809  13.7890  15.8152  19.9419

     occupation numbers 
     1.0000   1.0000   1.0000   1.0000   1.0000   1.0000   1.0000   1.0000
     1.0000   1.0000   1.0000   1.0000   1.0000   1.0000   1.0000   1.0000
     0.0142   0.0000   0.0000   0.0000   0.0000   0.0000   0.0000   0.0000

          k = 0.0000 0.1443 0.0000 (  3099 PWs)   bands (ev):

   -90.8602 -54.1282 -54.1197 -54.0397 -42.9840 -15.1052 -13.2432  -1.2291
    -1.0134  -0.7133   1.7477   2.2376   2.3849   3.0950   3.6103   3.8252
     4.8862   6.5026   6.9923   7.4401  12.0099  15.1845  16.0676  18.1102

     occupation numbers 
     1.0000   1.0000   1.0000   1.0000   1.0000   1.0000   1.0000   1.0000
     1.0000   1.0000   1.0000   1.0000   1.0000   1.0000   1.0023   1.0322
     0.0010   0.0000   0.0000   0.0000   0.0000   0.0000   0.0000   0.0000

          k = 0.0000 0.1443 0.1119 (  3086 PWs)   bands (ev):

   -90.8602 -54.1281 -54.1197 -54.0396 -42.9840 -15.1052 -13.2432  -1.2198
    -1.0117  -0.7133   1.7529   2.1331   2.2376   3.4294   3.6792   3.8252
     4.7579   6.6235   6.9923   7.1496  12.6312  14.2778  16.3786  18.1210

     occupation numbers 
     1.0000   1.0000   1.0000   1.0000   1.0000   1.0000   1.0000   1.0000
     1.0000   1.0000   1.0000   1.0000   1.0000   1.0001   1.0063   1.0322
     0.0087   0.0000   0.0000   0.0000   0.0000   0.0000   0.0000   0.0000

          k = 0.0000 0.2887 0.0000 (  3067 PWs)   bands (ev):

   -90.8575 -54.1551 -54.1260 -54.0354 -42.9738 -14.6032 -13.2580  -1.3813
    -0.6651  -0.4502   0.2905   1.6124   2.7653   3.6450   3.8254   4.1472
     4.7565   5.9803   6.8506   8.3098  12.8879  14.6616  16.4829  17.1798

     occupation numbers 
     1.0000   1.0000   1.0000   1.0000   1.0000   1.0000   1.0000   1.0000
     1.0000   1.0000   1.0000   1.0000   1.0000   1.0039   1.0323   1.0015
     0.0089   0.0000   0.0000   0.0000   0.0000   0.0000   0.0000   0.0000

          k = 0.0000 0.2887 0.1119 (  3070 PWs)   bands (ev):

   -90.8575 -54.1552 -54.1260 -54.0355 -42.9738 -14.6032 -13.2580  -1.3849
    -0.6572  -0.4502   0.2971   1.6123   2.6896   3.5869   4.0105   4.1473
     4.6441   6.1491   6.8506   8.1066  13.1861  14.6890  15.6959  17.2826

     occupation numbers 
     1.0000   1.0000   1.0000   1.0000   1.0000   1.0000   1.0000   1.0000
     1.0000   1.0000   1.0000   1.0000   1.0000   1.0016   1.0833   1.0015
     0.0415   0.0000   0.0000   0.0000   0.0000   0.0000   0.0000   0.0000

          k = 0.0000 0.4330 0.0000 (  3054 PWs)   bands (ev):

   -90.8549 -54.1822 -54.1322 -54.0313 -42.9636 -14.0037 -13.3199  -1.8672
    -0.7859  -0.2584   0.3995   1.3867   2.2405   3.7169   3.9847   4.3051
     4.8820   6.2827   6.8920   9.7294  11.1058  14.9836  15.5940  16.2382

     occupation numbers 
     1.0000   1.0000   1.0000   1.0000   1.0000   1.0000   1.0000   1.0000
     1.0000   1.0000   1.0000   1.0000   1.0000   1.0102   1.0808   0.6543
     0.0011   0.0000   0.0000   0.0000   0.0000   0.0000   0.0000   0.0000

          k = 0.0000 0.4330 0.1119 (  3062 PWs)   bands (ev):

   -90.8549 -54.1822 -54.1323 -54.0313 -42.9636 -14.0037 -13.3199  -1.8683
    -0.7865  -0.2584   0.4040   1.3867   2.2507   3.7017   3.9847   4.3271
     4.7960   6.3860   6.8918   9.6734  11.0837  15.0690  15.9462  16.2406

     occupation numbers 
     1.0000   1.0000   1.0000   1.0000   1.0000   1.0000   1.0000   1.0000
     1.0000   1.0000   1.0000   1.0000   1.0000   1.0084   1.0808   0.5935
     0.0047   0.0000   0.0000   0.0000   0.0000   0.0000   0.0000   0.0000

          k = 0.0000-0.5774 0.0000 (  3050 PWs)   bands (ev):

   -90.8538 -54.1933 -54.1349 -54.0296 -42.9593 -13.6446 -13.4365  -2.2935
    -0.6240  -0.2251   0.5915   1.4147   1.9336   3.5788   3.8092   4.2185
     5.5843   6.5004   6.9487   9.6736  11.4355  13.1643  15.8806  16.1826

     occupation numbers 
     1.0000   1.0000   1.0000   1.0000   1.0000   1.0000   1.0000   1.0000
     1.0000   1.0000   1.0000   1.0000   1.0000   1.0014   1.0278   0.8735
     0.0000   0.0000   0.0000   0.0000   0.0000   0.0000   0.0000   0.0000

          k = 0.0000-0.5774 0.1119 (  3058 PWs)   bands (ev):

   -90.8538 -54.1934 -54.1350 -54.0296 -42.9593 -13.6446 -13.4365  -2.2941
    -0.6241  -0.2251   0.5896   1.4146   1.9471   3.5737   3.8091   4.2144
     5.5425   6.5441   6.9486   9.6330  11.5303  13.1650  15.8835  16.0085

     occupation numbers 
     1.0000   1.0000   1.0000   1.0000   1.0000   1.0000   1.0000   1.0000
     1.0000   1.0000   1.0000   1.0000   1.0000   1.0013   1.0278   0.8824
     0.0000   0.0000   0.0000   0.0000   0.0000   0.0000   0.0000   0.0000

          k = 0.1250 0.2165 0.0000 (  3085 PWs)   bands (ev):

   -90.8583 -54.1460 -54.1254 -54.0367 -42.9768 -14.7583 -13.2502  -1.2840
    -0.7833  -0.5709   0.8198   1.4496   2.7856   3.5183   3.7599   4.1754
     4.8190   6.1236   6.7254   8.0368  12.7982  15.5825  16.0539  16.3935

     occupation numbers 
     1.0000   1.0000   1.0000   1.0000   1.0000   1.0000   1.0000   1.0000
     1.0000   1.0000   1.0000   1.0000   1.0000   1.0005   1.0168   0.9581
     0.0032   0.0000   0.0000   0.0000   0.0000   0.0000   0.0000   0.0000

          k = 0.1250 0.2165 0.1119 (  3077 PWs)   bands (ev):

   -90.8583 -54.1460 -54.1254 -54.0367 -42.9768 -14.7583 -13.2502  -1.2871
    -0.7733  -0.5702   0.8251   1.4495   2.6245   3.6980   3.7613   4.2471
     4.7217   6.2373   6.6771   7.8888  13.1672  15.1062  15.6498  17.0195

     occupation numbers 
     1.0000   1.0000   1.0000   1.0000   1.0000   1.0000   1.0000   1.0000
     1.0000   1.0000   1.0000   1.0000   1.0000   1.0080   1.0171   0.8067
     0.0148   0.0000   0.0000   0.0000   0.0000   0.0000   0.0000   0.0000

          k = 0.1250 0.3608 0.0000 (  3058 PWs)   bands (ev):

   -90.8557 -54.1702 -54.1345 -54.0325 -42.9666 -14.2069 -13.2812  -1.4345
    -0.8922  -0.2131   0.2669   0.9700   2.5695   3.8133   4.1624   4.3488
     4.6574   6.1738   6.6099   9.1901  12.2518  13.9690  15.9173  17.1896

     occupation numbers 
     1.0000   1.0000   1.0000   1.0000   1.0000   1.0000   1.0000   1.0000
     1.0000   1.0000   1.0000   1.0000   1.0000   1.0289   0.9794   0.5335
     0.0352   0.0000   0.0000   0.0000   0.0000   0.0000   0.0000   0.0000

          k = 0.1250 0.3608 0.1119 (  3067 PWs)   bands (ev):

   -90.8557 -54.1702 -54.1345 -54.0325 -42.9666 -14.2069 -13.2812  -1.4369
    -0.8923  -0.2111   0.2740   0.9702   2.5616   3.8063   4.1269   4.3874
     4.6226   6.2941   6.5676   9.1218  12.2590  14.0378  15.9043  16.9404

     occupation numbers 
     1.0000   1.0000   1.0000   1.0000   1.0000   1.0000   1.0000   1.0000
     1.0000   1.0000   1.0000   1.0000   1.0000   1.0271   1.0267   0.4303
     0.0539   0.0000   0.0000   0.0000   0.0000   0.0000   0.0000   0.0000

          k = 0.1250 0.5052 0.0000 (  3055 PWs)   bands (ev):

   -90.8538 -54.1872 -54.1411 -54.0296 -42.9593 -13.7174 -13.3655  -1.9839
    -0.9336  -0.0018   0.5824   0.9166   1.9403   3.7468   3.9234   4.3430
     5.5743   6.4486   6.7162   9.8494  11.0418  14.2210  14.4023  16.4640

     occupation numbers 
     1.0000   1.0000   1.0000   1.0000   1.0000   1.0000   1.0000   1.0000
     1.0000   1.0000   1.0000   1.0000   1.0000   1.0145   1.0645   0.5495
     0.0000   0.0000   0.0000   0.0000   0.0000   0.0000   0.0000   0.0000

          k = 0.1250 0.5052 0.1119 (  3051 PWs)   bands (ev):

   -90.8538 -54.1872 -54.1411 -54.0295 -42.9593 -13.7174 -13.3655  -1.9845
    -0.9340  -0.0017   0.5822   0.9165   1.9496   3.7429   3.9253   4.3364
     5.5447   6.5022   6.6938   9.8373  11.0452  14.2390  14.4273  16.7963

     occupation numbers 
     1.0000   1.0000   1.0000   1.0000   1.0000   1.0000   1.0000   1.0000
     1.0000   1.0000   1.0000   1.0000   1.0000   1.0139   1.0651   0.5678
     0.0000   0.0000   0.0000   0.0000   0.0000   0.0000   0.0000   0.0000

          k = 0.2500 0.4330 0.0000 (  3067 PWs)   bands (ev):

   -90.8539 -54.1788 -54.1497 -54.0296 -42.9594 -13.7682 -13.3163  -1.4140
    -1.2342  -0.2095   0.4886   0.7135   1.9779   3.8671   4.0016   4.5018
     5.5333   6.4108   6.4777  10.1155  10.7573  13.3919  16.0185  16.7409

     occupation numbers 
     1.0000   1.0000   1.0000   1.0000   1.0000   1.0000   1.0000   1.0000
     1.0000   1.0000   1.0000   1.0000   1.0000   1.0453   1.0828   0.1854
     0.0000   0.0000   0.0000   0.0000   0.0000   0.0000   0.0000   0.0000

          k = 0.2500 0.4330 0.1119 (  3068 PWs)   bands (ev):

   -90.8539 -54.1788 -54.1497 -54.0296 -42.9594 -13.7682 -13.3164  -1.4143
    -1.2354  -0.2096   0.4893   0.7176   1.9766   3.8685   4.0048   4.4786
     5.5830   6.3521   6.4913  10.1152  10.7913  13.3540  15.9770  16.7595

     occupation numbers 
     1.0000   1.0000   1.0000   1.0000   1.0000   1.0000   1.0000   1.0000
     1.0000   1.0000   1.0000   1.0000   1.0000   1.0458   1.0830   0.2256
     0.0000   0.0000   0.0000   0.0000   0.0000   0.0000   0.0000   0.0000

          k = 0.2500 0.5774 0.0000 (  3044 PWs)   bands (ev):

   -90.8531 -54.1793 -54.1588 -54.0283 -42.9563 -13.5594 -13.3469  -1.5690
    -1.1684  -0.4034   0.6396   0.9591   1.4865   3.6220   4.2052   4.4425
     6.2395   6.3863   6.8778   8.5841  12.3319  13.2212  14.2388  16.5525

     occupation numbers 
     1.0000   1.0000   1.0000   1.0000   1.0000   1.0000   1.0000   1.0000
     1.0000   1.0000   1.0000   1.0000   1.0000   1.0028   0.9019   0.2982
     0.0000   0.0000   0.0000   0.0000   0.0000   0.0000   0.0000   0.0000

          k = 0.2500 0.5774 0.1119 (  3050 PWs)   bands (ev):

   -90.8531 -54.1794 -54.1588 -54.0283 -42.9563 -13.5594 -13.3469  -1.5695
    -1.1687  -0.4037   0.6405   0.9589   1.4887   3.6217   4.2064   4.4369
     6.2956   6.3932   6.8137   8.5601  12.3599  13.2076  14.3078  16.5291

     occupation numbers 
     1.0000   1.0000   1.0000   1.0000   1.0000   1.0000   1.0000   1.0000
     1.0000   1.0000   1.0000   1.0000   1.0000   1.0027   0.8994   0.3106
     0.0000   0.0000   0.0000   0.0000   0.0000   0.0000   0.0000   0.0000

          k = 0.0000-0.1443 0.1119 (  3086 PWs)   bands (ev):

   -90.8602 -54.1281 -54.1197 -54.0396 -42.9840 -15.1052 -13.2432  -1.2186
    -1.0127  -0.7133   1.7376   2.1537   2.2376   3.4083   3.6961   3.8252
     4.7708   6.5186   6.9923   7.2534  12.5748  14.3249  16.4058  18.0695

     occupation numbers 
     1.0000   1.0000   1.0000   1.0000   1.0000   1.0000   1.0000   1.0000
     1.0000   1.0000   1.0000   1.0000   1.0000   1.0001   1.0078   1.0322
     0.0071   0.0000   0.0000   0.0000   0.0000   0.0000   0.0000   0.0000

          k = 0.0000-0.2887 0.1119 (  3070 PWs)   bands (ev):

   -90.8575 -54.1552 -54.1260 -54.0355 -42.9738 -14.6032 -13.2580  -1.3836
    -0.6587  -0.4502   0.2979   1.6124   2.6635   3.6142   4.0055   4.1473
     4.7289   5.9737   6.8506   8.2562  12.9739  14.7780  15.8417  17.2824

     occupation numbers 
     1.0000   1.0000   1.0000   1.0000   1.0000   1.0000   1.0000   1.0000
     1.0000   1.0000   1.0000   1.0000   1.0000   1.0025   1.0831   1.0015
     0.0133   0.0000   0.0000   0.0000   0.0000   0.0000   0.0000   0.0000

          k = 0.0000-0.4330 0.1119 (  3062 PWs)   bands (ev):

   -90.8549 -54.1822 -54.1323 -54.0313 -42.9636 -14.0037 -13.3199  -1.8682
    -0.7869  -0.2584   0.4082   1.3866   2.2340   3.7112   3.9847   4.2858
     4.9078   6.2696   6.8919   9.8118  11.0585  14.7936  15.6063  16.2403

     occupation numbers 
     1.0000   1.0000   1.0000   1.0000   1.0000   1.0000   1.0000   1.0000
     1.0000   1.0000   1.0000   1.0000   1.0000   1.0095   1.0808   0.7068
     0.0007   0.0000   0.0000   0.0000   0.0000   0.0000   0.0000   0.0000

          k =-0.1250-0.3608 0.1119 (  3067 PWs)   bands (ev):

   -90.8557 -54.1702 -54.1345 -54.0325 -42.9666 -14.2069 -13.2812  -1.4364
    -0.8927  -0.2120   0.2765   0.9700   2.5488   3.8207   4.1413   4.3022
     4.7416   6.1699   6.6063   9.2001  12.2214  13.9641  15.9517  16.9121

     occupation numbers 
     1.0000   1.0000   1.0000   1.0000   1.0000   1.0000   1.0000   1.0000
     1.0000   1.0000   1.0000   1.0000   1.0000   1.0309   1.0094   0.6622
     0.0111   0.0000   0.0000   0.0000   0.0000   0.0000   0.0000   0.0000

          k =-0.1250-0.5052 0.1119 (  3051 PWs)   bands (ev):

   -90.8538 -54.1872 -54.1411 -54.0295 -42.9593 -13.7174 -13.3655  -1.9846
    -0.9339  -0.0022   0.5848   0.9175   1.9431   3.7468   3.9249   4.3287
     5.5874   6.4410   6.7089   9.8236  11.1397  14.1705  14.3290  16.4974

     occupation numbers 
     1.0000   1.0000   1.0000   1.0000   1.0000   1.0000   1.0000   1.0000
     1.0000   1.0000   1.0000   1.0000   1.0000   1.0145   1.0650   0.5891
     0.0000   0.0000   0.0000   0.0000   0.0000   0.0000   0.0000   0.0000

     the Fermi energy is     4.3990 ev

!    total energy              =    -475.00347585 Ry
     total all-electron energy =     -3102.875613 Ry
     estimated scf accuracy    <       0.00000004 Ry
     smearing contrib. (-TS)   =       0.00235595 Ry
     internal energy E=F+TS    =    -475.00583180 Ry

     The total energy is F=E-TS. E is the sum of the following terms:
     one-electron contribution =    -644.43366786 Ry
     hartree contribution      =     331.58095988 Ry
     xc contribution           =     -48.93745651 Ry
     ewald contribution        =      -6.50994945 Ry
     one-center paw contrib.   =    -106.70571786 Ry
      -> PAW hartree energy AE =     278.60300833 Ry
      -> PAW hartree energy PS =    -277.25284782 Ry
      -> PAW xc energy AE      =    -154.15984400 Ry
      -> PAW xc energy PS      =      46.10396563 Ry
      -> total E_H with PAW    =     332.93112039 Ry
      -> total E_XC with PAW   =    -156.99333488 Ry

     total magnetization       =     0.60 Bohr mag/cell
     absolute magnetization    =     0.72 Bohr mag/cell

     convergence has been achieved in  17 iterations

     Forces acting on atoms (cartesian axes, Ry/au):

     atom    1 type  1   force =     0.00000000    0.00000000    0.01649848
     atom    2 type  2   force =     0.00000000    0.00000000   -0.01112728
     atom    3 type  2   force =    -0.00000000   -0.00000000   -0.02124438
     atom    4 type  3   force =    -0.00000000   -0.00000000    0.01587318
     The non-local contrib.  to forces
     atom    1 type  1   force =     0.00000000    0.00000000    0.03192822
     atom    2 type  2   force =    -0.00000000   -0.00000000   -1.25809673
     atom    3 type  2   force =    -0.00000000    0.00000000    0.98297568
     atom    4 type  3   force =     0.00000000   -0.00000000    0.00813540
     The ionic contribution  to forces
     atom    1 type  1   force =    -0.00000000   -0.00000000    3.11284692
     atom    2 type  2   force =     0.00000000   -0.00000000   38.54505424
     atom    3 type  2   force =    -0.00000000    0.00000000  -36.37727189
     atom    4 type  3   force =     0.00000000   -0.00000000   -5.28062927
     The local contribution  to forces
     atom    1 type  1   force =    -0.00000000   -0.00000000   -3.12829318
     atom    2 type  2   force =     0.00000001   -0.00000001  -37.30904807
     atom    3 type  2   force =    -0.00000001    0.00000001   35.38112547
     atom    4 type  3   force =    -0.00000000   -0.00000000    5.28841265
     The core correction contribution to forces
     atom    1 type  1   force =    -0.00000000    0.00000000   -0.00027743
     atom    2 type  2   force =    -0.00000000    0.00000000    0.01090240
     atom    3 type  2   force =     0.00000000   -0.00000000   -0.00814219
     atom    4 type  3   force =     0.00000000    0.00000000    0.00000000
     The Hubbard contrib.    to forces
     atom    1 type  1   force =     0.00000000    0.00000000    0.00000000
     atom    2 type  2   force =     0.00000000    0.00000000    0.00000000
     atom    3 type  2   force =     0.00000000    0.00000000    0.00000000
     atom    4 type  3   force =     0.00000000    0.00000000    0.00000000
     The SCF correction term to forces
     atom    1 type  1   force =     0.00000000   -0.00000000    0.00029415
     atom    2 type  2   force =     0.00000000   -0.00000000    0.00006108
     atom    3 type  2   force =    -0.00000000    0.00000000    0.00006874
     atom    4 type  3   force =     0.00000000   -0.00000000   -0.00004540

     Total force =     0.033156     Total SCF correction =     0.000312

     Writing all to output data dir ./out/pw.save/ :
     XML data file, charge density, pseudopotentials, collected wavefunctions
 
     init_run     :     11.25s CPU      3.10s WALL (       1 calls)
     electrons    :     74.62s CPU     22.29s WALL (       1 calls)
     forces       :      0.51s CPU      0.49s WALL (       1 calls)

     Called by init_run:
     wfcinit      :      0.27s CPU      0.32s WALL (       1 calls)
     wfcinit:atom :      0.04s CPU      0.04s WALL (      50 calls)
     wfcinit:wfcr :      0.16s CPU      0.20s WALL (      50 calls)
     potinit      :     10.49s CPU      2.25s WALL (       1 calls)
     hinit0       :      0.41s CPU      0.40s WALL (       1 calls)

     Called by electrons:
     c_bands      :     11.02s CPU     11.26s WALL (      17 calls)
     sum_band     :      1.79s CPU      1.79s WALL (      17 calls)
     v_of_rho     :      0.29s CPU      0.18s WALL (      18 calls)
     v_h          :      0.21s CPU      0.03s WALL (      18 calls)
     v_xc         :      0.09s CPU      0.16s WALL (      19 calls)
     newd         :      0.39s CPU      0.32s WALL (      18 calls)
                                        0.32s GPU  (      18 calls)
     PAW_pot      :     63.96s CPU      8.77s WALL (      18 calls)
     mix_rho      :      0.48s CPU      0.49s WALL (      17 calls)

     Called by c_bands:
     init_us_2    :      0.69s CPU      0.68s WALL (    1800 calls)
     cegterg      :      9.74s CPU      9.92s WALL (     850 calls)

     Called by sum_band:
     sum_band:wei :      0.02s CPU      0.02s WALL (      17 calls)
                                        0.02s GPU  (      17 calls)
     sum_band:loo :      1.11s CPU      1.10s WALL (      17 calls)
                                        1.10s GPU  (      17 calls)
     sum_band:buf :      0.13s CPU      0.15s WALL (     850 calls)
                                        0.14s GPU  (     850 calls)
     sum_band:ini :      0.32s CPU      0.33s WALL (     850 calls)
                                        0.32s GPU  (     850 calls)
     sum_band:cal :      0.03s CPU      0.05s WALL (     850 calls)
                                        0.04s GPU  (     850 calls)
     sum_band:bec :      0.18s CPU      0.19s WALL (     850 calls)
                                        0.18s GPU  (     850 calls)
     addusdens    :      0.55s CPU      0.55s WALL (      17 calls)
                                        0.55s GPU  (      17 calls)
     addusd:skk   :      0.00s CPU      0.00s WALL (      51 calls)
                                        0.00s GPU  (      51 calls)

     Called by *egterg:
     cdiaghg      :      3.22s CPU      3.33s WALL (    4151 calls)
                                        3.28s GPU  (    4151 calls)
     cegterg:over :      0.84s CPU      0.88s WALL (    3301 calls)
     cegterg:upda :      0.55s CPU      0.56s WALL (    3301 calls)
     cegterg:last :      0.11s CPU      0.11s WALL (    1757 calls)
     h_psi        :      3.45s CPU      3.60s WALL (    4201 calls)
                                        3.55s GPU  (    4201 calls)
     s_psi        :      0.62s CPU      0.65s WALL (    4201 calls)
     g_psi        :      0.02s CPU      0.08s WALL (    3301 calls)
                                        0.04s GPU  (    3301 calls)

     Called by h_psi:
     h_psi:calbec :      0.13s CPU      0.24s WALL (    4201 calls)
                                        0.19s GPU  (    4201 calls)
     vloc_psi     :      2.34s CPU      2.41s WALL (    4201 calls)
                                        2.36s GPU  (    4201 calls)
     add_vuspsi   :      0.56s CPU      0.66s WALL (    4201 calls)
                                        0.61s GPU  (    4201 calls)

     General routines
     calbec       :      0.14s CPU      0.17s WALL (    5251 calls)
     fft          :      2.98s CPU      0.90s WALL (     463 calls)
                                        0.02s GPU  (     427 calls)
     ffts         :      3.97s CPU      0.77s WALL (     662 calls)
                                        0.02s GPU  (     626 calls)
     fftw         :      0.21s CPU      0.80s WALL (   13602 calls)
                                        0.65s GPU  (   13602 calls)
     interpolate  :      7.05s CPU      1.65s WALL (      36 calls)
 
     Parallel routines

     PAW routines
     PAW_pot      :     63.96s CPU      8.77s WALL (      18 calls)
     PAW_symme    :      0.02s CPU      0.00s WALL (      35 calls)
 
     PWSCF        :   1m27.22s CPU     26.38s WALL

 
   This run was terminated on:   2:43: 1  12Jul2026            

=------------------------------------------------------------------------------=
   JOB DONE.
=------------------------------------------------------------------------------=
Warning: ieee_divide_by_zero is signaling
Warning: ieee_inexact is signaling
FORTRAN STOP
