
     Program PWSCF v.7.3.1 starts on 12Jul2026 at  5:37:13 

     This program is part of the open-source Quantum ESPRESSO suite
     for quantum simulation of materials; please cite
         "P. Giannozzi et al., J. Phys.:Condens. Matter 21 395502 (2009);
         "P. Giannozzi et al., J. Phys.:Condens. Matter 29 465901 (2017);
         "P. Giannozzi et al., J. Chem. Phys. 152 154105 (2020);
          URL http://www.quantum-espresso.org", 
     in publications or presentations arising from this work. More details at
     http://www.quantum-espresso.org/quote

     Parallel version (MPI & OpenMP), running on      14 processor cores
     Number of MPI processes:                 1
     Threads/MPI process:                    14

     MPI processes distributed on     1 nodes
     1361335 MiB available memory on the printing compute node when the environment starts
 
     Reading input from pw.in

     Current dimensions of program PWSCF are:
     Max number of different atomic species (ntypx) = 10
     Max number of k-points (npk) =  40000
     Max angular momentum in pseudopotentials (lmaxx) =  4
     file Co.pbe-spn-kjpaw_psl.0.3.1.UPF: wavefunction(s)  3P 3D renormalized
     file O.pbe-n-kjpaw_psl.1.0.0.UPF: wavefunction(s)  2S 2P renormalized
     file K.pbe-spn-kjpaw_psl.1.0.0.UPF: wavefunction(s)  3S renormalized
 
     Subspace diagonalization in iterative solution of the eigenvalue problem:
     a serial algorithm will be used

 
     G-vector sticks info
     --------------------
     sticks:   dense  smooth     PW     G-vecs:    dense   smooth      PW
     Sum        1003     499    151                60133    21263    3497
 
     Using Slab Decomposition
 


     bravais-lattice index     =            4
     lattice parameter (alat)  =       5.4802  a.u.
     unit-cell volume          =     339.1348 (a.u.)^3
     number of atoms/cell      =            4
     number of atomic types    =            3
     number of electrons       =        38.00
     number of Kohn-Sham states=           27
     kinetic-energy cutoff     =      60.0000  Ry
     charge density cutoff     =     480.0000  Ry
     scf convergence threshold =      1.0E-07
     mixing beta               =       0.3000
     number of iterations used =            8  local-TF  mixing
     Exchange-correlation= SLA  PW   PBX  PBC
                           (   1   4   3   4   0   0   0)

     GPU acceleration is ACTIVE.  1 visible GPUs per MPI rank
     GPU-aware MPI enabled


     GPU used by master process:

        Device Number: 0
        Device name: NVIDIA A100-SXM4-80GB
        Compute capability : 80
        Ratio of single to double precision performance  : 2
        Memory Clock Rate (KHz): 1593000
        Memory Bus Width (bits): 5120
        Peak Memory Bandwidth (GB/s): ******

     celldm(1)=   5.480206  celldm(2)=   0.000000  celldm(3)=   2.379310
     celldm(4)=   0.000000  celldm(5)=   0.000000  celldm(6)=   0.000000

     crystal axes: (cart. coord. in units of alat)
               a(1) = (   1.000000   0.000000   0.000000 )  
               a(2) = (  -0.500000   0.866025   0.000000 )  
               a(3) = (   0.000000   0.000000   2.379310 )  

     reciprocal axes: (cart. coord. in units 2 pi/alat)
               b(1) = (  1.000000  0.577350 -0.000000 )  
               b(2) = (  0.000000  1.154701  0.000000 )  
               b(3) = (  0.000000 -0.000000  0.420290 )  


     PseudoPot. # 1 for Co read from file:
     ../../pseudo/Co.pbe-spn-kjpaw_psl.0.3.1.UPF
     MD5 check sum: 3c0a43779828c046024e4f3be63f8e67
     Pseudo is Projector augmented-wave + core cor, Zval = 17.0
     Generated using &quot;atomic&quot; code by A. Dal Corso  v.6.2.2
     Shape of augmentation charge: PSQ
     Using radial grid of 1193 points,  6 beta functions with: 
                l(1) =   0
                l(2) =   0
                l(3) =   1
                l(4) =   1
                l(5) =   2
                l(6) =   2
     Q(r) pseudized with 0 coefficients 


     PseudoPot. # 2 for O  read from file:
     ../../pseudo/O.pbe-n-kjpaw_psl.1.0.0.UPF
     MD5 check sum: e99d9cef9b487d1ca56f5b95ecd0fd7a
     Pseudo is Projector augmented-wave + core cor, Zval =  6.0
     Generated using &quot;atomic&quot; code by A. Dal Corso  v.6.3
     Shape of augmentation charge: PSQ
     Using radial grid of 1095 points,  4 beta functions with: 
                l(1) =   0
                l(2) =   0
                l(3) =   1
                l(4) =   1
     Q(r) pseudized with 0 coefficients 


     PseudoPot. # 3 for K  read from file:
     ../../pseudo/K.pbe-spn-kjpaw_psl.1.0.0.UPF
     MD5 check sum: 34cc42130a09071ebe376fd42eb21491
     Pseudo is Projector augmented-wave + core cor, Zval =  9.0
     Generated using &quot;atomic&quot; code by A. Dal Corso  v.6.2.2
     Shape of augmentation charge: PSQ
     Using radial grid of 1165 points,  6 beta functions with: 
                l(1) =   0
                l(2) =   0
                l(3) =   1
                l(4) =   1
                l(5) =   2
                l(6) =   2
     Q(r) pseudized with 0 coefficients 


     atomic species   valence    mass     pseudopotential
     Co               17.00    58.93300     Co( 1.00)
     O                 6.00    15.99900     O ( 1.00)
     K                 9.00    39.09830     K ( 1.00)

     Starting magnetic structure 
     atomic species   magnetization
     Co              0.300
     O               0.000
     K               0.000

      6 Sym. Ops. (no inversion) found


                                    s                        frac. trans.

      isym =  1     identity                                     

 cryst.   s( 1) = (     1          0          0      )
                  (     0          1          0      )
                  (     0          0          1      )

 cart.    s( 1) = (  1.0000000  0.0000000  0.0000000 )
                  (  0.0000000  1.0000000  0.0000000 )
                  (  0.0000000  0.0000000  1.0000000 )


      isym =  2     120 deg rotation - cryst. axis [0,0,1]       

 cryst.   s( 2) = (     0          1          0      )
                  (    -1         -1          0      )
                  (     0          0          1      )

 cart.    s( 2) = ( -0.5000000 -0.8660254  0.0000000 )
                  (  0.8660254 -0.5000000  0.0000000 )
                  (  0.0000000  0.0000000  1.0000000 )


      isym =  3     120 deg rotation - cryst. axis [0,0,-1]      

 cryst.   s( 3) = (    -1         -1          0      )
                  (     1          0          0      )
                  (     0          0          1      )

 cart.    s( 3) = ( -0.5000000  0.8660254  0.0000000 )
                  ( -0.8660254 -0.5000000  0.0000000 )
                  (  0.0000000  0.0000000  1.0000000 )


      isym =  4     inv. 180 deg rotation - cart. axis [1,0,0]   

 cryst.   s( 4) = (    -1          0          0      )
                  (     1          1          0      )
                  (     0          0          1      )

 cart.    s( 4) = ( -1.0000000  0.0000000  0.0000000 )
                  (  0.0000000  1.0000000  0.0000000 )
                  (  0.0000000  0.0000000  1.0000000 )


      isym =  5     inv. 180 deg rotation - cryst. axis [0,1,0]  

 cryst.   s( 5) = (     1          1          0      )
                  (     0         -1          0      )
                  (     0          0          1      )

 cart.    s( 5) = (  0.5000000  0.8660254  0.0000000 )
                  (  0.8660254 -0.5000000  0.0000000 )
                  (  0.0000000  0.0000000  1.0000000 )


      isym =  6     inv. 180 deg rotation - cryst. axis [1,1,0]  

 cryst.   s( 6) = (     0         -1          0      )
                  (    -1          0          0      )
                  (     0          0          1      )

 cart.    s( 6) = (  0.5000000 -0.8660254  0.0000000 )
                  ( -0.8660254 -0.5000000  0.0000000 )
                  (  0.0000000  0.0000000  1.0000000 )


     point group C_3v (3m)  
     there are  3 classes
     the character table:

       E     2C3   3s_v 
A_1    1.00  1.00  1.00
A_2    1.00  1.00 -1.00
E      2.00 -1.00  0.00

     the symmetry operations in each class and the name of the first element:

     E        1
          identity                                               
     2C3      2    3
          120 deg rotation - cryst. axis [0,0,1]                 
     3s_v     4    5    6
          inv. 180 deg rotation - cart. axis [1,0,0]             

   Cartesian axes

     site n.     atom                  positions (alat units)
         1        Co     tau(   1) = (   0.0000000   0.0000000   0.0000000  )
         2        O      tau(   2) = (  -0.0000000   0.5773503   0.3310345  )
         3        O      tau(   3) = (   0.5000000   0.2886751   2.0482759  )
         4        K      tau(   4) = (   0.0000000   0.0000000   1.4482759  )

   Crystallographic axes

     site n.     atom                  positions (cryst. coord.)
         1        Co     tau(   1) = (  0.0000000  0.0000000  0.0000000  )
         2        O      tau(   2) = (  0.3333333  0.6666667  0.1391304  )
         3        O      tau(   3) = (  0.6666667  0.3333333  0.8608696  )
         4        K      tau(   4) = (  0.0000000  0.0000000  0.6086957  )

     number of k points=    25  Marzari-Vanderbilt smearing, width (Ry)=  0.0200
                       cart. coord. in units 2pi/alat
        k(    1) = (   0.0000000   0.0000000   0.0000000), wk =   0.0052083
        k(    2) = (   0.0000000   0.0000000   0.1400966), wk =   0.0104167
        k(    3) = (   0.0000000   0.1443376   0.0000000), wk =   0.0312500
        k(    4) = (   0.0000000   0.1443376   0.1400966), wk =   0.0312500
        k(    5) = (   0.0000000   0.2886751   0.0000000), wk =   0.0312500
        k(    6) = (   0.0000000   0.2886751   0.1400966), wk =   0.0312500
        k(    7) = (   0.0000000   0.4330127   0.0000000), wk =   0.0312500
        k(    8) = (   0.0000000   0.4330127   0.1400966), wk =   0.0312500
        k(    9) = (   0.0000000  -0.5773503   0.0000000), wk =   0.0156250
        k(   10) = (   0.0000000  -0.5773503   0.1400966), wk =   0.0312500
        k(   11) = (   0.1250000   0.2165064   0.0000000), wk =   0.0312500
        k(   12) = (   0.1250000   0.2165064   0.1400966), wk =   0.0625000
        k(   13) = (   0.1250000   0.3608439   0.0000000), wk =   0.0625000
        k(   14) = (   0.1250000   0.3608439   0.1400966), wk =   0.0625000
        k(   15) = (   0.1250000   0.5051815   0.0000000), wk =   0.0625000
        k(   16) = (   0.1250000   0.5051815   0.1400966), wk =   0.0625000
        k(   17) = (   0.2500000   0.4330127   0.0000000), wk =   0.0312500
        k(   18) = (   0.2500000   0.4330127   0.1400966), wk =   0.0625000
        k(   19) = (   0.2500000   0.5773503   0.0000000), wk =   0.0312500
        k(   20) = (   0.2500000   0.5773503   0.1400966), wk =   0.0625000
        k(   21) = (   0.0000000  -0.1443376   0.1400966), wk =   0.0312500
        k(   22) = (   0.0000000  -0.2886751   0.1400966), wk =   0.0312500
        k(   23) = (   0.0000000  -0.4330127   0.1400966), wk =   0.0312500
        k(   24) = (  -0.1250000  -0.3608439   0.1400966), wk =   0.0625000
        k(   25) = (  -0.1250000  -0.5051815   0.1400966), wk =   0.0625000

                       cryst. coord.
        k(    1) = (   0.0000000   0.0000000   0.0000000), wk =   0.0052083
        k(    2) = (   0.0000000   0.0000000   0.3333333), wk =   0.0104167
        k(    3) = (   0.0000000   0.1250000   0.0000000), wk =   0.0312500
        k(    4) = (   0.0000000   0.1250000   0.3333333), wk =   0.0312500
        k(    5) = (   0.0000000   0.2500000   0.0000000), wk =   0.0312500
        k(    6) = (   0.0000000   0.2500000   0.3333333), wk =   0.0312500
        k(    7) = (   0.0000000   0.3750000   0.0000000), wk =   0.0312500
        k(    8) = (   0.0000000   0.3750000   0.3333333), wk =   0.0312500
        k(    9) = (   0.0000000  -0.5000000   0.0000000), wk =   0.0156250
        k(   10) = (   0.0000000  -0.5000000   0.3333333), wk =   0.0312500
        k(   11) = (   0.1250000   0.1250000   0.0000000), wk =   0.0312500
        k(   12) = (   0.1250000   0.1250000   0.3333333), wk =   0.0625000
        k(   13) = (   0.1250000   0.2500000   0.0000000), wk =   0.0625000
        k(   14) = (   0.1250000   0.2500000   0.3333333), wk =   0.0625000
        k(   15) = (   0.1250000   0.3750000   0.0000000), wk =   0.0625000
        k(   16) = (   0.1250000   0.3750000   0.3333333), wk =   0.0625000
        k(   17) = (   0.2500000   0.2500000   0.0000000), wk =   0.0312500
        k(   18) = (   0.2500000   0.2500000   0.3333333), wk =   0.0625000
        k(   19) = (   0.2500000   0.3750000   0.0000000), wk =   0.0312500
        k(   20) = (   0.2500000   0.3750000   0.3333333), wk =   0.0625000
        k(   21) = (   0.0000000  -0.1250000   0.3333333), wk =   0.0312500
        k(   22) = (   0.0000000  -0.2500000   0.3333333), wk =   0.0312500
        k(   23) = (   0.0000000  -0.3750000   0.3333333), wk =   0.0312500
        k(   24) = (  -0.1250000  -0.2500000   0.3333333), wk =   0.0625000
        k(   25) = (  -0.1250000  -0.3750000   0.3333333), wk =   0.0625000

     Dense  grid:    60133 G-vectors     FFT dimensions: (  40,  40,  96)

     Smooth grid:    21263 G-vectors     FFT dimensions: (  27,  27,  72)

     Dynamical RAM for                 wfc:       1.10 MB

     Dynamical RAM for     wfc (w. buffer):      55.93 MB

     Dynamical RAM for           str. fact:       2.75 MB

     Dynamical RAM for           local pot:       0.00 MB

     Dynamical RAM for          nlocal pot:       2.11 MB

     Dynamical RAM for                qrad:       5.27 MB

     Dynamical RAM for          rho,v,vnew:      12.54 MB

     Dynamical RAM for               rhoin:       4.18 MB

     Dynamical RAM for            rho*nmix:      29.36 MB

     Dynamical RAM for           G-vectors:       3.60 MB

     Dynamical RAM for          h,s,v(r/c):       0.13 MB

     Dynamical RAM for          <psi|beta>:       0.02 MB

     Dynamical RAM for                 psi:       2.19 MB

     Dynamical RAM for                hpsi:       2.19 MB

     Dynamical RAM for                spsi:       2.19 MB

     Dynamical RAM for      wfcinit/wfcrot:       2.21 MB

     Dynamical RAM for           addusdens:     173.42 MB

     Dynamical RAM for          addusforce:     175.27 MB

     Estimated static dynamical RAM per process >      97.09 MB

     Estimated max dynamical RAM per process >     301.72 MB

     Check: negative core charge=   -0.000008
     Generating pointlists ...
     new r_m :   0.2745 (alat units)  1.5045 (a.u.) for type    1
     new r_m :   0.2745 (alat units)  1.5045 (a.u.) for type    2
     new r_m :   0.3435 (alat units)  1.8823 (a.u.) for type    3

     Initial potential from superposition of free atoms

     starting charge      37.9809, renormalised to      38.0000
     Starting wfcs are   26 randomized atomic wfcs +    1 random wfcs
     Checking if some PAW data can be deallocated... 

     total cpu time spent up to now is        4.0 secs

     Self-consistent Calculation
[tb_dev] Currently allocated     6.58E-01 Mbytes, locked:    0 /   6
[tb_pin] Currently allocated     0.00E+00 Mbytes, locked:    0 /   0

     iteration #  1     ecut=    60.00 Ry     beta= 0.30
     Davidson diagonalization with overlap

---- Real-time Memory Report at c_bands before calling an iterative solver
           672 MiB given to the printing process from OS
             0 MiB allocation reported by mallinfo(arena+hblkhd)
       1357555 MiB available memory on the node where the printing process lives
     GPU memory used/free/total (MiB): 1002 / 80148 / 81151
------------------
     ethr =  1.00E-02,  avg # of iterations =  9.6

     total cpu time spent up to now is        6.3 secs

     total energy              =    -572.82247628 Ry
     estimated scf accuracy    <       1.53467526 Ry

     total magnetization       =     4.00 Bohr mag/cell
     absolute magnetization    =     4.00 Bohr mag/cell
[tb_dev] Currently allocated     3.05E-05 Mbytes, locked:    0 /   2
[tb_pin] Currently allocated     0.00E+00 Mbytes, locked:    0 /   0

     iteration #  2     ecut=    60.00 Ry     beta= 0.30
     Davidson diagonalization with overlap

---- Real-time Memory Report at c_bands before calling an iterative solver
           715 MiB given to the printing process from OS
             0 MiB allocation reported by mallinfo(arena+hblkhd)
       1356373 MiB available memory on the node where the printing process lives
     GPU memory used/free/total (MiB): 1018 / 80132 / 81151
------------------
     ethr =  4.04E-03,  avg # of iterations =  1.9

     total cpu time spent up to now is        7.7 secs

     total energy              =    -572.78075076 Ry
     estimated scf accuracy    <       0.52597957 Ry

     total magnetization       =     3.98 Bohr mag/cell
     absolute magnetization    =     3.98 Bohr mag/cell
[tb_dev] Currently allocated     3.05E-05 Mbytes, locked:    0 /   2
[tb_pin] Currently allocated     0.00E+00 Mbytes, locked:    0 /   0

     iteration #  3     ecut=    60.00 Ry     beta= 0.30
     Davidson diagonalization with overlap

---- Real-time Memory Report at c_bands before calling an iterative solver
           716 MiB given to the printing process from OS
             0 MiB allocation reported by mallinfo(arena+hblkhd)
       1355053 MiB available memory on the node where the printing process lives
     GPU memory used/free/total (MiB): 1018 / 80132 / 81151
------------------
     ethr =  1.38E-03,  avg # of iterations =  2.8

     total cpu time spent up to now is        9.2 secs

     total energy              =    -573.03731319 Ry
     estimated scf accuracy    <       1.16697199 Ry

     total magnetization       =     1.47 Bohr mag/cell
     absolute magnetization    =     1.68 Bohr mag/cell
[tb_dev] Currently allocated     3.05E-05 Mbytes, locked:    0 /   2
[tb_pin] Currently allocated     0.00E+00 Mbytes, locked:    0 /   0

     iteration #  4     ecut=    60.00 Ry     beta= 0.30
     Davidson diagonalization with overlap

---- Real-time Memory Report at c_bands before calling an iterative solver
           718 MiB given to the printing process from OS
             0 MiB allocation reported by mallinfo(arena+hblkhd)
       1353685 MiB available memory on the node where the printing process lives
     GPU memory used/free/total (MiB): 1018 / 80132 / 81151
------------------
     ethr =  1.38E-03,  avg # of iterations =  1.6

     total cpu time spent up to now is       10.6 secs

     total energy              =    -573.03910398 Ry
     estimated scf accuracy    <       2.59920281 Ry

     total magnetization       =     0.85 Bohr mag/cell
     absolute magnetization    =     1.25 Bohr mag/cell
[tb_dev] Currently allocated     3.05E-05 Mbytes, locked:    0 /   2
[tb_pin] Currently allocated     0.00E+00 Mbytes, locked:    0 /   0

     iteration #  5     ecut=    60.00 Ry     beta= 0.30
     Davidson diagonalization with overlap

---- Real-time Memory Report at c_bands before calling an iterative solver
           719 MiB given to the printing process from OS
             0 MiB allocation reported by mallinfo(arena+hblkhd)
       1353297 MiB available memory on the node where the printing process lives
     GPU memory used/free/total (MiB): 1018 / 80132 / 81151
------------------
     ethr =  1.38E-03,  avg # of iterations =  1.3

     total cpu time spent up to now is       11.9 secs

     total energy              =    -572.93647992 Ry
     estimated scf accuracy    <       1.84825017 Ry

     total magnetization       =     0.79 Bohr mag/cell
     absolute magnetization    =     1.22 Bohr mag/cell
[tb_dev] Currently allocated     3.05E-05 Mbytes, locked:    0 /   2
[tb_pin] Currently allocated     0.00E+00 Mbytes, locked:    0 /   0

     iteration #  6     ecut=    60.00 Ry     beta= 0.30
     Davidson diagonalization with overlap

---- Real-time Memory Report at c_bands before calling an iterative solver
           721 MiB given to the printing process from OS
             0 MiB allocation reported by mallinfo(arena+hblkhd)
       1351595 MiB available memory on the node where the printing process lives
     GPU memory used/free/total (MiB): 1018 / 80132 / 81151
------------------
     ethr =  1.38E-03,  avg # of iterations =  1.4

     total cpu time spent up to now is       13.2 secs

     total energy              =    -572.96928677 Ry
     estimated scf accuracy    <       0.52427797 Ry

     total magnetization       =     0.67 Bohr mag/cell
     absolute magnetization    =     1.10 Bohr mag/cell
[tb_dev] Currently allocated     3.05E-05 Mbytes, locked:    0 /   2
[tb_pin] Currently allocated     0.00E+00 Mbytes, locked:    0 /   0

     iteration #  7     ecut=    60.00 Ry     beta= 0.30
     Davidson diagonalization with overlap

---- Real-time Memory Report at c_bands before calling an iterative solver
           721 MiB given to the printing process from OS
             0 MiB allocation reported by mallinfo(arena+hblkhd)
       1349399 MiB available memory on the node where the printing process lives
     GPU memory used/free/total (MiB): 1018 / 80132 / 81151
------------------
     ethr =  1.38E-03,  avg # of iterations =  1.6

     total cpu time spent up to now is       14.6 secs

     total energy              =    -573.02068651 Ry
     estimated scf accuracy    <       0.15938288 Ry

     total magnetization       =     0.00 Bohr mag/cell
     absolute magnetization    =     0.53 Bohr mag/cell
[tb_dev] Currently allocated     3.05E-05 Mbytes, locked:    0 /   2
[tb_pin] Currently allocated     0.00E+00 Mbytes, locked:    0 /   0

     iteration #  8     ecut=    60.00 Ry     beta= 0.30
     Davidson diagonalization with overlap

---- Real-time Memory Report at c_bands before calling an iterative solver
           724 MiB given to the printing process from OS
             0 MiB allocation reported by mallinfo(arena+hblkhd)
       1346979 MiB available memory on the node where the printing process lives
     GPU memory used/free/total (MiB): 1018 / 80132 / 81151
------------------
     ethr =  4.19E-04,  avg # of iterations =  3.9

     total cpu time spent up to now is       16.2 secs

     total energy              =    -572.99429607 Ry
     estimated scf accuracy    <       0.18579325 Ry

     total magnetization       =     0.00 Bohr mag/cell
     absolute magnetization    =     0.25 Bohr mag/cell
[tb_dev] Currently allocated     3.05E-05 Mbytes, locked:    0 /   2
[tb_pin] Currently allocated     0.00E+00 Mbytes, locked:    0 /   0

     iteration #  9     ecut=    60.00 Ry     beta= 0.30
     Davidson diagonalization with overlap

---- Real-time Memory Report at c_bands before calling an iterative solver
           726 MiB given to the printing process from OS
             0 MiB allocation reported by mallinfo(arena+hblkhd)
       1344196 MiB available memory on the node where the printing process lives
     GPU memory used/free/total (MiB): 1018 / 80132 / 81151
------------------
     ethr =  4.19E-04,  avg # of iterations =  1.4

     total cpu time spent up to now is       17.5 secs

     total energy              =    -573.00937748 Ry
     estimated scf accuracy    <       0.00854990 Ry

     total magnetization       =     0.00 Bohr mag/cell
     absolute magnetization    =     0.12 Bohr mag/cell
[tb_dev] Currently allocated     3.05E-05 Mbytes, locked:    0 /   2
[tb_pin] Currently allocated     0.00E+00 Mbytes, locked:    0 /   0

     iteration # 10     ecut=    60.00 Ry     beta= 0.30
     Davidson diagonalization with overlap

---- Real-time Memory Report at c_bands before calling an iterative solver
           728 MiB given to the printing process from OS
             0 MiB allocation reported by mallinfo(arena+hblkhd)
       1341443 MiB available memory on the node where the printing process lives
     GPU memory used/free/total (MiB): 1018 / 80132 / 81151
------------------
     c_bands:  1 eigenvalues not converged
     c_bands:  1 eigenvalues not converged
     c_bands:  1 eigenvalues not converged
     c_bands:  1 eigenvalues not converged
     c_bands:  1 eigenvalues not converged
     c_bands:  1 eigenvalues not converged
     c_bands:  1 eigenvalues not converged
     c_bands:  1 eigenvalues not converged
     c_bands:  1 eigenvalues not converged
     ethr =  2.25E-05,  avg # of iterations = 15.3

     total cpu time spent up to now is       20.5 secs

     total energy              =    -573.01164624 Ry
     estimated scf accuracy    <       0.00302930 Ry

     total magnetization       =     0.00 Bohr mag/cell
     absolute magnetization    =     0.04 Bohr mag/cell
[tb_dev] Currently allocated     3.05E-05 Mbytes, locked:    0 /   2
[tb_pin] Currently allocated     0.00E+00 Mbytes, locked:    0 /   0

     iteration # 11     ecut=    60.00 Ry     beta= 0.30
     Davidson diagonalization with overlap

---- Real-time Memory Report at c_bands before calling an iterative solver
           728 MiB given to the printing process from OS
             0 MiB allocation reported by mallinfo(arena+hblkhd)
       1359381 MiB available memory on the node where the printing process lives
     GPU memory used/free/total (MiB): 1018 / 80132 / 81151
------------------
     ethr =  7.97E-06,  avg # of iterations =  4.7

     total cpu time spent up to now is       22.2 secs

     total energy              =    -573.01001894 Ry
     estimated scf accuracy    <       0.00507435 Ry

     total magnetization       =     0.00 Bohr mag/cell
     absolute magnetization    =     0.06 Bohr mag/cell
[tb_dev] Currently allocated     3.05E-05 Mbytes, locked:    0 /   2
[tb_pin] Currently allocated     0.00E+00 Mbytes, locked:    0 /   0

     iteration # 12     ecut=    60.00 Ry     beta= 0.30
     Davidson diagonalization with overlap

---- Real-time Memory Report at c_bands before calling an iterative solver
           728 MiB given to the printing process from OS
             0 MiB allocation reported by mallinfo(arena+hblkhd)
       1358186 MiB available memory on the node where the printing process lives
     GPU memory used/free/total (MiB): 1018 / 80132 / 81151
------------------
     ethr =  7.97E-06,  avg # of iterations =  1.6

     total cpu time spent up to now is       23.6 secs

     total energy              =    -573.01341584 Ry
     estimated scf accuracy    <       0.00026655 Ry

     total magnetization       =     0.00 Bohr mag/cell
     absolute magnetization    =     0.02 Bohr mag/cell
[tb_dev] Currently allocated     3.05E-05 Mbytes, locked:    0 /   2
[tb_pin] Currently allocated     0.00E+00 Mbytes, locked:    0 /   0

     iteration # 13     ecut=    60.00 Ry     beta= 0.30
     Davidson diagonalization with overlap

---- Real-time Memory Report at c_bands before calling an iterative solver
           728 MiB given to the printing process from OS
             0 MiB allocation reported by mallinfo(arena+hblkhd)
       1357053 MiB available memory on the node where the printing process lives
     GPU memory used/free/total (MiB): 1018 / 80132 / 81151
------------------
     c_bands:  1 eigenvalues not converged
     ethr =  7.01E-07,  avg # of iterations =  6.0

     total cpu time spent up to now is       25.5 secs

     total energy              =    -573.01345884 Ry
     estimated scf accuracy    <       0.00011665 Ry

     total magnetization       =     0.00 Bohr mag/cell
     absolute magnetization    =     0.01 Bohr mag/cell
[tb_dev] Currently allocated     3.05E-05 Mbytes, locked:    0 /   2
[tb_pin] Currently allocated     0.00E+00 Mbytes, locked:    0 /   0

     iteration # 14     ecut=    60.00 Ry     beta= 0.30
     Davidson diagonalization with overlap

---- Real-time Memory Report at c_bands before calling an iterative solver
           728 MiB given to the printing process from OS
             0 MiB allocation reported by mallinfo(arena+hblkhd)
       1355488 MiB available memory on the node where the printing process lives
     GPU memory used/free/total (MiB): 1018 / 80132 / 81151
------------------
     ethr =  3.07E-07,  avg # of iterations =  2.2

     total cpu time spent up to now is       26.9 secs

     total energy              =    -573.01343618 Ry
     estimated scf accuracy    <       0.00009472 Ry

     total magnetization       =     0.00 Bohr mag/cell
     absolute magnetization    =     0.01 Bohr mag/cell
[tb_dev] Currently allocated     3.05E-05 Mbytes, locked:    0 /   2
[tb_pin] Currently allocated     0.00E+00 Mbytes, locked:    0 /   0

     iteration # 15     ecut=    60.00 Ry     beta= 0.30
     Davidson diagonalization with overlap

---- Real-time Memory Report at c_bands before calling an iterative solver
           728 MiB given to the printing process from OS
             0 MiB allocation reported by mallinfo(arena+hblkhd)
       1354369 MiB available memory on the node where the printing process lives
     GPU memory used/free/total (MiB): 1018 / 80132 / 81151
------------------
     ethr =  2.49E-07,  avg # of iterations =  2.3

     total cpu time spent up to now is       28.3 secs

     total energy              =    -573.01340765 Ry
     estimated scf accuracy    <       0.00004245 Ry

     total magnetization       =    -0.00 Bohr mag/cell
     absolute magnetization    =     0.00 Bohr mag/cell
[tb_dev] Currently allocated     3.05E-05 Mbytes, locked:    0 /   2
[tb_pin] Currently allocated     0.00E+00 Mbytes, locked:    0 /   0

     iteration # 16     ecut=    60.00 Ry     beta= 0.30
     Davidson diagonalization with overlap

---- Real-time Memory Report at c_bands before calling an iterative solver
           728 MiB given to the printing process from OS
             0 MiB allocation reported by mallinfo(arena+hblkhd)
       1352950 MiB available memory on the node where the printing process lives
     GPU memory used/free/total (MiB): 1018 / 80132 / 81151
------------------
     ethr =  1.12E-07,  avg # of iterations =  2.8

     total cpu time spent up to now is       29.8 secs

     total energy              =    -573.01339741 Ry
     estimated scf accuracy    <       0.00000748 Ry

     total magnetization       =    -0.00 Bohr mag/cell
     absolute magnetization    =     0.00 Bohr mag/cell
[tb_dev] Currently allocated     3.05E-05 Mbytes, locked:    0 /   2
[tb_pin] Currently allocated     0.00E+00 Mbytes, locked:    0 /   0

     iteration # 17     ecut=    60.00 Ry     beta= 0.30
     Davidson diagonalization with overlap

---- Real-time Memory Report at c_bands before calling an iterative solver
           728 MiB given to the printing process from OS
             0 MiB allocation reported by mallinfo(arena+hblkhd)
       1351485 MiB available memory on the node where the printing process lives
     GPU memory used/free/total (MiB): 1018 / 80132 / 81151
------------------
     ethr =  1.97E-08,  avg # of iterations =  6.5

     total cpu time spent up to now is       31.8 secs

     total energy              =    -573.01337229 Ry
     estimated scf accuracy    <       0.00000229 Ry

     total magnetization       =     0.00 Bohr mag/cell
     absolute magnetization    =     0.00 Bohr mag/cell
[tb_dev] Currently allocated     3.05E-05 Mbytes, locked:    0 /   2
[tb_pin] Currently allocated     0.00E+00 Mbytes, locked:    0 /   0

     iteration # 18     ecut=    60.00 Ry     beta= 0.30
     Davidson diagonalization with overlap

---- Real-time Memory Report at c_bands before calling an iterative solver
           728 MiB given to the printing process from OS
             0 MiB allocation reported by mallinfo(arena+hblkhd)
       1348151 MiB available memory on the node where the printing process lives
     GPU memory used/free/total (MiB): 1018 / 80132 / 81151
------------------
     ethr =  6.04E-09,  avg # of iterations =  2.2

     total cpu time spent up to now is       33.3 secs

     total energy              =    -573.01337161 Ry
     estimated scf accuracy    <       0.00000070 Ry

     total magnetization       =    -0.00 Bohr mag/cell
     absolute magnetization    =     0.00 Bohr mag/cell
[tb_dev] Currently allocated     3.05E-05 Mbytes, locked:    0 /   2
[tb_pin] Currently allocated     0.00E+00 Mbytes, locked:    0 /   0

     iteration # 19     ecut=    60.00 Ry     beta= 0.30
     Davidson diagonalization with overlap

---- Real-time Memory Report at c_bands before calling an iterative solver
           728 MiB given to the printing process from OS
             0 MiB allocation reported by mallinfo(arena+hblkhd)
       1345748 MiB available memory on the node where the printing process lives
     GPU memory used/free/total (MiB): 1018 / 80132 / 81151
------------------
     ethr =  1.84E-09,  avg # of iterations =  5.4

     total cpu time spent up to now is       35.2 secs

     total energy              =    -573.01337118 Ry
     estimated scf accuracy    <       0.00000017 Ry

     total magnetization       =    -0.00 Bohr mag/cell
     absolute magnetization    =     0.00 Bohr mag/cell
[tb_dev] Currently allocated     3.05E-05 Mbytes, locked:    0 /   2
[tb_pin] Currently allocated     0.00E+00 Mbytes, locked:    0 /   0

     iteration # 20     ecut=    60.00 Ry     beta= 0.30
     Davidson diagonalization with overlap

---- Real-time Memory Report at c_bands before calling an iterative solver
           728 MiB given to the printing process from OS
             0 MiB allocation reported by mallinfo(arena+hblkhd)
       1361151 MiB available memory on the node where the printing process lives
     GPU memory used/free/total (MiB): 1018 / 80132 / 81151
------------------
     ethr =  4.40E-10,  avg # of iterations =  4.0
 
     Magnetic moment per site  (integrated on atomic sphere of radius R)
     atom   1 (R=0.275)  charge= 14.1830  magn=  0.0000
     atom   2 (R=0.275)  charge=  5.2444  magn=  0.0001
     atom   3 (R=0.275)  charge=  5.3653  magn=  0.0000
     atom   4 (R=0.343)  charge=  7.1522  magn= -0.0000

     total cpu time spent up to now is       36.8 secs

     End of self-consistent calculation

 ------ SPIN UP ------------


          k = 0.0000 0.0000 0.0000 (  2625 PWs)   bands (ev):

   -84.5494 -47.8443 -47.8443 -47.7129 -22.5263  -9.7313  -7.6926  -5.0798
    -4.4953  -4.4953   4.4108   5.1579   5.1579   7.8671   8.3544   8.3544
     9.3921   9.3921  10.1568  11.7684  12.7043  12.7043  13.8825  16.0362
    16.0362  18.0337  19.2984

     occupation numbers 
     1.0000   1.0000   1.0000   1.0000   1.0000   1.0000   1.0000   1.0000
     1.0000   1.0000   1.0000   1.0000   1.0000   1.0000   1.0000   1.0000
     1.0000   1.0000   1.0000   0.0003   0.0000   0.0000   0.0000   0.0000
     0.0000   0.0000   0.0000

          k = 0.0000 0.0000 0.1401 (  2690 PWs)   bands (ev):

   -84.5495 -47.8446 -47.8446 -47.7133 -22.5262  -9.7506  -7.6350  -5.1359
    -4.4953  -4.4953   4.5703   5.1590   5.1590   7.5447   8.3496   8.3496
     9.3927   9.3927  10.2192  11.9632  12.7123  12.7123  13.9853  16.0290
    16.0290  17.3482  19.3183

     occupation numbers 
     1.0000   1.0000   1.0000   1.0000   1.0000   1.0000   1.0000   1.0000
     1.0000   1.0000   1.0000   1.0000   1.0000   1.0000   1.0000   1.0000
     1.0000   1.0000   1.0000   0.0000   0.0000   0.0000   0.0000   0.0000
     0.0000   0.0000   0.0000

          k = 0.0000 0.1443 0.0000 (  2661 PWs)   bands (ev):

   -84.5488 -47.8527 -47.8464 -47.7119 -22.4361  -9.5817  -7.6368  -5.1639
    -4.8484  -4.5895   4.6035   4.9695   5.2444   7.3057   7.9257   8.1830
     9.6179   9.7512  10.2910  12.1810  12.3515  12.6216  14.2376  15.4518
    16.5593  17.8142  19.3381

     occupation numbers 
     1.0000   1.0000   1.0000   1.0000   1.0000   1.0000   1.0000   1.0000
     1.0000   1.0000   1.0000   1.0000   1.0000   1.0000   1.0000   1.0000
     1.0000   1.0000   1.0002   0.0000   0.0000   0.0000   0.0000   0.0000
     0.0000   0.0000   0.0000

          k = 0.0000 0.1443 0.1401 (  2670 PWs)   bands (ev):

   -84.5488 -47.8527 -47.8465 -47.7119 -22.4360  -9.5984  -7.5899  -5.1974
    -4.8571  -4.5896   4.7118   4.9409   5.2460   7.3443   7.9218   7.9979
     9.6018   9.7505  10.3430  11.9557  12.6266  12.6709  14.2747  15.4557
    16.5585  17.6195  19.0586

     occupation numbers 
     1.0000   1.0000   1.0000   1.0000   1.0000   1.0000   1.0000   1.0000
     1.0000   1.0000   1.0000   1.0000   1.0000   1.0000   1.0000   1.0000
     1.0000   1.0000   1.0005   0.0000   0.0000   0.0000   0.0000   0.0000
     0.0000   0.0000   0.0000

          k = 0.0000 0.2887 0.0000 (  2664 PWs)   bands (ev):

   -84.5470 -47.8725 -47.8512 -47.7089 -22.2089  -9.2156  -7.5120  -5.8882
    -5.0617  -4.8083   4.5903   4.9227   5.4388   6.1686   7.3717   8.1347
     9.7160  10.0564  10.3864  11.8106  12.5176  12.8006  14.1457  15.8894
    17.4347  18.0025  18.9383

     occupation numbers 
     1.0000   1.0000   1.0000   1.0000   1.0000   1.0000   1.0000   1.0000
     1.0000   1.0000   1.0000   1.0000   1.0000   1.0000   1.0000   1.0000
     1.0000   1.0000   1.0012   0.0001   0.0000   0.0000   0.0000   0.0000
     0.0000   0.0000   0.0000

          k = 0.0000 0.2887 0.1401 (  2656 PWs)   bands (ev):

   -84.5470 -47.8724 -47.8512 -47.7089 -22.2089  -9.2250  -7.4918  -5.8821
    -5.0818  -4.8083   4.5441   4.9513   5.4413   6.2421   7.3673   8.1188
     9.7085  10.0548  10.3963  11.5727  12.5241  13.0591  14.0342  15.8915
    17.6144  18.0076  18.9300

     occupation numbers 
     1.0000   1.0000   1.0000   1.0000   1.0000   1.0000   1.0000   1.0000
     1.0000   1.0000   1.0000   1.0000   1.0000   1.0000   1.0000   1.0000
     1.0000   1.0000   1.0014   0.0092   0.0000   0.0000   0.0000   0.0000
     0.0000   0.0000   0.0000

          k = 0.0000 0.4330 0.0000 (  2668 PWs)   bands (ev):

   -84.5453 -47.8922 -47.8560 -47.7059 -21.9668  -8.8922  -7.3944  -6.5826
    -5.1301  -5.0159   3.8952   4.9464   5.5772   6.1891   7.1065   7.6506
     9.6050   9.9945  10.2608  11.7839  12.4388  12.5566  14.1633  16.9052
    18.2766  18.5727  20.0493

     occupation numbers 
     1.0000   1.0000   1.0000   1.0000   1.0000   1.0000   1.0000   1.0000
     1.0000   1.0000   1.0000   1.0000   1.0000   1.0000   1.0000   1.0000
     1.0000   1.0000   1.0001   0.0002   0.0000   0.0000   0.0000   0.0000
     0.0000   0.0000   0.0000

          k = 0.0000 0.4330 0.1401 (  2668 PWs)   bands (ev):

   -84.5453 -47.8922 -47.8560 -47.7059 -21.9668  -8.8943  -7.3933  -6.5785
    -5.1338  -5.0159   3.9318   4.8954   5.5814   6.2377   7.0991   7.5901
     9.6290   9.9938  10.2489  11.7164  12.5681  12.6220  14.0292  16.8244
    18.3595  18.5516  20.0520

     occupation numbers 
     1.0000   1.0000   1.0000   1.0000   1.0000   1.0000   1.0000   1.0000
     1.0000   1.0000   1.0000   1.0000   1.0000   1.0000   1.0000   1.0000
     1.0000   1.0000   1.0001   0.0008   0.0000   0.0000   0.0000   0.0000
     0.0000   0.0000   0.0000

          k = 0.0000-0.5774 0.0000 (  2658 PWs)   bands (ev):

   -84.5446 -47.9004 -47.8579 -47.7045 -21.8616  -8.8127  -7.3195  -6.8050
    -5.1647  -5.0989   3.5031   5.0208   5.6026   6.3159   7.0743   7.4186
     9.4977   9.8948  10.1712  11.7077  12.3448  12.6042  14.2103  17.0813
    18.4741  19.2298  20.8760

     occupation numbers 
     1.0000   1.0000   1.0000   1.0000   1.0000   1.0000   1.0000   1.0000
     1.0000   1.0000   1.0000   1.0000   1.0000   1.0000   1.0000   1.0000
     1.0000   1.0000   1.0000   0.0009   0.0000   0.0000   0.0000   0.0000
     0.0000   0.0000   0.0000

          k = 0.0000-0.5774 0.1401 (  2664 PWs)   bands (ev):

   -84.5446 -47.9004 -47.8579 -47.7046 -21.8615  -8.8120  -7.3217  -6.8060
    -5.1621  -5.0989   3.5428   4.9677   5.6067   6.3758   7.0668   7.3119
     9.5230   9.8950  10.1796  11.7849  12.4118  12.6168  14.1301  16.7505
    18.4449  19.3233  21.4723

     occupation numbers 
     1.0000   1.0000   1.0000   1.0000   1.0000   1.0000   1.0000   1.0000
     1.0000   1.0000   1.0000   1.0000   1.0000   1.0000   1.0000   1.0000
     1.0000   1.0000   1.0000   0.0002   0.0000   0.0000   0.0000   0.0000
     0.0000   0.0000   0.0000

          k = 0.1250 0.2165 0.0000 (  2673 PWs)   bands (ev):

   -84.5475 -47.8658 -47.8507 -47.7098 -22.2770  -9.3221  -7.5459  -5.6076
    -5.0457  -4.7945   4.7539   4.8588   5.3529   6.4809   7.2994   8.2591
     9.7530  10.0602  10.3740  12.0111  12.3275  12.9222  14.4706  15.0034
    17.3353  17.9934  18.7943

     occupation numbers 
     1.0000   1.0000   1.0000   1.0000   1.0000   1.0000   1.0000   1.0000
     1.0000   1.0000   1.0000   1.0000   1.0000   1.0000   1.0000   1.0000
     1.0000   1.0000   1.0009   0.0000   0.0000   0.0000   0.0000   0.0000
     0.0000   0.0000   0.0000

          k = 0.1250 0.2165 0.1401 (  2654 PWs)   bands (ev):

   -84.5475 -47.8657 -47.8507 -47.7097 -22.2770  -9.3335  -7.5192  -5.6041
    -5.0670  -4.7963   4.6876   4.9028   5.3472   6.5855   7.2997   8.2393
     9.7401  10.0372  10.3829  11.7703  12.3501  13.1263  14.4713  14.9459
    17.4349  18.0383  18.7765

     occupation numbers 
     1.0000   1.0000   1.0000   1.0000   1.0000   1.0000   1.0000   1.0000
     1.0000   1.0000   1.0000   1.0000   1.0000   1.0000   1.0000   1.0000
     1.0000   1.0000   1.0011   0.0003   0.0000   0.0000   0.0000   0.0000
     0.0000   0.0000   0.0000

          k = 0.1250 0.3608 0.0000 (  2648 PWs)   bands (ev):

   -84.5458 -47.8834 -47.8574 -47.7067 -22.0401  -8.9676  -7.4228  -6.2895
    -5.1901  -5.0440   4.3532   4.8492   5.5246   6.0884   6.8754   7.9207
     9.7762  10.1215  10.3035  11.9061  12.2835  13.1546  14.0979  16.1091
    17.3725  18.2794  19.9140

     occupation numbers 
     1.0000   1.0000   1.0000   1.0000   1.0000   1.0000   1.0000   1.0000
     1.0000   1.0000   1.0000   1.0000   1.0000   1.0000   1.0000   1.0000
     1.0000   1.0000   1.0003   0.0000   0.0000   0.0000   0.0000   0.0000
     0.0000   0.0000   0.0000

          k = 0.1250 0.3608 0.1401 (  2658 PWs)   bands (ev):

   -84.5458 -47.8834 -47.8574 -47.7068 -22.0400  -8.9712  -7.4200  -6.2812
    -5.1914  -5.0505   4.3522   4.8309   5.5060   6.1474   6.8765   7.9342
     9.7757  10.1264  10.2926  11.7711  12.2425  13.3320  14.0621  16.0435
    17.3903  18.3469  19.9388

     occupation numbers 
     1.0000   1.0000   1.0000   1.0000   1.0000   1.0000   1.0000   1.0000
     1.0000   1.0000   1.0000   1.0000   1.0000   1.0000   1.0000   1.0000
     1.0000   1.0000   1.0002   0.0003   0.0000   0.0000   0.0000   0.0000
     0.0000   0.0000   0.0000

          k = 0.1250 0.5052 0.0000 (  2661 PWs)   bands (ev):

   -84.5446 -47.8959 -47.8623 -47.7046 -21.8629  -8.7761  -7.3149  -6.6841
    -5.3525  -5.1434   3.7603   4.8433   5.6084   6.3856   6.6744   7.5007
     9.6302   9.9690  10.2483  11.9346  12.3578  12.8124  14.2578  16.9147
    17.8254  18.4821  21.0319

     occupation numbers 
     1.0000   1.0000   1.0000   1.0000   1.0000   1.0000   1.0000   1.0000
     1.0000   1.0000   1.0000   1.0000   1.0000   1.0000   1.0000   1.0000
     1.0000   1.0000   1.0001   0.0000   0.0000   0.0000   0.0000   0.0000
     0.0000   0.0000   0.0000

          k = 0.1250 0.5052 0.1401 (  2664 PWs)   bands (ev):

   -84.5446 -47.8959 -47.8623 -47.7047 -21.8629  -8.7763  -7.3150  -6.6848
    -5.3523  -5.1436   3.8015   4.8252   5.6003   6.4033   6.6763   7.4217
     9.6543   9.9637  10.2577  11.9446  12.3047  12.8957  14.2784  16.7779
    17.7351  18.5541  21.1511

     occupation numbers 
     1.0000   1.0000   1.0000   1.0000   1.0000   1.0000   1.0000   1.0000
     1.0000   1.0000   1.0000   1.0000   1.0000   1.0000   1.0000   1.0000
     1.0000   1.0000   1.0001   0.0000   0.0000   0.0000   0.0000   0.0000
     0.0000   0.0000   0.0000

          k = 0.2500 0.4330 0.0000 (  2661 PWs)   bands (ev):

   -84.5446 -47.8897 -47.8685 -47.7046 -21.8643  -8.7414  -7.3040  -6.4977
    -5.6637  -5.1324   4.1575   4.6705   5.4071   6.2115   6.6610   7.5416
     9.7459  10.0150  10.3454  11.9923  12.1584  13.8333  14.2489  16.1625
    17.2030  17.9844  21.1786

     occupation numbers 
     1.0000   1.0000   1.0000   1.0000   1.0000   1.0000   1.0000   1.0000
     1.0000   1.0000   1.0000   1.0000   1.0000   1.0000   1.0000   1.0000
     1.0000   1.0000   1.0006   0.0000   0.0000   0.0000   0.0000   0.0000
     0.0000   0.0000   0.0000

          k = 0.2500 0.4330 0.1401 (  2664 PWs)   bands (ev):

   -84.5446 -47.8897 -47.8684 -47.7047 -21.8643  -8.7407  -7.3099  -6.4913
    -5.6646  -5.1332   4.1680   4.6915   5.4099   6.1941   6.6326   7.5562
     9.7432  10.0097  10.3751  11.8596  12.1459  13.9708  14.2579  16.1734
    17.0725  18.0065  21.3053

     occupation numbers 
     1.0000   1.0000   1.0000   1.0000   1.0000   1.0000   1.0000   1.0000
     1.0000   1.0000   1.0000   1.0000   1.0000   1.0000   1.0000   1.0000
     1.0000   1.0000   1.0010   0.0000   0.0000   0.0000   0.0000   0.0000
     0.0000   0.0000   0.0000

          k = 0.2500 0.5774 0.0000 (  2661 PWs)   bands (ev):

   -84.5441 -47.8902 -47.8751 -47.7037 -21.7893  -8.6532  -7.2443  -6.5463
    -5.8999  -5.1643   4.0211   4.6926   5.2281   6.2626   6.7995   7.2591
     9.5811  10.1383  10.3181  11.9986  12.1390  13.9981  14.4673  16.1244
    17.5017  17.9519  21.4944

     occupation numbers 
     1.0000   1.0000   1.0000   1.0000   1.0000   1.0000   1.0000   1.0000
     1.0000   1.0000   1.0000   1.0000   1.0000   1.0000   1.0000   1.0000
     1.0000   1.0000   1.0003   0.0000   0.0000   0.0000   0.0000   0.0000
     0.0000   0.0000   0.0000

          k = 0.2500 0.5774 0.1401 (  2673 PWs)   bands (ev):

   -84.5441 -47.8902 -47.8752 -47.7038 -21.7893  -8.6528  -7.2440  -6.5475
    -5.9010  -5.1649   4.0461   4.7186   5.2545   6.2338   6.7639   7.2148
     9.5951  10.1334  10.3458  11.9042  12.1084  14.0142  14.5925  16.1644
    17.4341  17.9237  21.7630

     occupation numbers 
     1.0000   1.0000   1.0000   1.0000   1.0000   1.0000   1.0000   1.0000
     1.0000   1.0000   1.0000   1.0000   1.0000   1.0000   1.0000   1.0000
     1.0000   1.0000   1.0006   0.0000   0.0000   0.0000   0.0000   0.0000
     0.0000   0.0000   0.0000

          k = 0.0000-0.1443 0.1401 (  2670 PWs)   bands (ev):

   -84.5488 -47.8527 -47.8465 -47.7119 -22.4360  -9.5983  -7.5904  -5.1977
    -4.8559  -4.5896   4.7121   4.9310   5.2449   7.3381   7.9249   8.0340
     9.5904   9.7495  10.3275  12.0314  12.5903  12.6269  14.2620  15.4573
    16.5524  17.6462  19.1050

     occupation numbers 
     1.0000   1.0000   1.0000   1.0000   1.0000   1.0000   1.0000   1.0000
     1.0000   1.0000   1.0000   1.0000   1.0000   1.0000   1.0000   1.0000
     1.0000   1.0000   1.0004   0.0000   0.0000   0.0000   0.0000   0.0000
     0.0000   0.0000   0.0000

          k = 0.0000-0.2887 0.1401 (  2656 PWs)   bands (ev):

   -84.5470 -47.8724 -47.8511 -47.7089 -22.2089  -9.2238  -7.4967  -5.8791
    -5.0788  -4.8083   4.5293   4.9005   5.4388   6.2940   7.3725   8.1964
     9.6818  10.0542  10.3647  11.6605  12.5208  12.9096  14.0659  15.8511
    17.5563  18.0014  18.9315

     occupation numbers 
     1.0000   1.0000   1.0000   1.0000   1.0000   1.0000   1.0000   1.0000
     1.0000   1.0000   1.0000   1.0000   1.0000   1.0000   1.0000   1.0000
     1.0000   1.0000   1.0008   0.0022   0.0000   0.0000   0.0000   0.0000
     0.0000   0.0000   0.0000

          k = 0.0000-0.4330 0.1401 (  2668 PWs)   bands (ev):

   -84.5453 -47.8922 -47.8560 -47.7059 -21.9668  -8.8912  -7.4080  -6.5676
    -5.1299  -5.0159   3.8901   4.8983   5.5787   6.2253   7.1041   7.7043
     9.5988   9.9930  10.2532  11.8224  12.4384  12.5646  14.0774  16.6450
    18.3388  18.5539  20.0484

     occupation numbers 
     1.0000   1.0000   1.0000   1.0000   1.0000   1.0000   1.0000   1.0000
     1.0000   1.0000   1.0000   1.0000   1.0000   1.0000   1.0000   1.0000
     1.0000   1.0000   1.0001   0.0001   0.0000   0.0000   0.0000   0.0000
     0.0000   0.0000   0.0000

          k =-0.1250-0.3608 0.1401 (  2658 PWs)   bands (ev):

   -84.5458 -47.8834 -47.8574 -47.7068 -22.0400  -8.9698  -7.4263  -6.2764
    -5.1907  -5.0494   4.3187   4.8317   5.4982   6.1800   6.8659   7.9931
     9.7552  10.1210  10.3005  11.8022  12.2463  13.2045  14.1202  16.0344
    17.3253  18.3224  19.9492

     occupation numbers 
     1.0000   1.0000   1.0000   1.0000   1.0000   1.0000   1.0000   1.0000
     1.0000   1.0000   1.0000   1.0000   1.0000   1.0000   1.0000   1.0000
     1.0000   1.0000   1.0002   0.0001   0.0000   0.0000   0.0000   0.0000
     0.0000   0.0000   0.0000

          k =-0.1250-0.5052 0.1401 (  2664 PWs)   bands (ev):

   -84.5446 -47.8959 -47.8623 -47.7047 -21.8629  -8.7746  -7.3243  -6.6772
    -5.3530  -5.1415   3.7818   4.8310   5.6053   6.3806   6.6715   7.4849
     9.6364   9.9638  10.2695  11.9744  12.3202  12.8025  14.3013  16.7390
    17.7263  18.4949  21.2032

     occupation numbers 
     1.0000   1.0000   1.0000   1.0000   1.0000   1.0000   1.0000   1.0000
     1.0000   1.0000   1.0000   1.0000   1.0000   1.0000   1.0000   1.0000
     1.0000   1.0000   1.0001   0.0000   0.0000   0.0000   0.0000   0.0000
     0.0000   0.0000   0.0000

 ------ SPIN DOWN ----------


          k = 0.0000 0.0000 0.0000 (  2625 PWs)   bands (ev):

   -84.5493 -47.8441 -47.8441 -47.7129 -22.5263  -9.7314  -7.6925  -5.0799
    -4.4953  -4.4953   4.4108   5.1578   5.1578   7.8672   8.3544   8.3544
     9.3921   9.3921  10.1568  11.7683  12.7044  12.7044  13.8824  16.0362
    16.0362  18.0336  19.2982

     occupation numbers 
     1.0000   1.0000   1.0000   1.0000   1.0000   1.0000   1.0000   1.0000
     1.0000   1.0000   1.0000   1.0000   1.0000   1.0000   1.0000   1.0000
     1.0000   1.0000   1.0000   0.0003   0.0000   0.0000   0.0000   0.0000
     0.0000   0.0000   0.0000

          k = 0.0000 0.0000 0.1401 (  2690 PWs)   bands (ev):

   -84.5494 -47.8444 -47.8444 -47.7133 -22.5263  -9.7507  -7.6349  -5.1360
    -4.4954  -4.4954   4.5703   5.1590   5.1590   7.5447   8.3495   8.3495
     9.3927   9.3927  10.2192  11.9631  12.7124  12.7124  13.9852  16.0289
    16.0289  17.3480  19.8640

     occupation numbers 
     1.0000   1.0000   1.0000   1.0000   1.0000   1.0000   1.0000   1.0000
     1.0000   1.0000   1.0000   1.0000   1.0000   1.0000   1.0000   1.0000
     1.0000   1.0000   1.0000   0.0000   0.0000   0.0000   0.0000   0.0000
     0.0000   0.0000   0.0000

          k = 0.0000 0.1443 0.0000 (  2661 PWs)   bands (ev):

   -84.5486 -47.8525 -47.8462 -47.7119 -22.4361  -9.5818  -7.6367  -5.1639
    -4.8485  -4.5896   4.6035   4.9695   5.2444   7.3056   7.9257   8.1830
     9.6179   9.7512  10.2910  12.1810  12.3515  12.6216  14.2375  15.4517
    16.5590  17.8141  19.3372

     occupation numbers 
     1.0000   1.0000   1.0000   1.0000   1.0000   1.0000   1.0000   1.0000
     1.0000   1.0000   1.0000   1.0000   1.0000   1.0000   1.0000   1.0000
     1.0000   1.0000   1.0002   0.0000   0.0000   0.0000   0.0000   0.0000
     0.0000   0.0000   0.0000

          k = 0.0000 0.1443 0.1401 (  2670 PWs)   bands (ev):

   -84.5486 -47.8525 -47.8463 -47.7119 -22.4361  -9.5985  -7.5898  -5.1975
    -4.8571  -4.5896   4.7118   4.9409   5.2460   7.3443   7.9218   7.9979
     9.6018   9.7505  10.3430  11.9557  12.6267  12.6709  14.2746  15.4556
    16.5585  17.6193  19.0585

     occupation numbers 
     1.0000   1.0000   1.0000   1.0000   1.0000   1.0000   1.0000   1.0000
     1.0000   1.0000   1.0000   1.0000   1.0000   1.0000   1.0000   1.0000
     1.0000   1.0000   1.0005   0.0000   0.0000   0.0000   0.0000   0.0000
     0.0000   0.0000   0.0000

          k = 0.0000 0.2887 0.0000 (  2664 PWs)   bands (ev):

   -84.5469 -47.8722 -47.8510 -47.7089 -22.2090  -9.2157  -7.5119  -5.8883
    -5.0617  -4.8083   4.5902   4.9227   5.4388   6.1686   7.3717   8.1348
     9.7161  10.0565  10.3865  11.8107  12.5177  12.8005  14.1457  15.8893
    17.4346  18.0025  18.9383

     occupation numbers 
     1.0000   1.0000   1.0000   1.0000   1.0000   1.0000   1.0000   1.0000
     1.0000   1.0000   1.0000   1.0000   1.0000   1.0000   1.0000   1.0000
     1.0000   1.0000   1.0012   0.0001   0.0000   0.0000   0.0000   0.0000
     0.0000   0.0000   0.0000

          k = 0.0000 0.2887 0.1401 (  2656 PWs)   bands (ev):

   -84.5469 -47.8722 -47.8509 -47.7089 -22.2089  -9.2252  -7.4917  -5.8822
    -5.0819  -4.8083   4.5441   4.9513   5.4413   6.2420   7.3673   8.1188
     9.7085  10.0549  10.3963  11.5727  12.5241  13.0590  14.0341  15.8914
    17.6143  18.0075  18.9299

     occupation numbers 
     1.0000   1.0000   1.0000   1.0000   1.0000   1.0000   1.0000   1.0000
     1.0000   1.0000   1.0000   1.0000   1.0000   1.0000   1.0000   1.0000
     1.0000   1.0000   1.0014   0.0092   0.0000   0.0000   0.0000   0.0000
     0.0000   0.0000   0.0000

          k = 0.0000 0.4330 0.0000 (  2668 PWs)   bands (ev):

   -84.5452 -47.8920 -47.8558 -47.7059 -21.9669  -8.8923  -7.3943  -6.5826
    -5.1302  -5.0159   3.8951   4.9463   5.5771   6.1891   7.1065   7.6507
     9.6050   9.9946  10.2609  11.7840  12.4387  12.5567  14.1632  16.9051
    18.2764  18.5726  20.9775

     occupation numbers 
     1.0000   1.0000   1.0000   1.0000   1.0000   1.0000   1.0000   1.0000
     1.0000   1.0000   1.0000   1.0000   1.0000   1.0000   1.0000   1.0000
     1.0000   1.0000   1.0001   0.0002   0.0000   0.0000   0.0000   0.0000
     0.0000   0.0000   0.0000

          k = 0.0000 0.4330 0.1401 (  2668 PWs)   bands (ev):

   -84.5452 -47.8920 -47.8558 -47.7059 -21.9668  -8.8944  -7.3932  -6.5786
    -5.1339  -5.0159   3.9317   4.8953   5.5813   6.2378   7.0991   7.5902
     9.6290   9.9939  10.2489  11.7164  12.5681  12.6220  14.0291  16.8243
    18.3594  18.5516  20.0519

     occupation numbers 
     1.0000   1.0000   1.0000   1.0000   1.0000   1.0000   1.0000   1.0000
     1.0000   1.0000   1.0000   1.0000   1.0000   1.0000   1.0000   1.0000
     1.0000   1.0000   1.0001   0.0008   0.0000   0.0000   0.0000   0.0000
     0.0000   0.0000   0.0000

          k = 0.0000-0.5774 0.0000 (  2658 PWs)   bands (ev):

   -84.5444 -47.9002 -47.8577 -47.7046 -21.8616  -8.8128  -7.3193  -6.8050
    -5.1648  -5.0989   3.5030   5.0207   5.6025   6.3159   7.0742   7.4187
     9.4977   9.8949  10.1712  11.7077  12.3448  12.6042  14.2102  17.0812
    18.4740  19.2296  20.8758

     occupation numbers 
     1.0000   1.0000   1.0000   1.0000   1.0000   1.0000   1.0000   1.0000
     1.0000   1.0000   1.0000   1.0000   1.0000   1.0000   1.0000   1.0000
     1.0000   1.0000   1.0000   0.0009   0.0000   0.0000   0.0000   0.0000
     0.0000   0.0000   0.0000

          k = 0.0000-0.5774 0.1401 (  2664 PWs)   bands (ev):

   -84.5444 -47.9002 -47.8577 -47.7046 -21.8616  -8.8121  -7.3216  -6.8061
    -5.1622  -5.0989   3.5427   4.9676   5.6066   6.3759   7.0667   7.3120
     9.5230   9.8951  10.1797  11.7849  12.4118  12.6168  14.1300  16.7504
    18.4448  19.3232  21.4722

     occupation numbers 
     1.0000   1.0000   1.0000   1.0000   1.0000   1.0000   1.0000   1.0000
     1.0000   1.0000   1.0000   1.0000   1.0000   1.0000   1.0000   1.0000
     1.0000   1.0000   1.0000   0.0002   0.0000   0.0000   0.0000   0.0000
     0.0000   0.0000   0.0000

          k = 0.1250 0.2165 0.0000 (  2673 PWs)   bands (ev):

   -84.5474 -47.8656 -47.8505 -47.7098 -22.2770  -9.3222  -7.5458  -5.6076
    -5.0458  -4.7945   4.7539   4.8588   5.3528   6.4808   7.2994   8.2592
     9.7530  10.0602  10.3741  12.0111  12.3276  12.9221  14.4705  15.0033
    17.3352  17.9933  18.7942

     occupation numbers 
     1.0000   1.0000   1.0000   1.0000   1.0000   1.0000   1.0000   1.0000
     1.0000   1.0000   1.0000   1.0000   1.0000   1.0000   1.0000   1.0000
     1.0000   1.0000   1.0009   0.0000   0.0000   0.0000   0.0000   0.0000
     0.0000   0.0000   0.0000

          k = 0.1250 0.2165 0.1401 (  2654 PWs)   bands (ev):

   -84.5474 -47.8655 -47.8505 -47.7097 -22.2770  -9.3336  -7.5191  -5.6041
    -5.0671  -4.7963   4.6876   4.9028   5.3472   6.5855   7.2997   8.2394
     9.7401  10.0373  10.3830  11.7703  12.3501  13.1263  14.4712  14.9458
    17.4348  18.0382  18.7762

     occupation numbers 
     1.0000   1.0000   1.0000   1.0000   1.0000   1.0000   1.0000   1.0000
     1.0000   1.0000   1.0000   1.0000   1.0000   1.0000   1.0000   1.0000
     1.0000   1.0000   1.0011   0.0003   0.0000   0.0000   0.0000   0.0000
     0.0000   0.0000   0.0000

          k = 0.1250 0.3608 0.0000 (  2648 PWs)   bands (ev):

   -84.5456 -47.8832 -47.8572 -47.7068 -22.0401  -8.9677  -7.4227  -6.2896
    -5.1901  -5.0441   4.3531   4.8491   5.5245   6.0884   6.8754   7.9208
     9.7762  10.1215  10.3036  11.9061  12.2835  13.1545  14.0978  16.1090
    17.3724  18.2793  19.9138

     occupation numbers 
     1.0000   1.0000   1.0000   1.0000   1.0000   1.0000   1.0000   1.0000
     1.0000   1.0000   1.0000   1.0000   1.0000   1.0000   1.0000   1.0000
     1.0000   1.0000   1.0003   0.0000   0.0000   0.0000   0.0000   0.0000
     0.0000   0.0000   0.0000

          k = 0.1250 0.3608 0.1401 (  2658 PWs)   bands (ev):

   -84.5457 -47.8832 -47.8572 -47.7068 -22.0401  -8.9713  -7.4199  -6.2813
    -5.1914  -5.0506   4.3521   4.8308   5.5059   6.1474   6.8764   7.9342
     9.7757  10.1264  10.2926  11.7711  12.2425  13.3319  14.0620  16.0434
    17.3902  18.3468  19.9387

     occupation numbers 
     1.0000   1.0000   1.0000   1.0000   1.0000   1.0000   1.0000   1.0000
     1.0000   1.0000   1.0000   1.0000   1.0000   1.0000   1.0000   1.0000
     1.0000   1.0000   1.0002   0.0003   0.0000   0.0000   0.0000   0.0000
     0.0000   0.0000   0.0000

          k = 0.1250 0.5052 0.0000 (  2661 PWs)   bands (ev):

   -84.5444 -47.8957 -47.8621 -47.7046 -21.8630  -8.7763  -7.3147  -6.6842
    -5.3525  -5.1434   3.7602   4.8432   5.6083   6.3856   6.6744   7.5008
     9.6302   9.9691  10.2483  11.9347  12.3578  12.8123  14.2577  16.9146
    17.8253  18.4820  21.0319

     occupation numbers 
     1.0000   1.0000   1.0000   1.0000   1.0000   1.0000   1.0000   1.0000
     1.0000   1.0000   1.0000   1.0000   1.0000   1.0000   1.0000   1.0000
     1.0000   1.0000   1.0001   0.0000   0.0000   0.0000   0.0000   0.0000
     0.0000   0.0000   0.0000

          k = 0.1250 0.5052 0.1401 (  2664 PWs)   bands (ev):

   -84.5444 -47.8957 -47.8621 -47.7047 -21.8630  -8.7764  -7.3148  -6.6849
    -5.3524  -5.1436   3.8013   4.8251   5.6002   6.4033   6.6763   7.4218
     9.6544   9.9639  10.2577  11.9447  12.3047  12.8957  14.2783  16.7778
    17.7350  18.5540  21.1504

     occupation numbers 
     1.0000   1.0000   1.0000   1.0000   1.0000   1.0000   1.0000   1.0000
     1.0000   1.0000   1.0000   1.0000   1.0000   1.0000   1.0000   1.0000
     1.0000   1.0000   1.0001   0.0000   0.0000   0.0000   0.0000   0.0000
     0.0000   0.0000   0.0000

          k = 0.2500 0.4330 0.0000 (  2661 PWs)   bands (ev):

   -84.5444 -47.8895 -47.8683 -47.7046 -21.8644  -8.7415  -7.3039  -6.4978
    -5.6637  -5.1325   4.1574   4.6704   5.4070   6.2115   6.6611   7.5417
     9.7459  10.0151  10.3455  11.9923  12.1585  13.8332  14.2488  16.1624
    17.2029  17.9843  21.1783

     occupation numbers 
     1.0000   1.0000   1.0000   1.0000   1.0000   1.0000   1.0000   1.0000
     1.0000   1.0000   1.0000   1.0000   1.0000   1.0000   1.0000   1.0000
     1.0000   1.0000   1.0006   0.0000   0.0000   0.0000   0.0000   0.0000
     0.0000   0.0000   0.0000

          k = 0.2500 0.4330 0.1401 (  2664 PWs)   bands (ev):

   -84.5444 -47.8895 -47.8682 -47.7047 -21.8643  -8.7409  -7.3098  -6.4914
    -5.6646  -5.1333   4.1678   4.6914   5.4098   6.1941   6.6326   7.5562
     9.7432  10.0098  10.3752  11.8596  12.1459  13.9707  14.2578  16.1733
    17.0724  18.0064  21.3050

     occupation numbers 
     1.0000   1.0000   1.0000   1.0000   1.0000   1.0000   1.0000   1.0000
     1.0000   1.0000   1.0000   1.0000   1.0000   1.0000   1.0000   1.0000
     1.0000   1.0000   1.0010   0.0000   0.0000   0.0000   0.0000   0.0000
     0.0000   0.0000   0.0000

          k = 0.2500 0.5774 0.0000 (  2661 PWs)   bands (ev):

   -84.5439 -47.8900 -47.8749 -47.7037 -21.7894  -8.6533  -7.2442  -6.5464
    -5.9000  -5.1644   4.0210   4.6925   5.2280   6.2626   6.7995   7.2592
     9.5811  10.1384  10.3182  11.9987  12.1390  13.9980  14.4672  16.1243
    17.5016  17.9518  21.4942

     occupation numbers 
     1.0000   1.0000   1.0000   1.0000   1.0000   1.0000   1.0000   1.0000
     1.0000   1.0000   1.0000   1.0000   1.0000   1.0000   1.0000   1.0000
     1.0000   1.0000   1.0003   0.0000   0.0000   0.0000   0.0000   0.0000
     0.0000   0.0000   0.0000

          k = 0.2500 0.5774 0.1401 (  2673 PWs)   bands (ev):

   -84.5440 -47.8900 -47.8750 -47.7038 -21.7894  -8.6529  -7.2439  -6.5476
    -5.9011  -5.1650   4.0460   4.7185   5.2544   6.2338   6.7639   7.2149
     9.5951  10.1335  10.3459  11.9042  12.1084  14.0141  14.5925  16.1643
    17.4340  17.9236  21.7631

     occupation numbers 
     1.0000   1.0000   1.0000   1.0000   1.0000   1.0000   1.0000   1.0000
     1.0000   1.0000   1.0000   1.0000   1.0000   1.0000   1.0000   1.0000
     1.0000   1.0000   1.0006   0.0000   0.0000   0.0000   0.0000   0.0000
     0.0000   0.0000   0.0000

          k = 0.0000-0.1443 0.1401 (  2670 PWs)   bands (ev):

   -84.5486 -47.8525 -47.8463 -47.7119 -22.4361  -9.5984  -7.5903  -5.1978
    -4.8560  -4.5896   4.7122   4.9310   5.2449   7.3381   7.9249   8.0341
     9.5904   9.7495  10.3275  12.0314  12.5903  12.6270  14.2619  15.4572
    16.5524  17.6461  19.1053

     occupation numbers 
     1.0000   1.0000   1.0000   1.0000   1.0000   1.0000   1.0000   1.0000
     1.0000   1.0000   1.0000   1.0000   1.0000   1.0000   1.0000   1.0000
     1.0000   1.0000   1.0004   0.0000   0.0000   0.0000   0.0000   0.0000
     0.0000   0.0000   0.0000

          k = 0.0000-0.2887 0.1401 (  2656 PWs)   bands (ev):

   -84.5469 -47.8722 -47.8509 -47.7089 -22.2089  -9.2240  -7.4966  -5.8791
    -5.0789  -4.8083   4.5292   4.9004   5.4388   6.2940   7.3725   8.1965
     9.6818  10.0542  10.3647  11.6606  12.5208  12.9095  14.0658  15.8510
    17.5562  18.0013  18.9315

     occupation numbers 
     1.0000   1.0000   1.0000   1.0000   1.0000   1.0000   1.0000   1.0000
     1.0000   1.0000   1.0000   1.0000   1.0000   1.0000   1.0000   1.0000
     1.0000   1.0000   1.0008   0.0022   0.0000   0.0000   0.0000   0.0000
     0.0000   0.0000   0.0000

          k = 0.0000-0.4330 0.1401 (  2668 PWs)   bands (ev):

   -84.5452 -47.8920 -47.8558 -47.7059 -21.9668  -8.8914  -7.4079  -6.5677
    -5.1300  -5.0159   3.8900   4.8983   5.5786   6.2253   7.1041   7.7044
     9.5988   9.9931  10.2533  11.8225  12.4383  12.5646  14.0773  16.6449
    18.3386  18.5538  20.0483

     occupation numbers 
     1.0000   1.0000   1.0000   1.0000   1.0000   1.0000   1.0000   1.0000
     1.0000   1.0000   1.0000   1.0000   1.0000   1.0000   1.0000   1.0000
     1.0000   1.0000   1.0001   0.0001   0.0000   0.0000   0.0000   0.0000
     0.0000   0.0000   0.0000

          k =-0.1250-0.3608 0.1401 (  2658 PWs)   bands (ev):

   -84.5457 -47.8832 -47.8572 -47.7068 -22.0401  -8.9699  -7.4262  -6.2765
    -5.1908  -5.0494   4.3186   4.8317   5.4981   6.1800   6.8659   7.9932
     9.7552  10.1210  10.3005  11.8022  12.2463  13.2044  14.1201  16.0343
    17.3252  18.3224  19.9492

     occupation numbers 
     1.0000   1.0000   1.0000   1.0000   1.0000   1.0000   1.0000   1.0000
     1.0000   1.0000   1.0000   1.0000   1.0000   1.0000   1.0000   1.0000
     1.0000   1.0000   1.0002   0.0001   0.0000   0.0000   0.0000   0.0000
     0.0000   0.0000   0.0000

          k =-0.1250-0.5052 0.1401 (  2664 PWs)   bands (ev):

   -84.5444 -47.8957 -47.8621 -47.7047 -21.8630  -8.7748  -7.3241  -6.6773
    -5.3530  -5.1416   3.7817   4.8309   5.6052   6.3806   6.6715   7.4850
     9.6365   9.9639  10.2695  11.9745  12.3202  12.8024  14.3012  16.7388
    17.7262  18.4948  21.2030

     occupation numbers 
     1.0000   1.0000   1.0000   1.0000   1.0000   1.0000   1.0000   1.0000
     1.0000   1.0000   1.0000   1.0000   1.0000   1.0000   1.0000   1.0000
     1.0000   1.0000   1.0001   0.0000   0.0000   0.0000   0.0000   0.0000
     0.0000   0.0000   0.0000

     the Fermi energy is    11.2180 ev

     WARNING: integrated charge=    38.00181319, expected=    38.00000000

!    total energy              =    -573.01336995 Ry
     total all-electron energy =     -4292.124206 Ry
     estimated scf accuracy    <       0.00000004 Ry
     smearing contrib. (-TS)   =       0.00002718 Ry
     internal energy E=F+TS    =    -573.01339713 Ry

     The total energy is F=E-TS. E is the sum of the following terms:
     one-electron contribution =    -394.17070354 Ry
     hartree contribution      =     217.97780134 Ry
     xc contribution           =     -56.98930764 Ry
     ewald contribution        =    -177.65066493 Ry
     one-center paw contrib.   =    -162.18052236 Ry
      -> PAW hartree energy AE =     312.65135340 Ry
      -> PAW hartree energy PS =    -311.28349620 Ry
      -> PAW xc energy AE      =    -217.32862698 Ry
      -> PAW xc energy PS      =      53.78024742 Ry
      -> total E_H with PAW    =     219.34565854 Ry
      -> total E_XC with PAW   =    -220.53768720 Ry

     total magnetization       =    -0.00 Bohr mag/cell
     absolute magnetization    =     0.00 Bohr mag/cell

     convergence has been achieved in  20 iterations

     Forces acting on atoms (cartesian axes, Ry/au):

     atom    1 type  1   force =    -0.00000000   -0.00000000    0.07851782
     atom    2 type  2   force =     0.00000000    0.00000000    0.00524320
     atom    3 type  2   force =    -0.00000000   -0.00000000   -0.02250256
     atom    4 type  3   force =    -0.00000000   -0.00000000   -0.06125846
     The non-local contrib.  to forces
     atom    1 type  1   force =     0.00000000    0.00000000   -0.14736748
     atom    2 type  2   force =     0.00000000    0.00000000   -0.92512731
     atom    3 type  2   force =     0.00000000    0.00000000    0.40500079
     atom    4 type  3   force =     0.00000000   -0.00000000   -0.13268613
     The ionic contribution  to forces
     atom    1 type  1   force =    -0.00000000   -0.00000000   16.57910912
     atom    2 type  2   force =     0.00000000   -0.00000000   31.03368424
     atom    3 type  2   force =    -0.00000000    0.00000000  -20.61266134
     atom    4 type  3   force =     0.00000000   -0.00000000  -27.00013202
     The local contribution  to forces
     atom    1 type  1   force =    -0.00000000   -0.00000000  -16.35374457
     atom    2 type  2   force =     0.00000001   -0.00000001  -30.11107600
     atom    3 type  2   force =    -0.00000001    0.00000001   20.18895538
     atom    4 type  3   force =     0.00000000   -0.00000000   27.06547917
     The core correction contribution to forces
     atom    1 type  1   force =     0.00000000   -0.00000000   -0.00009307
     atom    2 type  2   force =    -0.00000000    0.00000000    0.00797228
     atom    3 type  2   force =     0.00000000   -0.00000000   -0.00394152
     atom    4 type  3   force =     0.00000000   -0.00000000    0.00599886
     The Hubbard contrib.    to forces
     atom    1 type  1   force =     0.00000000    0.00000000    0.00000000
     atom    2 type  2   force =     0.00000000    0.00000000    0.00000000
     atom    3 type  2   force =     0.00000000    0.00000000    0.00000000
     atom    4 type  3   force =     0.00000000    0.00000000    0.00000000
     The SCF correction term to forces
     atom    1 type  1   force =     0.00000000   -0.00000000    0.00067763
     atom    2 type  2   force =    -0.00000000    0.00000000   -0.00014620
     atom    3 type  2   force =     0.00000000   -0.00000000    0.00020794
     atom    4 type  3   force =     0.00000000   -0.00000000    0.00014545

     Total force =     0.102233     Total SCF correction =     0.000738

     Writing all to output data dir ./out/pw.save/ :
     XML data file, charge density, pseudopotentials, collected wavefunctions
 
     init_run     :     13.41s CPU      3.45s WALL (       1 calls)
     electrons    :    127.29s CPU     32.79s WALL (       1 calls)
     forces       :      0.70s CPU      0.57s WALL (       1 calls)

     Called by init_run:
     wfcinit      :      0.28s CPU      0.34s WALL (       1 calls)
     wfcinit:atom :      0.05s CPU      0.05s WALL (      50 calls)
     wfcinit:wfcr :      0.17s CPU      0.22s WALL (      50 calls)
     potinit      :     12.51s CPU      2.46s WALL (       1 calls)
     hinit0       :      0.52s CPU      0.52s WALL (       1 calls)

     Called by electrons:
     c_bands      :     13.88s CPU     13.95s WALL (      20 calls)
     sum_band     :      2.66s CPU      2.60s WALL (      20 calls)
     v_of_rho     :      0.31s CPU      0.19s WALL (      21 calls)
     v_h          :      0.21s CPU      0.03s WALL (      21 calls)
     v_xc         :      0.11s CPU      0.16s WALL (      22 calls)
     newd         :      0.66s CPU      0.54s WALL (      21 calls)
                                        0.54s GPU  (      21 calls)
     PAW_pot      :    113.83s CPU     15.68s WALL (      21 calls)
     mix_rho      :      0.58s CPU      0.56s WALL (      20 calls)

     Called by c_bands:
     init_us_2    :      0.89s CPU      0.84s WALL (    2100 calls)
     cegterg      :     12.27s CPU     12.35s WALL (    1000 calls)

     Called by sum_band:
     sum_band:wei :      0.03s CPU      0.03s WALL (      20 calls)
                                        0.03s GPU  (      20 calls)
     sum_band:loo :      1.45s CPU      1.38s WALL (      20 calls)
                                        1.38s GPU  (      20 calls)
     sum_band:buf :      0.15s CPU      0.18s WALL (    1000 calls)
                                        0.16s GPU  (    1000 calls)
     sum_band:ini :      0.42s CPU      0.41s WALL (    1000 calls)
                                        0.40s GPU  (    1000 calls)
     sum_band:cal :      0.04s CPU      0.06s WALL (    1000 calls)
                                        0.05s GPU  (    1000 calls)
     sum_band:bec :      0.23s CPU      0.24s WALL (    1000 calls)
                                        0.23s GPU  (    1000 calls)
     addusdens    :      1.05s CPU      1.06s WALL (      20 calls)
                                        1.05s GPU  (      20 calls)
     addusd:skk   :      0.00s CPU      0.00s WALL (      60 calls)
                                        0.00s GPU  (      60 calls)

     Called by *egterg:
     cdiaghg      :      4.22s CPU      4.39s WALL (    4931 calls)
                                        4.33s GPU  (    4931 calls)
     cegterg:over :      0.90s CPU      0.94s WALL (    3931 calls)
     cegterg:upda :      0.69s CPU      0.70s WALL (    3931 calls)
     cegterg:last :      0.12s CPU      0.12s WALL (    1952 calls)
     h_psi        :      4.40s CPU      4.43s WALL (    4981 calls)
                                        4.37s GPU  (    4981 calls)
     s_psi        :      0.75s CPU      0.80s WALL (    4981 calls)
     g_psi        :      0.02s CPU      0.09s WALL (    3931 calls)
                                        0.04s GPU  (    3931 calls)

     Called by h_psi:
     h_psi:calbec :      0.15s CPU      0.28s WALL (    4981 calls)
                                        0.22s GPU  (    4981 calls)
     vloc_psi     :      3.04s CPU      2.98s WALL (    4981 calls)
                                        2.91s GPU  (    4981 calls)
     add_vuspsi   :      0.69s CPU      0.83s WALL (    4981 calls)
                                        0.76s GPU  (    4981 calls)

     General routines
     calbec       :      0.16s CPU      0.20s WALL (    6181 calls)
     fft          :      3.23s CPU      0.87s WALL (     538 calls)
                                        0.02s GPU  (     496 calls)
     ffts         :      4.46s CPU      0.81s WALL (     761 calls)
                                        0.02s GPU  (     719 calls)
     fftw         :      0.29s CPU      0.95s WALL (   16062 calls)
                                        0.77s GPU  (   16062 calls)
     interpolate  :      7.80s CPU      1.66s WALL (      42 calls)
 
     Parallel routines

     PAW routines
     PAW_pot      :    113.83s CPU     15.68s WALL (      21 calls)
     PAW_symme    :      0.01s CPU      0.01s WALL (      41 calls)
 
     PWSCF        :   2m22.36s CPU     37.43s WALL

 
   This run was terminated on:   5:37:50  12Jul2026            

=------------------------------------------------------------------------------=
   JOB DONE.
=------------------------------------------------------------------------------=
Warning: ieee_divide_by_zero is signaling
Warning: ieee_inexact is signaling
FORTRAN STOP
