
     Program PWSCF v.7.3.1 starts on 12Jul2026 at  5:38:42 

     This program is part of the open-source Quantum ESPRESSO suite
     for quantum simulation of materials; please cite
         "P. Giannozzi et al., J. Phys.:Condens. Matter 21 395502 (2009);
         "P. Giannozzi et al., J. Phys.:Condens. Matter 29 465901 (2017);
         "P. Giannozzi et al., J. Chem. Phys. 152 154105 (2020);
          URL http://www.quantum-espresso.org", 
     in publications or presentations arising from this work. More details at
     http://www.quantum-espresso.org/quote

     Parallel version (MPI & OpenMP), running on      14 processor cores
     Number of MPI processes:                 1
     Threads/MPI process:                    14

     MPI processes distributed on     1 nodes
     1344972 MiB available memory on the printing compute node when the environment starts
 
     Reading input from pw.in

     Current dimensions of program PWSCF are:
     Max number of different atomic species (ntypx) = 10
     Max number of k-points (npk) =  40000
     Max angular momentum in pseudopotentials (lmaxx) =  4
     file Co.pbe-spn-kjpaw_psl.0.3.1.UPF: wavefunction(s)  3P 3D renormalized
     file O.pbe-n-kjpaw_psl.1.0.0.UPF: wavefunction(s)  2S 2P renormalized
     file K.pbe-spn-kjpaw_psl.1.0.0.UPF: wavefunction(s)  3S renormalized
 
     Subspace diagonalization in iterative solution of the eigenvalue problem:
     a serial algorithm will be used

 
     G-vector sticks info
     --------------------
     sticks:   dense  smooth     PW     G-vecs:    dense   smooth      PW
     Sum        1003     499    151                86309    30591    5001
 
     Using Slab Decomposition
 


     bravais-lattice index     =            4
     lattice parameter (alat)  =       5.4802  a.u.
     unit-cell volume          =     486.5847 (a.u.)^3
     number of atoms/cell      =            4
     number of atomic types    =            3
     number of electrons       =        38.00
     number of Kohn-Sham states=           27
     kinetic-energy cutoff     =      60.0000  Ry
     charge density cutoff     =     480.0000  Ry
     scf convergence threshold =      1.0E-07
     mixing beta               =       0.3000
     number of iterations used =            8  local-TF  mixing
     Exchange-correlation= SLA  PW   PBX  PBC
                           (   1   4   3   4   0   0   0)

     GPU acceleration is ACTIVE.  1 visible GPUs per MPI rank
     GPU-aware MPI enabled


     GPU used by master process:

        Device Number: 0
        Device name: NVIDIA A100-SXM4-80GB
        Compute capability : 80
        Ratio of single to double precision performance  : 2
        Memory Clock Rate (KHz): 1593000
        Memory Bus Width (bits): 5120
        Peak Memory Bandwidth (GB/s): ******

     celldm(1)=   5.480206  celldm(2)=   0.000000  celldm(3)=   3.413793
     celldm(4)=   0.000000  celldm(5)=   0.000000  celldm(6)=   0.000000

     crystal axes: (cart. coord. in units of alat)
               a(1) = (   1.000000   0.000000   0.000000 )  
               a(2) = (  -0.500000   0.866025   0.000000 )  
               a(3) = (   0.000000   0.000000   3.413793 )  

     reciprocal axes: (cart. coord. in units 2 pi/alat)
               b(1) = (  1.000000  0.577350 -0.000000 )  
               b(2) = (  0.000000  1.154701  0.000000 )  
               b(3) = (  0.000000 -0.000000  0.292929 )  


     PseudoPot. # 1 for Co read from file:
     ../../pseudo/Co.pbe-spn-kjpaw_psl.0.3.1.UPF
     MD5 check sum: 3c0a43779828c046024e4f3be63f8e67
     Pseudo is Projector augmented-wave + core cor, Zval = 17.0
     Generated using &quot;atomic&quot; code by A. Dal Corso  v.6.2.2
     Shape of augmentation charge: PSQ
     Using radial grid of 1193 points,  6 beta functions with: 
                l(1) =   0
                l(2) =   0
                l(3) =   1
                l(4) =   1
                l(5) =   2
                l(6) =   2
     Q(r) pseudized with 0 coefficients 


     PseudoPot. # 2 for O  read from file:
     ../../pseudo/O.pbe-n-kjpaw_psl.1.0.0.UPF
     MD5 check sum: e99d9cef9b487d1ca56f5b95ecd0fd7a
     Pseudo is Projector augmented-wave + core cor, Zval =  6.0
     Generated using &quot;atomic&quot; code by A. Dal Corso  v.6.3
     Shape of augmentation charge: PSQ
     Using radial grid of 1095 points,  4 beta functions with: 
                l(1) =   0
                l(2) =   0
                l(3) =   1
                l(4) =   1
     Q(r) pseudized with 0 coefficients 


     PseudoPot. # 3 for K  read from file:
     ../../pseudo/K.pbe-spn-kjpaw_psl.1.0.0.UPF
     MD5 check sum: 34cc42130a09071ebe376fd42eb21491
     Pseudo is Projector augmented-wave + core cor, Zval =  9.0
     Generated using &quot;atomic&quot; code by A. Dal Corso  v.6.2.2
     Shape of augmentation charge: PSQ
     Using radial grid of 1165 points,  6 beta functions with: 
                l(1) =   0
                l(2) =   0
                l(3) =   1
                l(4) =   1
                l(5) =   2
                l(6) =   2
     Q(r) pseudized with 0 coefficients 


     atomic species   valence    mass     pseudopotential
     Co               17.00    58.93300     Co( 1.00)
     O                 6.00    15.99900     O ( 1.00)
     K                 9.00    39.09830     K ( 1.00)

     Starting magnetic structure 
     atomic species   magnetization
     Co              0.300
     O               0.000
     K               0.000

     12 Sym. Ops., with inversion, found


                                    s                        frac. trans.

      isym =  1     identity                                     

 cryst.   s( 1) = (     1          0          0      )
                  (     0          1          0      )
                  (     0          0          1      )

 cart.    s( 1) = (  1.0000000  0.0000000  0.0000000 )
                  (  0.0000000  1.0000000  0.0000000 )
                  (  0.0000000  0.0000000  1.0000000 )


      isym =  2     180 deg rotation - cart. axis [1,0,0]        

 cryst.   s( 2) = (     1          0          0      )
                  (    -1         -1          0      )
                  (     0          0         -1      )

 cart.    s( 2) = (  1.0000000  0.0000000  0.0000000 )
                  (  0.0000000 -1.0000000  0.0000000 )
                  (  0.0000000  0.0000000 -1.0000000 )


      isym =  3     120 deg rotation - cryst. axis [0,0,1]       

 cryst.   s( 3) = (     0          1          0      )
                  (    -1         -1          0      )
                  (     0          0          1      )

 cart.    s( 3) = ( -0.5000000 -0.8660254  0.0000000 )
                  (  0.8660254 -0.5000000  0.0000000 )
                  (  0.0000000  0.0000000  1.0000000 )


      isym =  4     120 deg rotation - cryst. axis [0,0,-1]      

 cryst.   s( 4) = (    -1         -1          0      )
                  (     1          0          0      )
                  (     0          0          1      )

 cart.    s( 4) = ( -0.5000000  0.8660254  0.0000000 )
                  ( -0.8660254 -0.5000000  0.0000000 )
                  (  0.0000000  0.0000000  1.0000000 )


      isym =  5     180 deg rotation - cryst. axis [0,1,0]       

 cryst.   s( 5) = (    -1         -1          0      )
                  (     0          1          0      )
                  (     0          0         -1      )

 cart.    s( 5) = ( -0.5000000 -0.8660254  0.0000000 )
                  ( -0.8660254  0.5000000  0.0000000 )
                  (  0.0000000  0.0000000 -1.0000000 )


      isym =  6     180 deg rotation - cryst. axis [1,1,0]       

 cryst.   s( 6) = (     0          1          0      )
                  (     1          0          0      )
                  (     0          0         -1      )

 cart.    s( 6) = ( -0.5000000  0.8660254  0.0000000 )
                  (  0.8660254  0.5000000  0.0000000 )
                  (  0.0000000  0.0000000 -1.0000000 )


      isym =  7     inversion                                    

 cryst.   s( 7) = (    -1          0          0      )
                  (     0         -1          0      )
                  (     0          0         -1      )

 cart.    s( 7) = ( -1.0000000  0.0000000  0.0000000 )
                  (  0.0000000 -1.0000000  0.0000000 )
                  (  0.0000000  0.0000000 -1.0000000 )


      isym =  8     inv. 180 deg rotation - cart. axis [1,0,0]   

 cryst.   s( 8) = (    -1          0          0      )
                  (     1          1          0      )
                  (     0          0          1      )

 cart.    s( 8) = ( -1.0000000  0.0000000  0.0000000 )
                  (  0.0000000  1.0000000  0.0000000 )
                  (  0.0000000  0.0000000  1.0000000 )


      isym =  9     inv. 120 deg rotation - cryst. axis [0,0,1]  

 cryst.   s( 9) = (     0         -1          0      )
                  (     1          1          0      )
                  (     0          0         -1      )

 cart.    s( 9) = (  0.5000000  0.8660254  0.0000000 )
                  ( -0.8660254  0.5000000  0.0000000 )
                  (  0.0000000  0.0000000 -1.0000000 )


      isym = 10     inv. 120 deg rotation - cryst. axis [0,0,-1] 

 cryst.   s(10) = (     1          1          0      )
                  (    -1          0          0      )
                  (     0          0         -1      )

 cart.    s(10) = (  0.5000000 -0.8660254  0.0000000 )
                  (  0.8660254  0.5000000  0.0000000 )
                  (  0.0000000  0.0000000 -1.0000000 )


      isym = 11     inv. 180 deg rotation - cryst. axis [0,1,0]  

 cryst.   s(11) = (     1          1          0      )
                  (     0         -1          0      )
                  (     0          0          1      )

 cart.    s(11) = (  0.5000000  0.8660254  0.0000000 )
                  (  0.8660254 -0.5000000  0.0000000 )
                  (  0.0000000  0.0000000  1.0000000 )


      isym = 12     inv. 180 deg rotation - cryst. axis [1,1,0]  

 cryst.   s(12) = (     0         -1          0      )
                  (    -1          0          0      )
                  (     0          0          1      )

 cart.    s(12) = (  0.5000000 -0.8660254  0.0000000 )
                  ( -0.8660254 -0.5000000  0.0000000 )
                  (  0.0000000  0.0000000  1.0000000 )


     point group D_3d (-3m) 
     there are  6 classes
     the character table:

       E     2C3   3C2'  i     2S6   3s_d 
A_1g   1.00  1.00  1.00  1.00  1.00  1.00
A_2g   1.00  1.00 -1.00  1.00  1.00 -1.00
E_g    2.00 -1.00  0.00  2.00 -1.00  0.00
A_1u   1.00  1.00  1.00 -1.00 -1.00 -1.00
A_2u   1.00  1.00 -1.00 -1.00 -1.00  1.00
E_u    2.00 -1.00  0.00 -2.00  1.00  0.00

     the symmetry operations in each class and the name of the first element:

     E        1
          identity                                               
     2C3      3    4
          120 deg rotation - cryst. axis [0,0,1]                 
     3C2'     2    5    6
          180 deg rotation - cart. axis [1,0,0]                  
     i        7
          inversion                                              
     2S6      9   10
          inv. 120 deg rotation - cryst. axis [0,0,1]            
     3s_d     8   11   12
          inv. 180 deg rotation - cart. axis [1,0,0]             

   Cartesian axes

     site n.     atom                  positions (alat units)
         1        Co     tau(   1) = (   0.0000000   0.0000000   0.0000000  )
         2        O      tau(   2) = (  -0.0000000   0.5773503   0.3310345  )
         3        O      tau(   3) = (   0.5000000   0.2886751   3.0827586  )
         4        K      tau(   4) = (   0.0000000   0.0000000   1.7068965  )

   Crystallographic axes

     site n.     atom                  positions (cryst. coord.)
         1        Co     tau(   1) = (  0.0000000  0.0000000  0.0000000  )
         2        O      tau(   2) = (  0.3333333  0.6666667  0.0969697  )
         3        O      tau(   3) = (  0.6666667  0.3333333  0.9030303  )
         4        K      tau(   4) = (  0.0000000  0.0000000  0.5000000  )

     number of k points=    25  Marzari-Vanderbilt smearing, width (Ry)=  0.0200
                       cart. coord. in units 2pi/alat
        k(    1) = (   0.0000000   0.0000000   0.0000000), wk =   0.0052083
        k(    2) = (   0.0000000   0.0000000   0.0976431), wk =   0.0104167
        k(    3) = (   0.0000000   0.1443376   0.0000000), wk =   0.0312500
        k(    4) = (   0.0000000   0.1443376   0.0976431), wk =   0.0312500
        k(    5) = (   0.0000000   0.2886751   0.0000000), wk =   0.0312500
        k(    6) = (   0.0000000   0.2886751   0.0976431), wk =   0.0312500
        k(    7) = (   0.0000000   0.4330127   0.0000000), wk =   0.0312500
        k(    8) = (   0.0000000   0.4330127   0.0976431), wk =   0.0312500
        k(    9) = (   0.0000000  -0.5773503   0.0000000), wk =   0.0156250
        k(   10) = (   0.0000000  -0.5773503   0.0976431), wk =   0.0312500
        k(   11) = (   0.1250000   0.2165064   0.0000000), wk =   0.0312500
        k(   12) = (   0.1250000   0.2165064   0.0976431), wk =   0.0625000
        k(   13) = (   0.1250000   0.3608439   0.0000000), wk =   0.0625000
        k(   14) = (   0.1250000   0.3608439   0.0976431), wk =   0.0625000
        k(   15) = (   0.1250000   0.5051815   0.0000000), wk =   0.0625000
        k(   16) = (   0.1250000   0.5051815   0.0976431), wk =   0.0625000
        k(   17) = (   0.2500000   0.4330127   0.0000000), wk =   0.0312500
        k(   18) = (   0.2500000   0.4330127   0.0976431), wk =   0.0625000
        k(   19) = (   0.2500000   0.5773503   0.0000000), wk =   0.0312500
        k(   20) = (   0.2500000   0.5773503   0.0976431), wk =   0.0625000
        k(   21) = (   0.0000000   0.1443376  -0.0976431), wk =   0.0312500
        k(   22) = (   0.0000000   0.2886751  -0.0976431), wk =   0.0312500
        k(   23) = (   0.0000000   0.4330127  -0.0976431), wk =   0.0312500
        k(   24) = (  -0.1250000   0.3608439  -0.0976431), wk =   0.0625000
        k(   25) = (  -0.1250000   0.5051815  -0.0976431), wk =   0.0625000

                       cryst. coord.
        k(    1) = (   0.0000000   0.0000000   0.0000000), wk =   0.0052083
        k(    2) = (   0.0000000   0.0000000   0.3333333), wk =   0.0104167
        k(    3) = (   0.0000000   0.1250000   0.0000000), wk =   0.0312500
        k(    4) = (   0.0000000   0.1250000   0.3333333), wk =   0.0312500
        k(    5) = (   0.0000000   0.2500000   0.0000000), wk =   0.0312500
        k(    6) = (   0.0000000   0.2500000   0.3333333), wk =   0.0312500
        k(    7) = (   0.0000000   0.3750000   0.0000000), wk =   0.0312500
        k(    8) = (   0.0000000   0.3750000   0.3333333), wk =   0.0312500
        k(    9) = (   0.0000000  -0.5000000   0.0000000), wk =   0.0156250
        k(   10) = (   0.0000000  -0.5000000   0.3333333), wk =   0.0312500
        k(   11) = (   0.1250000   0.1250000   0.0000000), wk =   0.0312500
        k(   12) = (   0.1250000   0.1250000   0.3333333), wk =   0.0625000
        k(   13) = (   0.1250000   0.2500000   0.0000000), wk =   0.0625000
        k(   14) = (   0.1250000   0.2500000   0.3333333), wk =   0.0625000
        k(   15) = (   0.1250000   0.3750000   0.0000000), wk =   0.0625000
        k(   16) = (   0.1250000   0.3750000   0.3333333), wk =   0.0625000
        k(   17) = (   0.2500000   0.2500000   0.0000000), wk =   0.0312500
        k(   18) = (   0.2500000   0.2500000   0.3333333), wk =   0.0625000
        k(   19) = (   0.2500000   0.3750000   0.0000000), wk =   0.0312500
        k(   20) = (   0.2500000   0.3750000   0.3333333), wk =   0.0625000
        k(   21) = (   0.0000000   0.1250000  -0.3333333), wk =   0.0312500
        k(   22) = (   0.0000000   0.2500000  -0.3333333), wk =   0.0312500
        k(   23) = (   0.0000000   0.3750000  -0.3333333), wk =   0.0312500
        k(   24) = (  -0.1250000   0.3750000  -0.3333333), wk =   0.0625000
        k(   25) = (  -0.1250000   0.5000000  -0.3333333), wk =   0.0625000

     Dense  grid:    86309 G-vectors     FFT dimensions: (  40,  40, 135)

     Smooth grid:    30591 G-vectors     FFT dimensions: (  27,  27,  96)

     Dynamical RAM for                 wfc:       1.57 MB

     Dynamical RAM for     wfc (w. buffer):      80.24 MB

     Dynamical RAM for           str. fact:       3.95 MB

     Dynamical RAM for           local pot:       0.00 MB

     Dynamical RAM for          nlocal pot:       3.03 MB

     Dynamical RAM for                qrad:       5.27 MB

     Dynamical RAM for          rho,v,vnew:      17.79 MB

     Dynamical RAM for               rhoin:       5.93 MB

     Dynamical RAM for            rho*nmix:      42.14 MB

     Dynamical RAM for           G-vectors:       5.17 MB

     Dynamical RAM for          h,s,v(r/c):       0.13 MB

     Dynamical RAM for          <psi|beta>:       0.02 MB

     Dynamical RAM for                 psi:       3.15 MB

     Dynamical RAM for                hpsi:       3.15 MB

     Dynamical RAM for                spsi:       3.15 MB

     Dynamical RAM for      wfcinit/wfcrot:       3.16 MB

     Dynamical RAM for           addusdens:     248.91 MB

     Dynamical RAM for          addusforce:     251.56 MB

     Estimated static dynamical RAM per process >     136.54 MB

     Estimated max dynamical RAM per process >     430.24 MB

     Check: negative core charge=   -0.000006
     Generating pointlists ...
     new r_m :   0.2745 (alat units)  1.5045 (a.u.) for type    1
     new r_m :   0.2745 (alat units)  1.5045 (a.u.) for type    2
     new r_m :   0.4125 (alat units)  2.2606 (a.u.) for type    3

     Initial potential from superposition of free atoms

     starting charge      37.9809, renormalised to      38.0000
     Starting wfcs are   26 randomized atomic wfcs +    1 random wfcs
     Checking if some PAW data can be deallocated... 

     total cpu time spent up to now is        3.9 secs

     Self-consistent Calculation
[tb_dev] Currently allocated     6.58E-01 Mbytes, locked:    0 /   6
[tb_pin] Currently allocated     0.00E+00 Mbytes, locked:    0 /   0

     iteration #  1     ecut=    60.00 Ry     beta= 0.30
     Davidson diagonalization with overlap

---- Real-time Memory Report at c_bands before calling an iterative solver
           728 MiB given to the printing process from OS
             0 MiB allocation reported by mallinfo(arena+hblkhd)
       1359332 MiB available memory on the node where the printing process lives
     GPU memory used/free/total (MiB): 1110 / 80040 / 81151
------------------
     ethr =  1.00E-02,  avg # of iterations =  8.0

     total cpu time spent up to now is        6.1 secs

     total energy              =    -572.67861247 Ry
     estimated scf accuracy    <       2.17213841 Ry

     total magnetization       =     4.02 Bohr mag/cell
     absolute magnetization    =     4.02 Bohr mag/cell
[tb_dev] Currently allocated     3.05E-05 Mbytes, locked:    0 /   2
[tb_pin] Currently allocated     0.00E+00 Mbytes, locked:    0 /   0

     iteration #  2     ecut=    60.00 Ry     beta= 0.30
     Davidson diagonalization with overlap

---- Real-time Memory Report at c_bands before calling an iterative solver
           773 MiB given to the printing process from OS
             0 MiB allocation reported by mallinfo(arena+hblkhd)
       1357395 MiB available memory on the node where the printing process lives
     GPU memory used/free/total (MiB): 1130 / 80020 / 81151
------------------
     ethr =  5.72E-03,  avg # of iterations =  1.9

     total cpu time spent up to now is        7.5 secs

     total energy              =    -572.66478686 Ry
     estimated scf accuracy    <       1.12742812 Ry

     total magnetization       =     3.82 Bohr mag/cell
     absolute magnetization    =     3.82 Bohr mag/cell
[tb_dev] Currently allocated     3.05E-05 Mbytes, locked:    0 /   2
[tb_pin] Currently allocated     0.00E+00 Mbytes, locked:    0 /   0

     iteration #  3     ecut=    60.00 Ry     beta= 0.30
     Davidson diagonalization with overlap

---- Real-time Memory Report at c_bands before calling an iterative solver
           774 MiB given to the printing process from OS
             0 MiB allocation reported by mallinfo(arena+hblkhd)
       1356117 MiB available memory on the node where the printing process lives
     GPU memory used/free/total (MiB): 1130 / 80020 / 81151
------------------
     ethr =  2.97E-03,  avg # of iterations =  2.4

     total cpu time spent up to now is        9.0 secs

     total energy              =    -572.82660233 Ry
     estimated scf accuracy    <       1.46616666 Ry

     total magnetization       =     1.45 Bohr mag/cell
     absolute magnetization    =     1.58 Bohr mag/cell
[tb_dev] Currently allocated     3.05E-05 Mbytes, locked:    0 /   2
[tb_pin] Currently allocated     0.00E+00 Mbytes, locked:    0 /   0

     iteration #  4     ecut=    60.00 Ry     beta= 0.30
     Davidson diagonalization with overlap

---- Real-time Memory Report at c_bands before calling an iterative solver
           775 MiB given to the printing process from OS
             0 MiB allocation reported by mallinfo(arena+hblkhd)
       1354876 MiB available memory on the node where the printing process lives
     GPU memory used/free/total (MiB): 1130 / 80020 / 81151
------------------
     ethr =  2.97E-03,  avg # of iterations =  1.2

     total cpu time spent up to now is       10.3 secs

     total energy              =    -572.91771778 Ry
     estimated scf accuracy    <       1.70277796 Ry

     total magnetization       =     1.34 Bohr mag/cell
     absolute magnetization    =     1.49 Bohr mag/cell
[tb_dev] Currently allocated     3.05E-05 Mbytes, locked:    0 /   2
[tb_pin] Currently allocated     0.00E+00 Mbytes, locked:    0 /   0

     iteration #  5     ecut=    60.00 Ry     beta= 0.30
     Davidson diagonalization with overlap

---- Real-time Memory Report at c_bands before calling an iterative solver
           776 MiB given to the printing process from OS
             0 MiB allocation reported by mallinfo(arena+hblkhd)
       1353674 MiB available memory on the node where the printing process lives
     GPU memory used/free/total (MiB): 1130 / 80020 / 81151
------------------
     ethr =  2.97E-03,  avg # of iterations =  2.3

     total cpu time spent up to now is       11.8 secs

     total energy              =    -572.67984175 Ry
     estimated scf accuracy    <       2.07613568 Ry

     total magnetization       =     0.58 Bohr mag/cell
     absolute magnetization    =     0.74 Bohr mag/cell
[tb_dev] Currently allocated     3.05E-05 Mbytes, locked:    0 /   2
[tb_pin] Currently allocated     0.00E+00 Mbytes, locked:    0 /   0

     iteration #  6     ecut=    60.00 Ry     beta= 0.30
     Davidson diagonalization with overlap

---- Real-time Memory Report at c_bands before calling an iterative solver
           778 MiB given to the printing process from OS
             0 MiB allocation reported by mallinfo(arena+hblkhd)
       1352670 MiB available memory on the node where the printing process lives
     GPU memory used/free/total (MiB): 1130 / 80020 / 81151
------------------
     ethr =  2.97E-03,  avg # of iterations =  1.3

     total cpu time spent up to now is       13.1 secs

     total energy              =    -572.83211589 Ry
     estimated scf accuracy    <       0.13114793 Ry

     total magnetization       =     0.64 Bohr mag/cell
     absolute magnetization    =     0.99 Bohr mag/cell
[tb_dev] Currently allocated     3.05E-05 Mbytes, locked:    0 /   2
[tb_pin] Currently allocated     0.00E+00 Mbytes, locked:    0 /   0

     iteration #  7     ecut=    60.00 Ry     beta= 0.30
     Davidson diagonalization with overlap

---- Real-time Memory Report at c_bands before calling an iterative solver
           780 MiB given to the printing process from OS
             0 MiB allocation reported by mallinfo(arena+hblkhd)
       1351325 MiB available memory on the node where the printing process lives
     GPU memory used/free/total (MiB): 1130 / 80020 / 81151
------------------
     ethr =  3.45E-04,  avg # of iterations =  5.5

     total cpu time spent up to now is       15.0 secs

     total energy              =    -572.85447757 Ry
     estimated scf accuracy    <       0.12069918 Ry

     total magnetization       =     0.62 Bohr mag/cell
     absolute magnetization    =     0.98 Bohr mag/cell
[tb_dev] Currently allocated     3.05E-05 Mbytes, locked:    0 /   2
[tb_pin] Currently allocated     0.00E+00 Mbytes, locked:    0 /   0

     iteration #  8     ecut=    60.00 Ry     beta= 0.30
     Davidson diagonalization with overlap

---- Real-time Memory Report at c_bands before calling an iterative solver
           781 MiB given to the printing process from OS
             0 MiB allocation reported by mallinfo(arena+hblkhd)
       1349663 MiB available memory on the node where the printing process lives
     GPU memory used/free/total (MiB): 1130 / 80020 / 81151
------------------
     ethr =  3.18E-04,  avg # of iterations =  2.9

     total cpu time spent up to now is       16.5 secs

     total energy              =    -572.86195792 Ry
     estimated scf accuracy    <       0.12165850 Ry

     total magnetization       =     0.75 Bohr mag/cell
     absolute magnetization    =     0.97 Bohr mag/cell
[tb_dev] Currently allocated     3.05E-05 Mbytes, locked:    0 /   2
[tb_pin] Currently allocated     0.00E+00 Mbytes, locked:    0 /   0

     iteration #  9     ecut=    60.00 Ry     beta= 0.30
     Davidson diagonalization with overlap

---- Real-time Memory Report at c_bands before calling an iterative solver
           782 MiB given to the printing process from OS
             0 MiB allocation reported by mallinfo(arena+hblkhd)
       1346953 MiB available memory on the node where the printing process lives
     GPU memory used/free/total (MiB): 1130 / 80020 / 81151
------------------
     ethr =  3.18E-04,  avg # of iterations =  1.3

     total cpu time spent up to now is       17.9 secs

     total energy              =    -572.86453276 Ry
     estimated scf accuracy    <       0.18959092 Ry

     total magnetization       =     0.59 Bohr mag/cell
     absolute magnetization    =     0.88 Bohr mag/cell
[tb_dev] Currently allocated     3.05E-05 Mbytes, locked:    0 /   2
[tb_pin] Currently allocated     0.00E+00 Mbytes, locked:    0 /   0

     iteration # 10     ecut=    60.00 Ry     beta= 0.30
     Davidson diagonalization with overlap

---- Real-time Memory Report at c_bands before calling an iterative solver
           784 MiB given to the printing process from OS
             0 MiB allocation reported by mallinfo(arena+hblkhd)
       1344412 MiB available memory on the node where the printing process lives
     GPU memory used/free/total (MiB): 1130 / 80020 / 81151
------------------
     ethr =  3.18E-04,  avg # of iterations =  1.3

     total cpu time spent up to now is       19.3 secs

     total energy              =    -572.85855693 Ry
     estimated scf accuracy    <       0.12176577 Ry

     total magnetization       =     0.70 Bohr mag/cell
     absolute magnetization    =     0.85 Bohr mag/cell
[tb_dev] Currently allocated     3.05E-05 Mbytes, locked:    0 /   2
[tb_pin] Currently allocated     0.00E+00 Mbytes, locked:    0 /   0

     iteration # 11     ecut=    60.00 Ry     beta= 0.30
     Davidson diagonalization with overlap

---- Real-time Memory Report at c_bands before calling an iterative solver
           785 MiB given to the printing process from OS
             0 MiB allocation reported by mallinfo(arena+hblkhd)
       1342157 MiB available memory on the node where the printing process lives
     GPU memory used/free/total (MiB): 1130 / 80020 / 81151
------------------
     ethr =  3.18E-04,  avg # of iterations =  1.1

     total cpu time spent up to now is       20.6 secs

     total energy              =    -572.85158252 Ry
     estimated scf accuracy    <       0.10974146 Ry

     total magnetization       =     0.60 Bohr mag/cell
     absolute magnetization    =     0.69 Bohr mag/cell
[tb_dev] Currently allocated     3.05E-05 Mbytes, locked:    0 /   2
[tb_pin] Currently allocated     0.00E+00 Mbytes, locked:    0 /   0

     iteration # 12     ecut=    60.00 Ry     beta= 0.30
     Davidson diagonalization with overlap

---- Real-time Memory Report at c_bands before calling an iterative solver
           785 MiB given to the printing process from OS
             0 MiB allocation reported by mallinfo(arena+hblkhd)
       1338980 MiB available memory on the node where the printing process lives
     GPU memory used/free/total (MiB): 1130 / 80020 / 81151
------------------
     ethr =  2.89E-04,  avg # of iterations =  1.2

     total cpu time spent up to now is       21.9 secs

     total energy              =    -572.84501568 Ry
     estimated scf accuracy    <       0.05757006 Ry

     total magnetization       =     0.56 Bohr mag/cell
     absolute magnetization    =     0.65 Bohr mag/cell
[tb_dev] Currently allocated     3.05E-05 Mbytes, locked:    0 /   2
[tb_pin] Currently allocated     0.00E+00 Mbytes, locked:    0 /   0

     iteration # 13     ecut=    60.00 Ry     beta= 0.30
     Davidson diagonalization with overlap

---- Real-time Memory Report at c_bands before calling an iterative solver
           785 MiB given to the printing process from OS
             0 MiB allocation reported by mallinfo(arena+hblkhd)
       1359385 MiB available memory on the node where the printing process lives
     GPU memory used/free/total (MiB): 1130 / 80020 / 81151
------------------
     ethr =  1.52E-04,  avg # of iterations =  2.5

     total cpu time spent up to now is       23.4 secs

     total energy              =    -572.84493759 Ry
     estimated scf accuracy    <       0.01515734 Ry

     total magnetization       =     0.58 Bohr mag/cell
     absolute magnetization    =     0.68 Bohr mag/cell
[tb_dev] Currently allocated     3.05E-05 Mbytes, locked:    0 /   2
[tb_pin] Currently allocated     0.00E+00 Mbytes, locked:    0 /   0

     iteration # 14     ecut=    60.00 Ry     beta= 0.30
     Davidson diagonalization with overlap

---- Real-time Memory Report at c_bands before calling an iterative solver
           785 MiB given to the printing process from OS
             0 MiB allocation reported by mallinfo(arena+hblkhd)
       1357863 MiB available memory on the node where the printing process lives
     GPU memory used/free/total (MiB): 1130 / 80020 / 81151
------------------
     c_bands:  1 eigenvalues not converged
     c_bands:  1 eigenvalues not converged
     ethr =  3.99E-05,  avg # of iterations =  5.9

     total cpu time spent up to now is       25.3 secs

     total energy              =    -572.84674518 Ry
     estimated scf accuracy    <       0.00822656 Ry

     total magnetization       =     0.59 Bohr mag/cell
     absolute magnetization    =     0.69 Bohr mag/cell
[tb_dev] Currently allocated     3.05E-05 Mbytes, locked:    0 /   2
[tb_pin] Currently allocated     0.00E+00 Mbytes, locked:    0 /   0

     iteration # 15     ecut=    60.00 Ry     beta= 0.30
     Davidson diagonalization with overlap

---- Real-time Memory Report at c_bands before calling an iterative solver
           786 MiB given to the printing process from OS
             0 MiB allocation reported by mallinfo(arena+hblkhd)
       1356219 MiB available memory on the node where the printing process lives
     GPU memory used/free/total (MiB): 1130 / 80020 / 81151
------------------
     ethr =  2.16E-05,  avg # of iterations =  3.2

     total cpu time spent up to now is       26.9 secs

     total energy              =    -572.84730494 Ry
     estimated scf accuracy    <       0.00094821 Ry

     total magnetization       =     0.63 Bohr mag/cell
     absolute magnetization    =     0.75 Bohr mag/cell
[tb_dev] Currently allocated     3.05E-05 Mbytes, locked:    0 /   2
[tb_pin] Currently allocated     0.00E+00 Mbytes, locked:    0 /   0

     iteration # 16     ecut=    60.00 Ry     beta= 0.30
     Davidson diagonalization with overlap

---- Real-time Memory Report at c_bands before calling an iterative solver
           786 MiB given to the printing process from OS
             0 MiB allocation reported by mallinfo(arena+hblkhd)
       1354918 MiB available memory on the node where the printing process lives
     GPU memory used/free/total (MiB): 1130 / 80020 / 81151
------------------
     c_bands:  1 eigenvalues not converged
     c_bands:  1 eigenvalues not converged
     c_bands:  1 eigenvalues not converged
     c_bands:  1 eigenvalues not converged
     c_bands:  1 eigenvalues not converged
     c_bands:  1 eigenvalues not converged
     c_bands:  1 eigenvalues not converged
     c_bands:  1 eigenvalues not converged
     ethr =  2.50E-06,  avg # of iterations =  9.0

     total cpu time spent up to now is       29.2 secs

     total energy              =    -572.84772996 Ry
     estimated scf accuracy    <       0.00044021 Ry

     total magnetization       =     0.62 Bohr mag/cell
     absolute magnetization    =     0.78 Bohr mag/cell
[tb_dev] Currently allocated     3.05E-05 Mbytes, locked:    0 /   2
[tb_pin] Currently allocated     0.00E+00 Mbytes, locked:    0 /   0

     iteration # 17     ecut=    60.00 Ry     beta= 0.30
     Davidson diagonalization with overlap

---- Real-time Memory Report at c_bands before calling an iterative solver
           786 MiB given to the printing process from OS
             0 MiB allocation reported by mallinfo(arena+hblkhd)
       1352772 MiB available memory on the node where the printing process lives
     GPU memory used/free/total (MiB): 1130 / 80020 / 81151
------------------
     c_bands:  1 eigenvalues not converged
     ethr =  1.16E-06,  avg # of iterations =  4.1

     total cpu time spent up to now is       30.9 secs

     total energy              =    -572.84776665 Ry
     estimated scf accuracy    <       0.00021093 Ry

     total magnetization       =     0.62 Bohr mag/cell
     absolute magnetization    =     0.78 Bohr mag/cell
[tb_dev] Currently allocated     3.05E-05 Mbytes, locked:    0 /   2
[tb_pin] Currently allocated     0.00E+00 Mbytes, locked:    0 /   0

     iteration # 18     ecut=    60.00 Ry     beta= 0.30
     Davidson diagonalization with overlap

---- Real-time Memory Report at c_bands before calling an iterative solver
           786 MiB given to the printing process from OS
             0 MiB allocation reported by mallinfo(arena+hblkhd)
       1351087 MiB available memory on the node where the printing process lives
     GPU memory used/free/total (MiB): 1130 / 80020 / 81151
------------------
     ethr =  5.55E-07,  avg # of iterations =  2.6

     total cpu time spent up to now is       32.4 secs

     total energy              =    -572.84778650 Ry
     estimated scf accuracy    <       0.00004853 Ry

     total magnetization       =     0.62 Bohr mag/cell
     absolute magnetization    =     0.79 Bohr mag/cell
[tb_dev] Currently allocated     3.05E-05 Mbytes, locked:    0 /   2
[tb_pin] Currently allocated     0.00E+00 Mbytes, locked:    0 /   0

     iteration # 19     ecut=    60.00 Ry     beta= 0.30
     Davidson diagonalization with overlap

---- Real-time Memory Report at c_bands before calling an iterative solver
           786 MiB given to the printing process from OS
             0 MiB allocation reported by mallinfo(arena+hblkhd)
       1349279 MiB available memory on the node where the printing process lives
     GPU memory used/free/total (MiB): 1130 / 80020 / 81151
------------------
     ethr =  1.28E-07,  avg # of iterations =  4.8

     total cpu time spent up to now is       34.2 secs

     total energy              =    -572.84780541 Ry
     estimated scf accuracy    <       0.00001199 Ry

     total magnetization       =     0.61 Bohr mag/cell
     absolute magnetization    =     0.80 Bohr mag/cell
[tb_dev] Currently allocated     3.05E-05 Mbytes, locked:    0 /   2
[tb_pin] Currently allocated     0.00E+00 Mbytes, locked:    0 /   0

     iteration # 20     ecut=    60.00 Ry     beta= 0.30
     Davidson diagonalization with overlap

---- Real-time Memory Report at c_bands before calling an iterative solver
           786 MiB given to the printing process from OS
             0 MiB allocation reported by mallinfo(arena+hblkhd)
       1347186 MiB available memory on the node where the printing process lives
     GPU memory used/free/total (MiB): 1130 / 80020 / 81151
------------------
     ethr =  3.16E-08,  avg # of iterations =  4.0

     total cpu time spent up to now is       35.9 secs

     total energy              =    -572.84781637 Ry
     estimated scf accuracy    <       0.00000573 Ry

     total magnetization       =     0.60 Bohr mag/cell
     absolute magnetization    =     0.81 Bohr mag/cell
[tb_dev] Currently allocated     3.05E-05 Mbytes, locked:    0 /   2
[tb_pin] Currently allocated     0.00E+00 Mbytes, locked:    0 /   0

     iteration # 21     ecut=    60.00 Ry     beta= 0.30
     Davidson diagonalization with overlap

---- Real-time Memory Report at c_bands before calling an iterative solver
           786 MiB given to the printing process from OS
             0 MiB allocation reported by mallinfo(arena+hblkhd)
       1344057 MiB available memory on the node where the printing process lives
     GPU memory used/free/total (MiB): 1130 / 80020 / 81151
------------------
     ethr =  1.51E-08,  avg # of iterations =  2.0

     total cpu time spent up to now is       37.3 secs

     total energy              =    -572.84782140 Ry
     estimated scf accuracy    <       0.00000182 Ry

     total magnetization       =     0.59 Bohr mag/cell
     absolute magnetization    =     0.81 Bohr mag/cell
[tb_dev] Currently allocated     3.05E-05 Mbytes, locked:    0 /   2
[tb_pin] Currently allocated     0.00E+00 Mbytes, locked:    0 /   0

     iteration # 22     ecut=    60.00 Ry     beta= 0.30
     Davidson diagonalization with overlap

---- Real-time Memory Report at c_bands before calling an iterative solver
           786 MiB given to the printing process from OS
             0 MiB allocation reported by mallinfo(arena+hblkhd)
       1341389 MiB available memory on the node where the printing process lives
     GPU memory used/free/total (MiB): 1130 / 80020 / 81151
------------------
     ethr =  4.79E-09,  avg # of iterations =  4.5

     total cpu time spent up to now is       39.1 secs

     total energy              =    -572.84783294 Ry
     estimated scf accuracy    <       0.00000109 Ry

     total magnetization       =     0.58 Bohr mag/cell
     absolute magnetization    =     0.83 Bohr mag/cell
[tb_dev] Currently allocated     3.05E-05 Mbytes, locked:    0 /   2
[tb_pin] Currently allocated     0.00E+00 Mbytes, locked:    0 /   0

     iteration # 23     ecut=    60.00 Ry     beta= 0.30
     Davidson diagonalization with overlap

---- Real-time Memory Report at c_bands before calling an iterative solver
           786 MiB given to the printing process from OS
             0 MiB allocation reported by mallinfo(arena+hblkhd)
       1359054 MiB available memory on the node where the printing process lives
     GPU memory used/free/total (MiB): 1130 / 80020 / 81151
------------------
     ethr =  2.88E-09,  avg # of iterations =  2.5

     total cpu time spent up to now is       40.6 secs

     total energy              =    -572.84783713 Ry
     estimated scf accuracy    <       0.00000064 Ry

     total magnetization       =     0.57 Bohr mag/cell
     absolute magnetization    =     0.83 Bohr mag/cell
[tb_dev] Currently allocated     3.05E-05 Mbytes, locked:    0 /   2
[tb_pin] Currently allocated     0.00E+00 Mbytes, locked:    0 /   0

     iteration # 24     ecut=    60.00 Ry     beta= 0.30
     Davidson diagonalization with overlap

---- Real-time Memory Report at c_bands before calling an iterative solver
           786 MiB given to the printing process from OS
             0 MiB allocation reported by mallinfo(arena+hblkhd)
       1357850 MiB available memory on the node where the printing process lives
     GPU memory used/free/total (MiB): 1130 / 80020 / 81151
------------------
     ethr =  1.68E-09,  avg # of iterations =  4.5

     total cpu time spent up to now is       42.4 secs

     total energy              =    -572.84784152 Ry
     estimated scf accuracy    <       0.00000046 Ry

     total magnetization       =     0.57 Bohr mag/cell
     absolute magnetization    =     0.84 Bohr mag/cell
[tb_dev] Currently allocated     3.05E-05 Mbytes, locked:    0 /   2
[tb_pin] Currently allocated     0.00E+00 Mbytes, locked:    0 /   0

     iteration # 25     ecut=    60.00 Ry     beta= 0.30
     Davidson diagonalization with overlap

---- Real-time Memory Report at c_bands before calling an iterative solver
           786 MiB given to the printing process from OS
             0 MiB allocation reported by mallinfo(arena+hblkhd)
       1356363 MiB available memory on the node where the printing process lives
     GPU memory used/free/total (MiB): 1130 / 80020 / 81151
------------------
     ethr =  1.21E-09,  avg # of iterations =  5.7

     total cpu time spent up to now is       44.3 secs

     total energy              =    -572.84785089 Ry
     estimated scf accuracy    <       0.00000026 Ry

     total magnetization       =     0.55 Bohr mag/cell
     absolute magnetization    =     0.85 Bohr mag/cell
[tb_dev] Currently allocated     3.05E-05 Mbytes, locked:    0 /   2
[tb_pin] Currently allocated     0.00E+00 Mbytes, locked:    0 /   0

     iteration # 26     ecut=    60.00 Ry     beta= 0.30
     Davidson diagonalization with overlap

---- Real-time Memory Report at c_bands before calling an iterative solver
           786 MiB given to the printing process from OS
             0 MiB allocation reported by mallinfo(arena+hblkhd)
       1355673 MiB available memory on the node where the printing process lives
     GPU memory used/free/total (MiB): 1130 / 80020 / 81151
------------------
     ethr =  6.73E-10,  avg # of iterations =  5.5

     total cpu time spent up to now is       46.3 secs

     total energy              =    -572.84785207 Ry
     estimated scf accuracy    <       0.00000017 Ry

     total magnetization       =     0.54 Bohr mag/cell
     absolute magnetization    =     0.86 Bohr mag/cell
[tb_dev] Currently allocated     3.05E-05 Mbytes, locked:    0 /   2
[tb_pin] Currently allocated     0.00E+00 Mbytes, locked:    0 /   0

     iteration # 27     ecut=    60.00 Ry     beta= 0.30
     Davidson diagonalization with overlap

---- Real-time Memory Report at c_bands before calling an iterative solver
           786 MiB given to the printing process from OS
             0 MiB allocation reported by mallinfo(arena+hblkhd)
       1353948 MiB available memory on the node where the printing process lives
     GPU memory used/free/total (MiB): 1130 / 80020 / 81151
------------------
     ethr =  4.58E-10,  avg # of iterations =  5.7
 
     Magnetic moment per site  (integrated on atomic sphere of radius R)
     atom   1 (R=0.275)  charge= 14.1109  magn=  0.5478
     atom   2 (R=0.275)  charge=  5.2276  magn=  0.0483
     atom   3 (R=0.275)  charge=  5.2276  magn=  0.0483
     atom   4 (R=0.413)  charge=  7.8331  magn= -0.0748

     total cpu time spent up to now is       48.2 secs

     End of self-consistent calculation

 ------ SPIN UP ------------


          k = 0.0000 0.0000 0.0000 (  3827 PWs)   bands (ev):

   -89.3283 -52.5460 -52.5370 -52.5370 -27.8707 -12.8216 -11.1641 -10.9437
    -9.7972  -9.7972   0.8922   1.3690   1.3690   4.2438   4.7834   4.8766
     4.8766   4.9990   4.9990   6.1291   7.9770   8.3928   8.7084   8.7084
    10.6021  10.6021  13.4362

     occupation numbers 
     1.0000   1.0000   1.0000   1.0000   1.0000   1.0000   1.0000   1.0000
     1.0000   1.0000   1.0000   1.0000   1.0000   1.0000   1.0000   1.0000
     1.0000   1.0000   1.0000   1.0795   0.0000   0.0000   0.0000   0.0000
     0.0000   0.0000   0.0000

          k = 0.0000 0.0000 0.0976 (  3838 PWs)   bands (ev):

   -89.3283 -52.5461 -52.5371 -52.5371 -27.8707 -12.8217 -11.1615 -10.9463
    -9.7972  -9.7972   0.9028   1.3690   1.3690   4.0297   4.8766   4.8766
     4.9990   4.9990   5.0846   6.0730   8.0394   8.2417   8.7084   8.7084
    10.6021  10.6021  13.7012

     occupation numbers 
     1.0000   1.0000   1.0000   1.0000   1.0000   1.0000   1.0000   1.0000
     1.0000   1.0000   1.0000   1.0000   1.0000   1.0000   1.0000   1.0000
     1.0000   1.0000   1.0000   1.0816   0.0000   0.0000   0.0000   0.0000
     0.0000   0.0000   0.0000

          k = 0.0000 0.1443 0.0000 (  3809 PWs)   bands (ev):

   -89.3276 -52.5449 -52.5446 -52.5389 -27.7841 -12.6534 -11.0859 -10.9480
   -10.2449  -9.8883   1.0894   1.1981   1.4812   3.8196   4.2194   4.5897
     5.2969   5.3405   5.5504   6.2415   8.0541   8.3767   8.5427   8.6116
     9.9600  11.1624  13.2149

     occupation numbers 
     1.0000   1.0000   1.0000   1.0000   1.0000   1.0000   1.0000   1.0000
     1.0000   1.0000   1.0000   1.0000   1.0000   1.0000   1.0000   1.0000
     1.0000   1.0000   1.0002   0.9846   0.0000   0.0000   0.0000   0.0000
     0.0000   0.0000   0.0000

          k = 0.0000 0.1443 0.0976 (  3828 PWs)   bands (ev):

   -89.3276 -52.5450 -52.5447 -52.5389 -27.7841 -12.6536 -11.0824 -10.9514
   -10.2449  -9.8883   1.0966   1.1972   1.4812   3.8220   4.2193   4.4533
     5.2712   5.5504   5.6189   6.1422   8.1545   8.1940   8.5843   8.6117
     9.9606  11.1624  13.0033

     occupation numbers 
     1.0000   1.0000   1.0000   1.0000   1.0000   1.0000   1.0000   1.0000
     1.0000   1.0000   1.0000   1.0000   1.0000   1.0000   1.0000   1.0000
     1.0000   1.0002   1.0007   1.0755   0.0000   0.0000   0.0000   0.0000
     0.0000   0.0000   0.0000

          k = 0.0000 0.2887 0.0000 (  3822 PWs)   bands (ev):

   -89.3260 -52.5635 -52.5434 -52.5422 -27.5665 -12.2119 -11.2354 -10.9827
   -10.8802 -10.1004   0.9479   1.5417   1.7496   2.5250   3.6633   4.8527
     5.4253   5.7553   5.9479   6.6242   7.4610   8.1444   8.4956   8.6060
    10.1929  12.7024  12.7059

     occupation numbers 
     1.0000   1.0000   1.0000   1.0000   1.0000   1.0000   1.0000   1.0000
     1.0000   1.0000   1.0000   1.0000   1.0000   1.0000   1.0000   1.0000
     1.0000   1.0057   1.0447   0.1283   0.0000   0.0000   0.0000   0.0000
     0.0000   0.0000   0.0000

          k = 0.0000 0.2887 0.0976 (  3809 PWs)   bands (ev):

   -89.3260 -52.5634 -52.5434 -52.5421 -27.5665 -12.2120 -11.2354 -10.9803
   -10.8825 -10.1003   0.9463   1.5446   1.7496   2.5275   3.6633   4.8400
     5.4111   5.7553   5.9945   6.5522   7.6451   7.9371   8.4956   8.6912
    10.2079  12.5756  12.7022

     occupation numbers 
     1.0000   1.0000   1.0000   1.0000   1.0000   1.0000   1.0000   1.0000
     1.0000   1.0000   1.0000   1.0000   1.0000   1.0000   1.0000   1.0000
     1.0000   1.0057   1.0607   0.2425   0.0000   0.0000   0.0000   0.0000
     0.0000   0.0000   0.0000

          k = 0.0000 0.4330 0.0000 (  3818 PWs)   bands (ev):

   -89.3243 -52.5821 -52.5479 -52.5394 -27.3353 -12.1373 -11.6779 -11.0606
   -10.6757 -10.3020   0.4967   1.5547   1.9651   2.5671   3.4806   4.3808
     5.2915   5.5081   5.7725   6.5477   7.3182   7.8768   8.5341   9.5192
    11.6623  12.8259  13.0224

     occupation numbers 
     1.0000   1.0000   1.0000   1.0000   1.0000   1.0000   1.0000   1.0000
     1.0000   1.0000   1.0000   1.0000   1.0000   1.0000   1.0000   1.0000
     1.0000   1.0001   1.0072   0.2512   0.0000   0.0000   0.0000   0.0000
     0.0000   0.0000   0.0000

          k = 0.0000 0.4330 0.0976 (  3823 PWs)   bands (ev):

   -89.3243 -52.5821 -52.5479 -52.5394 -27.3353 -12.1373 -11.6780 -11.0604
   -10.6758 -10.3020   0.4969   1.5537   1.9651   2.5689   3.4806   4.3772
     5.2933   5.5081   5.7710   6.5403   7.4304   7.7384   8.5341   9.5735
    11.6584  12.8260  12.9839

     occupation numbers 
     1.0000   1.0000   1.0000   1.0000   1.0000   1.0000   1.0000   1.0000
     1.0000   1.0000   1.0000   1.0000   1.0000   1.0000   1.0000   1.0000
     1.0000   1.0001   1.0071   0.2661   0.0000   0.0000   0.0000   0.0000
     0.0000   0.0000   0.0000

          k = 0.0000-0.5774 0.0000 (  3830 PWs)   bands (ev):

   -89.3236 -52.5899 -52.5498 -52.5383 -27.2351 -12.4926 -11.3034 -11.2327
   -10.5869 -10.3828   0.1201   1.7429   2.0115   2.7297   3.5390   4.1305
     5.0413   5.2882   5.7022   6.2960   7.1476   8.0102   8.5822  10.9646
    11.4601  12.6615  13.4716

     occupation numbers 
     1.0000   1.0000   1.0000   1.0000   1.0000   1.0000   1.0000   1.0000
     1.0000   1.0000   1.0000   1.0000   1.0000   1.0000   1.0000   1.0000
     1.0000   1.0000   1.0027   0.8845   0.0000   0.0000   0.0000   0.0000
     0.0000   0.0000   0.0000

          k = 0.0000-0.5774 0.0976 (  3834 PWs)   bands (ev):

   -89.3236 -52.5899 -52.5498 -52.5383 -27.2351 -12.4926 -11.3034 -11.2327
   -10.5869 -10.3828   0.1204   1.7420   2.0115   2.7316   3.5389   4.1237
     5.0425   5.2882   5.7049   6.2969   7.1742   7.9835   8.5823  10.9369
    11.4593  12.6612  13.5541

     occupation numbers 
     1.0000   1.0000   1.0000   1.0000   1.0000   1.0000   1.0000   1.0000
     1.0000   1.0000   1.0000   1.0000   1.0000   1.0000   1.0000   1.0000
     1.0000   1.0000   1.0028   0.8824   0.0000   0.0000   0.0000   0.0000
     0.0000   0.0000   0.0000

          k = 0.1250 0.2165 0.0000 (  3807 PWs)   bands (ev):

   -89.3264 -52.5571 -52.5433 -52.5425 -27.6317 -12.3485 -10.9788 -10.9315
   -10.9048 -10.0998   1.0410   1.4249   1.6366   2.9814   3.5272   4.9303
     5.3422   5.8462   5.9274   6.5668   7.6650   8.3209   8.3507   9.1011
     9.1180  12.3943  12.8963

     occupation numbers 
     1.0000   1.0000   1.0000   1.0000   1.0000   1.0000   1.0000   1.0000
     1.0000   1.0000   1.0000   1.0000   1.0000   1.0000   1.0000   1.0000
     1.0000   1.0175   1.0381   0.2153   0.0000   0.0000   0.0000   0.0000
     0.0000   0.0000   0.0000

          k = 0.1250 0.2165 0.0976 (  3820 PWs)   bands (ev):

   -89.3264 -52.5571 -52.5434 -52.5425 -27.6317 -12.3486 -10.9716 -10.9390
   -10.9044 -10.0998   1.0391   1.4290   1.6367   2.9839   3.5271   4.8907
     5.3424   5.8195   6.0126   6.5426   7.7826   8.0753   8.4460   9.1011
     9.1644  12.3954  12.7682

     occupation numbers 
     1.0000   1.0000   1.0000   1.0000   1.0000   1.0000   1.0000   1.0000
     1.0000   1.0000   1.0000   1.0000   1.0000   1.0000   1.0000   1.0000
     1.0000   1.0130   1.0667   0.2613   0.0000   0.0000   0.0000   0.0000
     0.0000   0.0000   0.0000

          k = 0.1250 0.3608 0.0000 (  3816 PWs)   bands (ev):

   -89.3248 -52.5738 -52.5494 -52.5402 -27.4051 -11.8622 -11.7389 -11.0145
   -10.7378 -10.4267   0.9062   1.4006   1.9766   2.4710   3.1059   4.6735
     5.3801   5.6614   5.9902   7.3321   7.5277   7.9849   8.2316   8.8409
    10.4620  12.0914  13.2556

     occupation numbers 
     1.0000   1.0000   1.0000   1.0000   1.0000   1.0000   1.0000   1.0000
     1.0000   1.0000   1.0000   1.0000   1.0000   1.0000   1.0000   1.0000
     1.0000   1.0014   1.0592   0.0000   0.0000   0.0000   0.0000   0.0000
     0.0000   0.0000   0.0000

          k = 0.1250 0.3608 0.0976 (  3805 PWs)   bands (ev):

   -89.3248 -52.5738 -52.5493 -52.5402 -27.4051 -11.8621 -11.7390 -11.0141
   -10.7382 -10.4267   0.9058   1.4003   1.9767   2.4730   3.1060   4.6726
     5.3803   5.6626   5.9890   7.2835   7.6843   7.7974   8.2923   8.8655
    10.4722  12.0867  13.2078

     occupation numbers 
     1.0000   1.0000   1.0000   1.0000   1.0000   1.0000   1.0000   1.0000
     1.0000   1.0000   1.0000   1.0000   1.0000   1.0000   1.0000   1.0000
     1.0000   1.0014   1.0588   0.0000   0.0000   0.0000   0.0000   0.0000
     0.0000   0.0000   0.0000

          k = 0.1250 0.5052 0.0000 (  3825 PWs)   bands (ev):

   -89.3236 -52.5857 -52.5539 -52.5383 -27.2363 -12.2984 -11.4093 -11.1272
   -10.6491 -10.5881   0.4054   1.4117   2.2546   2.7215   3.0689   4.0968
     5.1337   5.4259   5.9002   7.0299   7.4108   7.9799   8.3253  10.3823
    11.3940  11.4436  14.1704

     occupation numbers 
     1.0000   1.0000   1.0000   1.0000   1.0000   1.0000   1.0000   1.0000
     1.0000   1.0000   1.0000   1.0000   1.0000   1.0000   1.0000   1.0000
     1.0000   1.0000   1.0301   0.0003   0.0000   0.0000   0.0000   0.0000
     0.0000   0.0000   0.0000

          k = 0.1250 0.5052 0.0976 (  3819 PWs)   bands (ev):

   -89.3236 -52.5856 -52.5539 -52.5383 -27.2363 -12.2984 -11.4093 -11.1271
   -10.6491 -10.5881   0.4057   1.4114   2.2540   2.7229   3.0690   4.0931
     5.1342   5.4253   5.9024   7.0303   7.4395   7.9340   8.3421  10.3833
    11.3993  11.4343  14.1916

     occupation numbers 
     1.0000   1.0000   1.0000   1.0000   1.0000   1.0000   1.0000   1.0000
     1.0000   1.0000   1.0000   1.0000   1.0000   1.0000   1.0000   1.0000
     1.0000   1.0000   1.0307   0.0003   0.0000   0.0000   0.0000   0.0000
     0.0000   0.0000   0.0000

          k = 0.2500 0.4330 0.0000 (  3819 PWs)   bands (ev):

   -89.3236 -52.5798 -52.5597 -52.5384 -27.2375 -12.0158 -11.4646 -11.0722
   -11.0020 -10.5893   0.9673   1.0838   2.0235   2.7564   2.8013   4.1123
     5.1906   5.5331   6.0857   7.7483   7.9462   8.0541   8.5073   9.2431
    10.5156  11.0197  14.3389

     occupation numbers 
     1.0000   1.0000   1.0000   1.0000   1.0000   1.0000   1.0000   1.0000
     1.0000   1.0000   1.0000   1.0000   1.0000   1.0000   1.0000   1.0000
     1.0000   1.0001   1.0829   0.0000   0.0000   0.0000   0.0000   0.0000
     0.0000   0.0000   0.0000

          k = 0.2500 0.4330 0.0976 (  3817 PWs)   bands (ev):

   -89.3236 -52.5798 -52.5597 -52.5383 -27.2375 -12.0158 -11.4647 -11.0721
   -11.0020 -10.5893   0.9674   1.0838   2.0235   2.7560   2.8012   4.1127
     5.1903   5.5322   6.0898   7.6955   7.9675   8.0971   8.5040   9.2289
    10.5190  11.0151  14.3902

     occupation numbers 
     1.0000   1.0000   1.0000   1.0000   1.0000   1.0000   1.0000   1.0000
     1.0000   1.0000   1.0000   1.0000   1.0000   1.0000   1.0000   1.0000
     1.0000   1.0001   1.0832   0.0000   0.0000   0.0000   0.0000   0.0000
     0.0000   0.0000   0.0000

          k = 0.2500 0.5774 0.0000 (  3813 PWs)   bands (ev):

   -89.3231 -52.5803 -52.5660 -52.5375 -27.1661 -12.0442 -11.3285 -11.2279
   -11.1599 -10.5265   0.8101   1.1812   1.8636   2.8660   3.0605   3.6692
     4.9230   5.7310   5.9872   7.9478   8.0109   8.0986   8.5368   9.6350
    10.1753  11.4766  15.4045

     occupation numbers 
     1.0000   1.0000   1.0000   1.0000   1.0000   1.0000   1.0000   1.0000
     1.0000   1.0000   1.0000   1.0000   1.0000   1.0000   1.0000   1.0000
     1.0000   1.0041   1.0582   0.0000   0.0000   0.0000   0.0000   0.0000
     0.0000   0.0000   0.0000

          k = 0.2500 0.5774 0.0976 (  3823 PWs)   bands (ev):

   -89.3232 -52.5803 -52.5661 -52.5375 -27.1661 -12.0442 -11.3285 -11.2279
   -11.1599 -10.5265   0.8104   1.1812   1.8639   2.8652   3.0609   3.6681
     4.9231   5.7301   5.9895   7.9076   7.9724   8.1881   8.5277   9.6459
    10.1675  11.4739  15.3898

     occupation numbers 
     1.0000   1.0000   1.0000   1.0000   1.0000   1.0000   1.0000   1.0000
     1.0000   1.0000   1.0000   1.0000   1.0000   1.0000   1.0000   1.0000
     1.0000   1.0040   1.0590   0.0000   0.0000   0.0000   0.0000   0.0000
     0.0000   0.0000   0.0000

          k = 0.0000 0.1443-0.0976 (  3828 PWs)   bands (ev):

   -89.3276 -52.5450 -52.5447 -52.5389 -27.7841 -12.6536 -11.0824 -10.9514
   -10.2449  -9.8883   1.0980   1.1958   1.4812   3.8177   4.2194   4.4619
     5.2688   5.5504   5.6098   6.1568   8.0298   8.3233   8.5728   8.6117
     9.9605  11.1624  13.0163

     occupation numbers 
     1.0000   1.0000   1.0000   1.0000   1.0000   1.0000   1.0000   1.0000
     1.0000   1.0000   1.0000   1.0000   1.0000   1.0000   1.0000   1.0000
     1.0000   1.0002   1.0006   1.0691   0.0000   0.0000   0.0000   0.0000
     0.0000   0.0000   0.0000

          k = 0.0000 0.2887-0.0976 (  3809 PWs)   bands (ev):

   -89.3260 -52.5634 -52.5434 -52.5421 -27.5665 -12.2120 -11.2355 -10.9802
   -10.8825 -10.1003   0.9468   1.5431   1.7496   2.5284   3.6633   4.8395
     5.4155   5.7553   5.9624   6.6488   7.4386   8.1325   8.4956   8.6234
    10.1959  12.6584  12.7017

     occupation numbers 
     1.0000   1.0000   1.0000   1.0000   1.0000   1.0000   1.0000   1.0000
     1.0000   1.0000   1.0000   1.0000   1.0000   1.0000   1.0000   1.0000
     1.0000   1.0057   1.0496   0.1003   0.0000   0.0000   0.0000   0.0000
     0.0000   0.0000   0.0000

          k = 0.0000 0.4330-0.0976 (  3823 PWs)   bands (ev):

   -89.3243 -52.5821 -52.5479 -52.5394 -27.3353 -12.1372 -11.6780 -11.0604
   -10.6758 -10.3020   0.4967   1.5539   1.9651   2.5682   3.4806   4.3810
     5.2915   5.5081   5.7726   6.5524   7.3170   7.8797   8.5341   9.4891
    11.6594  12.8257  13.1151

     occupation numbers 
     1.0000   1.0000   1.0000   1.0000   1.0000   1.0000   1.0000   1.0000
     1.0000   1.0000   1.0000   1.0000   1.0000   1.0000   1.0000   1.0000
     1.0000   1.0001   1.0072   0.2420   0.0000   0.0000   0.0000   0.0000
     0.0000   0.0000   0.0000

          k =-0.1250 0.3608-0.0976 (  3805 PWs)   bands (ev):

   -89.3248 -52.5738 -52.5493 -52.5402 -27.4051 -11.8621 -11.7391 -11.0141
   -10.7381 -10.4267   0.9056   1.4003   1.9764   2.4735   3.1058   4.6741
     5.3799   5.6618   5.9886   7.3435   7.5129   7.9607   8.2558   8.8425
    10.4591  12.0960  13.2707

     occupation numbers 
     1.0000   1.0000   1.0000   1.0000   1.0000   1.0000   1.0000   1.0000
     1.0000   1.0000   1.0000   1.0000   1.0000   1.0000   1.0000   1.0000
     1.0000   1.0014   1.0587   0.0000   0.0000   0.0000   0.0000   0.0000
     0.0000   0.0000   0.0000

          k =-0.1250 0.5052-0.0976 (  3819 PWs)   bands (ev):

   -89.3236 -52.5856 -52.5539 -52.5383 -27.2363 -12.2984 -11.4093 -11.1271
   -10.6491 -10.5881   0.4056   1.4115   2.2546   2.7216   3.0689   4.0955
     5.1333   5.4248   5.9049   7.0344   7.4107   7.9716   8.3337  10.3539
    11.4023  11.4400  14.2763

     occupation numbers 
     1.0000   1.0000   1.0000   1.0000   1.0000   1.0000   1.0000   1.0000
     1.0000   1.0000   1.0000   1.0000   1.0000   1.0000   1.0000   1.0000
     1.0000   1.0000   1.0314   0.0003   0.0000   0.0000   0.0000   0.0000
     0.0000   0.0000   0.0000

 ------ SPIN DOWN ----------


          k = 0.0000 0.0000 0.0000 (  3827 PWs)   bands (ev):

   -88.6592 -51.9336 -51.9336 -51.7954 -27.9365 -12.7406 -11.2096 -10.8584
    -9.8606  -9.8606   1.1618   1.5733   1.5733   4.3662   4.5268   5.0557
     5.0557   5.4337   5.4337   6.8513   7.8812   8.2562   8.9928   8.9928
    10.4528  10.4529  13.5137

     occupation numbers 
     1.0000   1.0000   1.0000   1.0000   1.0000   1.0000   1.0000   1.0000
     1.0000   1.0000   1.0000   1.0000   1.0000   1.0000   1.0000   1.0000
     1.0000   1.0000   1.0000   0.0073   0.0000   0.0000   0.0000   0.0000
     0.0000   0.0000   0.0000

          k = 0.0000 0.0000 0.0976 (  3838 PWs)   bands (ev):

   -88.6592 -51.9336 -51.9336 -51.7955 -27.9365 -12.7408 -11.2079 -10.8601
    -9.8606  -9.8606   1.1759   1.5733   1.5733   4.0244   4.9319   5.0557
     5.0557   5.4337   5.4337   6.8066   7.9402   8.1234   8.9928   8.9928
    10.4528  10.4528  13.7516

     occupation numbers 
     1.0000   1.0000   1.0000   1.0000   1.0000   1.0000   1.0000   1.0000
     1.0000   1.0000   1.0000   1.0000   1.0000   1.0000   1.0000   1.0000
     1.0000   1.0000   1.0000   0.0143   0.0000   0.0000   0.0000   0.0000
     0.0000   0.0000   0.0000

          k = 0.0000 0.1443 0.0000 (  3809 PWs)   bands (ev):

   -88.6584 -51.9415 -51.9355 -51.7941 -27.8486 -12.5721 -11.1289 -10.8630
   -10.3181  -9.9530   1.3557   1.3918   1.6789   4.0003   4.4586   4.7136
     5.1372   5.7682   5.9439   6.9042   8.0552   8.2650   8.6872   8.8884
     9.7739  11.0178  13.1837

     occupation numbers 
     1.0000   1.0000   1.0000   1.0000   1.0000   1.0000   1.0000   1.0000
     1.0000   1.0000   1.0000   1.0000   1.0000   1.0000   1.0000   1.0000
     1.0000   1.0068   1.0434   0.0031   0.0000   0.0000   0.0000   0.0000
     0.0000   0.0000   0.0000

          k = 0.0000 0.1443 0.0976 (  3828 PWs)   bands (ev):

   -88.6584 -51.9416 -51.9355 -51.7942 -27.8486 -12.5722 -11.1271 -10.8648
   -10.3181  -9.9530   1.3614   1.3944   1.6790   4.0061   4.4586   4.4978
     5.4057   5.7861   5.9439   6.8298   8.0750   8.2185   8.6926   8.8884
     9.7746  11.0178  12.9809

     occupation numbers 
     1.0000   1.0000   1.0000   1.0000   1.0000   1.0000   1.0000   1.0000
     1.0000   1.0000   1.0000   1.0000   1.0000   1.0000   1.0000   1.0000
     1.0000   1.0086   1.0434   0.0102   0.0000   0.0000   0.0000   0.0000
     0.0000   0.0000   0.0000

          k = 0.0000 0.2887 0.0000 (  3822 PWs)   bands (ev):

   -88.6567 -51.9609 -51.9402 -51.7914 -27.6275 -12.1293 -11.3273 -10.9329
   -10.8833 -10.1678   1.1224   1.7617   1.9318   2.7128   3.8643   5.0075
     5.9229   6.2318   6.2436   6.7961   7.5474   8.1713   8.4919   8.7548
    10.0008  12.5713  12.6755

     occupation numbers 
     1.0000   1.0000   1.0000   1.0000   1.0000   1.0000   1.0000   1.0000
     1.0000   1.0000   1.0000   1.0000   1.0000   1.0000   1.0000   1.0000
     1.0367   0.9988   0.9814   0.0166   0.0000   0.0000   0.0000   0.0000
     0.0000   0.0000   0.0000

          k = 0.0000 0.2887 0.0976 (  3809 PWs)   bands (ev):

   -88.6567 -51.9609 -51.9401 -51.7913 -27.6275 -12.1294 -11.3273 -10.9272
   -10.8888 -10.1678   1.1205   1.7648   1.9318   2.7168   3.8642   4.9847
     5.8957   6.2318   6.3408   6.7043   7.7840   7.8667   8.6089   8.7549
    10.0229  12.5448  12.5726

     occupation numbers 
     1.0000   1.0000   1.0000   1.0000   1.0000   1.0000   1.0000   1.0000
     1.0000   1.0000   1.0000   1.0000   1.0000   1.0000   1.0000   1.0000
     1.0289   0.9988   0.7789   0.0544   0.0000   0.0000   0.0000   0.0000
     0.0000   0.0000   0.0000

          k = 0.0000 0.4330 0.0000 (  3818 PWs)   bands (ev):

   -88.6550 -51.9802 -51.9449 -51.7884 -27.3924 -12.2439 -11.5932 -10.9717
   -10.7132 -10.3718   0.6416   1.6604   2.1422   2.8425   3.6036   4.5359
     5.9177   6.0844   6.2708   6.4287   7.1946   8.1635   8.7887   9.3870
    11.4704  12.7675  12.9592

     occupation numbers 
     1.0000   1.0000   1.0000   1.0000   1.0000   1.0000   1.0000   1.0000
     1.0000   1.0000   1.0000   1.0000   1.0000   1.0000   1.0000   1.0000
     1.0351   1.0828   0.9350   0.5409   0.0000   0.0000   0.0000   0.0000
     0.0000   0.0000   0.0000

          k = 0.0000 0.4330 0.0976 (  3823 PWs)   bands (ev):

   -88.6550 -51.9802 -51.9449 -51.7885 -27.3924 -12.2439 -11.5933 -10.9713
   -10.7134 -10.3718   0.6418   1.6593   2.1423   2.8447   3.6036   4.5312
     5.9209   6.0844   6.2699   6.4198   7.2593   8.0544   8.7887   9.4609
    11.4674  12.7671  12.9199

     occupation numbers 
     1.0000   1.0000   1.0000   1.0000   1.0000   1.0000   1.0000   1.0000
     1.0000   1.0000   1.0000   1.0000   1.0000   1.0000   1.0000   1.0000
     1.0361   1.0828   0.9368   0.5654   0.0000   0.0000   0.0000   0.0000
     0.0000   0.0000   0.0000

          k = 0.0000-0.5774 0.0000 (  3830 PWs)   bands (ev):

   -88.6543 -51.9882 -51.9468 -51.7873 -27.2904 -12.6047 -11.2182 -11.1430
   -10.6227 -10.4535   0.2510   1.8166   2.1940   3.0151   3.5955   4.2569
     5.8002   5.9284   6.0218   6.2885   6.9811   8.3511   8.8392  10.9214
    11.1960  12.6008  13.3666

     occupation numbers 
     1.0000   1.0000   1.0000   1.0000   1.0000   1.0000   1.0000   1.0000
     1.0000   1.0000   1.0000   1.0000   1.0000   1.0000   1.0000   1.0000
     1.0103   1.0384   1.0696   0.9002   0.0008   0.0000   0.0000   0.0000
     0.0000   0.0000   0.0000

          k = 0.0000-0.5774 0.0976 (  3834 PWs)   bands (ev):

   -88.6543 -51.9883 -51.9468 -51.7873 -27.2904 -12.6047 -11.2182 -11.1430
   -10.6227 -10.4535   0.2513   1.8157   2.1940   3.0176   3.5955   4.2486
     5.8039   5.9284   6.0223   6.2921   6.9985   8.3305   8.8392  10.8920
    11.1979  12.6005  13.4453

     occupation numbers 
     1.0000   1.0000   1.0000   1.0000   1.0000   1.0000   1.0000   1.0000
     1.0000   1.0000   1.0000   1.0000   1.0000   1.0000   1.0000   1.0000
     1.0108   1.0384   1.0698   0.8927   0.0006   0.0000   0.0000   0.0000
     0.0000   0.0000   0.0000

          k = 0.1250 0.2165 0.0000 (  3807 PWs)   bands (ev):

   -88.6572 -51.9544 -51.9396 -51.7921 -27.6937 -12.2663 -10.9907 -10.9889
   -10.8760 -10.1680   1.2183   1.6736   1.8262   3.1448   3.7389   5.0510
     5.9034   6.0943   6.2612   6.8852   7.7291   8.3949   8.5887   8.8815
     9.0223  12.2557  12.8757

     occupation numbers 
     1.0000   1.0000   1.0000   1.0000   1.0000   1.0000   1.0000   1.0000
     1.0000   1.0000   1.0000   1.0000   1.0000   1.0000   1.0000   1.0000
     1.0310   1.0833   0.9524   0.0043   0.0000   0.0000   0.0000   0.0000
     0.0000   0.0000   0.0000

          k = 0.1250 0.2165 0.0976 (  3820 PWs)   bands (ev):

   -88.6572 -51.9544 -51.9397 -51.7922 -27.6937 -12.2664 -10.9910 -10.9860
   -10.8786 -10.1680   1.2161   1.6782   1.8267   3.1487   3.7388   4.9939
     5.9034   6.1114   6.3817   6.7926   7.8149   8.1998   8.6708   8.8816
     9.0706  12.2566  12.7486

     occupation numbers 
     1.0000   1.0000   1.0000   1.0000   1.0000   1.0000   1.0000   1.0000
     1.0000   1.0000   1.0000   1.0000   1.0000   1.0000   1.0000   1.0000
     1.0310   1.0826   0.6705   0.0174   0.0000   0.0000   0.0000   0.0000
     0.0000   0.0000   0.0000

          k = 0.1250 0.3608 0.0000 (  3816 PWs)   bands (ev):

   -88.6555 -51.9717 -51.9463 -51.7893 -27.4634 -11.8396 -11.7776 -10.9260
   -10.7761 -10.5003   1.0669   1.5339   2.1531   2.7169   3.2714   4.8216
     5.9710   6.3525   6.5110   7.1106   7.4668   8.1508   8.4306   8.7248
    10.3155  11.9975  13.2344

     occupation numbers 
     1.0000   1.0000   1.0000   1.0000   1.0000   1.0000   1.0000   1.0000
     1.0000   1.0000   1.0000   1.0000   1.0000   1.0000   1.0000   1.0000
     1.0526   0.7488   0.3296   0.0001   0.0000   0.0000   0.0000   0.0000
     0.0000   0.0000   0.0000

          k = 0.1250 0.3608 0.0976 (  3805 PWs)   bands (ev):

   -88.6555 -51.9716 -51.9462 -51.7893 -27.4634 -11.8394 -11.7780 -10.9251
   -10.7769 -10.5003   1.0664   1.5336   2.1531   2.7194   3.2715   4.8204
     5.9712   6.3528   6.5101   7.0884   7.5361   7.9986   8.5385   8.7257
    10.3303  11.9928  13.1853

     occupation numbers 
     1.0000   1.0000   1.0000   1.0000   1.0000   1.0000   1.0000   1.0000
     1.0000   1.0000   1.0000   1.0000   1.0000   1.0000   1.0000   1.0000
     1.0526   0.7479   0.3317   0.0001   0.0000   0.0000   0.0000   0.0000
     0.0000   0.0000   0.0000

          k = 0.1250 0.5052 0.0000 (  3825 PWs)   bands (ev):

   -88.6543 -51.9839 -51.9511 -51.7873 -27.2916 -12.4073 -11.3233 -11.0382
   -10.7262 -10.6240   0.5369   1.5285   2.4072   2.9356   3.2224   4.2444
     5.9429   6.0332   6.4172   6.7645   7.2539   8.2926   8.5891  10.2150
    11.2757  11.3027  14.1326

     occupation numbers 
     1.0000   1.0000   1.0000   1.0000   1.0000   1.0000   1.0000   1.0000
     1.0000   1.0000   1.0000   1.0000   1.0000   1.0000   1.0000   1.0000
     1.0431   1.0730   0.5726   0.0256   0.0000   0.0000   0.0000   0.0000
     0.0000   0.0000   0.0000

          k = 0.1250 0.5052 0.0976 (  3819 PWs)   bands (ev):

   -88.6543 -51.9838 -51.9510 -51.7873 -27.2916 -12.4073 -11.3234 -11.0381
   -10.7262 -10.6240   0.5373   1.5282   2.4066   2.9370   3.2229   4.2396
     5.9451   6.0322   6.4196   6.7653   7.2691   8.2588   8.6041  10.2175
    11.2828  11.2920  14.1534

     occupation numbers 
     1.0000   1.0000   1.0000   1.0000   1.0000   1.0000   1.0000   1.0000
     1.0000   1.0000   1.0000   1.0000   1.0000   1.0000   1.0000   1.0000
     1.0438   1.0727   0.5658   0.0253   0.0000   0.0000   0.0000   0.0000
     0.0000   0.0000   0.0000

          k = 0.2500 0.4330 0.0000 (  3819 PWs)   bands (ev):

   -88.6543 -51.9779 -51.9570 -51.7873 -27.2929 -12.1199 -11.3790 -11.0872
   -10.9828 -10.6253   1.0840   1.2359   2.1295   2.9146   3.0604   4.2645
     6.0287   6.1238   6.5743   7.6192   8.2126   8.2287   8.3366   9.0168
    10.3817  10.9446  14.3192

     occupation numbers 
     1.0000   1.0000   1.0000   1.0000   1.0000   1.0000   1.0000   1.0000
     1.0000   1.0000   1.0000   1.0000   1.0000   1.0000   1.0000   1.0000
     1.0717   1.0807   0.2022   0.0000   0.0000   0.0000   0.0000   0.0000
     0.0000   0.0000   0.0000

          k = 0.2500 0.4330 0.0976 (  3817 PWs)   bands (ev):

   -88.6543 -51.9778 -51.9570 -51.7873 -27.2929 -12.1199 -11.3790 -11.0871
   -10.9827 -10.6253   1.0841   1.2359   2.1296   2.9142   3.0600   4.2652
     6.0286   6.1221   6.5824   7.5886   8.2262   8.2692   8.3215   8.9994
    10.3854  10.9397  14.3704

     occupation numbers 
     1.0000   1.0000   1.0000   1.0000   1.0000   1.0000   1.0000   1.0000
     1.0000   1.0000   1.0000   1.0000   1.0000   1.0000   1.0000   1.0000
     1.0716   1.0810   0.1886   0.0000   0.0000   0.0000   0.0000   0.0000
     0.0000   0.0000   0.0000

          k = 0.2500 0.5774 0.0000 (  3813 PWs)   bands (ev):

   -88.6538 -51.9783 -51.9636 -51.7864 -27.2202 -12.1486 -11.4197 -11.1409
   -11.0710 -10.5612   0.9350   1.3080   1.9606   3.0343   3.3023   3.7944
     5.8212   6.2983   6.5123   7.9004   8.1992   8.2912   8.3571   9.4840
     9.9166  11.4442  15.3259

     occupation numbers 
     1.0000   1.0000   1.0000   1.0000   1.0000   1.0000   1.0000   1.0000
     1.0000   1.0000   1.0000   1.0000   1.0000   1.0000   1.0000   1.0000
     1.0132   0.8794   0.3266   0.0000   0.0000   0.0000   0.0000   0.0000
     0.0000   0.0000   0.0000

          k = 0.2500 0.5774 0.0976 (  3823 PWs)   bands (ev):

   -88.6538 -51.9783 -51.9636 -51.7864 -27.2202 -12.1486 -11.4197 -11.1409
   -11.0710 -10.5612   0.9353   1.3080   1.9610   3.0333   3.3028   3.7932
     5.8214   6.2969   6.5162   7.8661   8.2302   8.3073   8.3439   9.4978
     9.9077  11.4406  15.2919

     occupation numbers 
     1.0000   1.0000   1.0000   1.0000   1.0000   1.0000   1.0000   1.0000
     1.0000   1.0000   1.0000   1.0000   1.0000   1.0000   1.0000   1.0000
     1.0133   0.8825   0.3178   0.0000   0.0000   0.0000   0.0000   0.0000
     0.0000   0.0000   0.0000

          k = 0.0000 0.1443-0.0976 (  3828 PWs)   bands (ev):

   -88.6584 -51.9416 -51.9355 -51.7942 -27.8486 -12.5722 -11.1271 -10.8648
   -10.3181  -9.9530   1.3662   1.3896   1.6789   3.9968   4.4586   4.5162
     5.3862   5.7983   5.9439   6.8353   8.0059   8.2802   8.6927   8.8884
     9.7745  11.0177  12.9941

     occupation numbers 
     1.0000   1.0000   1.0000   1.0000   1.0000   1.0000   1.0000   1.0000
     1.0000   1.0000   1.0000   1.0000   1.0000   1.0000   1.0000   1.0000
     1.0000   1.0100   1.0434   0.0094   0.0000   0.0000   0.0000   0.0000
     0.0000   0.0000   0.0000

          k = 0.0000 0.2887-0.0976 (  3809 PWs)   bands (ev):

   -88.6567 -51.9609 -51.9401 -51.7913 -27.6275 -12.1294 -11.3274 -10.9273
   -10.8887 -10.1678   1.1209   1.7632   1.9318   2.7177   3.8643   4.9846
     5.8934   6.2318   6.3317   6.7717   7.5164   8.1702   8.5103   8.7548
    10.0059  12.5719  12.6275

     occupation numbers 
     1.0000   1.0000   1.0000   1.0000   1.0000   1.0000   1.0000   1.0000
     1.0000   1.0000   1.0000   1.0000   1.0000   1.0000   1.0000   1.0000
     1.0283   0.9988   0.8018   0.0233   0.0000   0.0000   0.0000   0.0000
     0.0000   0.0000   0.0000

          k = 0.0000 0.4330-0.0976 (  3823 PWs)   bands (ev):

   -88.6550 -51.9802 -51.9449 -51.7885 -27.3924 -12.2439 -11.5933 -10.9714
   -10.7134 -10.3718   0.6416   1.6595   2.1423   2.8436   3.6036   4.5364
     5.9197   6.0844   6.2614   6.4428   7.1892   8.1690   8.7887   9.3584
    11.4659  12.7672  13.0469

     occupation numbers 
     1.0000   1.0000   1.0000   1.0000   1.0000   1.0000   1.0000   1.0000
     1.0000   1.0000   1.0000   1.0000   1.0000   1.0000   1.0000   1.0000
     1.0357   1.0828   0.9522   0.5023   0.0000   0.0000   0.0000   0.0000
     0.0000   0.0000   0.0000

          k =-0.1250 0.3608-0.0976 (  3805 PWs)   bands (ev):

   -88.6555 -51.9716 -51.9462 -51.7893 -27.4634 -11.8393 -11.7781 -10.9251
   -10.7769 -10.5003   1.0662   1.5335   2.1529   2.7198   3.2712   4.8225
     5.9707   6.3534   6.5051   7.1287   7.4431   8.1291   8.4624   8.7224
    10.3135  12.0021  13.2476

     occupation numbers 
     1.0000   1.0000   1.0000   1.0000   1.0000   1.0000   1.0000   1.0000
     1.0000   1.0000   1.0000   1.0000   1.0000   1.0000   1.0000   1.0000
     1.0525   0.7466   0.3434   0.0000   0.0000   0.0000   0.0000   0.0000
     0.0000   0.0000   0.0000

          k =-0.1250 0.5052-0.0976 (  3819 PWs)   bands (ev):

   -88.6543 -51.9838 -51.9510 -51.7873 -27.2916 -12.4073 -11.3234 -11.0381
   -10.7262 -10.6240   0.5371   1.5283   2.4072   2.9356   3.2224   4.2428
     5.9430   6.0318   6.4249   6.7679   7.2499   8.2887   8.5954  10.1888
    11.2807  11.2997  14.2341

     occupation numbers 
     1.0000   1.0000   1.0000   1.0000   1.0000   1.0000   1.0000   1.0000
     1.0000   1.0000   1.0000   1.0000   1.0000   1.0000   1.0000   1.0000
     1.0431   1.0726   0.5513   0.0245   0.0000   0.0000   0.0000   0.0000
     0.0000   0.0000   0.0000

     the Fermi energy is     6.4815 ev

!    total energy              =    -572.84786411 Ry
     total all-electron energy =     -4291.958700 Ry
     estimated scf accuracy    <       0.00000008 Ry
     smearing contrib. (-TS)   =       0.00248185 Ry
     internal energy E=F+TS    =    -572.85034595 Ry

     The total energy is F=E-TS. E is the sum of the following terms:
     one-electron contribution =    -612.37155624 Ry
     hartree contribution      =     321.01979761 Ry
     xc contribution           =     -56.59343418 Ry
     ewald contribution        =     -62.70051762 Ry
     one-center paw contrib.   =    -162.20463552 Ry
      -> PAW hartree energy AE =     308.71954008 Ry
      -> PAW hartree energy PS =    -307.37281311 Ry
      -> PAW xc energy AE      =    -216.90843699 Ry
      -> PAW xc energy PS      =      53.35707450 Ry
      -> total E_H with PAW    =     322.36652458 Ry
      -> total E_XC with PAW   =    -220.14479667 Ry

     total magnetization       =     0.52 Bohr mag/cell
     absolute magnetization    =     0.88 Bohr mag/cell

     convergence has been achieved in  27 iterations

     Forces acting on atoms (cartesian axes, Ry/au):

     atom    1 type  1   force =     0.00000000    0.00000000    0.00000000
     atom    2 type  2   force =     0.00000000    0.00000000   -0.01488778
     atom    3 type  2   force =     0.00000000    0.00000000    0.01488778
     atom    4 type  3   force =     0.00000000    0.00000000    0.00000000
     The non-local contrib.  to forces
     atom    1 type  1   force =     0.00000000    0.00000000    0.00000000
     atom    2 type  2   force =     0.00000000    0.00000000   -1.05165278
     atom    3 type  2   force =     0.00000000    0.00000000    1.05165278
     atom    4 type  3   force =     0.00000000   -0.00000000    0.00000000
     The ionic contribution  to forces
     atom    1 type  1   force =    -0.00000000   -0.00000000    0.00000000
     atom    2 type  2   force =     0.00000000   -0.00000000   34.63872118
     atom    3 type  2   force =    -0.00000000    0.00000000  -34.63872118
     atom    4 type  3   force =    -0.00000000    0.00000000    0.00000000
     The local contribution  to forces
     atom    1 type  1   force =    -0.00000000   -0.00000000    0.00000000
     atom    2 type  2   force =     0.00000001   -0.00000001  -33.61078309
     atom    3 type  2   force =    -0.00000001    0.00000001   33.61078309
     atom    4 type  3   force =     0.00000000   -0.00000000    0.00000000
     The core correction contribution to forces
     atom    1 type  1   force =    -0.00000000   -0.00000000    0.00000000
     atom    2 type  2   force =    -0.00000000    0.00000000    0.00917591
     atom    3 type  2   force =     0.00000000   -0.00000000   -0.00917591
     atom    4 type  3   force =    -0.00000000   -0.00000000   -0.00000000
     The Hubbard contrib.    to forces
     atom    1 type  1   force =     0.00000000    0.00000000    0.00000000
     atom    2 type  2   force =     0.00000000    0.00000000    0.00000000
     atom    3 type  2   force =     0.00000000    0.00000000    0.00000000
     atom    4 type  3   force =     0.00000000    0.00000000    0.00000000
     The SCF correction term to forces
     atom    1 type  1   force =    -0.00000000    0.00000000    0.00000000
     atom    2 type  2   force =     0.00000000   -0.00000000   -0.00034900
     atom    3 type  2   force =    -0.00000000    0.00000000    0.00034900
     atom    4 type  3   force =    -0.00000000   -0.00000000    0.00000000

     Total force =     0.021055     Total SCF correction =     0.000494

     Writing all to output data dir ./out/pw.save/ :
     XML data file, charge density, pseudopotentials, collected wavefunctions
 
     init_run     :     13.94s CPU      3.34s WALL (       1 calls)
     electrons    :    172.38s CPU     44.32s WALL (       1 calls)
     forces       :      0.86s CPU      0.59s WALL (       1 calls)

     Called by init_run:
     wfcinit      :      0.28s CPU      0.36s WALL (       1 calls)
     wfcinit:atom :      0.05s CPU      0.05s WALL (      50 calls)
     wfcinit:wfcr :      0.16s CPU      0.21s WALL (      50 calls)
     potinit      :     12.99s CPU      2.28s WALL (       1 calls)
     hinit0       :      0.56s CPU      0.56s WALL (       1 calls)

     Called by electrons:
     c_bands      :     18.41s CPU     18.46s WALL (      27 calls)
     sum_band     :      3.74s CPU      3.71s WALL (      27 calls)
     v_of_rho     :      0.46s CPU      0.27s WALL (      28 calls)
     v_h          :      0.31s CPU      0.05s WALL (      28 calls)
     v_xc         :      0.16s CPU      0.23s WALL (      29 calls)
     newd         :      0.89s CPU      0.73s WALL (      28 calls)
                                        0.73s GPU  (      28 calls)
     PAW_pot      :    152.75s CPU     20.93s WALL (      28 calls)
     mix_rho      :      0.93s CPU      0.91s WALL (      27 calls)

     Called by c_bands:
     init_us_2    :      1.18s CPU      1.14s WALL (    2800 calls)
     cegterg      :     15.93s CPU     16.04s WALL (    1350 calls)

     Called by sum_band:
     sum_band:wei :      0.03s CPU      0.03s WALL (      27 calls)
                                        0.03s GPU  (      27 calls)
     sum_band:loo :      2.01s CPU      1.98s WALL (      27 calls)
                                        1.98s GPU  (      27 calls)
     sum_band:buf :      0.28s CPU      0.31s WALL (    1350 calls)
                                        0.29s GPU  (    1350 calls)
     sum_band:ini :      0.56s CPU      0.56s WALL (    1350 calls)
                                        0.55s GPU  (    1350 calls)
     sum_band:cal :      0.05s CPU      0.08s WALL (    1350 calls)
                                        0.07s GPU  (    1350 calls)
     sum_band:bec :      0.29s CPU      0.32s WALL (    1350 calls)
                                        0.30s GPU  (    1350 calls)
     addusdens    :      1.48s CPU      1.48s WALL (      27 calls)
                                        1.48s GPU  (      27 calls)
     addusd:skk   :      0.00s CPU      0.01s WALL (      81 calls)
                                        0.00s GPU  (      81 calls)

     Called by *egterg:
     cdiaghg      :      5.34s CPU      5.54s WALL (    6202 calls)
                                        5.46s GPU  (    6202 calls)
     cegterg:over :      1.45s CPU      1.50s WALL (    4852 calls)
     cegterg:upda :      0.90s CPU      0.91s WALL (    4852 calls)
     cegterg:last :      0.17s CPU      0.16s WALL (    2473 calls)
     h_psi        :      5.81s CPU      5.88s WALL (    6252 calls)
                                        5.80s GPU  (    6252 calls)
     s_psi        :      0.96s CPU      1.01s WALL (    6252 calls)
     g_psi        :      0.03s CPU      0.12s WALL (    4852 calls)
                                        0.06s GPU  (    4852 calls)

     Called by h_psi:
     h_psi:calbec :      0.19s CPU      0.36s WALL (    6252 calls)
                                        0.28s GPU  (    6252 calls)
     vloc_psi     :      4.05s CPU      4.02s WALL (    6252 calls)
                                        3.94s GPU  (    6252 calls)
     add_vuspsi   :      0.87s CPU      1.05s WALL (    6252 calls)
                                        0.97s GPU  (    6252 calls)

     General routines
     calbec       :      0.21s CPU      0.24s WALL (    7802 calls)
     fft          :      3.72s CPU      0.69s WALL (     713 calls)
                                        0.06s GPU  (     657 calls)
     ffts         :      4.11s CPU      0.82s WALL (    1060 calls)
                                        0.03s GPU  (    1004 calls)
     fftw         :      0.39s CPU      1.43s WALL (   20764 calls)
                                        1.20s GPU  (   20764 calls)
     interpolate  :      8.04s CPU      1.44s WALL (      56 calls)
 
     Parallel routines

     PAW routines
     PAW_pot      :    152.75s CPU     20.93s WALL (      28 calls)
     PAW_symme    :      0.01s CPU      0.02s WALL (      55 calls)
 
     PWSCF        :   3m 8.17s CPU     48.88s WALL

 
   This run was terminated on:   5:39:30  12Jul2026            

=------------------------------------------------------------------------------=
   JOB DONE.
=------------------------------------------------------------------------------=
Warning: ieee_divide_by_zero is signaling
Warning: ieee_inexact is signaling
FORTRAN STOP
