
     Program PWSCF v.6.6 starts on 11Sep2020 at 19:46:22 

     This program is part of the open-source Quantum ESPRESSO suite
     for quantum simulation of materials; please cite
         "P. Giannozzi et al., J. Phys.:Condens. Matter 21 395502 (2009);
         "P. Giannozzi et al., J. Phys.:Condens. Matter 29 465901 (2017);
          URL http://www.quantum-espresso.org", 
     in publications or presentations arising from this work. More details at
     http://www.quantum-espresso.org/quote

     Parallel version (MPI), running on    24 processors

     MPI processes distributed on     1 nodes
     K-points division:     npool     =      24
     Fft bands division:     nmany     =       1
     Reading input from scf.in
Warning: card &CELL ignored
Warning: card / ignored

     Current dimensions of program PWSCF are:
     Max number of different atomic species (ntypx) = 10
     Max number of k-points (npk) =  40000
     Max angular momentum in pseudopotentials (lmaxx) =  3
     Message from routine emend_upf/check:
     BEWARE !!! Possible out of bounds while fixing pseudo
     Message from routine emend_upf/check:
     BEWARE !!! Possible out of bounds while fixing pseudo
     Message from routine read_upf:
     Pseudo file Co.pbe-n-kjpaw_psl.1.0.0.UPF has been fixed on the fly.
     To avoid this message in the future, permanently fix 
     your pseudo files following these instructions: 
     https://gitlab.com/QEF/q-e/blob/master/upftools/how_to_fix_upf.md
     Message from routine emend_upf/check:
     BEWARE !!! Possible out of bounds while fixing pseudo
     Message from routine emend_upf/check:
     BEWARE !!! Possible out of bounds while fixing pseudo
     Message from routine read_upf:
     Pseudo file Li.pbe-s-kjpaw_psl.1.0.0.UPF has been fixed on the fly.
     To avoid this message in the future, permanently fix 
     your pseudo files following these instructions: 
     https://gitlab.com/QEF/q-e/blob/master/upftools/how_to_fix_upf.md
     Message from routine emend_upf/check:
     BEWARE !!! Possible out of bounds while fixing pseudo
     Message from routine emend_upf/check:
     BEWARE !!! Possible out of bounds while fixing pseudo
     Message from routine read_upf:
     Pseudo file O.pbe-n-kjpaw_psl.1.0.0.UPF has been fixed on the fly.
     To avoid this message in the future, permanently fix 
     your pseudo files following these instructions: 
     https://gitlab.com/QEF/q-e/blob/master/upftools/how_to_fix_upf.md
     file Co.pbe-n-kjpaw_psl.1.0.0.UPF: wavefunction(s)  4S 3D renormalized
     file O.pbe-n-kjpaw_psl.1.0.0.UPF: wavefunction(s)  2S 2P renormalized

     Subspace diagonalization in iterative solution of the eigenvalue problem:
     a serial algorithm will be used

     Message from routine divide_et_impera:
     suboptimal parallelization: some nodes have no k-points
 
     G-vector sticks info
     --------------------
     sticks:   dense  smooth     PW     G-vecs:    dense   smooth      PW
     Sum         265     265     85                18537    18537    3431
 


     bravais-lattice index     =            4
     lattice parameter (alat)  =       2.8429  a.u.
     unit-cell volume          =     104.9893 (a.u.)^3
     number of atoms/cell      =            4
     number of atomic types    =            3
     number of electrons       =        24.00
     number of Kohn-Sham states=           16
     kinetic-energy cutoff     =     120.0000  Ry
     charge density cutoff     =     480.0000  Ry
     convergence threshold     =      1.0E-06
     mixing beta               =       0.7000
     number of iterations used =            8  plain     mixing
     Exchange-correlation= SLA PW PBX PBC
                           (   1   4   3   4   0   0   0)

     celldm(1)=   2.842900  celldm(2)=   0.000000  celldm(3)=   5.276302
     celldm(4)=   0.000000  celldm(5)=   0.000000  celldm(6)=   0.000000

     crystal axes: (cart. coord. in units of alat)
               a(1) = (   1.000000   0.000000   0.000000 )  
               a(2) = (  -0.500000   0.866025   0.000000 )  
               a(3) = (   0.000000   0.000000   5.276302 )  

     reciprocal axes: (cart. coord. in units 2 pi/alat)
               b(1) = (  1.000000  0.577350  0.000000 )  
               b(2) = (  0.000000  1.154701  0.000000 )  
               b(3) = (  0.000000  0.000000  0.189527 )  


     PseudoPot. # 1 for Co read from file:
     /home/srr70/QE/pseudo/pslibrary.1.0.0/pbe/PSEUDOPOTENTIALS/Co.pbe-n-kjpaw_psl.1.0.0.UPF
     MD5 check sum: f3c886005c3ce1959cde64066713f8cc
     Pseudo is Projector augmented-wave + core cor, Zval =  9.0
     Generated using "atomic" code by A. Dal Corso v.6.1 svn rev. 13369
     Shape of augmentation charge: PSQ
     Using radial grid of 1193 points,  6 beta functions with: 
                l(1) =   0
                l(2) =   0
                l(3) =   1
                l(4) =   1
                l(5) =   2
                l(6) =   2
     Q(r) pseudized with 0 coefficients 


     PseudoPot. # 2 for Li read from file:
     /home/srr70/QE/pseudo/pslibrary.1.0.0/pbe/PSEUDOPOTENTIALS/Li.pbe-s-kjpaw_psl.1.0.0.UPF
     MD5 check sum: 921b586c8d4d898fe931c8ddaae22b00
     Pseudo is Projector augmented-wave, Zval =  3.0
     Generated using "atomic" code by A. Dal Corso v.6.1 svn rev. 13369
     Shape of augmentation charge: PSQ
     Using radial grid of 1017 points,  4 beta functions with: 
                l(1) =   0
                l(2) =   0
                l(3) =   1
                l(4) =   1
     Q(r) pseudized with 0 coefficients 


     PseudoPot. # 3 for O  read from file:
     /home/srr70/QE/pseudo/pslibrary.1.0.0/pbe/PSEUDOPOTENTIALS/O.pbe-n-kjpaw_psl.1.0.0.UPF
     MD5 check sum: f6514525791a6ed54d245594465d9e10
     Pseudo is Projector augmented-wave + core cor, Zval =  6.0
     Generated using "atomic" code by A. Dal Corso v.6.1 svn rev. 13369
     Shape of augmentation charge: PSQ
     Using radial grid of 1095 points,  4 beta functions with: 
                l(1) =   0
                l(2) =   0
                l(3) =   1
                l(4) =   1
     Q(r) pseudized with 0 coefficients 


     atomic species   valence    mass     pseudopotential
        Co             9.00    58.93320     Co( 1.00)
        Li             3.00     6.94100     Li( 1.00)
        O              6.00    15.99940     O ( 1.00)

      6 Sym. Ops. (no inversion) found


                                    s                        frac. trans.

      isym =  1     identity                                     

 cryst.   s( 1) = (     1          0          0      )
                  (     0          1          0      )
                  (     0          0          1      )

 cart.    s( 1) = (  1.0000000  0.0000000  0.0000000 )
                  (  0.0000000  1.0000000  0.0000000 )
                  (  0.0000000  0.0000000  1.0000000 )


      isym =  2     120 deg rotation - cryst. axis [0,0,1]       

 cryst.   s( 2) = (     0          1          0      )
                  (    -1         -1          0      )
                  (     0          0          1      )

 cart.    s( 2) = ( -0.5000000 -0.8660254  0.0000000 )
                  (  0.8660254 -0.5000000  0.0000000 )
                  (  0.0000000  0.0000000  1.0000000 )


      isym =  3     120 deg rotation - cryst. axis [0,0,-1]      

 cryst.   s( 3) = (    -1         -1          0      )
                  (     1          0          0      )
                  (     0          0          1      )

 cart.    s( 3) = ( -0.5000000  0.8660254  0.0000000 )
                  ( -0.8660254 -0.5000000  0.0000000 )
                  (  0.0000000  0.0000000  1.0000000 )


      isym =  4     inv. 180 deg rotation - cart. axis [1,0,0]   

 cryst.   s( 4) = (    -1          0          0      )
                  (     1          1          0      )
                  (     0          0          1      )

 cart.    s( 4) = ( -1.0000000  0.0000000  0.0000000 )
                  (  0.0000000  1.0000000  0.0000000 )
                  (  0.0000000  0.0000000  1.0000000 )


      isym =  5     inv. 180 deg rotation - cryst. axis [0,1,0]  

 cryst.   s( 5) = (     1          1          0      )
                  (     0         -1          0      )
                  (     0          0          1      )

 cart.    s( 5) = (  0.5000000  0.8660254  0.0000000 )
                  (  0.8660254 -0.5000000  0.0000000 )
                  (  0.0000000  0.0000000  1.0000000 )


      isym =  6     inv. 180 deg rotation - cryst. axis [1,1,0]  

 cryst.   s( 6) = (     0         -1          0      )
                  (    -1          0          0      )
                  (     0          0          1      )

 cart.    s( 6) = (  0.5000000 -0.8660254  0.0000000 )
                  ( -0.8660254 -0.5000000  0.0000000 )
                  (  0.0000000  0.0000000  1.0000000 )


     point group C_3v (3m)  
     there are  3 classes
     the character table:

       E     2C3   3s_v 
A_1    1.00  1.00  1.00
A_2    1.00  1.00 -1.00
E      2.00 -1.00  0.00

     the symmetry operations in each class and the name of the first element:

     E        1
          identity                                               
     2C3      2    3
          120 deg rotation - cryst. axis [0,0,1]                 
     3s_v     4    5    6
          inv. 180 deg rotation - cart. axis [1,0,0]             

   Cartesian axes

     site n.     atom                  positions (alat units)
         1           Li  tau(   1) = (  -0.0000005   0.5773506   1.7052376  )
         2           Co  tau(   2) = (   0.5000005   0.2886748   0.9354198  )
         3           O   tau(   3) = (  -0.0000005   0.5773506   0.6348183  )
         4           O   tau(   4) = (   0.0000000   0.0000000   1.3084069  )

   Crystallographic axes

     site n.     atom                  positions (cryst. coord.)
         1           Li  tau(   1) = (  0.3333330  0.6666670  0.3231880  )
         2           Co  tau(   2) = (  0.6666670  0.3333330  0.1772870  )
         3           O   tau(   3) = (  0.3333330  0.6666670  0.1203150  )
         4           O   tau(   4) = (  0.0000000  0.0000000  0.2479780  )

     number of k points=    19  Methfessel-Paxton smearing, width (Ry)=  0.0200
                       cart. coord. in units 2pi/alat
        k(    1) = (   0.0000000   0.0000000   0.0000000), wk =   0.0138889
        k(    2) = (   0.0000000   0.0962250   0.0000000), wk =   0.0833333
        k(    3) = (   0.0000000   0.1924501   0.0000000), wk =   0.0833333
        k(    4) = (   0.0000000   0.2886751   0.0000000), wk =   0.0833333
        k(    5) = (   0.0000000   0.3849002   0.0000000), wk =   0.0833333
        k(    6) = (   0.0000000   0.4811252   0.0000000), wk =   0.0833333
        k(    7) = (   0.0000000  -0.5773503   0.0000000), wk =   0.0416667
        k(    8) = (   0.0833333   0.1443376   0.0000000), wk =   0.0833333
        k(    9) = (   0.0833333   0.2405626   0.0000000), wk =   0.1666667
        k(   10) = (   0.0833333   0.3367877   0.0000000), wk =   0.1666667
        k(   11) = (   0.0833333   0.4330127   0.0000000), wk =   0.1666667
        k(   12) = (   0.0833333   0.5292377   0.0000000), wk =   0.1666667
        k(   13) = (   0.1666667   0.2886751   0.0000000), wk =   0.0833333
        k(   14) = (   0.1666667   0.3849002   0.0000000), wk =   0.1666667
        k(   15) = (   0.1666667   0.4811252   0.0000000), wk =   0.1666667
        k(   16) = (   0.1666667   0.5773503   0.0000000), wk =   0.0833333
        k(   17) = (   0.2500000   0.4330127   0.0000000), wk =   0.0833333
        k(   18) = (   0.2500000   0.5292377   0.0000000), wk =   0.1666667
        k(   19) = (   0.3333333   0.5773503   0.0000000), wk =   0.0277778

                       cryst. coord.
        k(    1) = (   0.0000000   0.0000000   0.0000000), wk =   0.0138889
        k(    2) = (   0.0000000   0.0833333   0.0000000), wk =   0.0833333
        k(    3) = (   0.0000000   0.1666667   0.0000000), wk =   0.0833333
        k(    4) = (   0.0000000   0.2500000   0.0000000), wk =   0.0833333
        k(    5) = (   0.0000000   0.3333333   0.0000000), wk =   0.0833333
        k(    6) = (   0.0000000   0.4166667   0.0000000), wk =   0.0833333
        k(    7) = (   0.0000000  -0.5000000   0.0000000), wk =   0.0416667
        k(    8) = (   0.0833333   0.0833333   0.0000000), wk =   0.0833333
        k(    9) = (   0.0833333   0.1666667   0.0000000), wk =   0.1666667
        k(   10) = (   0.0833333   0.2500000   0.0000000), wk =   0.1666667
        k(   11) = (   0.0833333   0.3333333   0.0000000), wk =   0.1666667
        k(   12) = (   0.0833333   0.4166667   0.0000000), wk =   0.1666667
        k(   13) = (   0.1666667   0.1666667   0.0000000), wk =   0.0833333
        k(   14) = (   0.1666667   0.2500000   0.0000000), wk =   0.1666667
        k(   15) = (   0.1666667   0.3333333   0.0000000), wk =   0.1666667
        k(   16) = (   0.1666667   0.4166667   0.0000000), wk =   0.0833333
        k(   17) = (   0.2500000   0.2500000   0.0000000), wk =   0.0833333
        k(   18) = (   0.2500000   0.3333333   0.0000000), wk =   0.1666667
        k(   19) = (   0.3333333   0.3333333   0.0000000), wk =   0.0277778

     Dense  grid:    18537 G-vectors     FFT dimensions: (  20,  20, 108)

     Dynamical RAM for                 wfc:       0.57 MB

     Dynamical RAM for     wfc (w. buffer):       0.57 MB

     Dynamical RAM for           str. fact:       0.85 MB

     Dynamical RAM for           local pot:       0.00 MB

     Dynamical RAM for          nlocal pot:       1.49 MB

     Dynamical RAM for                qrad:       5.27 MB

     Dynamical RAM for          rho,v,vnew:       1.84 MB

     Dynamical RAM for               rhoin:       0.61 MB

     Dynamical RAM for            rho*nmix:       4.53 MB

     Dynamical RAM for           G-vectors:       1.20 MB

     Dynamical RAM for          h,s,v(r/c):       0.05 MB

     Dynamical RAM for          <psi|beta>:       0.01 MB

     Dynamical RAM for                 psi:       1.14 MB

     Dynamical RAM for                hpsi:       1.14 MB

     Dynamical RAM for                spsi:       1.14 MB

     Dynamical RAM for      wfcinit/wfcrot:       1.58 MB

     Dynamical RAM for           addusdens:       2.49 MB

     Estimated static dynamical RAM per process >      19.14 MB

     Estimated max dynamical RAM per process >      22.61 MB

     Estimated total dynamical RAM >     542.71 MB

     Initial potential from superposition of free atoms

     starting charge   23.99510, renormalised to   24.00000
     Starting wfcs are   22 randomized atomic wfcs
     Checking if some PAW data can be deallocated... 
       PAW data deallocated on   18 nodes for type:  1
       PAW data deallocated on   18 nodes for type:  2
       PAW data deallocated on   12 nodes for type:  3

     total cpu time spent up to now is        5.1 secs

     Self-consistent Calculation

     iteration #  1     ecut=   120.00 Ry     beta= 0.70
     Davidson diagonalization with overlap
     ethr =  1.00E-02,  avg # of iterations = 10.4

     total cpu time spent up to now is        5.3 secs

     total energy              =    -230.93170803 Ry
     estimated scf accuracy    <       9.37554004 Ry

     iteration #  2     ecut=   120.00 Ry     beta= 0.70
     Davidson diagonalization with overlap
     ethr =  1.00E-02,  avg # of iterations =  5.9

     total cpu time spent up to now is        5.6 secs

     total energy              =    -215.94653888 Ry
     estimated scf accuracy    <     112.93032069 Ry

     iteration #  3     ecut=   120.00 Ry     beta= 0.70
     Davidson diagonalization with overlap
     ethr =  1.00E-02,  avg # of iterations =  7.8

     total cpu time spent up to now is        5.9 secs

     total energy              =    -234.80262567 Ry
     estimated scf accuracy    <       3.61307653 Ry

     iteration #  4     ecut=   120.00 Ry     beta= 0.70
     Davidson diagonalization with overlap
     ethr =  1.00E-02,  avg # of iterations =  2.7

     total cpu time spent up to now is        6.1 secs

     total energy              =    -234.92277176 Ry
     estimated scf accuracy    <       2.08291818 Ry

     iteration #  5     ecut=   120.00 Ry     beta= 0.70
     Davidson diagonalization with overlap
     ethr =  8.68E-03,  avg # of iterations =  1.1

     total cpu time spent up to now is        6.2 secs

     total energy              =    -234.87915595 Ry
     estimated scf accuracy    <       1.56193609 Ry

     iteration #  6     ecut=   120.00 Ry     beta= 0.70
     Davidson diagonalization with overlap
     ethr =  6.51E-03,  avg # of iterations =  1.3

     total cpu time spent up to now is        6.4 secs

     total energy              =    -234.85487170 Ry
     estimated scf accuracy    <       0.60250490 Ry

     iteration #  7     ecut=   120.00 Ry     beta= 0.70
     Davidson diagonalization with overlap
     ethr =  2.51E-03,  avg # of iterations =  1.4

     total cpu time spent up to now is        6.5 secs

     total energy              =    -234.77003331 Ry
     estimated scf accuracy    <       0.39752356 Ry

     iteration #  8     ecut=   120.00 Ry     beta= 0.70
     Davidson diagonalization with overlap
     ethr =  1.66E-03,  avg # of iterations =  2.5

     total cpu time spent up to now is        6.7 secs

     total energy              =    -234.67344424 Ry
     estimated scf accuracy    <       0.21621354 Ry

     iteration #  9     ecut=   120.00 Ry     beta= 0.70
     Davidson diagonalization with overlap
     ethr =  9.01E-04,  avg # of iterations =  5.2

     total cpu time spent up to now is        6.9 secs

     total energy              =    -234.75930018 Ry
     estimated scf accuracy    <       0.15548362 Ry

     iteration # 10     ecut=   120.00 Ry     beta= 0.70
     Davidson diagonalization with overlap
     ethr =  6.48E-04,  avg # of iterations =  1.3

     total cpu time spent up to now is        7.1 secs

     total energy              =    -234.70173407 Ry
     estimated scf accuracy    <       0.20838968 Ry

     iteration # 11     ecut=   120.00 Ry     beta= 0.70
     Davidson diagonalization with overlap
     ethr =  6.48E-04,  avg # of iterations =  2.4

     total cpu time spent up to now is        7.3 secs

     total energy              =    -234.72996794 Ry
     estimated scf accuracy    <       0.01450294 Ry

     iteration # 12     ecut=   120.00 Ry     beta= 0.70
     Davidson diagonalization with overlap
     ethr =  6.04E-05,  avg # of iterations =  7.1

     total cpu time spent up to now is        7.5 secs

     total energy              =    -234.71947512 Ry
     estimated scf accuracy    <       0.04526115 Ry

     iteration # 13     ecut=   120.00 Ry     beta= 0.70
     Davidson diagonalization with overlap
     ethr =  6.04E-05,  avg # of iterations =  4.8

     total cpu time spent up to now is        7.7 secs

     total energy              =    -234.72806013 Ry
     estimated scf accuracy    <       0.01128124 Ry

     iteration # 14     ecut=   120.00 Ry     beta= 0.70
     Davidson diagonalization with overlap
     ethr =  4.70E-05,  avg # of iterations =  1.1

     total cpu time spent up to now is        7.8 secs

     total energy              =    -234.72809509 Ry
     estimated scf accuracy    <       0.00211278 Ry

     iteration # 15     ecut=   120.00 Ry     beta= 0.70
     Davidson diagonalization with overlap
     ethr =  8.80E-06,  avg # of iterations =  2.2

     total cpu time spent up to now is        8.0 secs

     total energy              =    -234.72823445 Ry
     estimated scf accuracy    <       0.00009007 Ry

     iteration # 16     ecut=   120.00 Ry     beta= 0.70
     Davidson diagonalization with overlap
     ethr =  3.75E-07,  avg # of iterations =  5.4

     total cpu time spent up to now is        8.2 secs

     total energy              =    -234.72828540 Ry
     estimated scf accuracy    <       0.00013006 Ry

     iteration # 17     ecut=   120.00 Ry     beta= 0.70
     Davidson diagonalization with overlap
     ethr =  3.75E-07,  avg # of iterations =  1.3

     total cpu time spent up to now is        8.4 secs

     total energy              =    -234.72827530 Ry
     estimated scf accuracy    <       0.00006060 Ry

     iteration # 18     ecut=   120.00 Ry     beta= 0.70
     Davidson diagonalization with overlap
     ethr =  2.53E-07,  avg # of iterations =  1.2

     total cpu time spent up to now is        8.6 secs

     End of self-consistent calculation

          k = 0.0000 0.0000 0.0000 (  2285 PWs)   bands (ev):

   -43.1029 -21.6621 -21.4312 -21.4311  -4.7047   2.8562   2.8562   3.8563
    11.3996  12.9359  12.9359  18.9356  23.5896  26.6769  31.0541  32.8817

     occupation numbers 
     1.0000   1.0000   1.0000   1.0000   1.0000   1.0000   1.0000   1.0000
     1.0000   1.0000   1.0000   1.0000   1.0000  -0.0000  -0.0000  -0.0000

          k = 0.0000 0.0962 0.0000 (  2281 PWs)   bands (ev):

   -42.8568 -22.5856 -20.3930 -20.3839  -4.7055  -0.9651   1.1210   5.1474
    11.6986  14.3846  14.8865  19.5397  24.1860  27.1975  31.6830  33.2354

     occupation numbers 
     1.0000   1.0000   1.0000   1.0000   1.0000   1.0000   1.0000   1.0000
     1.0000   1.0000   1.0000   1.0000   1.0000  -0.0000  -0.0000  -0.0000

          k = 0.0000 0.1925 0.0000 (  2317 PWs)   bands (ev):

   -42.1752 -25.2282 -17.5787 -17.4723  -8.4377  -1.7081  -1.5357   4.9508
    11.4442  16.7011  18.1228  21.2777  25.5922  28.3762  32.7447  35.1663

     occupation numbers 
     1.0000   1.0000   1.0000   1.0000   1.0000   1.0000   1.0000   1.0000
     1.0000   1.0000   1.0000   1.0000   0.0211  -0.0000  -0.0000  -0.0000

          k = 0.0000 0.2887 0.0000 (  2323 PWs)   bands (ev):

   -41.2432 -28.2716 -16.8367 -14.2386 -10.7671  -3.0450  -0.0018   4.6180
    10.6753  17.6677  19.8099  23.6789  26.3360  30.3817  34.8429  37.0448

     occupation numbers 
     1.0000   1.0000   1.0000   1.0000   1.0000   1.0000   1.0000   1.0000
     1.0000   1.0000   1.0000   1.0000  -0.0000  -0.0000  -0.0000  -0.0000

          k = 0.0000 0.3849 0.0000 (  2320 PWs)   bands (ev):

   -40.3828 -30.9318 -20.1875 -12.8240  -8.7464  -0.5895  -0.2251   6.4424
    10.8077  16.5302  18.7966  25.5520  27.2298  33.8570  37.5767  38.1955

     occupation numbers 
     1.0000   1.0000   1.0000   1.0000   1.0000   1.0000   1.0000   1.0000
     1.0000   1.0000   1.0000   0.0749  -0.0000  -0.0000  -0.0000  -0.0000

          k = 0.0000 0.4811 0.0000 (  2324 PWs)   bands (ev):

   -39.9021 -32.7312 -22.3856 -13.0937  -8.3309   0.4399   4.7436   6.8571
    12.8104  15.5872  15.6936  24.6017  30.4678  37.4827  38.2473  40.1226

     occupation numbers 
     1.0000   1.0000   1.0000   1.0000   1.0000   1.0000   1.0000   1.0000
     1.0000   1.0000   1.0000   1.0002  -0.0000  -0.0000  -0.0000  -0.0000

          k = 0.0000-0.5774 0.0000 (  2316 PWs)   bands (ev):

   -39.7874 -33.3666 -23.0134 -13.3320  -8.7037   1.5986   6.1287   9.4843
    11.7677  12.8732  17.2758  23.5512  31.9357  38.4559  38.7072  41.2034

     occupation numbers 
     1.0000   1.0000   1.0000   1.0000   1.0000   1.0000   1.0000   1.0000
     1.0000   1.0000   1.0000   1.0000  -0.0000  -0.0000  -0.0000  -0.0000

          k = 0.0833 0.1443 0.0000 (  2311 PWs)   bands (ev):

   -42.3915 -23.7580 -20.2264 -17.2317  -6.7631  -3.3052   0.0993   5.1665
    11.6299  16.1045  17.3288  20.7058  25.2012  28.0192  32.4101  34.4265

     occupation numbers 
     1.0000   1.0000   1.0000   1.0000   1.0000   1.0000   1.0000   1.0000
     1.0000   1.0000   1.0000   1.0000   0.9517  -0.0000  -0.0000  -0.0000

          k = 0.0833 0.2406 0.0000 (  2324 PWs)   bands (ev):

   -41.5738 -25.9842 -18.0121 -14.6996 -10.6390  -5.1919   1.7888   4.5748
    10.7652  17.7244  19.7390  22.5494  26.1169  29.4423  33.5473  35.9070

     occupation numbers 
     1.0000   1.0000   1.0000   1.0000   1.0000   1.0000   1.0000   1.0000
     1.0000   1.0000   1.0000   1.0000  -0.0005  -0.0000  -0.0000  -0.0000

          k = 0.0833 0.3368 0.0000 (  2323 PWs)   bands (ev):

   -40.6513 -28.4753 -18.4991 -14.0509 -10.0444  -5.0684   2.2702   6.1409
    10.2413  17.2167  20.3190  24.6489  26.1957  32.3557  35.3919  37.6051

     occupation numbers 
     1.0000   1.0000   1.0000   1.0000   1.0000   1.0000   1.0000   1.0000
     1.0000   1.0000   1.0000   1.0004  -0.0001  -0.0000  -0.0000  -0.0000

          k = 0.0833 0.4330 0.0000 (  2330 PWs)   bands (ev):

   -39.9610 -30.4893 -21.2754 -13.9029  -8.1636  -2.4326   2.6457   7.2307
    12.0706  15.9401  17.8066  24.8264  28.8385  36.2185  36.9076  40.3733

     occupation numbers 
     1.0000   1.0000   1.0000   1.0000   1.0000   1.0000   1.0000   1.0000
     1.0000   1.0000   1.0000   1.0067  -0.0000  -0.0000  -0.0000  -0.0000

          k = 0.0833 0.5292 0.0000 (  2333 PWs)   bands (ev):

   -39.6767 -31.6011 -22.6032 -14.3142  -8.2866   0.6047   5.8292   7.1328
    11.3669  13.7420  18.1684  24.0374  31.3787  37.3865  39.2844  41.9724

     occupation numbers 
     1.0000   1.0000   1.0000   1.0000   1.0000   1.0000   1.0000   1.0000
     1.0000   1.0000   1.0000   1.0000  -0.0000  -0.0000  -0.0000  -0.0000

          k = 0.1667 0.2887 0.0000 (  2331 PWs)   bands (ev):

   -40.7441 -26.0122 -18.0938 -15.1237 -11.6087  -6.7280   3.8105   6.2131
     9.6808  17.6936  21.7448  23.2261  25.7768  31.8148  34.2694  37.2194

     occupation numbers 
     1.0000   1.0000   1.0000   1.0000   1.0000   1.0000   1.0000   1.0000
     1.0000   1.0000   1.0000   1.0000  -0.0303  -0.0000  -0.0000  -0.0000

          k = 0.1667 0.3849 0.0000 (  2336 PWs)   bands (ev):

   -39.9564 -26.5995 -19.5317 -15.5634 -10.2526  -6.2457   3.3502   6.9566
    11.8408  16.7188  19.8883  23.8773  27.6109  35.1088  36.1924  39.4118

     occupation numbers 
     1.0000   1.0000   1.0000   1.0000   1.0000   1.0000   1.0000   1.0000
     1.0000   1.0000   1.0000   1.0000  -0.0000  -0.0000  -0.0000  -0.0000

          k = 0.1667 0.4811 0.0000 (  2350 PWs)   bands (ev):

   -39.4700 -27.3962 -21.0815 -16.3079  -7.5549  -4.1848   3.3940   6.8386
    11.7283  14.8820  18.7860  24.6343  30.4372  36.6288  39.2806  41.8664

     occupation numbers 
     1.0000   1.0000   1.0000   1.0000   1.0000   1.0000   1.0000   1.0000
     1.0000   1.0000   1.0000   1.0003  -0.0000  -0.0000  -0.0000  -0.0000

          k = 0.1667 0.5774 0.0000 (  2347 PWs)   bands (ev):

   -39.3277 -27.7301 -21.6142 -16.5765  -7.5635  -1.4098   3.7930   7.8834
     9.7001  11.9262  20.6524  24.4997  31.8267  37.2105  40.7414  43.3491

     occupation numbers 
     1.0000   1.0000   1.0000   1.0000   1.0000   1.0000   1.0000   1.0000
     1.0000   1.0000   1.0000   1.0000  -0.0000  -0.0000  -0.0000  -0.0000

          k = 0.2500 0.4330 0.0000 (  2353 PWs)   bands (ev):

   -39.3706 -24.9571 -19.0944 -17.1427  -9.5078  -6.4021   2.8335   6.5253
    12.2792  15.4043  18.8889  24.7823  30.0408  36.2596  39.4336  41.0366

     occupation numbers 
     1.0000   1.0000   1.0000   1.0000   1.0000   1.0000   1.0000   1.0000
     1.0000   1.0000   1.0000   1.0037  -0.0000  -0.0000  -0.0000  -0.0000

          k = 0.2500 0.5292 0.0000 (  2361 PWs)   bands (ev):

   -39.0460 -24.8069 -18.9274 -17.1071  -7.0671  -6.1844   1.2546   7.7865
    10.5574  10.8774  21.1621  25.3630  32.4588  36.7288  41.8416  44.2015

     occupation numbers 
     1.0000   1.0000   1.0000   1.0000   1.0000   1.0000   1.0000   1.0000
     1.0000   1.0000   1.0000   0.5699  -0.0000  -0.0000  -0.0000  -0.0000

          k = 0.3333 0.5774 0.0000 (  2379 PWs)   bands (ev):

   -38.8678 -24.3459 -19.3639 -11.6483 -11.1474  -5.7685  -0.3577   8.5781
     8.6955  10.2285  21.7362  25.8110  33.5585  37.1150  42.2898  44.6695

     occupation numbers 
     1.0000   1.0000   1.0000   1.0000   1.0000   1.0000   1.0000   1.0000
     1.0000   1.0000   1.0000  -0.0248  -0.0000  -0.0000  -0.0000  -0.0000

     the Fermi energy is    25.3856 ev

!    total energy              =    -234.72828220 Ry

     total all-electron energy =     -3077.265752 Ry
     estimated scf accuracy    <       0.00000036 Ry
     smearing contrib. (-TS)   =      -0.00029281 Ry
     internal energy E=F+TS    =    -234.72798939 Ry

     The total energy is F=E-TS. E is the sum of the following terms:
     one-electron contribution =   -1277.51469298 Ry
     hartree contribution      =     665.82120553 Ry
     xc contribution           =     -63.39235760 Ry
     ewald contribution        =     548.14271425 Ry
     one-center paw contrib.   =    -107.78485858 Ry
      -> PAW hartree energy AE =      20.58603096 Ry
      -> PAW hartree energy PS =     -20.34691842 Ry
      -> PAW xc energy AE      =      -6.30363690 Ry
      -> PAW xc energy PS      =       6.16952435 Ry
      -> total E_H with PAW    =     666.06031807 Ry
      -> total E_XC with PAW   =     -63.52647015 Ry

     convergence has been achieved in  18 iterations

     Writing output data file ./lco.save/
 
     init_run     :      1.28s CPU      1.55s WALL (       1 calls)
     electrons    :      3.44s CPU      3.56s WALL (       1 calls)

     Called by init_run:
     wfcinit      :      0.03s CPU      0.07s WALL (       1 calls)
     wfcinit:atom :      0.00s CPU      0.00s WALL (       1 calls)
     wfcinit:wfcr :      0.02s CPU      0.06s WALL (       1 calls)
     potinit      :      0.11s CPU      0.12s WALL (       1 calls)
     hinit0       :      1.05s CPU      1.22s WALL (       1 calls)

     Called by electrons:
     c_bands      :      1.39s CPU      1.42s WALL (      18 calls)
     sum_band     :      0.37s CPU      0.38s WALL (      18 calls)
     v_of_rho     :      0.46s CPU      0.47s WALL (      19 calls)
     v_h          :      0.02s CPU      0.02s WALL (      19 calls)
     v_xc         :      0.45s CPU      0.45s WALL (      19 calls)
     newd         :      0.06s CPU      0.09s WALL (      19 calls)
     PAW_pot      :      1.01s CPU      1.01s WALL (      19 calls)
     mix_rho      :      0.16s CPU      0.17s WALL (      18 calls)

     Called by c_bands:
     init_us_2    :      0.05s CPU      0.06s WALL (      37 calls)
     cegterg      :      1.00s CPU      1.02s WALL (      18 calls)

     Called by sum_band:
     sum_band:wei :      0.00s CPU      0.01s WALL (      18 calls)
     sum_band:loo :      0.19s CPU      0.20s WALL (      18 calls)
     sum_band:buf :      0.00s CPU      0.00s WALL (      18 calls)
     sum_band:ini :      0.02s CPU      0.03s WALL (      18 calls)
     sum_band:cal :      0.01s CPU      0.01s WALL (      18 calls)
     sum_band:bec :      0.00s CPU      0.00s WALL (      18 calls)
     addusdens    :      0.07s CPU      0.08s WALL (      18 calls)
     addusd:skk   :      0.00s CPU      0.00s WALL (      54 calls)
     addusd:dgemm :      0.02s CPU      0.02s WALL (      54 calls)
     addusd:qvan2 :      0.02s CPU      0.03s WALL (      54 calls)

     Called by *egterg:
     cdiaghg      :      0.03s CPU      0.08s WALL (      74 calls)
     cegterg:over :      0.03s CPU      0.03s WALL (      56 calls)
     cegterg:upda :      0.02s CPU      0.02s WALL (      56 calls)
     cegterg:last :      0.04s CPU      0.04s WALL (      38 calls)
     h_psi        :      0.85s CPU      0.86s WALL (      75 calls)
     s_psi        :      0.03s CPU      0.03s WALL (      75 calls)
     g_psi        :      0.01s CPU      0.01s WALL (      56 calls)

     Called by h_psi:
     h_psi:calbec :      0.03s CPU      0.03s WALL (      75 calls)
     vloc_psi     :      0.78s CPU      0.79s WALL (      75 calls)
     add_vuspsi   :      0.03s CPU      0.03s WALL (      75 calls)

     General routines
     calbec       :      0.04s CPU      0.04s WALL (      93 calls)
     fft          :      0.10s CPU      0.20s WALL (     209 calls)
     ffts         :      0.01s CPU      0.01s WALL (      18 calls)
     fftw         :      0.82s CPU      0.83s WALL (    1842 calls)
 
     Parallel routines

     PAW routines
     PAW_pot      :      1.01s CPU      1.01s WALL (      19 calls)
     PAW_symme    :      0.01s CPU      0.01s WALL (      37 calls)
 
     PWSCF        :      6.13s CPU      8.98s WALL

 
   This run was terminated on:  19:46:30  11Sep2020            

=------------------------------------------------------------------------------=
   JOB DONE.
=------------------------------------------------------------------------------=
