
     Program PWSCF v.7.3.1 starts on 12Jul2026 at  3:22:10 

     This program is part of the open-source Quantum ESPRESSO suite
     for quantum simulation of materials; please cite
         "P. Giannozzi et al., J. Phys.:Condens. Matter 21 395502 (2009);
         "P. Giannozzi et al., J. Phys.:Condens. Matter 29 465901 (2017);
         "P. Giannozzi et al., J. Chem. Phys. 152 154105 (2020);
          URL http://www.quantum-espresso.org", 
     in publications or presentations arising from this work. More details at
     http://www.quantum-espresso.org/quote

     Parallel version (MPI & OpenMP), running on      14 processor cores
     Number of MPI processes:                 1
     Threads/MPI process:                    14

     MPI processes distributed on     1 nodes
     846296 MiB available memory on the printing compute node when the environment starts
 
     Reading input from pw.in

     Current dimensions of program PWSCF are:
     Max number of different atomic species (ntypx) = 10
     Max number of k-points (npk) =  40000
     Max angular momentum in pseudopotentials (lmaxx) =  4
     file Co.pbe-spn-kjpaw_psl.0.3.1.UPF: wavefunction(s)  3P 3D renormalized
     file O.pbe-n-kjpaw_psl.1.0.0.UPF: wavefunction(s)  2S 2P renormalized
     file Na.pbe-spn-kjpaw_psl.1.0.0.UPF: wavefunction(s)  2P renormalized
 
     Subspace diagonalization in iterative solution of the eigenvalue problem:
     a serial algorithm will be used

 
     G-vector sticks info
     --------------------
     sticks:   dense  smooth     PW     G-vecs:    dense   smooth      PW
     Sum        2941    1483    421               142753    50601    7659
 
     Using Slab Decomposition
 


     bravais-lattice index     =            4
     lattice parameter (alat)  =       9.4527  a.u.
     unit-cell volume          =     804.2768 (a.u.)^3
     number of atoms/cell      =           10
     number of atomic types    =            3
     number of electrons       =        96.00
     number of Kohn-Sham states=           64
     kinetic-energy cutoff     =      60.0000  Ry
     charge density cutoff     =     480.0000  Ry
     scf convergence threshold =      1.0E-07
     mixing beta               =       0.3000
     number of iterations used =            8  local-TF  mixing
     Exchange-correlation= SLA  PW   PBX  PBC
                           (   1   4   3   4   0   0   0)

     GPU acceleration is ACTIVE.  1 visible GPUs per MPI rank
     GPU-aware MPI enabled


     GPU used by master process:

        Device Number: 0
        Device name: NVIDIA A100-SXM4-80GB
        Compute capability : 80
        Ratio of single to double precision performance  : 2
        Memory Clock Rate (KHz): 1593000
        Memory Bus Width (bits): 5120
        Peak Memory Bandwidth (GB/s): ******

     celldm(1)=   9.452718  celldm(2)=   0.000000  celldm(3)=   1.099524
     celldm(4)=   0.000000  celldm(5)=   0.000000  celldm(6)=   0.000000

     crystal axes: (cart. coord. in units of alat)
               a(1) = (   1.000000   0.000000   0.000000 )  
               a(2) = (  -0.500000   0.866025   0.000000 )  
               a(3) = (   0.000000   0.000000   1.099524 )  

     reciprocal axes: (cart. coord. in units 2 pi/alat)
               b(1) = (  1.000000  0.577350 -0.000000 )  
               b(2) = (  0.000000  1.154701  0.000000 )  
               b(3) = (  0.000000 -0.000000  0.909484 )  


     PseudoPot. # 1 for Co read from file:
     ../../pseudo/Co.pbe-spn-kjpaw_psl.0.3.1.UPF
     MD5 check sum: 3c0a43779828c046024e4f3be63f8e67
     Pseudo is Projector augmented-wave + core cor, Zval = 17.0
     Generated using &quot;atomic&quot; code by A. Dal Corso  v.6.2.2
     Shape of augmentation charge: PSQ
     Using radial grid of 1193 points,  6 beta functions with: 
                l(1) =   0
                l(2) =   0
                l(3) =   1
                l(4) =   1
                l(5) =   2
                l(6) =   2
     Q(r) pseudized with 0 coefficients 


     PseudoPot. # 2 for O  read from file:
     ../../pseudo/O.pbe-n-kjpaw_psl.1.0.0.UPF
     MD5 check sum: e99d9cef9b487d1ca56f5b95ecd0fd7a
     Pseudo is Projector augmented-wave + core cor, Zval =  6.0
     Generated using &quot;atomic&quot; code by A. Dal Corso  v.6.3
     Shape of augmentation charge: PSQ
     Using radial grid of 1095 points,  4 beta functions with: 
                l(1) =   0
                l(2) =   0
                l(3) =   1
                l(4) =   1
     Q(r) pseudized with 0 coefficients 


     PseudoPot. # 3 for Na read from file:
     ../../pseudo/Na.pbe-spn-kjpaw_psl.1.0.0.UPF
     MD5 check sum: 05b4deb74e3932c23ab016979dc8b5d4
     Pseudo is Projector augmented-wave + core cor, Zval =  9.0
     Generated using &quot;atomic&quot; code by A. Dal Corso  v.6.3
     Shape of augmentation charge: PSQ
     Using radial grid of 1121 points,  4 beta functions with: 
                l(1) =   0
                l(2) =   0
                l(3) =   1
                l(4) =   1
     Q(r) pseudized with 0 coefficients 


     atomic species   valence    mass     pseudopotential
     Co               17.00    58.93300     Co( 1.00)
     O                 6.00    15.99900     O ( 1.00)
     Na                9.00    22.98977     Na( 1.00)

     Starting magnetic structure 
     atomic species   magnetization
     Co              0.300
     O               0.000
     Na              0.000

      6 Sym. Ops. (no inversion) found


                                    s                        frac. trans.

      isym =  1     identity                                     

 cryst.   s( 1) = (     1          0          0      )
                  (     0          1          0      )
                  (     0          0          1      )

 cart.    s( 1) = (  1.0000000  0.0000000  0.0000000 )
                  (  0.0000000  1.0000000  0.0000000 )
                  (  0.0000000  0.0000000  1.0000000 )


      isym =  2     120 deg rotation - cryst. axis [0,0,1]       

 cryst.   s( 2) = (     0          1          0      )
                  (    -1         -1          0      )
                  (     0          0          1      )

 cart.    s( 2) = ( -0.5000000 -0.8660254  0.0000000 )
                  (  0.8660254 -0.5000000  0.0000000 )
                  (  0.0000000  0.0000000  1.0000000 )


      isym =  3     120 deg rotation - cryst. axis [0,0,-1]      

 cryst.   s( 3) = (    -1         -1          0      )
                  (     1          0          0      )
                  (     0          0          1      )

 cart.    s( 3) = ( -0.5000000  0.8660254  0.0000000 )
                  ( -0.8660254 -0.5000000  0.0000000 )
                  (  0.0000000  0.0000000  1.0000000 )


      isym =  4     inv. 180 deg rotation - cart. axis [0,1,0]   

 cryst.   s( 4) = (     1          0          0      )
                  (    -1         -1          0      )
                  (     0          0          1      )

 cart.    s( 4) = (  1.0000000  0.0000000  0.0000000 )
                  (  0.0000000 -1.0000000  0.0000000 )
                  (  0.0000000  0.0000000  1.0000000 )


      isym =  5     inv. 180 deg rotation - cryst. axis [1,-1,0] 

 cryst.   s( 5) = (     0          1          0      )
                  (     1          0          0      )
                  (     0          0          1      )

 cart.    s( 5) = ( -0.5000000  0.8660254  0.0000000 )
                  (  0.8660254  0.5000000  0.0000000 )
                  (  0.0000000  0.0000000  1.0000000 )


      isym =  6     inv. 180 deg rotation - cryst. axis [2,1,0]  

 cryst.   s( 6) = (    -1         -1          0      )
                  (     0          1          0      )
                  (     0          0          1      )

 cart.    s( 6) = ( -0.5000000 -0.8660254  0.0000000 )
                  ( -0.8660254  0.5000000  0.0000000 )
                  (  0.0000000  0.0000000  1.0000000 )


     point group C_3v (3m)  
     there are  3 classes
     the character table:

       E     2C3   3s_v 
A_1    1.00  1.00  1.00
A_2    1.00  1.00 -1.00
E      2.00 -1.00  0.00

     the symmetry operations in each class and the name of the first element:

     E        1
          identity                                               
     2C3      2    3
          120 deg rotation - cryst. axis [0,0,1]                 
     3s_v     4    6    5
          inv. 180 deg rotation - cart. axis [0,1,0]             

   Cartesian axes

     site n.     atom                  positions (alat units)
         1        Co     tau(   1) = (   0.0000000   0.0000000   0.0000000  )
         2        Co     tau(   2) = (  -0.0000000   0.5773503   0.0000000  )
         3        Co     tau(   3) = (   0.5000000   0.2886751   0.0000000  )
         4        O      tau(   4) = (   0.1666667   0.2886751   0.1919170  )
         5        O      tau(   5) = (   0.6666667   0.0000000   0.1919170  )
         6        O      tau(   6) = (  -0.3333333   0.5773503   0.1919170  )
         7        O      tau(   7) = (   0.3333333   0.0000000   0.9076074  )
         8        O      tau(   8) = (   0.3333333   0.5773503   0.9076074  )
         9        O      tau(   9) = (  -0.1666667   0.2886751   0.9076074  )
        10        Na     tau(  10) = (   0.0000000   0.0000000   0.6497190  )

   Crystallographic axes

     site n.     atom                  positions (cryst. coord.)
         1        Co     tau(   1) = (  0.0000000  0.0000000  0.0000000  )
         2        Co     tau(   2) = (  0.3333333  0.6666667  0.0000000  )
         3        Co     tau(   3) = (  0.6666667  0.3333333  0.0000000  )
         4        O      tau(   4) = (  0.3333333  0.3333333  0.1745455  )
         5        O      tau(   5) = (  0.6666667  0.0000000  0.1745455  )
         6        O      tau(   6) = (  0.0000000  0.6666667  0.1745455  )
         7        O      tau(   7) = (  0.3333333  0.0000000  0.8254545  )
         8        O      tau(   8) = (  0.6666667  0.6666667  0.8254545  )
         9        O      tau(   9) = ( -0.0000000  0.3333333  0.8254545  )
        10        Na     tau(  10) = (  0.0000000  0.0000000  0.5909091  )

     number of k points=    17  Marzari-Vanderbilt smearing, width (Ry)=  0.0200
                       cart. coord. in units 2pi/alat
        k(    1) = (   0.0000000   0.0000000   0.0000000), wk =   0.0092593
        k(    2) = (   0.0000000   0.0000000   0.3031614), wk =   0.0185185
        k(    3) = (   0.0000000   0.1924501   0.0000000), wk =   0.0555556
        k(    4) = (   0.0000000   0.1924501   0.3031614), wk =   0.1111111
        k(    5) = (   0.0000000   0.3849002   0.0000000), wk =   0.0555556
        k(    6) = (   0.0000000   0.3849002   0.3031614), wk =   0.1111111
        k(    7) = (   0.0000000  -0.5773503   0.0000000), wk =   0.0277778
        k(    8) = (   0.0000000  -0.5773503   0.3031614), wk =   0.0555556
        k(    9) = (   0.1666667   0.2886751   0.0000000), wk =   0.0555556
        k(   10) = (   0.1666667   0.2886751   0.3031614), wk =   0.0555556
        k(   11) = (   0.1666667   0.4811252   0.0000000), wk =   0.1111111
        k(   12) = (   0.1666667   0.4811252   0.3031614), wk =   0.1111111
        k(   13) = (   0.3333333   0.5773503   0.0000000), wk =   0.0185185
        k(   14) = (   0.3333333   0.5773503   0.3031614), wk =   0.0185185
        k(   15) = (  -0.1666667  -0.2886751   0.3031614), wk =   0.0555556
        k(   16) = (  -0.1666667  -0.4811252   0.3031614), wk =   0.1111111
        k(   17) = (  -0.3333333  -0.5773503   0.3031614), wk =   0.0185185

                       cryst. coord.
        k(    1) = (   0.0000000   0.0000000   0.0000000), wk =   0.0092593
        k(    2) = (   0.0000000   0.0000000   0.3333333), wk =   0.0185185
        k(    3) = (   0.0000000   0.1666667   0.0000000), wk =   0.0555556
        k(    4) = (   0.0000000   0.1666667   0.3333333), wk =   0.1111111
        k(    5) = (   0.0000000   0.3333333   0.0000000), wk =   0.0555556
        k(    6) = (   0.0000000   0.3333333   0.3333333), wk =   0.1111111
        k(    7) = (   0.0000000  -0.5000000   0.0000000), wk =   0.0277778
        k(    8) = (   0.0000000  -0.5000000   0.3333333), wk =   0.0555556
        k(    9) = (   0.1666667   0.1666667   0.0000000), wk =   0.0555556
        k(   10) = (   0.1666667   0.1666667   0.3333333), wk =   0.0555556
        k(   11) = (   0.1666667   0.3333333   0.0000000), wk =   0.1111111
        k(   12) = (   0.1666667   0.3333333   0.3333333), wk =   0.1111111
        k(   13) = (   0.3333333   0.3333333   0.0000000), wk =   0.0185185
        k(   14) = (   0.3333333   0.3333333   0.3333333), wk =   0.0185185
        k(   15) = (  -0.1666667  -0.1666667   0.3333333), wk =   0.0555556
        k(   16) = (  -0.1666667  -0.3333333   0.3333333), wk =   0.1111111
        k(   17) = (  -0.3333333  -0.3333333   0.3333333), wk =   0.0185185

     Dense  grid:   142753 G-vectors     FFT dimensions: (  72,  72,  75)

     Smooth grid:    50601 G-vectors     FFT dimensions: (  48,  48,  54)

     Dynamical RAM for                 wfc:       6.16 MB

     Dynamical RAM for     wfc (w. buffer):     215.74 MB

     Dynamical RAM for           str. fact:       6.53 MB

     Dynamical RAM for           local pot:       0.00 MB

     Dynamical RAM for          nlocal pot:      10.59 MB

     Dynamical RAM for                qrad:       5.27 MB

     Dynamical RAM for          rho,v,vnew:      30.87 MB

     Dynamical RAM for               rhoin:      10.29 MB

     Dynamical RAM for            rho*nmix:      69.70 MB

     Dynamical RAM for           G-vectors:       8.55 MB

     Dynamical RAM for          h,s,v(r/c):       0.75 MB

     Dynamical RAM for          <psi|beta>:       0.11 MB

     Dynamical RAM for                 psi:      12.33 MB

     Dynamical RAM for                hpsi:      12.33 MB

     Dynamical RAM for                spsi:      12.33 MB

     Dynamical RAM for      wfcinit/wfcrot:      12.42 MB

     Dynamical RAM for           addusdens:     420.40 MB

     Dynamical RAM for          addusforce:     442.23 MB

     Estimated static dynamical RAM per process >     314.37 MB

     Estimated max dynamical RAM per process >     826.30 MB

     Check: negative core charge=   -0.000009
     Generating pointlists ...
     new r_m :   0.1587 (alat units)  1.4998 (a.u.) for type    1
     new r_m :   0.1587 (alat units)  1.4998 (a.u.) for type    2
     new r_m :   0.1738 (alat units)  1.6433 (a.u.) for type    3

     Initial potential from superposition of free atoms

     starting charge      95.9928, renormalised to      96.0000
     Starting wfcs are   59 randomized atomic wfcs +    5 random wfcs
     Checking if some PAW data can be deallocated... 

     total cpu time spent up to now is        4.8 secs

     Self-consistent Calculation
[tb_dev] Currently allocated     9.94E-01 Mbytes, locked:    0 /   6
[tb_pin] Currently allocated     0.00E+00 Mbytes, locked:    0 /   0

     iteration #  1     ecut=    60.00 Ry     beta= 0.30
     Davidson diagonalization with overlap

---- Real-time Memory Report at c_bands before calling an iterative solver
           892 MiB given to the printing process from OS
             0 MiB allocation reported by mallinfo(arena+hblkhd)
        845532 MiB available memory on the node where the printing process lives
     GPU memory used/free/total (MiB): 1438 / 79712 / 81151
------------------
     ethr =  1.00E-02,  avg # of iterations = 10.0

     total cpu time spent up to now is        8.4 secs

     total energy              =   -1488.27396998 Ry
     estimated scf accuracy    <       6.32345913 Ry

     total magnetization       =    14.00 Bohr mag/cell
     absolute magnetization    =    14.00 Bohr mag/cell
[tb_dev] Currently allocated     7.63E-05 Mbytes, locked:    0 /   2
[tb_pin] Currently allocated     0.00E+00 Mbytes, locked:    0 /   0

     iteration #  2     ecut=    60.00 Ry     beta= 0.30
     Davidson diagonalization with overlap

---- Real-time Memory Report at c_bands before calling an iterative solver
           946 MiB given to the printing process from OS
             0 MiB allocation reported by mallinfo(arena+hblkhd)
        845099 MiB available memory on the node where the printing process lives
     GPU memory used/free/total (MiB): 1486 / 79664 / 81151
------------------
     ethr =  6.59E-03,  avg # of iterations =  1.9

     total cpu time spent up to now is       10.7 secs

     total energy              =   -1488.58495696 Ry
     estimated scf accuracy    <       1.11523202 Ry

     total magnetization       =    11.00 Bohr mag/cell
     absolute magnetization    =    11.00 Bohr mag/cell
[tb_dev] Currently allocated     7.63E-05 Mbytes, locked:    0 /   2
[tb_pin] Currently allocated     0.00E+00 Mbytes, locked:    0 /   0

     iteration #  3     ecut=    60.00 Ry     beta= 0.30
     Davidson diagonalization with overlap

---- Real-time Memory Report at c_bands before calling an iterative solver
           949 MiB given to the printing process from OS
             0 MiB allocation reported by mallinfo(arena+hblkhd)
        845055 MiB available memory on the node where the printing process lives
     GPU memory used/free/total (MiB): 1486 / 79664 / 81151
------------------
     ethr =  1.16E-03,  avg # of iterations =  2.5

     total cpu time spent up to now is       13.1 secs

     total energy              =   -1488.88028807 Ry
     estimated scf accuracy    <       2.21481370 Ry

     total magnetization       =     5.47 Bohr mag/cell
     absolute magnetization    =     5.85 Bohr mag/cell
[tb_dev] Currently allocated     7.63E-05 Mbytes, locked:    0 /   2
[tb_pin] Currently allocated     0.00E+00 Mbytes, locked:    0 /   0

     iteration #  4     ecut=    60.00 Ry     beta= 0.30
     Davidson diagonalization with overlap

---- Real-time Memory Report at c_bands before calling an iterative solver
           954 MiB given to the printing process from OS
             0 MiB allocation reported by mallinfo(arena+hblkhd)
        845055 MiB available memory on the node where the printing process lives
     GPU memory used/free/total (MiB): 1486 / 79664 / 81151
------------------
     ethr =  1.16E-03,  avg # of iterations =  1.3

     total cpu time spent up to now is       15.4 secs

     total energy              =   -1488.92191829 Ry
     estimated scf accuracy    <       0.92736741 Ry

     total magnetization       =     5.47 Bohr mag/cell
     absolute magnetization    =     5.84 Bohr mag/cell
[tb_dev] Currently allocated     7.63E-05 Mbytes, locked:    0 /   2
[tb_pin] Currently allocated     0.00E+00 Mbytes, locked:    0 /   0

     iteration #  5     ecut=    60.00 Ry     beta= 0.30
     Davidson diagonalization with overlap

---- Real-time Memory Report at c_bands before calling an iterative solver
           957 MiB given to the printing process from OS
             0 MiB allocation reported by mallinfo(arena+hblkhd)
        845058 MiB available memory on the node where the printing process lives
     GPU memory used/free/total (MiB): 1486 / 79664 / 81151
------------------
     ethr =  9.66E-04,  avg # of iterations =  1.1

     total cpu time spent up to now is       17.7 secs

     total energy              =   -1489.03224452 Ry
     estimated scf accuracy    <       0.59237423 Ry

     total magnetization       =     7.19 Bohr mag/cell
     absolute magnetization    =     7.32 Bohr mag/cell
[tb_dev] Currently allocated     7.63E-05 Mbytes, locked:    0 /   2
[tb_pin] Currently allocated     0.00E+00 Mbytes, locked:    0 /   0

     iteration #  6     ecut=    60.00 Ry     beta= 0.30
     Davidson diagonalization with overlap

---- Real-time Memory Report at c_bands before calling an iterative solver
           962 MiB given to the printing process from OS
             0 MiB allocation reported by mallinfo(arena+hblkhd)
        845115 MiB available memory on the node where the printing process lives
     GPU memory used/free/total (MiB): 1486 / 79664 / 81151
------------------
     ethr =  6.17E-04,  avg # of iterations =  1.3

     total cpu time spent up to now is       19.9 secs

     total energy              =   -1489.25530164 Ry
     estimated scf accuracy    <       0.49943187 Ry

     total magnetization       =     2.35 Bohr mag/cell
     absolute magnetization    =     3.72 Bohr mag/cell
[tb_dev] Currently allocated     7.63E-05 Mbytes, locked:    0 /   2
[tb_pin] Currently allocated     0.00E+00 Mbytes, locked:    0 /   0

     iteration #  7     ecut=    60.00 Ry     beta= 0.30
     Davidson diagonalization with overlap

---- Real-time Memory Report at c_bands before calling an iterative solver
           967 MiB given to the printing process from OS
             0 MiB allocation reported by mallinfo(arena+hblkhd)
        845122 MiB available memory on the node where the printing process lives
     GPU memory used/free/total (MiB): 1486 / 79664 / 81151
------------------
     ethr =  5.20E-04,  avg # of iterations =  1.1

     total cpu time spent up to now is       22.2 secs

     total energy              =   -1489.25767970 Ry
     estimated scf accuracy    <       0.36824012 Ry

     total magnetization       =     2.04 Bohr mag/cell
     absolute magnetization    =     2.76 Bohr mag/cell
[tb_dev] Currently allocated     7.63E-05 Mbytes, locked:    0 /   2
[tb_pin] Currently allocated     0.00E+00 Mbytes, locked:    0 /   0

     iteration #  8     ecut=    60.00 Ry     beta= 0.30
     Davidson diagonalization with overlap

---- Real-time Memory Report at c_bands before calling an iterative solver
           981 MiB given to the printing process from OS
             0 MiB allocation reported by mallinfo(arena+hblkhd)
        845036 MiB available memory on the node where the printing process lives
     GPU memory used/free/total (MiB): 1486 / 79664 / 81151
------------------
     ethr =  3.84E-04,  avg # of iterations =  1.7

     total cpu time spent up to now is       24.6 secs

     total energy              =   -1489.27312336 Ry
     estimated scf accuracy    <       0.14524380 Ry

     total magnetization       =     2.02 Bohr mag/cell
     absolute magnetization    =     2.65 Bohr mag/cell
[tb_dev] Currently allocated     7.63E-05 Mbytes, locked:    0 /   2
[tb_pin] Currently allocated     0.00E+00 Mbytes, locked:    0 /   0

     iteration #  9     ecut=    60.00 Ry     beta= 0.30
     Davidson diagonalization with overlap

---- Real-time Memory Report at c_bands before calling an iterative solver
           985 MiB given to the printing process from OS
             0 MiB allocation reported by mallinfo(arena+hblkhd)
        844999 MiB available memory on the node where the printing process lives
     GPU memory used/free/total (MiB): 1486 / 79664 / 81151
------------------
     c_bands:  1 eigenvalues not converged
     ethr =  1.51E-04,  avg # of iterations =  3.6

     total cpu time spent up to now is       27.2 secs

     total energy              =   -1489.28301969 Ry
     estimated scf accuracy    <       0.02542054 Ry

     total magnetization       =     2.19 Bohr mag/cell
     absolute magnetization    =     2.43 Bohr mag/cell
[tb_dev] Currently allocated     7.63E-05 Mbytes, locked:    0 /   2
[tb_pin] Currently allocated     0.00E+00 Mbytes, locked:    0 /   0

     iteration # 10     ecut=    60.00 Ry     beta= 0.30
     Davidson diagonalization with overlap

---- Real-time Memory Report at c_bands before calling an iterative solver
           985 MiB given to the printing process from OS
             0 MiB allocation reported by mallinfo(arena+hblkhd)
        844980 MiB available memory on the node where the printing process lives
     GPU memory used/free/total (MiB): 1486 / 79664 / 81151
------------------
     c_bands:  1 eigenvalues not converged
     ethr =  2.65E-05,  avg # of iterations = 13.0

     total cpu time spent up to now is       31.3 secs

     total energy              =   -1489.28795642 Ry
     estimated scf accuracy    <       0.00666928 Ry

     total magnetization       =     2.34 Bohr mag/cell
     absolute magnetization    =     2.39 Bohr mag/cell
[tb_dev] Currently allocated     7.63E-05 Mbytes, locked:    0 /   2
[tb_pin] Currently allocated     0.00E+00 Mbytes, locked:    0 /   0

     iteration # 11     ecut=    60.00 Ry     beta= 0.30
     Davidson diagonalization with overlap

---- Real-time Memory Report at c_bands before calling an iterative solver
           985 MiB given to the printing process from OS
             0 MiB allocation reported by mallinfo(arena+hblkhd)
        844957 MiB available memory on the node where the printing process lives
     GPU memory used/free/total (MiB): 1486 / 79664 / 81151
------------------
     c_bands:  1 eigenvalues not converged
     c_bands:  1 eigenvalues not converged
     ethr =  6.95E-06,  avg # of iterations =  6.9

     total cpu time spent up to now is       34.4 secs

     total energy              =   -1489.28865755 Ry
     estimated scf accuracy    <       0.00494995 Ry

     total magnetization       =     2.35 Bohr mag/cell
     absolute magnetization    =     2.38 Bohr mag/cell
[tb_dev] Currently allocated     7.63E-05 Mbytes, locked:    0 /   2
[tb_pin] Currently allocated     0.00E+00 Mbytes, locked:    0 /   0

     iteration # 12     ecut=    60.00 Ry     beta= 0.30
     Davidson diagonalization with overlap

---- Real-time Memory Report at c_bands before calling an iterative solver
           985 MiB given to the printing process from OS
             0 MiB allocation reported by mallinfo(arena+hblkhd)
        844927 MiB available memory on the node where the printing process lives
     GPU memory used/free/total (MiB): 1486 / 79664 / 81151
------------------
     ethr =  5.16E-06,  avg # of iterations =  2.4

     total cpu time spent up to now is       36.8 secs

     total energy              =   -1489.28917494 Ry
     estimated scf accuracy    <       0.00028620 Ry

     total magnetization       =     2.28 Bohr mag/cell
     absolute magnetization    =     2.32 Bohr mag/cell
[tb_dev] Currently allocated     7.63E-05 Mbytes, locked:    0 /   2
[tb_pin] Currently allocated     0.00E+00 Mbytes, locked:    0 /   0

     iteration # 13     ecut=    60.00 Ry     beta= 0.30
     Davidson diagonalization with overlap

---- Real-time Memory Report at c_bands before calling an iterative solver
           985 MiB given to the printing process from OS
             0 MiB allocation reported by mallinfo(arena+hblkhd)
        844957 MiB available memory on the node where the printing process lives
     GPU memory used/free/total (MiB): 1486 / 79664 / 81151
------------------
     c_bands:  2 eigenvalues not converged
     ethr =  2.98E-07,  avg # of iterations = 10.7

     total cpu time spent up to now is       40.7 secs

     total energy              =   -1489.28961457 Ry
     estimated scf accuracy    <       0.00026747 Ry

     total magnetization       =     2.32 Bohr mag/cell
     absolute magnetization    =     2.35 Bohr mag/cell
[tb_dev] Currently allocated     7.63E-05 Mbytes, locked:    0 /   2
[tb_pin] Currently allocated     0.00E+00 Mbytes, locked:    0 /   0

     iteration # 14     ecut=    60.00 Ry     beta= 0.30
     Davidson diagonalization with overlap

---- Real-time Memory Report at c_bands before calling an iterative solver
           985 MiB given to the printing process from OS
             0 MiB allocation reported by mallinfo(arena+hblkhd)
        844944 MiB available memory on the node where the printing process lives
     GPU memory used/free/total (MiB): 1486 / 79664 / 81151
------------------
     ethr =  2.79E-07,  avg # of iterations =  1.5

     total cpu time spent up to now is       43.0 secs

     total energy              =   -1489.28960991 Ry
     estimated scf accuracy    <       0.00007699 Ry

     total magnetization       =     2.30 Bohr mag/cell
     absolute magnetization    =     2.34 Bohr mag/cell
[tb_dev] Currently allocated     7.63E-05 Mbytes, locked:    0 /   2
[tb_pin] Currently allocated     0.00E+00 Mbytes, locked:    0 /   0

     iteration # 15     ecut=    60.00 Ry     beta= 0.30
     Davidson diagonalization with overlap

---- Real-time Memory Report at c_bands before calling an iterative solver
           985 MiB given to the printing process from OS
             0 MiB allocation reported by mallinfo(arena+hblkhd)
        844970 MiB available memory on the node where the printing process lives
     GPU memory used/free/total (MiB): 1486 / 79664 / 81151
------------------
     ethr =  8.02E-08,  avg # of iterations =  2.0

     total cpu time spent up to now is       45.3 secs

     total energy              =   -1489.28962766 Ry
     estimated scf accuracy    <       0.00003081 Ry

     total magnetization       =     2.31 Bohr mag/cell
     absolute magnetization    =     2.35 Bohr mag/cell
[tb_dev] Currently allocated     7.63E-05 Mbytes, locked:    0 /   2
[tb_pin] Currently allocated     0.00E+00 Mbytes, locked:    0 /   0

     iteration # 16     ecut=    60.00 Ry     beta= 0.30
     Davidson diagonalization with overlap

---- Real-time Memory Report at c_bands before calling an iterative solver
           985 MiB given to the printing process from OS
             0 MiB allocation reported by mallinfo(arena+hblkhd)
        844953 MiB available memory on the node where the printing process lives
     GPU memory used/free/total (MiB): 1486 / 79664 / 81151
------------------
     ethr =  3.21E-08,  avg # of iterations =  3.6

     total cpu time spent up to now is       47.8 secs

     total energy              =   -1489.28962844 Ry
     estimated scf accuracy    <       0.00000406 Ry

     total magnetization       =     2.30 Bohr mag/cell
     absolute magnetization    =     2.34 Bohr mag/cell
[tb_dev] Currently allocated     7.63E-05 Mbytes, locked:    0 /   2
[tb_pin] Currently allocated     0.00E+00 Mbytes, locked:    0 /   0

     iteration # 17     ecut=    60.00 Ry     beta= 0.30
     Davidson diagonalization with overlap

---- Real-time Memory Report at c_bands before calling an iterative solver
           986 MiB given to the printing process from OS
             0 MiB allocation reported by mallinfo(arena+hblkhd)
        845491 MiB available memory on the node where the printing process lives
     GPU memory used/free/total (MiB): 1486 / 79664 / 81151
------------------
     ethr =  4.23E-09,  avg # of iterations = 10.0

     total cpu time spent up to now is       51.6 secs

     total energy              =   -1489.28963192 Ry
     estimated scf accuracy    <       0.00000534 Ry

     total magnetization       =     2.30 Bohr mag/cell
     absolute magnetization    =     2.34 Bohr mag/cell
[tb_dev] Currently allocated     7.63E-05 Mbytes, locked:    0 /   2
[tb_pin] Currently allocated     0.00E+00 Mbytes, locked:    0 /   0

     iteration # 18     ecut=    60.00 Ry     beta= 0.30
     Davidson diagonalization with overlap

---- Real-time Memory Report at c_bands before calling an iterative solver
           986 MiB given to the printing process from OS
             0 MiB allocation reported by mallinfo(arena+hblkhd)
        845138 MiB available memory on the node where the printing process lives
     GPU memory used/free/total (MiB): 1486 / 79664 / 81151
------------------
     ethr =  4.23E-09,  avg # of iterations =  1.1

     total cpu time spent up to now is       53.9 secs

     total energy              =   -1489.28963168 Ry
     estimated scf accuracy    <       0.00000152 Ry

     total magnetization       =     2.30 Bohr mag/cell
     absolute magnetization    =     2.34 Bohr mag/cell
[tb_dev] Currently allocated     7.63E-05 Mbytes, locked:    0 /   2
[tb_pin] Currently allocated     0.00E+00 Mbytes, locked:    0 /   0

     iteration # 19     ecut=    60.00 Ry     beta= 0.30
     Davidson diagonalization with overlap

---- Real-time Memory Report at c_bands before calling an iterative solver
           986 MiB given to the printing process from OS
             0 MiB allocation reported by mallinfo(arena+hblkhd)
        844924 MiB available memory on the node where the printing process lives
     GPU memory used/free/total (MiB): 1486 / 79664 / 81151
------------------
     ethr =  1.58E-09,  avg # of iterations =  2.8

     total cpu time spent up to now is       56.5 secs

     total energy              =   -1489.28963187 Ry
     estimated scf accuracy    <       0.00000013 Ry

     total magnetization       =     2.30 Bohr mag/cell
     absolute magnetization    =     2.34 Bohr mag/cell
[tb_dev] Currently allocated     7.63E-05 Mbytes, locked:    0 /   2
[tb_pin] Currently allocated     0.00E+00 Mbytes, locked:    0 /   0

     iteration # 20     ecut=    60.00 Ry     beta= 0.30
     Davidson diagonalization with overlap

---- Real-time Memory Report at c_bands before calling an iterative solver
           986 MiB given to the printing process from OS
             0 MiB allocation reported by mallinfo(arena+hblkhd)
        845340 MiB available memory on the node where the printing process lives
     GPU memory used/free/total (MiB): 1486 / 79664 / 81151
------------------
     ethr =  1.40E-10,  avg # of iterations = 10.1

     total cpu time spent up to now is       60.2 secs

     total energy              =   -1489.28963197 Ry
     estimated scf accuracy    <       0.00000012 Ry

     total magnetization       =     2.30 Bohr mag/cell
     absolute magnetization    =     2.34 Bohr mag/cell
[tb_dev] Currently allocated     7.63E-05 Mbytes, locked:    0 /   2
[tb_pin] Currently allocated     0.00E+00 Mbytes, locked:    0 /   0

     iteration # 21     ecut=    60.00 Ry     beta= 0.30
     Davidson diagonalization with overlap

---- Real-time Memory Report at c_bands before calling an iterative solver
           986 MiB given to the printing process from OS
             0 MiB allocation reported by mallinfo(arena+hblkhd)
        844934 MiB available memory on the node where the printing process lives
     GPU memory used/free/total (MiB): 1486 / 79664 / 81151
------------------
     ethr =  1.25E-10,  avg # of iterations =  1.1
 
     Magnetic moment per site  (integrated on atomic sphere of radius R)
     atom   1 (R=0.159)  charge= 14.1365  magn=  0.5274
     atom   2 (R=0.159)  charge= 14.0912  magn=  0.6140
     atom   3 (R=0.159)  charge= 14.0912  magn=  0.6140
     atom   4 (R=0.159)  charge=  5.2177  magn=  0.0666
     atom   5 (R=0.159)  charge=  5.2177  magn=  0.0666
     atom   6 (R=0.159)  charge=  5.2177  magn=  0.0666
     atom   7 (R=0.159)  charge=  5.2604  magn=  0.0585
     atom   8 (R=0.159)  charge=  5.2604  magn=  0.0585
     atom   9 (R=0.159)  charge=  5.2604  magn=  0.0585
     atom  10 (R=0.174)  charge=  7.8590  magn=  0.0006

     total cpu time spent up to now is       62.4 secs

     End of self-consistent calculation

 ------ SPIN UP ------------


          k = 0.0000 0.0000 0.0000 (  6307 PWs)   bands (ev):

   -89.5884 -89.5846 -89.4126 -52.8318 -52.8255 -52.8180 -52.8180 -52.7955
   -52.7955 -52.6864 -52.6864 -52.5947 -43.5983 -15.7332 -15.5389 -15.5389
   -13.0259 -11.4238 -11.4238 -11.2946 -11.2946 -11.0823   0.6031   0.7646
     0.7646   0.9670   0.9670   1.1384   1.1384   1.2006   1.3270   2.8202
     2.8202   2.9552   2.9552   3.2656   3.3583   4.5930   4.5973   4.6496
     4.6496   4.6963   4.8179   4.8179   5.7150   5.7150   5.7483   5.7483
     5.8355   7.7512   7.7512   7.8451   7.8451   8.5594   8.5594  11.7350
    15.9013  17.2254  18.3663  18.3663  18.5603  18.6685  18.7760  18.7760

     occupation numbers 
     1.0000   1.0000   1.0000   1.0000   1.0000   1.0000   1.0000   1.0000
     1.0000   1.0000   1.0000   1.0000   1.0000   1.0000   1.0000   1.0000
     1.0000   1.0000   1.0000   1.0000   1.0000   1.0000   1.0000   1.0000
     1.0000   1.0000   1.0000   1.0000   1.0000   1.0000   1.0000   1.0000
     1.0000   1.0000   1.0000   1.0000   1.0000   1.0000   1.0000   1.0000
     1.0000   1.0000   1.0000   1.0000   1.0197   1.0197   1.0275   1.0275
     1.0549   0.0000   0.0000   0.0000   0.0000   0.0000   0.0000   0.0000
     0.0000   0.0000   0.0000   0.0000   0.0000   0.0000   0.0000   0.0000

          k = 0.0000 0.0000 0.3032 (  6332 PWs)   bands (ev):

   -89.5884 -89.5846 -89.4126 -52.8317 -52.8258 -52.8180 -52.8180 -52.7956
   -52.7956 -52.6865 -52.6865 -52.5948 -43.5983 -15.7419 -15.5389 -15.5389
   -12.9865 -11.4241 -11.4241 -11.2941 -11.2941 -11.1278   0.7504   0.7504
     0.7999   0.9418   0.9418   1.1396   1.1396   1.2525   1.3548   2.8376
     2.8376   2.9788   2.9788   3.1906   3.3140   4.1653   4.6003   4.6497
     4.6497   4.6999   4.8116   4.8116   5.6996   5.6996   5.7349   5.7349
     5.9320   7.7978   7.7978   7.9041   7.9041   8.5656   8.5656  12.6172
    14.8977  17.2242  18.3194  18.4055  18.4055  18.4364  18.8293  18.8294

     occupation numbers 
     1.0000   1.0000   1.0000   1.0000   1.0000   1.0000   1.0000   1.0000
     1.0000   1.0000   1.0000   1.0000   1.0000   1.0000   1.0000   1.0000
     1.0000   1.0000   1.0000   1.0000   1.0000   1.0000   1.0000   1.0000
     1.0000   1.0000   1.0000   1.0000   1.0000   1.0000   1.0000   1.0000
     1.0000   1.0000   1.0000   1.0000   1.0000   1.0000   1.0000   1.0000
     1.0000   1.0000   1.0000   1.0000   1.0167   1.0167   1.0242   1.0242
     1.0818   0.0000   0.0000   0.0000   0.0000   0.0000   0.0000   0.0000
     0.0000   0.0000   0.0000   0.0000   0.0000   0.0000   0.0000   0.0000

          k = 0.0000 0.1925 0.0000 (  6330 PWs)   bands (ev):

   -89.5882 -89.5849 -89.4126 -52.8315 -52.8260 -52.8196 -52.8176 -52.7952
   -52.7940 -52.6873 -52.6864 -52.5948 -43.5983 -15.7317 -15.5409 -15.5394
   -12.9234 -11.5250 -11.4577 -11.3121 -11.2707 -11.0889   0.4218   0.6501
     0.7525   0.8756   1.0064   1.0570   1.2025   1.6329   1.8380   2.5809
     2.6353   2.7420   2.8528   3.5739   3.6560   3.9713   4.0965   4.7031
     4.7594   4.8189   5.0488   5.2604   5.4647   5.4808   5.8297   5.8860
     5.9038   7.7577   7.8337   7.8635   7.9282   8.3070   8.4874  12.0906
    16.2737  17.0128  17.4152  17.7323  17.9900  19.1389  19.4265  19.4597

     occupation numbers 
     1.0000   1.0000   1.0000   1.0000   1.0000   1.0000   1.0000   1.0000
     1.0000   1.0000   1.0000   1.0000   1.0000   1.0000   1.0000   1.0000
     1.0000   1.0000   1.0000   1.0000   1.0000   1.0000   1.0000   1.0000
     1.0000   1.0000   1.0000   1.0000   1.0000   1.0000   1.0000   1.0000
     1.0000   1.0000   1.0000   1.0000   1.0000   1.0000   1.0000   1.0000
     1.0000   1.0000   1.0000   1.0000   1.0005   1.0007   1.0529   1.0715
     1.0764   0.0000   0.0000   0.0000   0.0000   0.0000   0.0000   0.0000
     0.0000   0.0000   0.0000   0.0000   0.0000   0.0000   0.0000   0.0000

          k = 0.0000 0.1925 0.3032 (  6320 PWs)   bands (ev):

   -89.5882 -89.5849 -89.4126 -52.8313 -52.8261 -52.8195 -52.8177 -52.7952
   -52.7940 -52.6872 -52.6864 -52.5948 -43.5982 -15.7393 -15.5406 -15.5392
   -12.8875 -11.5244 -11.4586 -11.3109 -11.2708 -11.1303   0.4183   0.6551
     0.8419   0.9162   0.9812   1.0473   1.2043   1.6566   1.8569   2.5633
     2.6172   2.7767   2.8797   3.5873   3.6462   3.9699   4.0710   4.4297
     4.7045   4.8170   5.0460   5.2431   5.4668   5.4844   5.8034   5.8717
     5.9956   7.8018   7.8604   7.9068   7.9702   8.2897   8.4951  12.8927
    15.2334  16.8633  17.5179  17.6597  17.8364  19.2030  19.4602  19.5911

     occupation numbers 
     1.0000   1.0000   1.0000   1.0000   1.0000   1.0000   1.0000   1.0000
     1.0000   1.0000   1.0000   1.0000   1.0000   1.0000   1.0000   1.0000
     1.0000   1.0000   1.0000   1.0000   1.0000   1.0000   1.0000   1.0000
     1.0000   1.0000   1.0000   1.0000   1.0000   1.0000   1.0000   1.0000
     1.0000   1.0000   1.0000   1.0000   1.0000   1.0000   1.0000   1.0000
     1.0000   1.0000   1.0000   1.0000   1.0006   1.0008   1.0440   1.0672
     1.0770   0.0000   0.0000   0.0000   0.0000   0.0000   0.0000   0.0000
     0.0000   0.0000   0.0000   0.0000   0.0000   0.0000   0.0000   0.0000

          k = 0.0000 0.3849 0.0000 (  6318 PWs)   bands (ev):

   -89.5876 -89.5854 -89.4126 -52.8305 -52.8270 -52.8222 -52.8146 -52.7969
   -52.7915 -52.6884 -52.6863 -52.5948 -43.5983 -15.7282 -15.5446 -15.5404
   -12.6384 -11.8270 -11.4987 -11.3584 -11.2115 -11.1103   0.0197   0.7937
     0.8883   0.9354   1.0791   1.2672   1.3618   1.8428   2.1304   2.3718
     2.4817   2.5891   2.9548   3.0000   3.4535   3.8219   4.2132   4.8167
     4.9476   5.1249   5.2055   5.2108   5.2387   5.6504   5.6810   5.8752
     5.9694   7.7902   7.8297   7.8873   7.9003   8.2462   8.2691  12.9818
    15.4753  16.9956  17.1936  17.6389  17.9415  18.9179  19.2681  19.3681

     occupation numbers 
     1.0000   1.0000   1.0000   1.0000   1.0000   1.0000   1.0000   1.0000
     1.0000   1.0000   1.0000   1.0000   1.0000   1.0000   1.0000   1.0000
     1.0000   1.0000   1.0000   1.0000   1.0000   1.0000   1.0000   1.0000
     1.0000   1.0000   1.0000   1.0000   1.0000   1.0000   1.0000   1.0000
     1.0000   1.0000   1.0000   1.0000   1.0000   1.0000   1.0000   1.0000
     1.0000   1.0000   1.0000   1.0000   1.0000   1.0094   1.0135   1.0683
     1.0825   0.0000   0.0000   0.0000   0.0000   0.0000   0.0000   0.0000
     0.0000   0.0000   0.0000   0.0000   0.0000   0.0000   0.0000   0.0000

          k = 0.0000 0.3849 0.3032 (  6304 PWs)   bands (ev):

   -89.5876 -89.5854 -89.4126 -52.8304 -52.8270 -52.8220 -52.8147 -52.7968
   -52.7915 -52.6884 -52.6863 -52.5949 -43.5982 -15.7344 -15.5439 -15.5401
   -12.6114 -11.8207 -11.5007 -11.3554 -11.2163 -11.1417   0.0134   0.7444
     0.8351   0.8984   1.2182   1.2408   1.3644   1.8543   2.0985   2.4701
     2.5126   2.5879   2.9717   3.0232   3.4491   3.9022   4.2185   4.7557
     4.8159   5.1211   5.2132   5.2169   5.2495   5.6059   5.6586   5.9219
     5.9737   7.7507   7.8218   7.8570   7.9334   8.2535   8.2937  13.5523
    15.4597  16.1252  16.8454  17.3166  18.5035  18.6101  18.9775  19.7513

     occupation numbers 
     1.0000   1.0000   1.0000   1.0000   1.0000   1.0000   1.0000   1.0000
     1.0000   1.0000   1.0000   1.0000   1.0000   1.0000   1.0000   1.0000
     1.0000   1.0000   1.0000   1.0000   1.0000   1.0000   1.0000   1.0000
     1.0000   1.0000   1.0000   1.0000   1.0000   1.0000   1.0000   1.0000
     1.0000   1.0000   1.0000   1.0000   1.0000   1.0000   1.0000   1.0000
     1.0000   1.0000   1.0000   1.0000   1.0000   1.0052   1.0104   1.0802
     1.0820   0.0000   0.0000   0.0000   0.0000   0.0000   0.0000   0.0000
     0.0000   0.0000   0.0000   0.0000   0.0000   0.0000   0.0000   0.0000

          k = 0.0000-0.5774 0.0000 (  6336 PWs)   bands (ev):

   -89.5871 -89.5859 -89.4126 -52.8298 -52.8278 -52.8232 -52.8115 -52.7997
   -52.7905 -52.6889 -52.6864 -52.5948 -43.5983 -15.7265 -15.5467 -15.5409
   -12.2497 -12.2259 -11.5156 -11.3811 -11.1667 -11.1388  -0.1290   0.8036
     0.8696   1.2499   1.2653   1.5704   1.5860   1.6230   1.7681   2.2387
     2.3494   2.5268   2.8928   2.9028   3.3452   3.9035   4.7141   4.7741
     4.8252   5.0838   5.1385   5.1599   5.5317   5.6220   5.6653   5.8777
     5.9043   7.7055   7.7920   7.8534   7.9633   8.0489   8.4471  14.1092
    14.1810  16.6998  17.3042  18.3129  18.4104  18.5389  18.7171  18.8162

     occupation numbers 
     1.0000   1.0000   1.0000   1.0000   1.0000   1.0000   1.0000   1.0000
     1.0000   1.0000   1.0000   1.0000   1.0000   1.0000   1.0000   1.0000
     1.0000   1.0000   1.0000   1.0000   1.0000   1.0000   1.0000   1.0000
     1.0000   1.0000   1.0000   1.0000   1.0000   1.0000   1.0000   1.0000
     1.0000   1.0000   1.0000   1.0000   1.0000   1.0000   1.0000   1.0000
     1.0000   1.0000   1.0000   1.0000   1.0017   1.0065   1.0113   1.0690
     1.0765   0.0000   0.0000   0.0000   0.0000   0.0000   0.0000   0.0000
     0.0000   0.0000   0.0000   0.0000   0.0000   0.0000   0.0000   0.0000

          k = 0.0000-0.5774 0.3032 (  6310 PWs)   bands (ev):

   -89.5871 -89.5859 -89.4126 -52.8297 -52.8278 -52.8232 -52.8114 -52.7998
   -52.7904 -52.6889 -52.6863 -52.5949 -43.5982 -15.7320 -15.5456 -15.5407
   -12.2264 -12.2173 -11.5178 -11.3777 -11.1706 -11.1687  -0.1363   0.7107
     0.8016   1.2541   1.2648   1.5138   1.6029   1.6935   1.7706   2.3530
     2.4393   2.5612   2.8836   2.9007   3.3505   4.0150   4.6870   4.7267
     4.8188   5.0837   5.1404   5.1675   5.5176   5.6658   5.7029   5.8173
     5.8548   7.6005   7.6922   7.8632   8.0132   8.0984   8.4384  14.3840
    14.4287  16.4790  17.0375  17.3367  17.4055  18.6474  19.5382  19.7965

     occupation numbers 
     1.0000   1.0000   1.0000   1.0000   1.0000   1.0000   1.0000   1.0000
     1.0000   1.0000   1.0000   1.0000   1.0000   1.0000   1.0000   1.0000
     1.0000   1.0000   1.0000   1.0000   1.0000   1.0000   1.0000   1.0000
     1.0000   1.0000   1.0000   1.0000   1.0000   1.0000   1.0000   1.0000
     1.0000   1.0000   1.0000   1.0000   1.0000   1.0000   1.0000   1.0000
     1.0000   1.0000   1.0000   1.0000   1.0014   1.0113   1.0173   1.0487
     1.0615   0.0000   0.0000   0.0000   0.0000   0.0000   0.0000   0.0000
     0.0000   0.0000   0.0000   0.0000   0.0000   0.0000   0.0000   0.0000

          k = 0.1667 0.2887 0.0000 (  6317 PWs)   bands (ev):

   -89.5878 -89.5853 -89.4126 -52.8308 -52.8266 -52.8208 -52.8164 -52.7963
   -52.7920 -52.6881 -52.6864 -52.5948 -43.5983 -15.7290 -15.5434 -15.5405
   -12.7296 -11.6315 -11.6305 -11.2672 -11.2658 -11.1033   0.3454   0.3686
     0.8993   0.9897   1.0575   1.1205   1.3279   1.9748   2.0245   2.4947
     2.5271   2.6575   2.7325   3.1358   3.7749   3.9078   3.9086   4.8123
     4.9100   4.9890   5.2380   5.2785   5.2811   5.4876   5.8493   5.8500
     5.9040   7.7629   7.8327   7.8932   8.0197   8.0857   8.4143  12.7017
    16.2205  16.2953  17.0208  17.7645  18.7166  18.8198  19.2534  19.3001

     occupation numbers 
     1.0000   1.0000   1.0000   1.0000   1.0000   1.0000   1.0000   1.0000
     1.0000   1.0000   1.0000   1.0000   1.0000   1.0000   1.0000   1.0000
     1.0000   1.0000   1.0000   1.0000   1.0000   1.0000   1.0000   1.0000
     1.0000   1.0000   1.0000   1.0000   1.0000   1.0000   1.0000   1.0000
     1.0000   1.0000   1.0000   1.0000   1.0000   1.0000   1.0000   1.0000
     1.0000   1.0000   1.0000   1.0000   1.0000   1.0008   1.0596   1.0599
     1.0764   0.0000   0.0000   0.0000   0.0000   0.0000   0.0000   0.0000
     0.0000   0.0000   0.0000   0.0000   0.0000   0.0000   0.0000   0.0000

          k = 0.1667 0.2887 0.3032 (  6308 PWs)   bands (ev):

   -89.5877 -89.5853 -89.4126 -52.8307 -52.8268 -52.8208 -52.8163 -52.7963
   -52.7919 -52.6880 -52.6864 -52.5949 -43.5982 -15.7357 -15.5427 -15.5403
   -12.6996 -11.6297 -11.6238 -11.2742 -11.2654 -11.1378   0.3350   0.3632
     0.8339   1.0181   1.0816   1.1589   1.3288   1.9559   2.0110   2.5601
     2.5747   2.6555   2.7488   3.1547   3.7726   3.9465   3.9578   4.6244
     4.9083   4.9879   5.1473   5.2823   5.2861   5.4889   5.8262   5.8301
     6.0202   7.7487   7.8150   7.8279   8.0464   8.1100   8.4125  13.4108
    15.7523  16.3198  16.3665  18.1544  18.2557  18.4469  19.2616  19.4049

     occupation numbers 
     1.0000   1.0000   1.0000   1.0000   1.0000   1.0000   1.0000   1.0000
     1.0000   1.0000   1.0000   1.0000   1.0000   1.0000   1.0000   1.0000
     1.0000   1.0000   1.0000   1.0000   1.0000   1.0000   1.0000   1.0000
     1.0000   1.0000   1.0000   1.0000   1.0000   1.0000   1.0000   1.0000
     1.0000   1.0000   1.0000   1.0000   1.0000   1.0000   1.0000   1.0000
     1.0000   1.0000   1.0000   1.0000   1.0000   1.0008   1.0517   1.0530
     1.0661   0.0000   0.0000   0.0000   0.0000   0.0000   0.0000   0.0000
     0.0000   0.0000   0.0000   0.0000   0.0000   0.0000   0.0000   0.0000

          k = 0.1667 0.4811 0.0000 (  6294 PWs)   bands (ev):

   -89.5871 -89.5859 -89.4126 -52.8297 -52.8276 -52.8217 -52.8123 -52.8006
   -52.7902 -52.6884 -52.6865 -52.5948 -43.5983 -15.7264 -15.5456 -15.5416
   -12.3874 -11.9830 -11.7012 -11.2771 -11.1955 -11.1347   0.0960   0.6047
     0.7882   1.1904   1.3105   1.3779   1.5117   1.7846   1.8443   2.2016
     2.3237   2.4769   2.9273   3.1806   3.3366   4.0064   4.3976   4.7719
     4.9798   5.1630   5.1928   5.2452   5.3865   5.6218   5.6356   5.8165
     5.8375   7.6042   7.6884   7.7965   8.1580   8.2907   8.3668  13.6868
    14.8900  15.8261  17.8390  18.3262  18.3486  18.6582  18.8338  19.0923

     occupation numbers 
     1.0000   1.0000   1.0000   1.0000   1.0000   1.0000   1.0000   1.0000
     1.0000   1.0000   1.0000   1.0000   1.0000   1.0000   1.0000   1.0000
     1.0000   1.0000   1.0000   1.0000   1.0000   1.0000   1.0000   1.0000
     1.0000   1.0000   1.0000   1.0000   1.0000   1.0000   1.0000   1.0000
     1.0000   1.0000   1.0000   1.0000   1.0000   1.0000   1.0000   1.0000
     1.0000   1.0000   1.0000   1.0000   1.0001   1.0065   1.0077   1.0484
     1.0556   0.0000   0.0000   0.0000   0.0000   0.0000   0.0000   0.0000
     0.0000   0.0000   0.0000   0.0000   0.0000   0.0000   0.0000   0.0000

          k = 0.1667 0.4811 0.3032 (  6307 PWs)   bands (ev):

   -89.5871 -89.5859 -89.4126 -52.8297 -52.8278 -52.8218 -52.8123 -52.8006
   -52.7902 -52.6884 -52.6865 -52.5949 -43.5982 -15.7322 -15.5449 -15.5416
   -12.3664 -11.9716 -11.6944 -11.2827 -11.2044 -11.1601   0.0845   0.5582
     0.7062   1.1521   1.3169   1.3820   1.5316   1.7859   1.8312   2.3124
     2.3962   2.5400   2.9331   3.1870   3.3380   4.1000   4.4312   4.7352
     4.9728   5.1596   5.1925   5.2027   5.3974   5.6148   5.6212   5.8262
     5.8956   7.4714   7.5914   7.7436   8.1723   8.2946   8.3627  14.1802
    15.1154  15.9933  16.7719  17.5687  17.8158  18.8577  19.1389  19.5674

     occupation numbers 
     1.0000   1.0000   1.0000   1.0000   1.0000   1.0000   1.0000   1.0000
     1.0000   1.0000   1.0000   1.0000   1.0000   1.0000   1.0000   1.0000
     1.0000   1.0000   1.0000   1.0000   1.0000   1.0000   1.0000   1.0000
     1.0000   1.0000   1.0000   1.0000   1.0000   1.0000   1.0000   1.0000
     1.0000   1.0000   1.0000   1.0000   1.0000   1.0000   1.0000   1.0000
     1.0000   1.0000   1.0000   1.0000   1.0002   1.0059   1.0064   1.0517
     1.0743   0.0000   0.0000   0.0000   0.0000   0.0000   0.0000   0.0000
     0.0000   0.0000   0.0000   0.0000   0.0000   0.0000   0.0000   0.0000

          k = 0.3333 0.5774 0.0000 (  6294 PWs)   bands (ev):

   -89.5865 -89.5865 -89.4126 -52.8287 -52.8287 -52.8208 -52.8072 -52.8072
   -52.7895 -52.6874 -52.6874 -52.5948 -43.5983 -15.7257 -15.5441 -15.5441
   -12.0579 -12.0345 -12.0345 -11.1996 -11.1996 -11.1712   0.4934   0.4934
     0.5016   1.3442   1.3681   1.3681   1.6616   1.6616   1.7077   2.0797
     2.2112   2.2112   3.2660   3.2660   3.3138   4.3771   4.3771   4.4545
     5.1673   5.1673   5.1965   5.4224   5.4268   5.4268   5.6695   5.6695
     5.7014   7.5852   7.6430   7.6430   8.3540   8.3785   8.3785  14.6001
    14.6806  14.6806  18.1836  18.4201  18.4201  18.7788  18.8408  18.8408

     occupation numbers 
     1.0000   1.0000   1.0000   1.0000   1.0000   1.0000   1.0000   1.0000
     1.0000   1.0000   1.0000   1.0000   1.0000   1.0000   1.0000   1.0000
     1.0000   1.0000   1.0000   1.0000   1.0000   1.0000   1.0000   1.0000
     1.0000   1.0000   1.0000   1.0000   1.0000   1.0000   1.0000   1.0000
     1.0000   1.0000   1.0000   1.0000   1.0000   1.0000   1.0000   1.0000
     1.0000   1.0000   1.0000   1.0002   1.0003   1.0003   1.0118   1.0118
     1.0171   0.0000   0.0000   0.0000   0.0000   0.0000   0.0000   0.0000
     0.0000   0.0000   0.0000   0.0000   0.0000   0.0000   0.0000   0.0000

          k = 0.3333 0.5774 0.3032 (  6312 PWs)   bands (ev):

   -89.5865 -89.5865 -89.4126 -52.8287 -52.8287 -52.8209 -52.8073 -52.8073
   -52.7895 -52.6875 -52.6875 -52.5949 -43.5982 -15.7310 -15.5439 -15.5439
   -12.0309 -12.0309 -12.0246 -11.2047 -11.2047 -11.2014   0.4469   0.4526
     0.4526   1.2865   1.3314   1.3314   1.6611   1.6611   1.7037   2.2382
     2.3172   2.3172   3.2669   3.2669   3.3208   4.4198   4.4198   4.5050
     5.1464   5.1464   5.1727   5.4255   5.4292   5.4292   5.7068   5.7068
     5.7380   7.4481   7.5215   7.5215   8.3427   8.3702   8.3702  14.9581
    15.0111  15.0111  17.3823  17.4606  17.4606  19.2215  19.3269  19.3269

     occupation numbers 
     1.0000   1.0000   1.0000   1.0000   1.0000   1.0000   1.0000   1.0000
     1.0000   1.0000   1.0000   1.0000   1.0000   1.0000   1.0000   1.0000
     1.0000   1.0000   1.0000   1.0000   1.0000   1.0000   1.0000   1.0000
     1.0000   1.0000   1.0000   1.0000   1.0000   1.0000   1.0000   1.0000
     1.0000   1.0000   1.0000   1.0000   1.0000   1.0000   1.0000   1.0000
     1.0000   1.0000   1.0000   1.0003   1.0003   1.0003   1.0181   1.0181
     1.0249   0.0000   0.0000   0.0000   0.0000   0.0000   0.0000   0.0000
     0.0000   0.0000   0.0000   0.0000   0.0000   0.0000   0.0000   0.0000

          k =-0.1667-0.2887 0.3032 (  6308 PWs)   bands (ev):

   -89.5877 -89.5853 -89.4126 -52.8307 -52.8268 -52.8208 -52.8163 -52.7963
   -52.7919 -52.6880 -52.6864 -52.5949 -43.5982 -15.7356 -15.5426 -15.5401
   -12.7003 -11.6315 -11.6292 -11.2662 -11.2661 -11.1372   0.3293   0.3519
     0.8639   1.0268   1.0875   1.1348   1.3302   1.9769   2.0256   2.5209
     2.5467   2.6862   2.7735   3.1498   3.7710   3.9172   3.9258   4.6277
     4.9143   4.9956   5.1504   5.2876   5.2879   5.4858   5.8093   5.8109
     5.9915   7.8122   7.8730   7.8832   8.0393   8.0798   8.4205  13.2856
    15.7802  16.0655  16.1547  18.2681  18.6536  18.7087  19.0653  19.2241

     occupation numbers 
     1.0000   1.0000   1.0000   1.0000   1.0000   1.0000   1.0000   1.0000
     1.0000   1.0000   1.0000   1.0000   1.0000   1.0000   1.0000   1.0000
     1.0000   1.0000   1.0000   1.0000   1.0000   1.0000   1.0000   1.0000
     1.0000   1.0000   1.0000   1.0000   1.0000   1.0000   1.0000   1.0000
     1.0000   1.0000   1.0000   1.0000   1.0000   1.0000   1.0000   1.0000
     1.0000   1.0000   1.0000   1.0000   1.0000   1.0008   1.0459   1.0465
     1.0783   0.0000   0.0000   0.0000   0.0000   0.0000   0.0000   0.0000
     0.0000   0.0000   0.0000   0.0000   0.0000   0.0000   0.0000   0.0000

          k =-0.1667-0.4811 0.3032 (  6307 PWs)   bands (ev):

   -89.5871 -89.5859 -89.4126 -52.8297 -52.8278 -52.8218 -52.8123 -52.8006
   -52.7901 -52.6884 -52.6865 -52.5949 -43.5982 -15.7320 -15.5446 -15.5413
   -12.3683 -11.9747 -11.7004 -11.2765 -11.2013 -11.1583   0.0779   0.5542
     0.7285   1.1572   1.3254   1.3585   1.5260   1.7804   1.8355   2.3421
     2.4227   2.5596   2.9215   3.1837   3.3335   4.0397   4.3831   4.7017
     4.9896   5.1674   5.1947   5.2138   5.4034   5.5929   5.6260   5.7819
     5.8257   7.5924   7.7066   7.8256   8.1575   8.2973   8.3624  13.9504
    14.8495  15.5371  16.8981  17.9446  18.1707  18.8059  19.3363  19.7832

     occupation numbers 
     1.0000   1.0000   1.0000   1.0000   1.0000   1.0000   1.0000   1.0000
     1.0000   1.0000   1.0000   1.0000   1.0000   1.0000   1.0000   1.0000
     1.0000   1.0000   1.0000   1.0000   1.0000   1.0000   1.0000   1.0000
     1.0000   1.0000   1.0000   1.0000   1.0000   1.0000   1.0000   1.0000
     1.0000   1.0000   1.0000   1.0000   1.0000   1.0000   1.0000   1.0000
     1.0000   1.0000   1.0000   1.0000   1.0002   1.0043   1.0068   1.0371
     1.0515   0.0000   0.0000   0.0000   0.0000   0.0000   0.0000   0.0000
     0.0000   0.0000   0.0000   0.0000   0.0000   0.0000   0.0000   0.0000

          k =-0.3333-0.5774 0.3032 (  6312 PWs)   bands (ev):

   -89.5865 -89.5865 -89.4126 -52.8287 -52.8287 -52.8209 -52.8073 -52.8073
   -52.7895 -52.6875 -52.6875 -52.5949 -43.5982 -15.7309 -15.5435 -15.5435
   -12.0362 -12.0362 -12.0269 -11.1994 -11.1994 -11.1991   0.4373   0.4596
     0.4596   1.2978   1.3175   1.3175   1.6632   1.6632   1.7078   2.2704
     2.3451   2.3451   3.2652   3.2652   3.3134   4.3618   4.3618   4.4276
     5.1637   5.1637   5.1895   5.4244   5.4275   5.4275   5.6423   5.6423
     5.6713   7.6040   7.6638   7.6638   8.3498   8.3767   8.3767  14.5588
    14.6153  14.6153  17.6333  17.7347  17.7347  19.6915  19.6920  19.7033

     occupation numbers 
     1.0000   1.0000   1.0000   1.0000   1.0000   1.0000   1.0000   1.0000
     1.0000   1.0000   1.0000   1.0000   1.0000   1.0000   1.0000   1.0000
     1.0000   1.0000   1.0000   1.0000   1.0000   1.0000   1.0000   1.0000
     1.0000   1.0000   1.0000   1.0000   1.0000   1.0000   1.0000   1.0000
     1.0000   1.0000   1.0000   1.0000   1.0000   1.0000   1.0000   1.0000
     1.0000   1.0000   1.0000   1.0003   1.0003   1.0003   1.0084   1.0084
     1.0121   0.0000   0.0000   0.0000   0.0000   0.0000   0.0000   0.0000
     0.0000   0.0000   0.0000   0.0000   0.0000   0.0000   0.0000   0.0000

 ------ SPIN DOWN ----------


          k = 0.0000 0.0000 0.0000 (  6307 PWs)   bands (ev):

   -88.8353 -88.8313 -88.7716 -52.1520 -52.1520 -52.1341 -52.1341 -52.0842
   -52.0842 -51.9644 -51.9574 -51.9153 -43.5976 -15.7302 -15.5365 -15.5365
   -12.9258 -11.3199 -11.3199 -11.1757 -11.1757 -10.9723   0.8940   0.9139
     0.9139   1.1238   1.1238   1.3054   1.3626   1.3626   1.4222   3.0718
     3.0718   3.2356   3.2356   3.3402   3.4376   4.7784   4.8930   4.8930
     5.2523   5.2523   5.5643   5.6720   6.3043   6.3043   6.3409   6.3409
     6.6795   8.0808   8.0808   8.1465   8.1465   8.8648   8.8648  11.7959
    16.0006  17.3624  18.4022  18.4022  18.6151  18.7262  18.8137  18.8138

     occupation numbers 
     1.0000   1.0000   1.0000   1.0000   1.0000   1.0000   1.0000   1.0000
     1.0000   1.0000   1.0000   1.0000   1.0000   1.0000   1.0000   1.0000
     1.0000   1.0000   1.0000   1.0000   1.0000   1.0000   1.0000   1.0000
     1.0000   1.0000   1.0000   1.0000   1.0000   1.0000   1.0000   1.0000
     1.0000   1.0000   1.0000   1.0000   1.0000   1.0000   1.0000   1.0000
     1.0000   1.0000   1.0028   1.0122   0.4921   0.4921   0.3965   0.3965
     0.0115   0.0000   0.0000   0.0000   0.0000   0.0000   0.0000   0.0000
     0.0000   0.0000   0.0000   0.0000   0.0000   0.0000   0.0000   0.0000

          k = 0.0000 0.0000 0.3032 (  6332 PWs)   bands (ev):

   -88.8353 -88.8314 -88.7716 -52.1519 -52.1519 -52.1341 -52.1341 -52.0843
   -52.0843 -51.9644 -51.9576 -51.9154 -43.5976 -15.7384 -15.5365 -15.5365
   -12.8870 -11.3202 -11.3202 -11.1754 -11.1754 -11.0177   0.8994   0.8994
     1.0976   1.0976   1.1042   1.3627   1.3639   1.3639   1.4503   3.0922
     3.0922   3.2576   3.2576   3.2646   3.3927   4.3340   4.8868   4.8868
     5.2524   5.2524   5.5757   5.6769   6.2914   6.2914   6.3281   6.3281
     6.7612   8.1276   8.1276   8.2053   8.2053   8.8710   8.8710  12.6914
    15.0143  17.3170  18.3528  18.4354  18.4354  18.4766  18.8615  18.8615

     occupation numbers 
     1.0000   1.0000   1.0000   1.0000   1.0000   1.0000   1.0000   1.0000
     1.0000   1.0000   1.0000   1.0000   1.0000   1.0000   1.0000   1.0000
     1.0000   1.0000   1.0000   1.0000   1.0000   1.0000   1.0000   1.0000
     1.0000   1.0000   1.0000   1.0000   1.0000   1.0000   1.0000   1.0000
     1.0000   1.0000   1.0000   1.0000   1.0000   1.0000   1.0000   1.0000
     1.0000   1.0000   1.0034   1.0129   0.5271   0.5271   0.4291   0.4291
     0.0031   0.0000   0.0000   0.0000   0.0000   0.0000   0.0000   0.0000
     0.0000   0.0000   0.0000   0.0000   0.0000   0.0000   0.0000   0.0000

          k = 0.0000 0.1925 0.0000 (  6330 PWs)   bands (ev):

   -88.8351 -88.8316 -88.7716 -52.1550 -52.1527 -52.1308 -52.1307 -52.0868
   -52.0847 -51.9640 -51.9579 -51.9154 -43.5976 -15.7288 -15.5384 -15.5370
   -12.8228 -11.4192 -11.3538 -11.1938 -11.1546 -10.9785   0.5656   0.7939
     1.0173   1.0598   1.1572   1.2736   1.4217   1.7496   1.9619   2.7653
     2.8281   3.0155   3.1266   3.7348   3.8219   4.1936   4.3800   4.9378
     5.5453   5.6432   5.6669   5.7563   6.0838   6.0976   6.3916   6.4578
     6.7014   8.0853   8.1648   8.1827   8.2274   8.6154   8.7880  12.1493
    16.3697  17.0567  17.5525  17.7725  18.0289  19.1988  19.4923  19.5706

     occupation numbers 
     1.0000   1.0000   1.0000   1.0000   1.0000   1.0000   1.0000   1.0000
     1.0000   1.0000   1.0000   1.0000   1.0000   1.0000   1.0000   1.0000
     1.0000   1.0000   1.0000   1.0000   1.0000   1.0000   1.0000   1.0000
     1.0000   1.0000   1.0000   1.0000   1.0000   1.0000   1.0000   1.0000
     1.0000   1.0000   1.0000   1.0000   1.0000   1.0000   1.0000   1.0000
     1.0021   1.0085   1.0115   1.0297   1.0065   0.9871   0.2793   0.1612
     0.0082   0.0000   0.0000   0.0000   0.0000   0.0000   0.0000   0.0000
     0.0000   0.0000   0.0000   0.0000   0.0000   0.0000   0.0000   0.0000

          k = 0.0000 0.1925 0.3032 (  6320 PWs)   bands (ev):

   -88.8351 -88.8316 -88.7716 -52.1549 -52.1528 -52.1308 -52.1307 -52.0868
   -52.0846 -51.9639 -51.9580 -51.9155 -43.5976 -15.7361 -15.5381 -15.5368
   -12.7875 -11.4185 -11.3546 -11.1927 -11.1547 -11.0198   0.5628   0.7933
     1.0027   1.1274   1.2020   1.2914   1.4237   1.7720   1.9787   2.7398
     2.8029   3.0552   3.1545   3.7583   3.8156   4.1939   4.3385   4.6138
     5.5457   5.6447   5.6527   5.7581   6.0863   6.1006   6.3679   6.4293
     6.7908   8.1327   8.1922   8.2196   8.2709   8.5947   8.7958  12.9652
    15.3483  16.8982  17.5707  17.7362  17.8774  19.2477  19.5324  19.6626

     occupation numbers 
     1.0000   1.0000   1.0000   1.0000   1.0000   1.0000   1.0000   1.0000
     1.0000   1.0000   1.0000   1.0000   1.0000   1.0000   1.0000   1.0000
     1.0000   1.0000   1.0000   1.0000   1.0000   1.0000   1.0000   1.0000
     1.0000   1.0000   1.0000   1.0000   1.0000   1.0000   1.0000   1.0000
     1.0000   1.0000   1.0000   1.0000   1.0000   1.0000   1.0000   1.0000
     1.0021   1.0087   1.0096   1.0301   1.0032   0.9825   0.3315   0.2070
     0.0019   0.0000   0.0000   0.0000   0.0000   0.0000   0.0000   0.0000
     0.0000   0.0000   0.0000   0.0000   0.0000   0.0000   0.0000   0.0000

          k = 0.0000 0.3849 0.0000 (  6318 PWs)   bands (ev):

   -88.8344 -88.8322 -88.7717 -52.1594 -52.1499 -52.1300 -52.1255 -52.0903
   -52.0855 -51.9628 -51.9589 -51.9156 -43.5976 -15.7255 -15.5420 -15.5379
   -12.5366 -11.7216 -11.3957 -11.2401 -11.0972 -10.9987   0.1665   0.9512
     1.0684   1.1230   1.3675   1.4057   1.5688   1.9914   2.2955   2.6516
     2.7294   2.7827   3.1205   3.1936   3.6998   3.9934   4.4047   5.1253
     5.6779   5.7317   5.8675   5.8802   6.0648   6.0883   6.2496   6.4810
     6.6714   8.1229   8.1665   8.2103   8.2387   8.5294   8.5596  13.0360
    15.5190  17.0420  17.2665  17.6964  18.0797  19.0650  19.3459  19.5349

     occupation numbers 
     1.0000   1.0000   1.0000   1.0000   1.0000   1.0000   1.0000   1.0000
     1.0000   1.0000   1.0000   1.0000   1.0000   1.0000   1.0000   1.0000
     1.0000   1.0000   1.0000   1.0000   1.0000   1.0000   1.0000   1.0000
     1.0000   1.0000   1.0000   1.0000   1.0000   1.0000   1.0000   1.0000
     1.0000   1.0000   1.0000   1.0000   1.0000   1.0000   1.0000   1.0000
     1.0131   1.0234   1.0658   1.0698   1.0294   1.0004   0.6425   0.1295
     0.0129   0.0000   0.0000   0.0000   0.0000   0.0000   0.0000   0.0000
     0.0000   0.0000   0.0000   0.0000   0.0000   0.0000   0.0000   0.0000

          k = 0.0000 0.3849 0.3032 (  6304 PWs)   bands (ev):

   -88.8344 -88.8322 -88.7717 -52.1592 -52.1500 -52.1300 -52.1255 -52.0903
   -52.0855 -51.9627 -51.9589 -51.9156 -43.5975 -15.7315 -15.5413 -15.5377
   -12.5100 -11.7152 -11.3975 -11.2373 -11.1020 -11.0301   0.1615   0.9128
     1.0139   1.0697   1.3636   1.5186   1.5821   2.0038   2.2651   2.7170
     2.7471   2.8292   3.1436   3.2294   3.6941   4.0803   4.4061   4.9243
     5.6781   5.7290   5.8718   5.8852   6.0501   6.0700   6.2338   6.4385
     6.7487   8.0867   8.1318   8.2008   8.2609   8.5376   8.5856  13.6188
    15.5037  16.2334  16.8902  17.3648  18.6210  18.7119  19.0505  19.8574

     occupation numbers 
     1.0000   1.0000   1.0000   1.0000   1.0000   1.0000   1.0000   1.0000
     1.0000   1.0000   1.0000   1.0000   1.0000   1.0000   1.0000   1.0000
     1.0000   1.0000   1.0000   1.0000   1.0000   1.0000   1.0000   1.0000
     1.0000   1.0000   1.0000   1.0000   1.0000   1.0000   1.0000   1.0000
     1.0000   1.0000   1.0000   1.0000   1.0000   1.0000   1.0000   1.0000
     1.0131   1.0228   1.0672   1.0713   1.0441   1.0236   0.6859   0.1914
     0.0039   0.0000   0.0000   0.0000   0.0000   0.0000   0.0000   0.0000
     0.0000   0.0000   0.0000   0.0000   0.0000   0.0000   0.0000   0.0000

          k = 0.0000-0.5774 0.0000 (  6336 PWs)   bands (ev):

   -88.8340 -88.8327 -88.7717 -52.1610 -52.1452 -52.1343 -52.1234 -52.0909
   -52.0861 -51.9619 -51.9597 -51.9157 -43.5976 -15.7239 -15.5439 -15.5385
   -12.1463 -12.1222 -11.4130 -11.2628 -11.0535 -11.0260   0.0196   0.9961
     1.0592   1.4220   1.4567   1.6812   1.8058   1.8625   1.9715   2.4301
     2.5946   2.8525   3.1057   3.1105   3.4216   4.0624   4.8919   4.9718
     5.6272   5.7713   5.7851   5.7964   6.1565   6.3462   6.3743   6.4098
     6.5040   8.0521   8.1040   8.2309   8.2740   8.3310   8.7255  14.1572
    14.2305  16.7415  17.3392  18.4219  18.4968  18.6732  18.8724  18.9691

     occupation numbers 
     1.0000   1.0000   1.0000   1.0000   1.0000   1.0000   1.0000   1.0000
     1.0000   1.0000   1.0000   1.0000   1.0000   1.0000   1.0000   1.0000
     1.0000   1.0000   1.0000   1.0000   1.0000   1.0000   1.0000   1.0000
     1.0000   1.0000   1.0000   1.0000   1.0000   1.0000   1.0000   1.0000
     1.0000   1.0000   1.0000   1.0000   1.0000   1.0000   1.0000   1.0000
     1.0069   1.0339   1.0381   1.0417   0.8786   0.3835   0.3170   0.2426
     0.1030   0.0000   0.0000   0.0000   0.0000   0.0000   0.0000   0.0000
     0.0000   0.0000   0.0000   0.0000   0.0000   0.0000   0.0000   0.0000

          k = 0.0000-0.5774 0.3032 (  6310 PWs)   bands (ev):

   -88.8339 -88.8327 -88.7717 -52.1610 -52.1451 -52.1343 -52.1233 -52.0910
   -52.0860 -51.9618 -51.9598 -51.9157 -43.5975 -15.7292 -15.5429 -15.5382
   -12.1224 -12.1143 -11.4150 -11.2596 -11.0575 -11.0558   0.0135   0.8988
     0.9882   1.4223   1.4500   1.6069   1.8326   1.9250   1.9751   2.5751
     2.7159   2.8849   3.0964   3.1091   3.4272   4.1775   4.8550   4.9095
     5.6230   5.7713   5.7853   5.7992   6.1487   6.2880   6.3259   6.4466
     6.5385   7.9377   7.9952   8.2436   8.3282   8.3781   8.7173  14.4398
    14.4843  16.5207  17.1008  17.4520  17.5088  18.7146  19.6479  19.9204

     occupation numbers 
     1.0000   1.0000   1.0000   1.0000   1.0000   1.0000   1.0000   1.0000
     1.0000   1.0000   1.0000   1.0000   1.0000   1.0000   1.0000   1.0000
     1.0000   1.0000   1.0000   1.0000   1.0000   1.0000   1.0000   1.0000
     1.0000   1.0000   1.0000   1.0000   1.0000   1.0000   1.0000   1.0000
     1.0000   1.0000   1.0000   1.0000   1.0000   1.0000   1.0000   1.0000
     1.0066   1.0339   1.0381   1.0426   0.8952   0.5365   0.4349   0.1782
     0.0712   0.0000   0.0000   0.0000   0.0000   0.0000   0.0000   0.0000
     0.0000   0.0000   0.0000   0.0000   0.0000   0.0000   0.0000   0.0000

          k = 0.1667 0.2887 0.0000 (  6317 PWs)   bands (ev):

   -88.8346 -88.8320 -88.7717 -52.1566 -52.1531 -52.1297 -52.1265 -52.0895
   -52.0853 -51.9631 -51.9585 -51.9155 -43.5976 -15.7262 -15.5408 -15.5380
   -12.6283 -11.5256 -11.5247 -11.1519 -11.1508 -10.9921   0.4956   0.5176
     1.1090   1.2065   1.2684   1.2802   1.5400   2.1236   2.1846   2.7023
     2.7313   2.8826   2.9819   3.3386   4.0130   4.0912   4.1142   5.0395
     5.7183   5.7961   5.8761   5.9137   5.9183   5.9490   6.3896   6.3955
     6.6959   8.1189   8.1741   8.2272   8.3247   8.3658   8.7044  12.7569
    16.2632  16.3369  17.1175  17.9046  18.7523  18.8742  19.3905  19.4496

     occupation numbers 
     1.0000   1.0000   1.0000   1.0000   1.0000   1.0000   1.0000   1.0000
     1.0000   1.0000   1.0000   1.0000   1.0000   1.0000   1.0000   1.0000
     1.0000   1.0000   1.0000   1.0000   1.0000   1.0000   1.0000   1.0000
     1.0000   1.0000   1.0000   1.0000   1.0000   1.0000   1.0000   1.0000
     1.0000   1.0000   1.0000   1.0000   1.0000   1.0000   1.0000   1.0000
     1.0204   1.0416   1.0685   1.0786   1.0796   1.0832   0.2836   0.2713
     0.0090   0.0000   0.0000   0.0000   0.0000   0.0000   0.0000   0.0000
     0.0000   0.0000   0.0000   0.0000   0.0000   0.0000   0.0000   0.0000

          k = 0.1667 0.2887 0.3032 (  6308 PWs)   bands (ev):

   -88.8346 -88.8320 -88.7717 -52.1565 -52.1530 -52.1296 -52.1265 -52.0895
   -52.0852 -51.9630 -51.9587 -51.9156 -43.5975 -15.7327 -15.5402 -15.5379
   -12.5986 -11.5237 -11.5181 -11.1587 -11.1505 -11.0265   0.4862   0.5142
     1.0361   1.1710   1.2276   1.4599   1.5408   2.1052   2.1719   2.7303
     2.7556   2.9142   3.0218   3.3689   4.0153   4.1475   4.1526   4.8017
     5.6796   5.7913   5.8712   5.9156   5.9220   5.9505   6.3696   6.3800
     6.7900   8.1032   8.1517   8.1551   8.3501   8.3911   8.7028  13.4816
    15.8537  16.3590  16.4158  18.2465  18.3224  18.5329  19.3055  19.4638

     occupation numbers 
     1.0000   1.0000   1.0000   1.0000   1.0000   1.0000   1.0000   1.0000
     1.0000   1.0000   1.0000   1.0000   1.0000   1.0000   1.0000   1.0000
     1.0000   1.0000   1.0000   1.0000   1.0000   1.0000   1.0000   1.0000
     1.0000   1.0000   1.0000   1.0000   1.0000   1.0000   1.0000   1.0000
     1.0000   1.0000   1.0000   1.0000   1.0000   1.0000   1.0000   1.0000
     1.0133   1.0400   1.0670   1.0790   1.0803   1.0833   0.3276   0.3042
     0.0019   0.0000   0.0000   0.0000   0.0000   0.0000   0.0000   0.0000
     0.0000   0.0000   0.0000   0.0000   0.0000   0.0000   0.0000   0.0000

          k = 0.1667 0.4811 0.0000 (  6294 PWs)   bands (ev):

   -88.8339 -88.8326 -88.7717 -52.1579 -52.1482 -52.1350 -52.1233 -52.0900
   -52.0861 -51.9618 -51.9596 -51.9156 -43.5976 -15.7238 -15.5429 -15.5391
   -12.2846 -11.8782 -11.5954 -11.1627 -11.0818 -11.0223   0.2506   0.7801
     0.9855   1.3397   1.5040   1.5490   1.7236   1.9672   2.0338   2.4331
     2.5919   2.7919   3.1039   3.3013   3.5604   4.1888   4.5906   4.9993
     5.7217   5.7999   5.8217   5.8670   6.1217   6.1581   6.2434   6.3998
     6.5848   7.9611   8.0421   8.1727   8.4426   8.5702   8.6444  13.7368
    14.9348  15.8668  17.9308  18.4098  18.4676  18.7684  18.9694  19.2047

     occupation numbers 
     1.0000   1.0000   1.0000   1.0000   1.0000   1.0000   1.0000   1.0000
     1.0000   1.0000   1.0000   1.0000   1.0000   1.0000   1.0000   1.0000
     1.0000   1.0000   1.0000   1.0000   1.0000   1.0000   1.0000   1.0000
     1.0000   1.0000   1.0000   1.0000   1.0000   1.0000   1.0000   1.0000
     1.0000   1.0000   1.0000   1.0000   1.0000   1.0000   1.0000   1.0000
     1.0212   1.0428   1.0501   1.0656   0.9475   0.8750   0.6596   0.2624
     0.0414   0.0000   0.0000   0.0000   0.0000   0.0000   0.0000   0.0000
     0.0000   0.0000   0.0000   0.0000   0.0000   0.0000   0.0000   0.0000

          k = 0.1667 0.4811 0.3032 (  6307 PWs)   bands (ev):

   -88.8339 -88.8326 -88.7717 -52.1580 -52.1482 -52.1349 -52.1233 -52.0900
   -52.0861 -51.9619 -51.9597 -51.9158 -43.5975 -15.7293 -15.5422 -15.5391
   -12.2637 -11.8669 -11.5888 -11.1681 -11.0907 -11.0476   0.2405   0.7350
     0.9004   1.2977   1.4424   1.5961   1.7537   1.9651   2.0225   2.5561
     2.6969   2.8562   3.1105   3.3085   3.5619   4.2886   4.6211   4.9332
     5.7110   5.7796   5.8149   5.8658   6.1089   6.1430   6.2435   6.4093
     6.6495   7.8187   7.9388   8.1158   8.4587   8.5748   8.6405  14.2436
    15.1661  16.0386  16.8764  17.6420  17.9162  18.9122  19.2530  19.6846

     occupation numbers 
     1.0000   1.0000   1.0000   1.0000   1.0000   1.0000   1.0000   1.0000
     1.0000   1.0000   1.0000   1.0000   1.0000   1.0000   1.0000   1.0000
     1.0000   1.0000   1.0000   1.0000   1.0000   1.0000   1.0000   1.0000
     1.0000   1.0000   1.0000   1.0000   1.0000   1.0000   1.0000   1.0000
     1.0000   1.0000   1.0000   1.0000   1.0000   1.0000   1.0000   1.0000
     1.0189   1.0364   1.0478   1.0652   0.9695   0.9069   0.6595   0.2438
     0.0177   0.0000   0.0000   0.0000   0.0000   0.0000   0.0000   0.0000
     0.0000   0.0000   0.0000   0.0000   0.0000   0.0000   0.0000   0.0000

          k = 0.3333 0.5774 0.0000 (  6294 PWs)   bands (ev):

   -88.8333 -88.8333 -88.7717 -52.1549 -52.1439 -52.1439 -52.1224 -52.0877
   -52.0877 -51.9607 -51.9607 -51.9157 -43.5976 -15.7231 -15.5415 -15.5415
   -11.9536 -11.9299 -11.9299 -11.0859 -11.0859 -11.0582   0.6724   0.6724
     0.6780   1.4811   1.5104   1.5104   1.8505   1.8505   1.9139   2.3475
     2.5314   2.5314   3.4427   3.4427   3.4977   4.5768   4.5768   4.6752
     5.7471   5.8207   5.8207   6.0090   6.0090   6.0128   6.3400   6.4329
     6.4329   7.9701   8.0136   8.0136   8.6437   8.6457   8.6457  14.6434
    14.7259  14.7259  18.2934  18.5332  18.5333  18.8917  18.9552  18.9552

     occupation numbers 
     1.0000   1.0000   1.0000   1.0000   1.0000   1.0000   1.0000   1.0000
     1.0000   1.0000   1.0000   1.0000   1.0000   1.0000   1.0000   1.0000
     1.0000   1.0000   1.0000   1.0000   1.0000   1.0000   1.0000   1.0000
     1.0000   1.0000   1.0000   1.0000   1.0000   1.0000   1.0000   1.0000
     1.0000   1.0000   1.0000   1.0000   1.0000   1.0000   1.0000   1.0000
     1.0272   1.0498   1.0498   1.0718   1.0718   1.0700   0.3988   0.2007
     0.2007   0.0000   0.0000   0.0000   0.0000   0.0000   0.0000   0.0000
     0.0000   0.0000   0.0000   0.0000   0.0000   0.0000   0.0000   0.0000

          k = 0.3333 0.5774 0.3032 (  6312 PWs)   bands (ev):

   -88.8333 -88.8333 -88.7717 -52.1550 -52.1440 -52.1440 -52.1224 -52.0877
   -52.0877 -51.9608 -51.9608 -51.9158 -43.5975 -15.7283 -15.5413 -15.5413
   -11.9262 -11.9262 -11.9207 -11.0911 -11.0911 -11.0880   0.6250   0.6319
     0.6319   1.4195   1.4690   1.4690   1.8497   1.8497   1.9097   2.5154
     2.6540   2.6540   3.4439   3.4439   3.5055   4.6160   4.6160   4.7194
     5.7294   5.7997   5.7997   6.0098   6.0098   6.0150   6.3699   6.4622
     6.4622   7.8275   7.8863   7.8863   8.6326   8.6378   8.6378  15.0120
    15.0659  15.0659  17.4718  17.5576  17.5576  19.3536  19.4239  19.4240

     occupation numbers 
     1.0000   1.0000   1.0000   1.0000   1.0000   1.0000   1.0000   1.0000
     1.0000   1.0000   1.0000   1.0000   1.0000   1.0000   1.0000   1.0000
     1.0000   1.0000   1.0000   1.0000   1.0000   1.0000   1.0000   1.0000
     1.0000   1.0000   1.0000   1.0000   1.0000   1.0000   1.0000   1.0000
     1.0000   1.0000   1.0000   1.0000   1.0000   1.0000   1.0000   1.0000
     1.0229   1.0428   1.0428   1.0714   1.0714   1.0689   0.3269   0.1548
     0.1548   0.0000   0.0000   0.0000   0.0000   0.0000   0.0000   0.0000
     0.0000   0.0000   0.0000   0.0000   0.0000   0.0000   0.0000   0.0000

          k =-0.1667-0.2887 0.3032 (  6308 PWs)   bands (ev):

   -88.8346 -88.8320 -88.7717 -52.1565 -52.1530 -52.1297 -52.1265 -52.0895
   -52.0852 -51.9630 -51.9587 -51.9156 -43.5975 -15.7326 -15.5401 -15.5377
   -12.5993 -11.5255 -11.5232 -11.1513 -11.1511 -11.0259   0.4803   0.5023
     1.0583   1.1782   1.2326   1.4458   1.5425   2.1251   2.1865   2.6960
     2.7288   2.9483   3.0517   3.3601   4.0092   4.1089   4.1206   4.8152
     5.6695   5.7978   5.8750   5.9145   5.9247   5.9539   6.3552   6.3602
     6.7681   8.1682   8.2136   8.2173   8.3399   8.3583   8.7104  13.3518
    15.8661  16.1024  16.2239  18.3697  18.7328  18.8101  19.1436  19.2855

     occupation numbers 
     1.0000   1.0000   1.0000   1.0000   1.0000   1.0000   1.0000   1.0000
     1.0000   1.0000   1.0000   1.0000   1.0000   1.0000   1.0000   1.0000
     1.0000   1.0000   1.0000   1.0000   1.0000   1.0000   1.0000   1.0000
     1.0000   1.0000   1.0000   1.0000   1.0000   1.0000   1.0000   1.0000
     1.0000   1.0000   1.0000   1.0000   1.0000   1.0000   1.0000   1.0000
     1.0118   1.0421   1.0682   1.0788   1.0807   1.0833   0.3616   0.3495
     0.0028   0.0000   0.0000   0.0000   0.0000   0.0000   0.0000   0.0000
     0.0000   0.0000   0.0000   0.0000   0.0000   0.0000   0.0000   0.0000

          k =-0.1667-0.4811 0.3032 (  6307 PWs)   bands (ev):

   -88.8339 -88.8326 -88.7717 -52.1580 -52.1482 -52.1349 -52.1233 -52.0900
   -52.0861 -51.9619 -51.9598 -51.9158 -43.5975 -15.7292 -15.5420 -15.5388
   -12.2655 -11.8699 -11.5945 -11.1621 -11.0877 -11.0458   0.2330   0.7279
     0.9182   1.3045   1.4511   1.5812   1.7452   1.9632   2.0271   2.5826
     2.7270   2.8844   3.0990   3.3054   3.5574   4.2204   4.5662   4.8985
     5.7226   5.7773   5.8218   5.8646   6.1121   6.1484   6.2245   6.3645
     6.6040   7.9462   8.0573   8.1996   8.4432   8.5766   8.6402  14.0066
    14.8945  15.5754  17.0181  18.0647  18.2923  18.8406  19.4390  19.8537

     occupation numbers 
     1.0000   1.0000   1.0000   1.0000   1.0000   1.0000   1.0000   1.0000
     1.0000   1.0000   1.0000   1.0000   1.0000   1.0000   1.0000   1.0000
     1.0000   1.0000   1.0000   1.0000   1.0000   1.0000   1.0000   1.0000
     1.0000   1.0000   1.0000   1.0000   1.0000   1.0000   1.0000   1.0000
     1.0000   1.0000   1.0000   1.0000   1.0000   1.0000   1.0000   1.0000
     1.0213   1.0357   1.0502   1.0648   0.9642   0.8957   0.7111   0.3394
     0.0325   0.0000   0.0000   0.0000   0.0000   0.0000   0.0000   0.0000
     0.0000   0.0000   0.0000   0.0000   0.0000   0.0000   0.0000   0.0000

          k =-0.3333-0.5774 0.3032 (  6312 PWs)   bands (ev):

   -88.8333 -88.8333 -88.7717 -52.1550 -52.1440 -52.1440 -52.1224 -52.0877
   -52.0877 -51.9608 -51.9608 -51.9158 -43.5975 -15.7281 -15.5409 -15.5409
   -11.9312 -11.9312 -11.9230 -11.0860 -11.0860 -11.0857   0.6100   0.6364
     0.6364   1.4360   1.4593   1.4593   1.8522   1.8522   1.9141   2.5538
     2.6844   2.6844   3.4423   3.4423   3.4973   4.5476   4.5476   4.6291
     5.7364   5.7978   5.7978   6.0092   6.0092   6.0144   6.3228   6.4217
     6.4217   7.9846   8.0334   8.0334   8.6398   8.6439   8.6439  14.6038
    14.6601  14.6601  17.7562  17.8633  17.8633  19.7478  19.7479  19.7788

     occupation numbers 
     1.0000   1.0000   1.0000   1.0000   1.0000   1.0000   1.0000   1.0000
     1.0000   1.0000   1.0000   1.0000   1.0000   1.0000   1.0000   1.0000
     1.0000   1.0000   1.0000   1.0000   1.0000   1.0000   1.0000   1.0000
     1.0000   1.0000   1.0000   1.0000   1.0000   1.0000   1.0000   1.0000
     1.0000   1.0000   1.0000   1.0000   1.0000   1.0000   1.0000   1.0000
     1.0245   1.0421   1.0421   1.0717   1.0717   1.0692   0.4428   0.2205
     0.2205   0.0000   0.0000   0.0000   0.0000   0.0000   0.0000   0.0000
     0.0000   0.0000   0.0000   0.0000   0.0000   0.0000   0.0000   0.0000

     the Fermi energy is     6.3393 ev

!    total energy              =   -1489.28963196 Ry
     total all-electron energy =     -9588.524439 Ry
     estimated scf accuracy    <       0.00000003 Ry
     smearing contrib. (-TS)   =       0.00971400 Ry
     internal energy E=F+TS    =   -1489.29934596 Ry

     The total energy is F=E-TS. E is the sum of the following terms:
     one-electron contribution =   -1083.63029952 Ry
     hartree contribution      =     583.74569923 Ry
     xc contribution           =    -150.78889787 Ry
     ewald contribution        =    -503.10673138 Ry
     one-center paw contrib.   =    -335.51911643 Ry
      -> PAW hartree energy AE =     886.43160686 Ry
      -> PAW hartree energy PS =    -884.15463028 Ry
      -> PAW xc energy AE      =    -480.54765539 Ry
      -> PAW xc energy PS      =     142.75156238 Ry
      -> total E_H with PAW    =     586.02267581 Ry
      -> total E_XC with PAW   =    -488.58499088 Ry

     total magnetization       =     2.30 Bohr mag/cell
     absolute magnetization    =     2.34 Bohr mag/cell

     convergence has been achieved in  21 iterations

     Forces acting on atoms (cartesian axes, Ry/au):

     atom    1 type  1   force =     0.00000000    0.00000000    0.10011747
     atom    2 type  1   force =     0.00000000    0.00000000    0.01270385
     atom    3 type  1   force =     0.00000000    0.00000000    0.01270385
     atom    4 type  2   force =    -0.00077173   -0.00133667   -0.02670615
     atom    5 type  2   force =     0.00154345   -0.00000000   -0.02670615
     atom    6 type  2   force =    -0.00077173    0.00133667   -0.02670615
     atom    7 type  2   force =     0.01968395   -0.00000000    0.03899509
     atom    8 type  2   force =    -0.00984198   -0.01704680    0.03899509
     atom    9 type  2   force =    -0.00984198    0.01704680    0.03899509
     atom   10 type  3   force =     0.00000000    0.00000000   -0.16239198
     The non-local contrib.  to forces
     atom    1 type  1   force =     0.00000000    0.00000000   -0.24545305
     atom    2 type  1   force =     0.00000000    0.00000000    0.00684849
     atom    3 type  1   force =     0.00000000    0.00000000    0.00684849
     atom    4 type  2   force =    -0.02281924   -0.03952408   -1.17922523
     atom    5 type  2   force =     0.04563848    0.00000000   -1.17922523
     atom    6 type  2   force =    -0.02281924    0.03952408   -1.17922523
     atom    7 type  2   force =    -0.11292242    0.00000000    1.10256634
     atom    8 type  2   force =     0.05646121    0.09779368    1.10256634
     atom    9 type  2   force =     0.05646121   -0.09779368    1.10256634
     atom   10 type  3   force =     0.00000000   -0.00000000   -0.28715457
     The ionic contribution  to forces
     atom    1 type  1   force =    -0.00000000   -0.00000000    9.63672252
     atom    2 type  1   force =     0.00000002   -0.00000001    2.69411859
     atom    3 type  1   force =    -0.00000002    0.00000001    2.69411859
     atom    4 type  2   force =     0.58112192    1.00653270   25.58096624
     atom    5 type  2   force =    -1.16224384   -0.00000000   25.58096625
     atom    6 type  2   force =     0.58112192   -1.00653269   25.58096625
     atom    7 type  2   force =     3.46010622    0.00000000  -23.20286318
     atom    8 type  2   force =    -1.73005311   -2.99653989  -23.20286317
     atom    9 type  2   force =    -1.73005311    2.99653989  -23.20286318
     atom   10 type  3   force =    -0.00000000   -0.00000000  -22.15926892
     The local contribution  to forces
     atom    1 type  1   force =     0.00000000    0.00000000   -9.29211618
     atom    2 type  1   force =     0.00000021   -0.00000012   -2.68823485
     atom    3 type  1   force =    -0.00000021    0.00000012   -2.68823485
     atom    4 type  2   force =    -0.55930338   -0.96874187  -24.43902506
     atom    5 type  2   force =     1.11860675    0.00000000  -24.43902506
     atom    6 type  2   force =    -0.55930338    0.96874187  -24.43902506
     atom    7 type  2   force =    -3.32824890   -0.00000000   22.14943412
     atom    8 type  2   force =     1.66412445    2.88234809   22.14943412
     atom    9 type  2   force =     1.66412445   -2.88234809   22.14943412
     atom   10 type  3   force =     0.00000000    0.00000000   22.28400924
     The core correction contribution to forces
     atom    1 type  1   force =     0.00000000    0.00000000    0.00060017
     atom    2 type  1   force =     0.00000000   -0.00000000   -0.00011544
     atom    3 type  1   force =    -0.00000000    0.00000000   -0.00011544
     atom    4 type  2   force =     0.00019459    0.00033704    0.01045003
     atom    5 type  2   force =    -0.00038918    0.00000000    0.01045003
     atom    6 type  2   force =     0.00019459   -0.00033704    0.01045003
     atom    7 type  2   force =     0.00064492   -0.00000000   -0.00998947
     atom    8 type  2   force =    -0.00032246   -0.00055852   -0.00998947
     atom    9 type  2   force =    -0.00032246    0.00055852   -0.00998947
     atom   10 type  3   force =    -0.00000000   -0.00000000    0.00024983
     The Hubbard contrib.    to forces
     atom    1 type  1   force =     0.00000000    0.00000000    0.00000000
     atom    2 type  1   force =     0.00000000    0.00000000    0.00000000
     atom    3 type  1   force =     0.00000000    0.00000000    0.00000000
     atom    4 type  2   force =     0.00000000    0.00000000    0.00000000
     atom    5 type  2   force =     0.00000000    0.00000000    0.00000000
     atom    6 type  2   force =     0.00000000    0.00000000    0.00000000
     atom    7 type  2   force =     0.00000000    0.00000000    0.00000000
     atom    8 type  2   force =     0.00000000    0.00000000    0.00000000
     atom    9 type  2   force =     0.00000000    0.00000000    0.00000000
     atom   10 type  3   force =     0.00000000    0.00000000    0.00000000
     The SCF correction term to forces
     atom    1 type  1   force =     0.00000000    0.00000000    0.00037659
     atom    2 type  1   force =    -0.00000000    0.00000000    0.00009963
     atom    3 type  1   force =     0.00000000   -0.00000000    0.00009963
     atom    4 type  2   force =     0.00003438    0.00005955    0.00014043
     atom    5 type  2   force =    -0.00006876    0.00000000    0.00014043
     atom    6 type  2   force =     0.00003438   -0.00005955    0.00014043
     atom    7 type  2   force =     0.00010412   -0.00000000   -0.00014014
     atom    8 type  2   force =    -0.00005206   -0.00009017   -0.00014014
     atom    9 type  2   force =    -0.00005206    0.00009017   -0.00014014
     atom   10 type  3   force =     0.00000000    0.00000000   -0.00021497

     Total force =     0.211160     Total SCF correction =     0.000610

     Writing all to output data dir ./out/pw.save/ :
     XML data file, charge density, pseudopotentials, collected wavefunctions
 
     init_run     :     19.73s CPU      4.34s WALL (       1 calls)
     electrons    :    240.88s CPU     57.60s WALL (       1 calls)
     forces       :      1.26s CPU      0.90s WALL (       1 calls)

     Called by init_run:
     wfcinit      :      0.46s CPU      0.57s WALL (       1 calls)
     wfcinit:atom :      0.06s CPU      0.06s WALL (      34 calls)
     wfcinit:wfcr :      0.28s CPU      0.33s WALL (      34 calls)
     potinit      :     18.66s CPU      3.10s WALL (       1 calls)
     hinit0       :      0.50s CPU      0.50s WALL (       1 calls)

     Called by electrons:
     c_bands      :     23.34s CPU     23.51s WALL (      21 calls)
     sum_band     :      3.53s CPU      3.54s WALL (      21 calls)
     v_of_rho     :      0.44s CPU      0.26s WALL (      22 calls)
     v_h          :      0.28s CPU      0.06s WALL (      22 calls)
     v_xc         :      0.17s CPU      0.20s WALL (      23 calls)
     newd         :      0.52s CPU      0.44s WALL (      22 calls)
                                        0.44s GPU  (      22 calls)
     PAW_pot      :    221.58s CPU     30.21s WALL (      22 calls)
     mix_rho      :      0.86s CPU      0.85s WALL (      21 calls)

     Called by c_bands:
     init_us_2    :      0.87s CPU      0.85s WALL (    1496 calls)
     cegterg      :     19.62s CPU     19.76s WALL (     714 calls)

     Called by sum_band:
     sum_band:wei :      0.04s CPU      0.04s WALL (      21 calls)
                                        0.04s GPU  (      21 calls)
     sum_band:loo :      2.46s CPU      2.45s WALL (      21 calls)
                                        2.45s GPU  (      21 calls)
     sum_band:buf :      0.60s CPU      0.62s WALL (     714 calls)
                                        0.61s GPU  (     714 calls)
     sum_band:ini :      0.42s CPU      0.41s WALL (     714 calls)
                                        0.41s GPU  (     714 calls)
     sum_band:cal :      0.05s CPU      0.08s WALL (     714 calls)
                                        0.06s GPU  (     714 calls)
     sum_band:bec :      0.34s CPU      0.36s WALL (     714 calls)
                                        0.35s GPU  (     714 calls)
     addusdens    :      0.77s CPU      0.78s WALL (      21 calls)
                                        0.78s GPU  (      21 calls)
     addusd:skk   :      0.01s CPU      0.01s WALL (      63 calls)
                                        0.01s GPU  (      63 calls)

     Called by *egterg:
     cdiaghg      :      8.64s CPU      8.77s WALL (    3761 calls)
                                        8.72s GPU  (    3761 calls)
     cegterg:over :      0.93s CPU      0.94s WALL (    3047 calls)
     cegterg:upda :      1.13s CPU      1.14s WALL (    3047 calls)
     cegterg:last :      0.16s CPU      0.16s WALL (    1413 calls)
     h_psi        :      6.79s CPU      6.94s WALL (    3795 calls)
                                        6.89s GPU  (    3795 calls)
     s_psi        :      1.20s CPU      1.24s WALL (    3795 calls)
     g_psi        :      0.02s CPU      0.11s WALL (    3047 calls)
                                        0.07s GPU  (    3047 calls)

     Called by h_psi:
     h_psi:calbec :      0.16s CPU      0.35s WALL (    3795 calls)
                                        0.30s GPU  (    3795 calls)
     vloc_psi     :      4.94s CPU      4.99s WALL (    3795 calls)
                                        4.94s GPU  (    3795 calls)
     add_vuspsi   :      1.14s CPU      1.32s WALL (    3795 calls)
                                        1.27s GPU  (    3795 calls)

     General routines
     calbec       :      0.18s CPU      0.21s WALL (    4645 calls)
     fft          :      5.95s CPU      1.05s WALL (     563 calls)
                                        0.03s GPU  (     519 calls)
     ffts         :      2.85s CPU      0.64s WALL (     888 calls)
                                        0.02s GPU  (     844 calls)
     fftw         :      0.36s CPU      2.63s WALL (   20400 calls)
                                        2.40s GPU  (   20400 calls)
     interpolate  :      9.01s CPU      1.68s WALL (      44 calls)
 
     Parallel routines

     PAW routines
     PAW_pot      :    221.58s CPU     30.21s WALL (      22 calls)
     PAW_symme    :      0.04s CPU      0.01s WALL (      43 calls)
 
     PWSCF        :   4m22.65s CPU   1m 3.45s WALL

 
   This run was terminated on:   3:23:14  12Jul2026            

=------------------------------------------------------------------------------=
   JOB DONE.
=------------------------------------------------------------------------------=
Warning: ieee_divide_by_zero is signaling
Warning: ieee_inexact is signaling
FORTRAN STOP
