
     Program PWSCF v.7.3.1 starts on 12Jul2026 at  2:14:25 

     This program is part of the open-source Quantum ESPRESSO suite
     for quantum simulation of materials; please cite
         "P. Giannozzi et al., J. Phys.:Condens. Matter 21 395502 (2009);
         "P. Giannozzi et al., J. Phys.:Condens. Matter 29 465901 (2017);
         "P. Giannozzi et al., J. Chem. Phys. 152 154105 (2020);
          URL http://www.quantum-espresso.org", 
     in publications or presentations arising from this work. More details at
     http://www.quantum-espresso.org/quote

     Parallel version (MPI & OpenMP), running on      14 processor cores
     Number of MPI processes:                 1
     Threads/MPI process:                    14

     MPI processes distributed on     1 nodes
     852291 MiB available memory on the printing compute node when the environment starts
 
     Reading input from pw.in

     Current dimensions of program PWSCF are:
     Max number of different atomic species (ntypx) = 10
     Max number of k-points (npk) =  40000
     Max angular momentum in pseudopotentials (lmaxx) =  4
     file Co.pbe-spn-kjpaw_psl.0.3.1.UPF: wavefunction(s)  3P 3D renormalized
     file O.pbe-n-kjpaw_psl.1.0.0.UPF: wavefunction(s)  2S 2P renormalized
     file Na.pbe-spn-kjpaw_psl.1.0.0.UPF: wavefunction(s)  2P renormalized
 
     Subspace diagonalization in iterative solution of the eigenvalue problem:
     a serial algorithm will be used

 
     G-vector sticks info
     --------------------
     sticks:   dense  smooth     PW     G-vecs:    dense   smooth      PW
     Sum         979     499    151                59641    21167    3485
 
     Using Slab Decomposition
 


     bravais-lattice index     =            4
     lattice parameter (alat)  =       5.4575  a.u.
     unit-cell volume          =     336.3339 (a.u.)^3
     number of atoms/cell      =            4
     number of atomic types    =            3
     number of electrons       =        38.00
     number of Kohn-Sham states=           27
     kinetic-energy cutoff     =      60.0000  Ry
     charge density cutoff     =     480.0000  Ry
     scf convergence threshold =      1.0E-08
     mixing beta               =       0.3000
     number of iterations used =            8  plain     mixing
     Exchange-correlation= SLA  PW   PBX  PBC
                           (   1   4   3   4   0   0   0)

     GPU acceleration is ACTIVE.  1 visible GPUs per MPI rank
     GPU-aware MPI enabled


     GPU used by master process:

        Device Number: 0
        Device name: NVIDIA A100-SXM4-80GB
        Compute capability : 80
        Ratio of single to double precision performance  : 2
        Memory Clock Rate (KHz): 1593000
        Memory Bus Width (bits): 5120
        Peak Memory Bandwidth (GB/s): ******

     celldm(1)=   5.457529  celldm(2)=   0.000000  celldm(3)=   2.389197
     celldm(4)=   0.000000  celldm(5)=   0.000000  celldm(6)=   0.000000

     crystal axes: (cart. coord. in units of alat)
               a(1) = (   1.000000   0.000000   0.000000 )  
               a(2) = (  -0.500000   0.866025   0.000000 )  
               a(3) = (   0.000000   0.000000   2.389197 )  

     reciprocal axes: (cart. coord. in units 2 pi/alat)
               b(1) = (  1.000000  0.577350 -0.000000 )  
               b(2) = (  0.000000  1.154701  0.000000 )  
               b(3) = (  0.000000 -0.000000  0.418551 )  


     PseudoPot. # 1 for Co read from file:
     ../../pseudo/Co.pbe-spn-kjpaw_psl.0.3.1.UPF
     MD5 check sum: 3c0a43779828c046024e4f3be63f8e67
     Pseudo is Projector augmented-wave + core cor, Zval = 17.0
     Generated using &quot;atomic&quot; code by A. Dal Corso  v.6.2.2
     Shape of augmentation charge: PSQ
     Using radial grid of 1193 points,  6 beta functions with: 
                l(1) =   0
                l(2) =   0
                l(3) =   1
                l(4) =   1
                l(5) =   2
                l(6) =   2
     Q(r) pseudized with 0 coefficients 


     PseudoPot. # 2 for O  read from file:
     ../../pseudo/O.pbe-n-kjpaw_psl.1.0.0.UPF
     MD5 check sum: e99d9cef9b487d1ca56f5b95ecd0fd7a
     Pseudo is Projector augmented-wave + core cor, Zval =  6.0
     Generated using &quot;atomic&quot; code by A. Dal Corso  v.6.3
     Shape of augmentation charge: PSQ
     Using radial grid of 1095 points,  4 beta functions with: 
                l(1) =   0
                l(2) =   0
                l(3) =   1
                l(4) =   1
     Q(r) pseudized with 0 coefficients 


     PseudoPot. # 3 for Na read from file:
     ../../pseudo/Na.pbe-spn-kjpaw_psl.1.0.0.UPF
     MD5 check sum: 05b4deb74e3932c23ab016979dc8b5d4
     Pseudo is Projector augmented-wave + core cor, Zval =  9.0
     Generated using &quot;atomic&quot; code by A. Dal Corso  v.6.3
     Shape of augmentation charge: PSQ
     Using radial grid of 1121 points,  4 beta functions with: 
                l(1) =   0
                l(2) =   0
                l(3) =   1
                l(4) =   1
     Q(r) pseudized with 0 coefficients 


     atomic species   valence    mass     pseudopotential
     Co               17.00    58.93300     Co( 1.00)
     O                 6.00    15.99900     O ( 1.00)
     Na                9.00    22.98977     Na( 1.00)

     Starting magnetic structure 
     atomic species   magnetization
     Co              0.300
     O               0.000
     Na              0.000

      6 Sym. Ops. (no inversion) found


                                    s                        frac. trans.

      isym =  1     identity                                     

 cryst.   s( 1) = (     1          0          0      )
                  (     0          1          0      )
                  (     0          0          1      )

 cart.    s( 1) = (  1.0000000  0.0000000  0.0000000 )
                  (  0.0000000  1.0000000  0.0000000 )
                  (  0.0000000  0.0000000  1.0000000 )


      isym =  2     120 deg rotation - cryst. axis [0,0,1]       

 cryst.   s( 2) = (     0          1          0      )
                  (    -1         -1          0      )
                  (     0          0          1      )

 cart.    s( 2) = ( -0.5000000 -0.8660254  0.0000000 )
                  (  0.8660254 -0.5000000  0.0000000 )
                  (  0.0000000  0.0000000  1.0000000 )


      isym =  3     120 deg rotation - cryst. axis [0,0,-1]      

 cryst.   s( 3) = (    -1         -1          0      )
                  (     1          0          0      )
                  (     0          0          1      )

 cart.    s( 3) = ( -0.5000000  0.8660254  0.0000000 )
                  ( -0.8660254 -0.5000000  0.0000000 )
                  (  0.0000000  0.0000000  1.0000000 )


      isym =  4     inv. 180 deg rotation - cart. axis [1,0,0]   

 cryst.   s( 4) = (    -1          0          0      )
                  (     1          1          0      )
                  (     0          0          1      )

 cart.    s( 4) = ( -1.0000000  0.0000000  0.0000000 )
                  (  0.0000000  1.0000000  0.0000000 )
                  (  0.0000000  0.0000000  1.0000000 )


      isym =  5     inv. 180 deg rotation - cryst. axis [0,1,0]  

 cryst.   s( 5) = (     1          1          0      )
                  (     0         -1          0      )
                  (     0          0          1      )

 cart.    s( 5) = (  0.5000000  0.8660254  0.0000000 )
                  (  0.8660254 -0.5000000  0.0000000 )
                  (  0.0000000  0.0000000  1.0000000 )


      isym =  6     inv. 180 deg rotation - cryst. axis [1,1,0]  

 cryst.   s( 6) = (     0         -1          0      )
                  (    -1          0          0      )
                  (     0          0          1      )

 cart.    s( 6) = (  0.5000000 -0.8660254  0.0000000 )
                  ( -0.8660254 -0.5000000  0.0000000 )
                  (  0.0000000  0.0000000  1.0000000 )


     point group C_3v (3m)  
     there are  3 classes
     the character table:

       E     2C3   3s_v 
A_1    1.00  1.00  1.00
A_2    1.00  1.00 -1.00
E      2.00 -1.00  0.00

     the symmetry operations in each class and the name of the first element:

     E        1
          identity                                               
     2C3      2    3
          120 deg rotation - cryst. axis [0,0,1]                 
     3s_v     4    5    6
          inv. 180 deg rotation - cart. axis [1,0,0]             

   Cartesian axes

     site n.     atom                  positions (alat units)
         1        Co     tau(   1) = (   0.0000000   0.0000000   0.0000000  )
         2        O      tau(   2) = (  -0.0000000   0.5773503   0.3324100  )
         3        O      tau(   3) = (   0.5000000   0.2886751   2.0567867  )
         4        Na     tau(   4) = (  -0.0000000   0.5773503   1.2465374  )

   Crystallographic axes

     site n.     atom                  positions (cryst. coord.)
         1        Co     tau(   1) = (  0.0000000  0.0000000  0.0000000  )
         2        O      tau(   2) = (  0.3333333  0.6666667  0.1391304  )
         3        O      tau(   3) = (  0.6666667  0.3333333  0.8608696  )
         4        Na     tau(   4) = (  0.3333333  0.6666667  0.5217391  )

     number of k points=    25  Marzari-Vanderbilt smearing, width (Ry)=  0.0200
                       cart. coord. in units 2pi/alat
        k(    1) = (   0.0000000   0.0000000   0.0000000), wk =   0.0052083
        k(    2) = (   0.0000000   0.0000000   0.1395169), wk =   0.0104167
        k(    3) = (   0.0000000   0.1443376   0.0000000), wk =   0.0312500
        k(    4) = (   0.0000000   0.1443376   0.1395169), wk =   0.0312500
        k(    5) = (   0.0000000   0.2886751   0.0000000), wk =   0.0312500
        k(    6) = (   0.0000000   0.2886751   0.1395169), wk =   0.0312500
        k(    7) = (   0.0000000   0.4330127   0.0000000), wk =   0.0312500
        k(    8) = (   0.0000000   0.4330127   0.1395169), wk =   0.0312500
        k(    9) = (   0.0000000  -0.5773503   0.0000000), wk =   0.0156250
        k(   10) = (   0.0000000  -0.5773503   0.1395169), wk =   0.0312500
        k(   11) = (   0.1250000   0.2165064   0.0000000), wk =   0.0312500
        k(   12) = (   0.1250000   0.2165064   0.1395169), wk =   0.0625000
        k(   13) = (   0.1250000   0.3608439   0.0000000), wk =   0.0625000
        k(   14) = (   0.1250000   0.3608439   0.1395169), wk =   0.0625000
        k(   15) = (   0.1250000   0.5051815   0.0000000), wk =   0.0625000
        k(   16) = (   0.1250000   0.5051815   0.1395169), wk =   0.0625000
        k(   17) = (   0.2500000   0.4330127   0.0000000), wk =   0.0312500
        k(   18) = (   0.2500000   0.4330127   0.1395169), wk =   0.0625000
        k(   19) = (   0.2500000   0.5773503   0.0000000), wk =   0.0312500
        k(   20) = (   0.2500000   0.5773503   0.1395169), wk =   0.0625000
        k(   21) = (   0.0000000  -0.1443376   0.1395169), wk =   0.0312500
        k(   22) = (   0.0000000  -0.2886751   0.1395169), wk =   0.0312500
        k(   23) = (   0.0000000  -0.4330127   0.1395169), wk =   0.0312500
        k(   24) = (  -0.1250000  -0.3608439   0.1395169), wk =   0.0625000
        k(   25) = (  -0.1250000  -0.5051815   0.1395169), wk =   0.0625000

                       cryst. coord.
        k(    1) = (   0.0000000   0.0000000   0.0000000), wk =   0.0052083
        k(    2) = (   0.0000000   0.0000000   0.3333333), wk =   0.0104167
        k(    3) = (   0.0000000   0.1250000   0.0000000), wk =   0.0312500
        k(    4) = (   0.0000000   0.1250000   0.3333333), wk =   0.0312500
        k(    5) = (   0.0000000   0.2500000   0.0000000), wk =   0.0312500
        k(    6) = (   0.0000000   0.2500000   0.3333333), wk =   0.0312500
        k(    7) = (   0.0000000   0.3750000   0.0000000), wk =   0.0312500
        k(    8) = (   0.0000000   0.3750000   0.3333333), wk =   0.0312500
        k(    9) = (   0.0000000  -0.5000000   0.0000000), wk =   0.0156250
        k(   10) = (   0.0000000  -0.5000000   0.3333333), wk =   0.0312500
        k(   11) = (   0.1250000   0.1250000   0.0000000), wk =   0.0312500
        k(   12) = (   0.1250000   0.1250000   0.3333333), wk =   0.0625000
        k(   13) = (   0.1250000   0.2500000   0.0000000), wk =   0.0625000
        k(   14) = (   0.1250000   0.2500000   0.3333333), wk =   0.0625000
        k(   15) = (   0.1250000   0.3750000   0.0000000), wk =   0.0625000
        k(   16) = (   0.1250000   0.3750000   0.3333333), wk =   0.0625000
        k(   17) = (   0.2500000   0.2500000   0.0000000), wk =   0.0312500
        k(   18) = (   0.2500000   0.2500000   0.3333333), wk =   0.0625000
        k(   19) = (   0.2500000   0.3750000   0.0000000), wk =   0.0312500
        k(   20) = (   0.2500000   0.3750000   0.3333333), wk =   0.0625000
        k(   21) = (   0.0000000  -0.1250000   0.3333333), wk =   0.0312500
        k(   22) = (   0.0000000  -0.2500000   0.3333333), wk =   0.0312500
        k(   23) = (   0.0000000  -0.3750000   0.3333333), wk =   0.0312500
        k(   24) = (  -0.1250000  -0.2500000   0.3333333), wk =   0.0625000
        k(   25) = (  -0.1250000  -0.3750000   0.3333333), wk =   0.0625000

     Dense  grid:    59641 G-vectors     FFT dimensions: (  40,  40,  96)

     Smooth grid:    21167 G-vectors     FFT dimensions: (  27,  27,  72)

     Dynamical RAM for                 wfc:       1.09 MB

     Dynamical RAM for     wfc (w. buffer):      55.47 MB

     Dynamical RAM for           str. fact:       2.73 MB

     Dynamical RAM for           local pot:       0.00 MB

     Dynamical RAM for          nlocal pot:       1.69 MB

     Dynamical RAM for                qrad:       5.27 MB

     Dynamical RAM for          rho,v,vnew:      12.49 MB

     Dynamical RAM for               rhoin:       4.16 MB

     Dynamical RAM for            rho*nmix:      29.12 MB

     Dynamical RAM for           G-vectors:       3.57 MB

     Dynamical RAM for          h,s,v(r/c):       0.13 MB

     Dynamical RAM for          <psi|beta>:       0.02 MB

     Dynamical RAM for                 psi:       2.18 MB

     Dynamical RAM for                hpsi:       2.18 MB

     Dynamical RAM for                spsi:       2.18 MB

     Dynamical RAM for      wfcinit/wfcrot:       2.19 MB

     Dynamical RAM for           addusdens:     172.00 MB

     Dynamical RAM for          addusforce:     173.84 MB

     Estimated static dynamical RAM per process >      96.07 MB

     Estimated max dynamical RAM per process >     299.02 MB

     Check: negative core charge=   -0.000008
     Generating pointlists ...
     new r_m :   0.2748 (alat units)  1.4998 (a.u.) for type    1
     new r_m :   0.2748 (alat units)  1.4998 (a.u.) for type    2
     new r_m :   0.3771 (alat units)  2.0579 (a.u.) for type    3

     Initial potential from superposition of free atoms

     starting charge      37.9934, renormalised to      38.0000
     Starting wfcs are   23 randomized atomic wfcs +    4 random wfcs
     Checking if some PAW data can be deallocated... 

     total cpu time spent up to now is        3.7 secs

     Self-consistent Calculation
[tb_dev] Currently allocated     6.54E-01 Mbytes, locked:    0 /   6
[tb_pin] Currently allocated     0.00E+00 Mbytes, locked:    0 /   0

     iteration #  1     ecut=    60.00 Ry     beta= 0.30
     Davidson diagonalization with overlap

---- Real-time Memory Report at c_bands before calling an iterative solver
           663 MiB given to the printing process from OS
             0 MiB allocation reported by mallinfo(arena+hblkhd)
        851971 MiB available memory on the node where the printing process lives
     GPU memory used/free/total (MiB): 998 / 80152 / 81151
------------------
     ethr =  1.00E-02,  avg # of iterations =  9.7

     total cpu time spent up to now is        5.9 secs

     total energy              =    -568.71586052 Ry
     estimated scf accuracy    <       1.52534929 Ry

     total magnetization       =     4.02 Bohr mag/cell
     absolute magnetization    =     4.02 Bohr mag/cell
[tb_dev] Currently allocated     3.05E-05 Mbytes, locked:    0 /   2
[tb_pin] Currently allocated     0.00E+00 Mbytes, locked:    0 /   0

     iteration #  2     ecut=    60.00 Ry     beta= 0.30
     Davidson diagonalization with overlap

---- Real-time Memory Report at c_bands before calling an iterative solver
           705 MiB given to the printing process from OS
             0 MiB allocation reported by mallinfo(arena+hblkhd)
        852166 MiB available memory on the node where the printing process lives
     GPU memory used/free/total (MiB): 1012 / 80138 / 81151
------------------
     ethr =  4.01E-03,  avg # of iterations =  2.1

     total cpu time spent up to now is        7.1 secs

     total energy              =    -568.86313996 Ry
     estimated scf accuracy    <       2.06202953 Ry

     total magnetization       =     0.98 Bohr mag/cell
     absolute magnetization    =     1.33 Bohr mag/cell
[tb_dev] Currently allocated     3.05E-05 Mbytes, locked:    0 /   2
[tb_pin] Currently allocated     0.00E+00 Mbytes, locked:    0 /   0

     iteration #  3     ecut=    60.00 Ry     beta= 0.30
     Davidson diagonalization with overlap

---- Real-time Memory Report at c_bands before calling an iterative solver
           706 MiB given to the printing process from OS
             0 MiB allocation reported by mallinfo(arena+hblkhd)
        852027 MiB available memory on the node where the printing process lives
     GPU memory used/free/total (MiB): 1012 / 80138 / 81151
------------------
     ethr =  4.01E-03,  avg # of iterations =  1.2

     total cpu time spent up to now is        8.2 secs

     total energy              =    -569.05765571 Ry
     estimated scf accuracy    <       0.63960382 Ry

     total magnetization       =     3.66 Bohr mag/cell
     absolute magnetization    =     3.69 Bohr mag/cell
[tb_dev] Currently allocated     3.05E-05 Mbytes, locked:    0 /   2
[tb_pin] Currently allocated     0.00E+00 Mbytes, locked:    0 /   0

     iteration #  4     ecut=    60.00 Ry     beta= 0.30
     Davidson diagonalization with overlap

---- Real-time Memory Report at c_bands before calling an iterative solver
           707 MiB given to the printing process from OS
             0 MiB allocation reported by mallinfo(arena+hblkhd)
        851980 MiB available memory on the node where the printing process lives
     GPU memory used/free/total (MiB): 1012 / 80138 / 81151
------------------
     ethr =  1.68E-03,  avg # of iterations =  1.8

     total cpu time spent up to now is        9.4 secs

     total energy              =    -569.16935626 Ry
     estimated scf accuracy    <       0.21648344 Ry

     total magnetization       =     2.34 Bohr mag/cell
     absolute magnetization    =     2.35 Bohr mag/cell
[tb_dev] Currently allocated     3.05E-05 Mbytes, locked:    0 /   2
[tb_pin] Currently allocated     0.00E+00 Mbytes, locked:    0 /   0

     iteration #  5     ecut=    60.00 Ry     beta= 0.30
     Davidson diagonalization with overlap

---- Real-time Memory Report at c_bands before calling an iterative solver
           707 MiB given to the printing process from OS
             0 MiB allocation reported by mallinfo(arena+hblkhd)
        851766 MiB available memory on the node where the printing process lives
     GPU memory used/free/total (MiB): 1012 / 80138 / 81151
------------------
     ethr =  5.70E-04,  avg # of iterations =  2.7

     total cpu time spent up to now is       10.7 secs

     total energy              =    -569.19574433 Ry
     estimated scf accuracy    <       0.20420239 Ry

     total magnetization       =     1.74 Bohr mag/cell
     absolute magnetization    =     1.86 Bohr mag/cell
[tb_dev] Currently allocated     3.05E-05 Mbytes, locked:    0 /   2
[tb_pin] Currently allocated     0.00E+00 Mbytes, locked:    0 /   0

     iteration #  6     ecut=    60.00 Ry     beta= 0.30
     Davidson diagonalization with overlap

---- Real-time Memory Report at c_bands before calling an iterative solver
           708 MiB given to the printing process from OS
             0 MiB allocation reported by mallinfo(arena+hblkhd)
        851743 MiB available memory on the node where the printing process lives
     GPU memory used/free/total (MiB): 1012 / 80138 / 81151
------------------
     ethr =  5.37E-04,  avg # of iterations =  1.4

     total cpu time spent up to now is       11.8 secs

     total energy              =    -569.22016224 Ry
     estimated scf accuracy    <       0.11511561 Ry

     total magnetization       =     1.32 Bohr mag/cell
     absolute magnetization    =     1.51 Bohr mag/cell
[tb_dev] Currently allocated     3.05E-05 Mbytes, locked:    0 /   2
[tb_pin] Currently allocated     0.00E+00 Mbytes, locked:    0 /   0

     iteration #  7     ecut=    60.00 Ry     beta= 0.30
     Davidson diagonalization with overlap

---- Real-time Memory Report at c_bands before calling an iterative solver
           709 MiB given to the printing process from OS
             0 MiB allocation reported by mallinfo(arena+hblkhd)
        851718 MiB available memory on the node where the printing process lives
     GPU memory used/free/total (MiB): 1012 / 80138 / 81151
------------------
     ethr =  3.03E-04,  avg # of iterations =  2.3

     total cpu time spent up to now is       13.0 secs

     total energy              =    -569.25054241 Ry
     estimated scf accuracy    <       0.05487186 Ry

     total magnetization       =     0.74 Bohr mag/cell
     absolute magnetization    =     1.04 Bohr mag/cell
[tb_dev] Currently allocated     3.05E-05 Mbytes, locked:    0 /   2
[tb_pin] Currently allocated     0.00E+00 Mbytes, locked:    0 /   0

     iteration #  8     ecut=    60.00 Ry     beta= 0.30
     Davidson diagonalization with overlap

---- Real-time Memory Report at c_bands before calling an iterative solver
           711 MiB given to the printing process from OS
             0 MiB allocation reported by mallinfo(arena+hblkhd)
        852252 MiB available memory on the node where the printing process lives
     GPU memory used/free/total (MiB): 1012 / 80138 / 81151
------------------
     ethr =  1.44E-04,  avg # of iterations =  3.2

     total cpu time spent up to now is       14.3 secs

     total energy              =    -569.25316767 Ry
     estimated scf accuracy    <       0.09498867 Ry

     total magnetization       =     0.18 Bohr mag/cell
     absolute magnetization    =     0.60 Bohr mag/cell
[tb_dev] Currently allocated     3.05E-05 Mbytes, locked:    0 /   2
[tb_pin] Currently allocated     0.00E+00 Mbytes, locked:    0 /   0

     iteration #  9     ecut=    60.00 Ry     beta= 0.30
     Davidson diagonalization with overlap

---- Real-time Memory Report at c_bands before calling an iterative solver
           714 MiB given to the printing process from OS
             0 MiB allocation reported by mallinfo(arena+hblkhd)
        852031 MiB available memory on the node where the printing process lives
     GPU memory used/free/total (MiB): 1012 / 80138 / 81151
------------------
     ethr =  1.44E-04,  avg # of iterations =  1.9

     total cpu time spent up to now is       15.4 secs

     total energy              =    -569.26366485 Ry
     estimated scf accuracy    <       0.02958448 Ry

     total magnetization       =     0.38 Bohr mag/cell
     absolute magnetization    =     0.64 Bohr mag/cell
[tb_dev] Currently allocated     3.05E-05 Mbytes, locked:    0 /   2
[tb_pin] Currently allocated     0.00E+00 Mbytes, locked:    0 /   0

     iteration # 10     ecut=    60.00 Ry     beta= 0.30
     Davidson diagonalization with overlap

---- Real-time Memory Report at c_bands before calling an iterative solver
           715 MiB given to the printing process from OS
             0 MiB allocation reported by mallinfo(arena+hblkhd)
        851938 MiB available memory on the node where the printing process lives
     GPU memory used/free/total (MiB): 1012 / 80138 / 81151
------------------
     ethr =  7.79E-05,  avg # of iterations =  3.3

     total cpu time spent up to now is       16.7 secs

     total energy              =    -569.26926303 Ry
     estimated scf accuracy    <       0.01459497 Ry

     total magnetization       =     0.04 Bohr mag/cell
     absolute magnetization    =     0.17 Bohr mag/cell
[tb_dev] Currently allocated     3.05E-05 Mbytes, locked:    0 /   2
[tb_pin] Currently allocated     0.00E+00 Mbytes, locked:    0 /   0

     iteration # 11     ecut=    60.00 Ry     beta= 0.30
     Davidson diagonalization with overlap

---- Real-time Memory Report at c_bands before calling an iterative solver
           715 MiB given to the printing process from OS
             0 MiB allocation reported by mallinfo(arena+hblkhd)
        851961 MiB available memory on the node where the printing process lives
     GPU memory used/free/total (MiB): 1012 / 80138 / 81151
------------------
     ethr =  3.84E-05,  avg # of iterations =  3.9

     total cpu time spent up to now is       18.1 secs

     total energy              =    -569.27029554 Ry
     estimated scf accuracy    <       0.00072777 Ry

     total magnetization       =     0.02 Bohr mag/cell
     absolute magnetization    =     0.12 Bohr mag/cell
[tb_dev] Currently allocated     3.05E-05 Mbytes, locked:    0 /   2
[tb_pin] Currently allocated     0.00E+00 Mbytes, locked:    0 /   0

     iteration # 12     ecut=    60.00 Ry     beta= 0.30
     Davidson diagonalization with overlap

---- Real-time Memory Report at c_bands before calling an iterative solver
           715 MiB given to the printing process from OS
             0 MiB allocation reported by mallinfo(arena+hblkhd)
        851810 MiB available memory on the node where the printing process lives
     GPU memory used/free/total (MiB): 1012 / 80138 / 81151
------------------
     c_bands:  1 eigenvalues not converged
     c_bands:  1 eigenvalues not converged
     ethr =  1.92E-06,  avg # of iterations = 10.2

     total cpu time spent up to now is       20.5 secs

     total energy              =    -569.27125764 Ry
     estimated scf accuracy    <       0.00487323 Ry

     total magnetization       =     0.18 Bohr mag/cell
     absolute magnetization    =     0.26 Bohr mag/cell
[tb_dev] Currently allocated     3.05E-05 Mbytes, locked:    0 /   2
[tb_pin] Currently allocated     0.00E+00 Mbytes, locked:    0 /   0

     iteration # 13     ecut=    60.00 Ry     beta= 0.30
     Davidson diagonalization with overlap

---- Real-time Memory Report at c_bands before calling an iterative solver
           715 MiB given to the printing process from OS
             0 MiB allocation reported by mallinfo(arena+hblkhd)
        851852 MiB available memory on the node where the printing process lives
     GPU memory used/free/total (MiB): 1012 / 80138 / 81151
------------------
     ethr =  1.92E-06,  avg # of iterations =  1.8

     total cpu time spent up to now is       21.6 secs

     total energy              =    -569.27140783 Ry
     estimated scf accuracy    <       0.00080058 Ry

     total magnetization       =     0.19 Bohr mag/cell
     absolute magnetization    =     0.27 Bohr mag/cell
[tb_dev] Currently allocated     3.05E-05 Mbytes, locked:    0 /   2
[tb_pin] Currently allocated     0.00E+00 Mbytes, locked:    0 /   0

     iteration # 14     ecut=    60.00 Ry     beta= 0.30
     Davidson diagonalization with overlap

---- Real-time Memory Report at c_bands before calling an iterative solver
           715 MiB given to the printing process from OS
             0 MiB allocation reported by mallinfo(arena+hblkhd)
        851849 MiB available memory on the node where the printing process lives
     GPU memory used/free/total (MiB): 1012 / 80138 / 81151
------------------
     ethr =  1.92E-06,  avg # of iterations =  1.8

     total cpu time spent up to now is       22.7 secs

     total energy              =    -569.27153798 Ry
     estimated scf accuracy    <       0.00006131 Ry

     total magnetization       =     0.18 Bohr mag/cell
     absolute magnetization    =     0.25 Bohr mag/cell
[tb_dev] Currently allocated     3.05E-05 Mbytes, locked:    0 /   2
[tb_pin] Currently allocated     0.00E+00 Mbytes, locked:    0 /   0

     iteration # 15     ecut=    60.00 Ry     beta= 0.30
     Davidson diagonalization with overlap

---- Real-time Memory Report at c_bands before calling an iterative solver
           715 MiB given to the printing process from OS
             0 MiB allocation reported by mallinfo(arena+hblkhd)
        851857 MiB available memory on the node where the printing process lives
     GPU memory used/free/total (MiB): 1012 / 80138 / 81151
------------------
     ethr =  1.61E-07,  avg # of iterations =  5.9

     total cpu time spent up to now is       24.4 secs

     total energy              =    -569.27158348 Ry
     estimated scf accuracy    <       0.00003188 Ry

     total magnetization       =     0.19 Bohr mag/cell
     absolute magnetization    =     0.25 Bohr mag/cell
[tb_dev] Currently allocated     3.05E-05 Mbytes, locked:    0 /   2
[tb_pin] Currently allocated     0.00E+00 Mbytes, locked:    0 /   0

     iteration # 16     ecut=    60.00 Ry     beta= 0.30
     Davidson diagonalization with overlap

---- Real-time Memory Report at c_bands before calling an iterative solver
           715 MiB given to the printing process from OS
             0 MiB allocation reported by mallinfo(arena+hblkhd)
        851826 MiB available memory on the node where the printing process lives
     GPU memory used/free/total (MiB): 1012 / 80138 / 81151
------------------
     ethr =  8.39E-08,  avg # of iterations =  2.6

     total cpu time spent up to now is       25.7 secs

     total energy              =    -569.27159328 Ry
     estimated scf accuracy    <       0.00002071 Ry

     total magnetization       =     0.19 Bohr mag/cell
     absolute magnetization    =     0.26 Bohr mag/cell
[tb_dev] Currently allocated     3.05E-05 Mbytes, locked:    0 /   2
[tb_pin] Currently allocated     0.00E+00 Mbytes, locked:    0 /   0

     iteration # 17     ecut=    60.00 Ry     beta= 0.30
     Davidson diagonalization with overlap

---- Real-time Memory Report at c_bands before calling an iterative solver
           715 MiB given to the printing process from OS
             0 MiB allocation reported by mallinfo(arena+hblkhd)
        852270 MiB available memory on the node where the printing process lives
     GPU memory used/free/total (MiB): 1012 / 80138 / 81151
------------------
     ethr =  5.45E-08,  avg # of iterations =  2.3

     total cpu time spent up to now is       26.8 secs

     total energy              =    -569.27159854 Ry
     estimated scf accuracy    <       0.00003038 Ry

     total magnetization       =     0.18 Bohr mag/cell
     absolute magnetization    =     0.25 Bohr mag/cell
[tb_dev] Currently allocated     3.05E-05 Mbytes, locked:    0 /   2
[tb_pin] Currently allocated     0.00E+00 Mbytes, locked:    0 /   0

     iteration # 18     ecut=    60.00 Ry     beta= 0.30
     Davidson diagonalization with overlap

---- Real-time Memory Report at c_bands before calling an iterative solver
           715 MiB given to the printing process from OS
             0 MiB allocation reported by mallinfo(arena+hblkhd)
        852054 MiB available memory on the node where the printing process lives
     GPU memory used/free/total (MiB): 1012 / 80138 / 81151
------------------
     ethr =  5.45E-08,  avg # of iterations =  1.8

     total cpu time spent up to now is       28.0 secs

     total energy              =    -569.27160247 Ry
     estimated scf accuracy    <       0.00001037 Ry

     total magnetization       =     0.19 Bohr mag/cell
     absolute magnetization    =     0.25 Bohr mag/cell
[tb_dev] Currently allocated     3.05E-05 Mbytes, locked:    0 /   2
[tb_pin] Currently allocated     0.00E+00 Mbytes, locked:    0 /   0

     iteration # 19     ecut=    60.00 Ry     beta= 0.30
     Davidson diagonalization with overlap

---- Real-time Memory Report at c_bands before calling an iterative solver
           715 MiB given to the printing process from OS
             0 MiB allocation reported by mallinfo(arena+hblkhd)
        852044 MiB available memory on the node where the printing process lives
     GPU memory used/free/total (MiB): 1012 / 80138 / 81151
------------------
     ethr =  2.73E-08,  avg # of iterations =  2.7

     total cpu time spent up to now is       29.2 secs

     total energy              =    -569.27160475 Ry
     estimated scf accuracy    <       0.00000111 Ry

     total magnetization       =     0.19 Bohr mag/cell
     absolute magnetization    =     0.26 Bohr mag/cell
[tb_dev] Currently allocated     3.05E-05 Mbytes, locked:    0 /   2
[tb_pin] Currently allocated     0.00E+00 Mbytes, locked:    0 /   0

     iteration # 20     ecut=    60.00 Ry     beta= 0.30
     Davidson diagonalization with overlap

---- Real-time Memory Report at c_bands before calling an iterative solver
           715 MiB given to the printing process from OS
             0 MiB allocation reported by mallinfo(arena+hblkhd)
        851806 MiB available memory on the node where the printing process lives
     GPU memory used/free/total (MiB): 1012 / 80138 / 81151
------------------
     ethr =  2.92E-09,  avg # of iterations =  6.8

     total cpu time spent up to now is       31.0 secs

     total energy              =    -569.27160567 Ry
     estimated scf accuracy    <       0.00000035 Ry

     total magnetization       =     0.19 Bohr mag/cell
     absolute magnetization    =     0.25 Bohr mag/cell
[tb_dev] Currently allocated     3.05E-05 Mbytes, locked:    0 /   2
[tb_pin] Currently allocated     0.00E+00 Mbytes, locked:    0 /   0

     iteration # 21     ecut=    60.00 Ry     beta= 0.30
     Davidson diagonalization with overlap

---- Real-time Memory Report at c_bands before calling an iterative solver
           715 MiB given to the printing process from OS
             0 MiB allocation reported by mallinfo(arena+hblkhd)
        851737 MiB available memory on the node where the printing process lives
     GPU memory used/free/total (MiB): 1012 / 80138 / 81151
------------------
     ethr =  9.09E-10,  avg # of iterations =  3.6

     total cpu time spent up to now is       32.4 secs

     total energy              =    -569.27160582 Ry
     estimated scf accuracy    <       0.00000006 Ry

     total magnetization       =     0.19 Bohr mag/cell
     absolute magnetization    =     0.25 Bohr mag/cell
[tb_dev] Currently allocated     3.05E-05 Mbytes, locked:    0 /   2
[tb_pin] Currently allocated     0.00E+00 Mbytes, locked:    0 /   0

     iteration # 22     ecut=    60.00 Ry     beta= 0.30
     Davidson diagonalization with overlap

---- Real-time Memory Report at c_bands before calling an iterative solver
           715 MiB given to the printing process from OS
             0 MiB allocation reported by mallinfo(arena+hblkhd)
        851731 MiB available memory on the node where the printing process lives
     GPU memory used/free/total (MiB): 1012 / 80138 / 81151
------------------
     ethr =  1.46E-10,  avg # of iterations =  5.8

     total cpu time spent up to now is       34.1 secs

     total energy              =    -569.27160586 Ry
     estimated scf accuracy    <       0.00000008 Ry

     total magnetization       =     0.19 Bohr mag/cell
     absolute magnetization    =     0.25 Bohr mag/cell
[tb_dev] Currently allocated     3.05E-05 Mbytes, locked:    0 /   2
[tb_pin] Currently allocated     0.00E+00 Mbytes, locked:    0 /   0

     iteration # 23     ecut=    60.00 Ry     beta= 0.30
     Davidson diagonalization with overlap

---- Real-time Memory Report at c_bands before calling an iterative solver
           715 MiB given to the printing process from OS
             0 MiB allocation reported by mallinfo(arena+hblkhd)
        851710 MiB available memory on the node where the printing process lives
     GPU memory used/free/total (MiB): 1012 / 80138 / 81151
------------------
     ethr =  1.46E-10,  avg # of iterations =  1.7

     total cpu time spent up to now is       35.2 secs

     total energy              =    -569.27160587 Ry
     estimated scf accuracy    <       0.00000002 Ry

     total magnetization       =     0.19 Bohr mag/cell
     absolute magnetization    =     0.25 Bohr mag/cell
[tb_dev] Currently allocated     3.05E-05 Mbytes, locked:    0 /   2
[tb_pin] Currently allocated     0.00E+00 Mbytes, locked:    0 /   0

     iteration # 24     ecut=    60.00 Ry     beta= 0.30
     Davidson diagonalization with overlap

---- Real-time Memory Report at c_bands before calling an iterative solver
           715 MiB given to the printing process from OS
             0 MiB allocation reported by mallinfo(arena+hblkhd)
        851695 MiB available memory on the node where the printing process lives
     GPU memory used/free/total (MiB): 1012 / 80138 / 81151
------------------
     ethr =  4.14E-11,  avg # of iterations =  4.3

     total cpu time spent up to now is       36.7 secs

     total energy              =    -569.27160589 Ry
     estimated scf accuracy    <       0.00000002 Ry

     total magnetization       =     0.19 Bohr mag/cell
     absolute magnetization    =     0.25 Bohr mag/cell
[tb_dev] Currently allocated     3.05E-05 Mbytes, locked:    0 /   2
[tb_pin] Currently allocated     0.00E+00 Mbytes, locked:    0 /   0

     iteration # 25     ecut=    60.00 Ry     beta= 0.30
     Davidson diagonalization with overlap

---- Real-time Memory Report at c_bands before calling an iterative solver
           715 MiB given to the printing process from OS
             0 MiB allocation reported by mallinfo(arena+hblkhd)
        851672 MiB available memory on the node where the printing process lives
     GPU memory used/free/total (MiB): 1012 / 80138 / 81151
------------------
     ethr =  4.14E-11,  avg # of iterations =  1.9
 
     Magnetic moment per site  (integrated on atomic sphere of radius R)
     atom   1 (R=0.275)  charge= 14.1349  magn=  0.1826
     atom   2 (R=0.275)  charge=  5.2405  magn=  0.0107
     atom   3 (R=0.275)  charge=  5.2504  magn=  0.0093
     atom   4 (R=0.377)  charge=  8.0914  magn= -0.0101

     total cpu time spent up to now is       37.8 secs

     End of self-consistent calculation

 ------ SPIN UP ------------


          k = 0.0000 0.0000 0.0000 (  2625 PWs)   bands (ev):

   -87.5738 -50.8086 -50.8086 -50.8073 -45.9711 -17.8070 -17.8070 -17.7628
   -11.9425 -10.1180   1.4602   2.5521   2.5521   4.8838   5.9004   5.9004
     6.3744   6.4767   6.4767   7.9024  10.0457  10.0457  13.2064  15.3194
    18.0490  22.4186  24.6952

     occupation numbers 
     1.0000   1.0000   1.0000   1.0000   1.0000   1.0000   1.0000   1.0000
     1.0000   1.0000   1.0000   1.0000   1.0000   1.0000   1.0000   1.0000
     1.0000   1.0000   1.0000   0.1189   0.0000   0.0000   0.0000   0.0000
     0.0000   0.0000   0.0000

          k = 0.0000 0.0000 0.1395 (  2666 PWs)   bands (ev):

   -87.5738 -50.8088 -50.8088 -50.8075 -45.9712 -17.8075 -17.8075 -17.7635
   -11.9358 -10.1279   1.6147   2.5519   2.5519   4.2085   5.9007   5.9007
     6.4766   6.4766   7.2387   7.8314  10.0451  10.0451  12.2761  16.3074
    17.9752  22.2133  24.7804

     occupation numbers 
     1.0000   1.0000   1.0000   1.0000   1.0000   1.0000   1.0000   1.0000
     1.0000   1.0000   1.0000   1.0000   1.0000   1.0000   1.0000   1.0000
     1.0000   1.0000   1.0517   0.2256   0.0000   0.0000   0.0000   0.0000
     0.0000   0.0000   0.0000

          k = 0.0000 0.1443 0.0000 (  2643 PWs)   bands (ev):

   -87.5730 -50.8172 -50.8107 -50.8062 -45.9660 -17.8508 -17.8166 -17.7558
   -11.7719 -10.1134   1.6877   2.2821   2.6546   4.8187   5.3043   5.3536
     6.6621   6.7706   6.9330   8.0691   9.5692   9.9455  13.4978  15.9501
    18.7110  21.5734  22.3774

     occupation numbers 
     1.0000   1.0000   1.0000   1.0000   1.0000   1.0000   1.0000   1.0000
     1.0000   1.0000   1.0000   1.0000   1.0000   1.0000   1.0000   1.0000
     1.0000   1.0001   1.0014   0.0160   0.0000   0.0000   0.0000   0.0000
     0.0000   0.0000   0.0000

          k = 0.0000 0.1443 0.1395 (  2651 PWs)   bands (ev):

   -87.5730 -50.8172 -50.8108 -50.8063 -45.9660 -17.8509 -17.8166 -17.7562
   -11.7659 -10.1219   1.8160   2.2482   2.6545   4.7443   4.8712   5.3538
     6.7237   6.9330   7.3829   7.9184   9.7119   9.9453  12.7185  16.8817
    18.4514  21.6003  22.3948

     occupation numbers 
     1.0000   1.0000   1.0000   1.0000   1.0000   1.0000   1.0000   1.0000
     1.0000   1.0000   1.0000   1.0000   1.0000   1.0000   1.0000   1.0000
     1.0000   1.0014   1.0825   0.1011   0.0000   0.0000   0.0000   0.0000
     0.0000   0.0000   0.0000

          k = 0.0000 0.2887 0.0000 (  2620 PWs)   bands (ev):

   -87.5712 -50.8374 -50.8155 -50.8031 -45.9535 -17.9543 -17.8389 -17.7381
   -11.3246 -10.1150   1.8886   2.2721   2.8976   3.3880   4.7503   5.6393
     6.8528   7.2282   7.2555   8.2841   9.1776   9.8191  14.0777  17.3294
    18.0445  20.1373  21.4838

     occupation numbers 
     1.0000   1.0000   1.0000   1.0000   1.0000   1.0000   1.0000   1.0000
     1.0000   1.0000   1.0000   1.0000   1.0000   1.0000   1.0000   1.0000
     1.0003   1.0481   1.0575   0.0004   0.0000   0.0000   0.0000   0.0000
     0.0000   0.0000   0.0000

          k = 0.0000 0.2887 0.1395 (  2636 PWs)   bands (ev):

   -87.5712 -50.8375 -50.8156 -50.8032 -45.9535 -17.9544 -17.8391 -17.7384
   -11.3203 -10.1203   1.8346   2.3545   2.8976   3.4320   4.7502   5.4816
     6.7785   7.2281   7.5297   7.8709   9.6629   9.8190  13.6345  17.6599
    18.3038  19.6956  21.5954

     occupation numbers 
     1.0000   1.0000   1.0000   1.0000   1.0000   1.0000   1.0000   1.0000
     1.0000   1.0000   1.0000   1.0000   1.0000   1.0000   1.0000   1.0000
     1.0001   1.0480   0.9557   0.1605   0.0000   0.0000   0.0000   0.0000
     0.0000   0.0000   0.0000

          k = 0.0000 0.4330 0.0000 (  2652 PWs)   bands (ev):

   -87.5694 -50.8579 -50.8206 -50.8002 -45.9411 -18.0565 -17.8618 -17.7209
   -10.7880 -10.1651   1.3966   2.3652   3.0928   3.3366   4.4719   5.1192
     6.7814   7.1123   7.3203   8.9316   9.8514  10.0379  14.6122  15.1264
    18.5506  19.2940  20.9142

     occupation numbers 
     1.0000   1.0000   1.0000   1.0000   1.0000   1.0000   1.0000   1.0000
     1.0000   1.0000   1.0000   1.0000   1.0000   1.0000   1.0000   1.0000
     1.0001   1.0167   1.0773   0.0000   0.0000   0.0000   0.0000   0.0000
     0.0000   0.0000   0.0000

          k = 0.0000 0.4330 0.1395 (  2641 PWs)   bands (ev):

   -87.5694 -50.8578 -50.8205 -50.8002 -45.9411 -18.0563 -17.8616 -17.7209
   -10.7861 -10.1670   1.3812   2.3506   3.0931   3.3835   4.4716   5.1513
     6.7622   7.1122   7.3324   8.6613   9.8515  10.3403  14.5497  14.9516
    19.0602  19.4527  20.5087

     occupation numbers 
     1.0000   1.0000   1.0000   1.0000   1.0000   1.0000   1.0000   1.0000
     1.0000   1.0000   1.0000   1.0000   1.0000   1.0000   1.0000   1.0000
     1.0001   1.0167   1.0799   0.0000   0.0000   0.0000   0.0000   0.0000
     0.0000   0.0000   0.0000

          k = 0.0000-0.5774 0.0000 (  2642 PWs)   bands (ev):

   -87.5686 -50.8663 -50.8226 -50.7988 -45.9359 -18.0982 -17.8710 -17.7134
   -10.4551 -10.2811   1.0065   2.4728   3.1360   3.6459   4.4521   4.7254
     6.6353   6.9780   7.2672   9.3070   9.8997  11.3676  12.8160  15.7139
    17.4526  19.4672  20.8046

     occupation numbers 
     1.0000   1.0000   1.0000   1.0000   1.0000   1.0000   1.0000   1.0000
     1.0000   1.0000   1.0000   1.0000   1.0000   1.0000   1.0000   1.0000
     1.0000   1.0029   1.0615   0.0000   0.0000   0.0000   0.0000   0.0000
     0.0000   0.0000   0.0000

          k = 0.0000-0.5774 0.1395 (  2638 PWs)   bands (ev):

   -87.5686 -50.8663 -50.8225 -50.7989 -45.9359 -18.0980 -17.8709 -17.7136
   -10.4545 -10.2815   0.9991   2.4587   3.1362   3.6484   4.4518   4.7813
     6.6269   6.9780   7.2613   9.3142   9.8997  11.2379  12.7659  16.1028
    17.4754  19.5008  20.4862

     occupation numbers 
     1.0000   1.0000   1.0000   1.0000   1.0000   1.0000   1.0000   1.0000
     1.0000   1.0000   1.0000   1.0000   1.0000   1.0000   1.0000   1.0000
     1.0000   1.0029   1.0595   0.0000   0.0000   0.0000   0.0000   0.0000
     0.0000   0.0000   0.0000

          k = 0.1250 0.2165 0.0000 (  2659 PWs)   bands (ev):

   -87.5718 -50.8307 -50.8152 -50.8042 -45.9573 -17.9197 -17.8375 -17.7437
   -11.4628 -10.1111   1.9951   2.1257   2.7782   3.8810   4.6470   5.6691
     6.8845   7.1183   7.2341   8.2502   9.1540   9.7718  13.9214  16.9976
    19.0607  19.8665  21.7306

     occupation numbers 
     1.0000   1.0000   1.0000   1.0000   1.0000   1.0000   1.0000   1.0000
     1.0000   1.0000   1.0000   1.0000   1.0000   1.0000   1.0000   1.0000
     1.0006   1.0179   1.0501   0.0008   0.0000   0.0000   0.0000   0.0000
     0.0000   0.0000   0.0000

          k = 0.1250 0.2165 0.1395 (  2634 PWs)   bands (ev):

   -87.5717 -50.8305 -50.8151 -50.8040 -45.9572 -17.9193 -17.8375 -17.7435
   -11.4578 -10.1176   1.9527   2.2164   2.7803   3.9182   4.6463   5.3796
     6.8869   7.1079   7.4897   8.1006   9.4511   9.7288  13.4939  17.6737
    18.9751  19.5044  21.7348

     occupation numbers 
     1.0000   1.0000   1.0000   1.0000   1.0000   1.0000   1.0000   1.0000
     1.0000   1.0000   1.0000   1.0000   1.0000   1.0000   1.0000   1.0000
     1.0007   1.0159   1.0151   0.0101   0.0000   0.0000   0.0000   0.0000
     0.0000   0.0000   0.0000

          k = 0.1250 0.3608 0.0000 (  2630 PWs)   bands (ev):

   -87.5699 -50.8488 -50.8220 -50.8010 -45.9447 -18.0111 -17.8706 -17.7259
   -10.9713 -10.1298   1.8096   2.3052   2.9796   3.2542   4.1510   5.4544
     6.9143   7.2301   7.4163   8.7207   9.3088   9.8718  14.5900  16.3065
    18.4445  19.9944  20.9221

     occupation numbers 
     1.0000   1.0000   1.0000   1.0000   1.0000   1.0000   1.0000   1.0000
     1.0000   1.0000   1.0000   1.0000   1.0000   1.0000   1.0000   1.0000
     1.0010   1.0487   1.0740   0.0000   0.0000   0.0000   0.0000   0.0000
     0.0000   0.0000   0.0000

          k = 0.1250 0.3608 0.1395 (  2633 PWs)   bands (ev):

   -87.5699 -50.8488 -50.8221 -50.8010 -45.9447 -18.0111 -17.8707 -17.7260
   -10.9682 -10.1332   1.7753   2.3052   3.0137   3.2973   4.1510   5.4357
     6.9058   7.2245   7.3995   8.4450   9.5434   9.9904  14.4699  16.2040
    18.8638  20.1525  20.5442

     occupation numbers 
     1.0000   1.0000   1.0000   1.0000   1.0000   1.0000   1.0000   1.0000
     1.0000   1.0000   1.0000   1.0000   1.0000   1.0000   1.0000   1.0000
     1.0009   1.0468   1.0795   0.0000   0.0000   0.0000   0.0000   0.0000
     0.0000   0.0000   0.0000

          k = 0.1250 0.5052 0.0000 (  2636 PWs)   bands (ev):

   -87.5686 -50.8617 -50.8271 -50.7988 -45.9359 -18.0745 -17.8949 -17.7135
   -10.5276 -10.2096   1.2948   2.2861   3.2285   3.5760   4.0220   4.8174
     6.7546   7.0584   7.3893   9.2311   9.6075  11.0375  13.6701  15.6931
    18.0840  19.1974  20.6446

     occupation numbers 
     1.0000   1.0000   1.0000   1.0000   1.0000   1.0000   1.0000   1.0000
     1.0000   1.0000   1.0000   1.0000   1.0000   1.0000   1.0000   1.0000
     1.0000   1.0088   1.0816   0.0000   0.0000   0.0000   0.0000   0.0000
     0.0000   0.0000   0.0000

          k = 0.1250 0.5052 0.1395 (  2647 PWs)   bands (ev):

   -87.5687 -50.8617 -50.8271 -50.7989 -45.9359 -18.0747 -17.8949 -17.7137
   -10.5269 -10.2102   1.2873   2.2741   3.2255   3.5907   4.0219   4.8554
     6.7478   7.0604   7.3782   9.1839   9.6383  11.0353  13.5634  15.7923
    18.3575  19.2566  20.7199

     occupation numbers 
     1.0000   1.0000   1.0000   1.0000   1.0000   1.0000   1.0000   1.0000
     1.0000   1.0000   1.0000   1.0000   1.0000   1.0000   1.0000   1.0000
     1.0000   1.0091   1.0829   0.0000   0.0000   0.0000   0.0000   0.0000
     0.0000   0.0000   0.0000

          k = 0.2500 0.4330 0.0000 (  2639 PWs)   bands (ev):

   -87.5687 -50.8553 -50.8334 -50.7989 -45.9359 -18.0419 -17.9279 -17.7136
   -10.5764 -10.1619   1.8480   2.0036   2.9686   3.5747   3.7498   4.9258
     6.8395   7.1151   7.5338   9.1160   9.3449  10.8547  14.5472  15.7091
    18.0101  19.6910  20.1880

     occupation numbers 
     1.0000   1.0000   1.0000   1.0000   1.0000   1.0000   1.0000   1.0000
     1.0000   1.0000   1.0000   1.0000   1.0000   1.0000   1.0000   1.0000
     1.0003   1.0173   0.9484   0.0000   0.0000   0.0000   0.0000   0.0000
     0.0000   0.0000   0.0000

          k = 0.2500 0.4330 0.1395 (  2630 PWs)   bands (ev):

   -87.5686 -50.8552 -50.8333 -50.7989 -45.9359 -18.0417 -17.9278 -17.7137
   -10.5747 -10.1635   1.8406   1.9885   2.9704   3.6111   3.7504   4.9250
     6.8413   7.1187   7.4995   9.1939   9.3164  10.7783  14.5476  15.8460
    17.9670  19.6030  20.3042

     occupation numbers 
     1.0000   1.0000   1.0000   1.0000   1.0000   1.0000   1.0000   1.0000
     1.0000   1.0000   1.0000   1.0000   1.0000   1.0000   1.0000   1.0000
     1.0003   1.0179   1.0024   0.0000   0.0000   0.0000   0.0000   0.0000
     0.0000   0.0000   0.0000

          k = 0.2500 0.5774 0.0000 (  2630 PWs)   bands (ev):

   -87.5681 -50.8558 -50.8403 -50.7980 -45.9322 -18.0431 -17.9628 -17.7084
   -10.3762 -10.2032   1.6984   2.1149   2.7365   3.7322   3.9933   4.4447
     6.6303   7.2782   7.4790   9.2840   9.3068  12.1093  13.2151  16.7566
    17.2130  18.4153  20.3232

     occupation numbers 
     1.0000   1.0000   1.0000   1.0000   1.0000   1.0000   1.0000   1.0000
     1.0000   1.0000   1.0000   1.0000   1.0000   1.0000   1.0000   1.0000
     1.0000   1.0652   1.0277   0.0000   0.0000   0.0000   0.0000   0.0000
     0.0000   0.0000   0.0000

          k = 0.2500 0.5774 0.1395 (  2649 PWs)   bands (ev):

   -87.5681 -50.8558 -50.8404 -50.7981 -45.9323 -18.0432 -17.9630 -17.7087
   -10.3759 -10.2033   1.6922   2.1093   2.7369   3.7351   3.9970   4.4527
     6.6313   7.2788   7.4673   9.3208   9.3351  12.0450  13.1343  16.9452
    17.1798  18.4192  20.1569

     occupation numbers 
     1.0000   1.0000   1.0000   1.0000   1.0000   1.0000   1.0000   1.0000
     1.0000   1.0000   1.0000   1.0000   1.0000   1.0000   1.0000   1.0000
     1.0000   1.0653   1.0398   0.0000   0.0000   0.0000   0.0000   0.0000
     0.0000   0.0000   0.0000

          k = 0.0000-0.1443 0.1395 (  2651 PWs)   bands (ev):

   -87.5730 -50.8172 -50.8108 -50.8062 -45.9660 -17.8509 -17.8166 -17.7562
   -11.7658 -10.1220   1.8219   2.2435   2.6544   4.6506   4.9727   5.3538
     6.7065   6.9331   7.3562   8.0044   9.6167   9.9451  12.7913  16.8410
    18.4550  21.5559  22.4533

     occupation numbers 
     1.0000   1.0000   1.0000   1.0000   1.0000   1.0000   1.0000   1.0000
     1.0000   1.0000   1.0000   1.0000   1.0000   1.0000   1.0000   1.0000
     1.0000   1.0014   1.0829   0.0379   0.0000   0.0000   0.0000   0.0000
     0.0000   0.0000   0.0000

          k = 0.0000-0.2887 0.1395 (  2636 PWs)   bands (ev):

   -87.5712 -50.8375 -50.8156 -50.8032 -45.9535 -17.9544 -17.8391 -17.7384
   -11.3198 -10.1210   1.8548   2.3282   2.8974   3.4453   4.7505   5.4424
     6.7916   7.2282   7.3837   8.3334   9.2320   9.8187  13.9057  17.5819
    18.3447  19.4456  21.9206

     occupation numbers 
     1.0000   1.0000   1.0000   1.0000   1.0000   1.0000   1.0000   1.0000
     1.0000   1.0000   1.0000   1.0000   1.0000   1.0000   1.0000   1.0000
     1.0001   1.0481   1.0824   0.0002   0.0000   0.0000   0.0000   0.0000
     0.0000   0.0000   0.0000

          k = 0.0000-0.4330 0.1395 (  2641 PWs)   bands (ev):

   -87.5694 -50.8578 -50.8205 -50.8002 -45.9411 -18.0563 -17.8616 -17.7210
   -10.7849 -10.1684   1.3807   2.3462   3.0929   3.4129   4.4719   5.1011
     6.7733   7.1123   7.2939   9.0023   9.8514   9.8869  14.6707  15.3829
    18.5205  19.2321  20.5412

     occupation numbers 
     1.0000   1.0000   1.0000   1.0000   1.0000   1.0000   1.0000   1.0000
     1.0000   1.0000   1.0000   1.0000   1.0000   1.0000   1.0000   1.0000
     1.0001   1.0167   1.0701   0.0000   0.0000   0.0000   0.0000   0.0000
     0.0000   0.0000   0.0000

          k =-0.1250-0.3608 0.1395 (  2633 PWs)   bands (ev):

   -87.5699 -50.8488 -50.8221 -50.8010 -45.9447 -18.0111 -17.8707 -17.7260
   -10.9677 -10.1338   1.7795   2.2976   3.0060   3.3204   4.1491   5.4051
     6.9229   7.2520   7.3196   8.7437   9.3295   9.8770  14.6608  16.2723
    18.8301  19.7730  20.5102

     occupation numbers 
     1.0000   1.0000   1.0000   1.0000   1.0000   1.0000   1.0000   1.0000
     1.0000   1.0000   1.0000   1.0000   1.0000   1.0000   1.0000   1.0000
     1.0012   1.0563   1.0771   0.0000   0.0000   0.0000   0.0000   0.0000
     0.0000   0.0000   0.0000

          k =-0.1250-0.5052 0.1395 (  2647 PWs)   bands (ev):

   -87.5687 -50.8617 -50.8271 -50.7989 -45.9359 -18.0747 -17.8949 -17.7137
   -10.5259 -10.2113   1.2857   2.2751   3.2250   3.6033   4.0273   4.8310
     6.7536   7.0599   7.3675   9.3001   9.6053  10.8651  13.6446  16.0982
    18.0474  19.1735  20.4199

     occupation numbers 
     1.0000   1.0000   1.0000   1.0000   1.0000   1.0000   1.0000   1.0000
     1.0000   1.0000   1.0000   1.0000   1.0000   1.0000   1.0000   1.0000
     1.0000   1.0090   1.0833   0.0000   0.0000   0.0000   0.0000   0.0000
     0.0000   0.0000   0.0000

 ------ SPIN DOWN ----------


          k = 0.0000 0.0000 0.0000 (  2625 PWs)   bands (ev):

   -87.3535 -50.6079 -50.6079 -50.5644 -45.9772 -17.8139 -17.8139 -17.7673
   -11.9244 -10.0994   1.5061   2.6099   2.6099   4.9061   5.9148   5.9148
     6.3381   6.6810   6.6810   8.0730  10.1364  10.1364  13.1806  15.3322
    18.0602  22.4190  24.6230

     occupation numbers 
     1.0000   1.0000   1.0000   1.0000   1.0000   1.0000   1.0000   1.0000
     1.0000   1.0000   1.0000   1.0000   1.0000   1.0000   1.0000   1.0000
     1.0000   1.0000   1.0000   0.0151   0.0000   0.0000   0.0000   0.0000
     0.0000   0.0000   0.0000

          k = 0.0000 0.0000 0.1395 (  2666 PWs)   bands (ev):

   -87.3536 -50.6081 -50.6081 -50.5646 -45.9773 -17.8143 -17.8143 -17.7680
   -11.9177 -10.1094   1.6696   2.6097   2.6097   4.1942   5.9151   5.9151
     6.6810   6.6810   7.2574   7.9732  10.1358  10.1358  12.2582  16.3176
    17.9862  22.2015  24.6993

     occupation numbers 
     1.0000   1.0000   1.0000   1.0000   1.0000   1.0000   1.0000   1.0000
     1.0000   1.0000   1.0000   1.0000   1.0000   1.0000   1.0000   1.0000
     1.0000   1.0000   1.0581   0.0553   0.0000   0.0000   0.0000   0.0000
     0.0000   0.0000   0.0000

          k = 0.0000 0.1443 0.0000 (  2643 PWs)   bands (ev):

   -87.3528 -50.6165 -50.6100 -50.5632 -45.9720 -17.8580 -17.8235 -17.7603
   -11.7538 -10.0947   1.7346   2.3338   2.7102   4.8567   5.3286   5.4093
     6.6738   6.9455   7.1018   8.1982   9.6590  10.0344  13.4737  15.9619
    18.7242  21.4602  22.3767

     occupation numbers 
     1.0000   1.0000   1.0000   1.0000   1.0000   1.0000   1.0000   1.0000
     1.0000   1.0000   1.0000   1.0000   1.0000   1.0000   1.0000   1.0000
     1.0000   1.0017   1.0149   0.0021   0.0000   0.0000   0.0000   0.0000
     0.0000   0.0000   0.0000

          k = 0.0000 0.1443 0.1395 (  2651 PWs)   bands (ev):

   -87.3528 -50.6166 -50.6101 -50.5633 -45.9721 -17.8581 -17.8235 -17.7607
   -11.7478 -10.1033   1.8698   2.2979   2.7101   4.7426   4.9105   5.4095
     6.8969   7.1018   7.4467   8.0214   9.7984  10.0342  12.6981  16.8915
    18.4642  21.4851  22.3805

     occupation numbers 
     1.0000   1.0000   1.0000   1.0000   1.0000   1.0000   1.0000   1.0000
     1.0000   1.0000   1.0000   1.0000   1.0000   1.0000   1.0000   1.0000
     1.0008   1.0149   1.0571   0.0305   0.0000   0.0000   0.0000   0.0000
     0.0000   0.0000   0.0000

          k = 0.0000 0.2887 0.0000 (  2620 PWs)   bands (ev):

   -87.3509 -50.6370 -50.6149 -50.5601 -45.9595 -17.9624 -17.8460 -17.7425
   -11.3064 -10.0959   1.9336   2.3174   2.9488   3.4265   4.8038   5.6663
     7.0414   7.3927   7.4117   8.3041   9.2417   9.9047  14.0514  17.3235
    17.9452  20.1519  21.4922

     occupation numbers 
     1.0000   1.0000   1.0000   1.0000   1.0000   1.0000   1.0000   1.0000
     1.0000   1.0000   1.0000   1.0000   1.0000   1.0000   1.0000   1.0000
     1.0071   1.0810   1.0758   0.0003   0.0000   0.0000   0.0000   0.0000
     0.0000   0.0000   0.0000

          k = 0.0000 0.2887 0.1395 (  2636 PWs)   bands (ev):

   -87.3509 -50.6371 -50.6150 -50.5601 -45.9595 -17.9625 -17.8462 -17.7428
   -11.3021 -10.1012   1.8771   2.4032   2.9488   3.4754   4.8037   5.4950
     6.9561   7.4116   7.7352   7.8654   9.7062   9.9046  13.6080  17.5805
    18.2845  19.7024  21.6044

     occupation numbers 
     1.0000   1.0000   1.0000   1.0000   1.0000   1.0000   1.0000   1.0000
     1.0000   1.0000   1.0000   1.0000   1.0000   1.0000   1.0000   1.0000
     1.0021   1.0758   0.4435   0.1686   0.0000   0.0000   0.0000   0.0000
     0.0000   0.0000   0.0000

          k = 0.0000 0.4330 0.0000 (  2652 PWs)   bands (ev):

   -87.3491 -50.6577 -50.6200 -50.5571 -45.9470 -18.0654 -17.8690 -17.7252
   -10.7698 -10.1456   1.4366   2.3908   3.1445   3.3906   4.5039   5.1505
     6.9855   7.3198   7.5423   8.9870   9.9389   9.9737  14.5278  15.0692
    18.5634  19.2749  20.9439

     occupation numbers 
     1.0000   1.0000   1.0000   1.0000   1.0000   1.0000   1.0000   1.0000
     1.0000   1.0000   1.0000   1.0000   1.0000   1.0000   1.0000   1.0000
     1.0032   1.0772   0.9329   0.0000   0.0000   0.0000   0.0000   0.0000
     0.0000   0.0000   0.0000

          k = 0.0000 0.4330 0.1395 (  2641 PWs)   bands (ev):

   -87.3491 -50.6577 -50.6199 -50.5571 -45.9470 -18.0652 -17.8688 -17.7252
   -10.7679 -10.1475   1.4208   2.3754   3.1448   3.4401   4.5036   5.1825
     6.9645   7.3198   7.5541   8.6915   9.9390  10.3030  14.4633  14.9009
    19.0505  19.4686  20.5133

     occupation numbers 
     1.0000   1.0000   1.0000   1.0000   1.0000   1.0000   1.0000   1.0000
     1.0000   1.0000   1.0000   1.0000   1.0000   1.0000   1.0000   1.0000
     1.0024   1.0772   0.9099   0.0000   0.0000   0.0000   0.0000   0.0000
     0.0000   0.0000   0.0000

          k = 0.0000-0.5774 0.0000 (  2642 PWs)   bands (ev):

   -87.3483 -50.6663 -50.6220 -50.5557 -45.9418 -18.1075 -17.8782 -17.7177
   -10.4375 -10.2609   1.0439   2.4900   3.1909   3.7105   4.4672   4.7483
     6.8583   7.1992   7.4826   9.4072   9.9893  11.2433  12.7209  15.6757
    17.4507  19.4587  20.8428

     occupation numbers 
     1.0000   1.0000   1.0000   1.0000   1.0000   1.0000   1.0000   1.0000
     1.0000   1.0000   1.0000   1.0000   1.0000   1.0000   1.0000   1.0000
     1.0004   1.0385   1.0235   0.0000   0.0000   0.0000   0.0000   0.0000
     0.0000   0.0000   0.0000

          k = 0.0000-0.5774 0.1395 (  2638 PWs)   bands (ev):

   -87.3483 -50.6662 -50.6219 -50.5558 -45.9418 -18.1072 -17.8781 -17.7178
   -10.4368 -10.2613   1.0365   2.4754   3.1911   3.7131   4.4669   4.8056
     6.8496   7.1992   7.4773   9.4163   9.9894  11.1096  12.6734  16.0640
    17.4694  19.5099  20.4972

     occupation numbers 
     1.0000   1.0000   1.0000   1.0000   1.0000   1.0000   1.0000   1.0000
     1.0000   1.0000   1.0000   1.0000   1.0000   1.0000   1.0000   1.0000
     1.0003   1.0385   1.0295   0.0000   0.0000   0.0000   0.0000   0.0000
     0.0000   0.0000   0.0000

          k = 0.1250 0.2165 0.0000 (  2659 PWs)   bands (ev):

   -87.3515 -50.6302 -50.6145 -50.5612 -45.9632 -17.9275 -17.8446 -17.7481
   -11.4447 -10.0921   2.0401   2.1749   2.8294   3.9162   4.7070   5.6930
     7.0895   7.2082   7.3956   8.2938   9.2458   9.8531  13.8964  17.0079
    18.9462  19.8683  21.7373

     occupation numbers 
     1.0000   1.0000   1.0000   1.0000   1.0000   1.0000   1.0000   1.0000
     1.0000   1.0000   1.0000   1.0000   1.0000   1.0000   1.0000   1.0000
     1.0129   1.0414   1.0804   0.0003   0.0000   0.0000   0.0000   0.0000
     0.0000   0.0000   0.0000

          k = 0.1250 0.2165 0.1395 (  2634 PWs)   bands (ev):

   -87.3515 -50.6301 -50.6145 -50.5610 -45.9632 -17.9271 -17.8445 -17.7479
   -11.4397 -10.0986   1.9951   2.2707   2.8318   3.9574   4.7059   5.3862
     7.0915   7.2301   7.6736   8.1210   9.5256   9.8094  13.4704  17.6751
    18.9070  19.4657  21.7268

     occupation numbers 
     1.0000   1.0000   1.0000   1.0000   1.0000   1.0000   1.0000   1.0000
     1.0000   1.0000   1.0000   1.0000   1.0000   1.0000   1.0000   1.0000
     1.0132   1.0487   0.6111   0.0074   0.0000   0.0000   0.0000   0.0000
     0.0000   0.0000   0.0000

          k = 0.1250 0.3608 0.0000 (  2630 PWs)   bands (ev):

   -87.3496 -50.6485 -50.6214 -50.5580 -45.9506 -18.0196 -17.8779 -17.7303
   -10.9531 -10.1104   1.8515   2.3398   3.0306   3.2959   4.1990   5.4840
     7.1258   7.4534   7.5992   8.7109   9.3722   9.8984  14.5568  16.1882
    18.4477  19.9945  20.9184

     occupation numbers 
     1.0000   1.0000   1.0000   1.0000   1.0000   1.0000   1.0000   1.0000
     1.0000   1.0000   1.0000   1.0000   1.0000   1.0000   1.0000   1.0000
     1.0194   1.0520   0.8087   0.0000   0.0000   0.0000   0.0000   0.0000
     0.0000   0.0000   0.0000

          k = 0.1250 0.3608 0.1395 (  2633 PWs)   bands (ev):

   -87.3496 -50.6486 -50.6215 -50.5580 -45.9506 -18.0196 -17.8780 -17.7303
   -10.9501 -10.1138   1.8158   2.3395   3.0645   3.3442   4.1989   5.4625
     7.1130   7.4259   7.5990   8.4482   9.6320   9.9898  14.4383  16.0868
    18.8616  20.1599  20.5473

     occupation numbers 
     1.0000   1.0000   1.0000   1.0000   1.0000   1.0000   1.0000   1.0000
     1.0000   1.0000   1.0000   1.0000   1.0000   1.0000   1.0000   1.0000
     1.0169   1.0697   0.8093   0.0000   0.0000   0.0000   0.0000   0.0000
     0.0000   0.0000   0.0000

          k = 0.1250 0.5052 0.0000 (  2636 PWs)   bands (ev):

   -87.3483 -50.6615 -50.6266 -50.5557 -45.9418 -18.0836 -17.9023 -17.7177
   -10.5095 -10.1898   1.3321   2.3150   3.2719   3.6275   4.0559   4.8467
     6.9926   7.2743   7.5843   9.3211   9.6964  10.9304  13.5600  15.6576
    18.0742  19.1759  20.6578

     occupation numbers 
     1.0000   1.0000   1.0000   1.0000   1.0000   1.0000   1.0000   1.0000
     1.0000   1.0000   1.0000   1.0000   1.0000   1.0000   1.0000   1.0000
     1.0036   1.0639   0.8442   0.0000   0.0000   0.0000   0.0000   0.0000
     0.0000   0.0000   0.0000

          k = 0.1250 0.5052 0.1395 (  2647 PWs)   bands (ev):

   -87.3484 -50.6616 -50.6266 -50.5558 -45.9418 -18.0837 -17.9023 -17.7180
   -10.5088 -10.1904   1.3245   2.3025   3.2689   3.6427   4.0560   4.8856
     6.9850   7.2767   7.5728   9.2676   9.7301  10.9315  13.4554  15.7593
    18.3395  19.2428  20.7238

     occupation numbers 
     1.0000   1.0000   1.0000   1.0000   1.0000   1.0000   1.0000   1.0000
     1.0000   1.0000   1.0000   1.0000   1.0000   1.0000   1.0000   1.0000
     1.0032   1.0647   0.8703   0.0000   0.0000   0.0000   0.0000   0.0000
     0.0000   0.0000   0.0000

          k = 0.2500 0.4330 0.0000 (  2639 PWs)   bands (ev):

   -87.3484 -50.6551 -50.6330 -50.5558 -45.9418 -18.0507 -17.9356 -17.7179
   -10.5583 -10.1421   1.8821   2.0430   2.9977   3.6250   3.7944   4.9591
     7.0906   7.3266   7.7155   9.1893   9.4410  10.7576  14.4200  15.6708
    17.9912  19.6666  20.2206

     occupation numbers 
     1.0000   1.0000   1.0000   1.0000   1.0000   1.0000   1.0000   1.0000
     1.0000   1.0000   1.0000   1.0000   1.0000   1.0000   1.0000   1.0000
     1.0131   1.0787   0.4958   0.0000   0.0000   0.0000   0.0000   0.0000
     0.0000   0.0000   0.0000

          k = 0.2500 0.4330 0.1395 (  2630 PWs)   bands (ev):

   -87.3483 -50.6550 -50.6329 -50.5558 -45.9417 -18.0505 -17.9355 -17.7180
   -10.5566 -10.1438   1.8750   2.0269   2.9997   3.6623   3.7960   4.9579
     7.0922   7.3305   7.6776   9.2717   9.4109  10.6824  14.4174  15.8103
    17.9475  19.5835  20.3105

     occupation numbers 
     1.0000   1.0000   1.0000   1.0000   1.0000   1.0000   1.0000   1.0000
     1.0000   1.0000   1.0000   1.0000   1.0000   1.0000   1.0000   1.0000
     1.0133   1.0795   0.6000   0.0000   0.0000   0.0000   0.0000   0.0000
     0.0000   0.0000   0.0000

          k = 0.2500 0.5774 0.0000 (  2630 PWs)   bands (ev):

   -87.3478 -50.6556 -50.6399 -50.5548 -45.9381 -18.0518 -17.9708 -17.7126
   -10.3583 -10.1831   1.7340   2.1510   2.7643   3.7720   4.0467   4.4716
     6.8949   7.4800   7.6706   9.3755   9.4048  11.9781  13.0963  16.7143
    17.1962  18.3958  20.3207

     occupation numbers 
     1.0000   1.0000   1.0000   1.0000   1.0000   1.0000   1.0000   1.0000
     1.0000   1.0000   1.0000   1.0000   1.0000   1.0000   1.0000   1.0000
     1.0007   1.0265   0.6193   0.0000   0.0000   0.0000   0.0000   0.0000
     0.0000   0.0000   0.0000

          k = 0.2500 0.5774 0.1395 (  2649 PWs)   bands (ev):

   -87.3478 -50.6556 -50.6400 -50.5550 -45.9381 -18.0519 -17.9710 -17.7130
   -10.3580 -10.1832   1.7278   2.1452   2.7647   3.7746   4.0504   4.4803
     6.8964   7.4807   7.6587   9.4170   9.4323  11.9114  13.0139  16.9028
    17.1614  18.4026  20.1577

     occupation numbers 
     1.0000   1.0000   1.0000   1.0000   1.0000   1.0000   1.0000   1.0000
     1.0000   1.0000   1.0000   1.0000   1.0000   1.0000   1.0000   1.0000
     1.0008   1.0257   0.6524   0.0000   0.0000   0.0000   0.0000   0.0000
     0.0000   0.0000   0.0000

          k = 0.0000-0.1443 0.1395 (  2651 PWs)   bands (ev):

   -87.3528 -50.6166 -50.6101 -50.5633 -45.9721 -17.8581 -17.8235 -17.7607
   -11.7477 -10.1033   1.8759   2.2933   2.7100   4.6552   5.0067   5.4096
     6.8693   7.1019   7.4436   8.0891   9.7060  10.0340  12.7724  16.8494
    18.4691  21.4480  22.4328

     occupation numbers 
     1.0000   1.0000   1.0000   1.0000   1.0000   1.0000   1.0000   1.0000
     1.0000   1.0000   1.0000   1.0000   1.0000   1.0000   1.0000   1.0000
     1.0005   1.0149   1.0592   0.0120   0.0000   0.0000   0.0000   0.0000
     0.0000   0.0000   0.0000

          k = 0.0000-0.2887 0.1395 (  2636 PWs)   bands (ev):

   -87.3509 -50.6371 -50.6150 -50.5601 -45.9595 -17.9625 -17.8462 -17.7428
   -11.3017 -10.1019   1.8968   2.3772   2.9486   3.4894   4.8040   5.4554
     6.9626   7.4118   7.5615   8.3441   9.2919   9.9044  13.8808  17.5237
    18.2909  19.4635  21.9250

     occupation numbers 
     1.0000   1.0000   1.0000   1.0000   1.0000   1.0000   1.0000   1.0000
     1.0000   1.0000   1.0000   1.0000   1.0000   1.0000   1.0000   1.0000
     1.0023   1.0758   0.8946   0.0001   0.0000   0.0000   0.0000   0.0000
     0.0000   0.0000   0.0000

          k = 0.0000-0.4330 0.1395 (  2641 PWs)   bands (ev):

   -87.3491 -50.6577 -50.6199 -50.5571 -45.9470 -18.0652 -17.8688 -17.7253
   -10.7667 -10.1488   1.4200   2.3710   3.1446   3.4718   4.5039   5.1300
     6.9727   7.3198   7.5139   9.0649   9.8229   9.9388  14.5706  15.3405
    18.5207  19.2217  20.5711

     occupation numbers 
     1.0000   1.0000   1.0000   1.0000   1.0000   1.0000   1.0000   1.0000
     1.0000   1.0000   1.0000   1.0000   1.0000   1.0000   1.0000   1.0000
     1.0027   1.0772   0.9815   0.0000   0.0000   0.0000   0.0000   0.0000
     0.0000   0.0000   0.0000

          k =-0.1250-0.3608 0.1395 (  2633 PWs)   bands (ev):

   -87.3496 -50.6486 -50.6215 -50.5579 -45.9506 -18.0196 -17.8780 -17.7303
   -10.9495 -10.1144   1.8198   2.3319   3.0566   3.3687   4.1971   5.4305
     7.1317   7.4522   7.5111   8.7489   9.3957   9.9049  14.6280  16.1549
    18.8211  19.7805  20.5084

     occupation numbers 
     1.0000   1.0000   1.0000   1.0000   1.0000   1.0000   1.0000   1.0000
     1.0000   1.0000   1.0000   1.0000   1.0000   1.0000   1.0000   1.0000
     1.0206   1.0529   0.9858   0.0000   0.0000   0.0000   0.0000   0.0000
     0.0000   0.0000   0.0000

          k =-0.1250-0.5052 0.1395 (  2647 PWs)   bands (ev):

   -87.3484 -50.6616 -50.6266 -50.5558 -45.9418 -18.0837 -17.9023 -17.7180
   -10.5078 -10.1915   1.3229   2.3034   3.2684   3.6559   4.0623   4.8599
     6.9906   7.2755   7.5621   9.4010   9.6908  10.7533  13.5337  16.0605
    18.0388  19.1502  20.4188

     occupation numbers 
     1.0000   1.0000   1.0000   1.0000   1.0000   1.0000   1.0000   1.0000
     1.0000   1.0000   1.0000   1.0000   1.0000   1.0000   1.0000   1.0000
     1.0035   1.0643   0.8934   0.0000   0.0000   0.0000   0.0000   0.0000
     0.0000   0.0000   0.0000

     the Fermi energy is     7.7519 ev

!    total energy              =    -569.27160589 Ry
     total all-electron energy =     -3412.762161 Ry
     estimated scf accuracy    <          2.7E-09 Ry
     smearing contrib. (-TS)   =       0.00612594 Ry
     internal energy E=F+TS    =    -569.27773183 Ry

     The total energy is F=E-TS. E is the sum of the following terms:
     one-electron contribution =    -418.02409350 Ry
     hartree contribution      =     226.82677352 Ry
     xc contribution           =     -60.15334896 Ry
     ewald contribution        =    -195.99376274 Ry
     one-center paw contrib.   =    -121.93330015 Ry
      -> PAW hartree energy AE =     344.21025594 Ry
      -> PAW hartree energy PS =    -344.19525683 Ry
      -> PAW xc energy AE      =    -179.06799050 Ry
      -> PAW xc energy PS      =      57.11969123 Ry
      -> total E_H with PAW    =     226.84177263 Ry
      -> total E_XC with PAW   =    -182.10164822 Ry

     total magnetization       =     0.19 Bohr mag/cell
     absolute magnetization    =     0.25 Bohr mag/cell

     convergence has been achieved in  25 iterations

     Forces acting on atoms (cartesian axes, Ry/au):

     atom    1 type  1   force =     0.00000000    0.00000000    0.00980782
     atom    2 type  2   force =    -0.00000000   -0.00000000    0.00913382
     atom    3 type  2   force =     0.00000000    0.00000000   -0.02808280
     atom    4 type  3   force =    -0.00000000   -0.00000000    0.00914115
     The non-local contrib.  to forces
     atom    1 type  1   force =     0.00000000    0.00000000    0.01160666
     atom    2 type  2   force =     0.00000000    0.00000000   -0.78974523
     atom    3 type  2   force =     0.00000000    0.00000000    0.64012407
     atom    4 type  3   force =    -0.00000000    0.00000000    0.00657285
     The ionic contribution  to forces
     atom    1 type  1   force =    -0.00000000    0.00000000    3.21126034
     atom    2 type  2   force =     0.00000000   -0.00000000   26.58818169
     atom    3 type  2   force =    -0.00000000    0.00000000  -24.72157499
     atom    4 type  3   force =     0.00000000   -0.00000000   -5.07786705
     The local contribution  to forces
     atom    1 type  1   force =    -0.00000000   -0.00000000   -3.21283818
     atom    2 type  2   force =     0.00000001   -0.00000001  -25.79600416
     atom    3 type  2   force =    -0.00000001    0.00000001   24.05855996
     atom    4 type  3   force =     0.00000006   -0.00000004    5.08044874
     The core correction contribution to forces
     atom    1 type  1   force =     0.00000000   -0.00000000   -0.00018910
     atom    2 type  2   force =    -0.00000000    0.00000000    0.00664182
     atom    3 type  2   force =     0.00000000   -0.00000000   -0.00512915
     atom    4 type  3   force =     0.00000000   -0.00000000   -0.00001649
     The Hubbard contrib.    to forces
     atom    1 type  1   force =     0.00000000    0.00000000    0.00000000
     atom    2 type  2   force =     0.00000000    0.00000000    0.00000000
     atom    3 type  2   force =     0.00000000    0.00000000    0.00000000
     atom    4 type  3   force =     0.00000000    0.00000000    0.00000000
     The SCF correction term to forces
     atom    1 type  1   force =     0.00000000   -0.00000000   -0.00003100
     atom    2 type  2   force =    -0.00000000    0.00000000    0.00006060
     atom    3 type  2   force =     0.00000000   -0.00000000   -0.00006180
     atom    4 type  3   force =    -0.00000000    0.00000000    0.00000399

     Total force =     0.032432     Total SCF correction =     0.000092

     Writing all to output data dir ./out/pw.save/ :
     XML data file, charge density, pseudopotentials, collected wavefunctions
 
     init_run     :     13.38s CPU      3.21s WALL (       1 calls)
     electrons    :    133.14s CPU     34.17s WALL (       1 calls)
     forces       :      0.61s CPU      0.58s WALL (       1 calls)

     Called by init_run:
     wfcinit      :      0.26s CPU      0.32s WALL (       1 calls)
     wfcinit:atom :      0.04s CPU      0.04s WALL (      50 calls)
     wfcinit:wfcr :      0.17s CPU      0.20s WALL (      50 calls)
     potinit      :     12.58s CPU      2.33s WALL (       1 calls)
     hinit0       :      0.45s CPU      0.44s WALL (       1 calls)

     Called by electrons:
     c_bands      :     16.34s CPU     16.25s WALL (      25 calls)
     sum_band     :      2.98s CPU      2.91s WALL (      25 calls)
     v_of_rho     :      0.42s CPU      0.21s WALL (      26 calls)
     v_h          :      0.29s CPU      0.04s WALL (      26 calls)
     v_xc         :      0.14s CPU      0.18s WALL (      27 calls)
     newd         :      0.61s CPU      0.46s WALL (      26 calls)
                                        0.46s GPU  (      26 calls)
     PAW_pot      :    116.26s CPU     14.45s WALL (      26 calls)
     mix_rho      :      0.42s CPU      0.41s WALL (      25 calls)

     Called by c_bands:
     init_us_2    :      1.12s CPU      1.06s WALL (    2600 calls)
     cegterg      :     14.22s CPU     14.24s WALL (    1250 calls)

     Called by sum_band:
     sum_band:wei :      0.04s CPU      0.04s WALL (      25 calls)
                                        0.04s GPU  (      25 calls)
     sum_band:loo :      1.91s CPU      1.83s WALL (      25 calls)
                                        1.83s GPU  (      25 calls)
     sum_band:buf :      0.25s CPU      0.28s WALL (    1250 calls)
                                        0.26s GPU  (    1250 calls)
     sum_band:ini :      0.54s CPU      0.53s WALL (    1250 calls)
                                        0.51s GPU  (    1250 calls)
     sum_band:cal :      0.05s CPU      0.08s WALL (    1250 calls)
                                        0.06s GPU  (    1250 calls)
     sum_band:bec :      0.29s CPU      0.31s WALL (    1250 calls)
                                        0.29s GPU  (    1250 calls)
     addusdens    :      0.86s CPU      0.87s WALL (      25 calls)
                                        0.87s GPU  (      25 calls)
     addusd:skk   :      0.00s CPU      0.01s WALL (      75 calls)
                                        0.00s GPU  (      75 calls)

     Called by *egterg:
     cdiaghg      :      4.68s CPU      4.84s WALL (    5568 calls)
                                        4.77s GPU  (    5568 calls)
     cegterg:over :      0.96s CPU      1.00s WALL (    4318 calls)
     cegterg:upda :      0.87s CPU      0.88s WALL (    4318 calls)
     cegterg:last :      0.17s CPU      0.16s WALL (    2540 calls)
     h_psi        :      5.25s CPU      5.25s WALL (    5618 calls)
                                        5.18s GPU  (    5618 calls)
     s_psi        :      0.87s CPU      0.92s WALL (    5618 calls)
     g_psi        :      0.02s CPU      0.11s WALL (    4318 calls)
                                        0.05s GPU  (    4318 calls)

     Called by h_psi:
     h_psi:calbec :      0.18s CPU      0.32s WALL (    5618 calls)
                                        0.25s GPU  (    5618 calls)
     vloc_psi     :      3.67s CPU      3.57s WALL (    5618 calls)
                                        3.50s GPU  (    5618 calls)
     add_vuspsi   :      0.80s CPU      0.95s WALL (    5618 calls)
                                        0.87s GPU  (    5618 calls)

     General routines
     calbec       :      0.20s CPU      0.23s WALL (    7068 calls)
     fft          :      3.58s CPU      0.90s WALL (     663 calls)
                                        0.02s GPU  (     611 calls)
     ffts         :      4.80s CPU      0.81s WALL (     102 calls)
                                        0.00s GPU  (      50 calls)
     fftw         :      0.36s CPU      1.16s WALL (   18904 calls)
                                        0.94s GPU  (   18904 calls)
     interpolate  :      8.55s CPU      1.71s WALL (      52 calls)
 
     Parallel routines

     PAW routines
     PAW_pot      :    116.26s CPU     14.45s WALL (      26 calls)
     PAW_symme    :      0.02s CPU      0.01s WALL (      51 calls)
 
     PWSCF        :   2m28.02s CPU     38.49s WALL

 
   This run was terminated on:   2:15: 4  12Jul2026            

=------------------------------------------------------------------------------=
   JOB DONE.
=------------------------------------------------------------------------------=
Warning: ieee_divide_by_zero is signaling
Warning: ieee_inexact is signaling
FORTRAN STOP
