
     Program PWSCF v.7.3.1 starts on 12Jul2026 at  3:16:44 

     This program is part of the open-source Quantum ESPRESSO suite
     for quantum simulation of materials; please cite
         "P. Giannozzi et al., J. Phys.:Condens. Matter 21 395502 (2009);
         "P. Giannozzi et al., J. Phys.:Condens. Matter 29 465901 (2017);
         "P. Giannozzi et al., J. Chem. Phys. 152 154105 (2020);
          URL http://www.quantum-espresso.org", 
     in publications or presentations arising from this work. More details at
     http://www.quantum-espresso.org/quote

     Parallel version (MPI & OpenMP), running on      14 processor cores
     Number of MPI processes:                 1
     Threads/MPI process:                    14

     MPI processes distributed on     1 nodes
     850112 MiB available memory on the printing compute node when the environment starts
 
     Reading input from pw.in

     Current dimensions of program PWSCF are:
     Max number of different atomic species (ntypx) = 10
     Max number of k-points (npk) =  40000
     Max angular momentum in pseudopotentials (lmaxx) =  4
     file Co.pbe-spn-kjpaw_psl.0.3.1.UPF: wavefunction(s)  3P 3D renormalized
     file O.pbe-n-kjpaw_psl.1.0.0.UPF: wavefunction(s)  2S 2P renormalized
     file Na.pbe-spn-kjpaw_psl.1.0.0.UPF: wavefunction(s)  2P renormalized
 
     Subspace diagonalization in iterative solution of the eigenvalue problem:
     a serial algorithm will be used

 
     G-vector sticks info
     --------------------
     sticks:   dense  smooth     PW     G-vecs:    dense   smooth      PW
     Sum         979     499    151                59641    21167    3485
 
     Using Slab Decomposition
 


     bravais-lattice index     =            4
     lattice parameter (alat)  =       5.4575  a.u.
     unit-cell volume          =     336.3339 (a.u.)^3
     number of atoms/cell      =            4
     number of atomic types    =            3
     number of electrons       =        38.00
     number of Kohn-Sham states=           27
     kinetic-energy cutoff     =      60.0000  Ry
     charge density cutoff     =     480.0000  Ry
     scf convergence threshold =      1.0E-07
     mixing beta               =       0.3000
     number of iterations used =            8  local-TF  mixing
     Exchange-correlation= SLA  PW   PBX  PBC
                           (   1   4   3   4   0   0   0)

     GPU acceleration is ACTIVE.  1 visible GPUs per MPI rank
     GPU-aware MPI enabled


     GPU used by master process:

        Device Number: 0
        Device name: NVIDIA A100-SXM4-80GB
        Compute capability : 80
        Ratio of single to double precision performance  : 2
        Memory Clock Rate (KHz): 1593000
        Memory Bus Width (bits): 5120
        Peak Memory Bandwidth (GB/s): ******

     celldm(1)=   5.457529  celldm(2)=   0.000000  celldm(3)=   2.389197
     celldm(4)=   0.000000  celldm(5)=   0.000000  celldm(6)=   0.000000

     crystal axes: (cart. coord. in units of alat)
               a(1) = (   1.000000   0.000000   0.000000 )  
               a(2) = (  -0.500000   0.866025   0.000000 )  
               a(3) = (   0.000000   0.000000   2.389197 )  

     reciprocal axes: (cart. coord. in units 2 pi/alat)
               b(1) = (  1.000000  0.577350 -0.000000 )  
               b(2) = (  0.000000  1.154701  0.000000 )  
               b(3) = (  0.000000 -0.000000  0.418551 )  


     PseudoPot. # 1 for Co read from file:
     ../../pseudo/Co.pbe-spn-kjpaw_psl.0.3.1.UPF
     MD5 check sum: 3c0a43779828c046024e4f3be63f8e67
     Pseudo is Projector augmented-wave + core cor, Zval = 17.0
     Generated using &quot;atomic&quot; code by A. Dal Corso  v.6.2.2
     Shape of augmentation charge: PSQ
     Using radial grid of 1193 points,  6 beta functions with: 
                l(1) =   0
                l(2) =   0
                l(3) =   1
                l(4) =   1
                l(5) =   2
                l(6) =   2
     Q(r) pseudized with 0 coefficients 


     PseudoPot. # 2 for O  read from file:
     ../../pseudo/O.pbe-n-kjpaw_psl.1.0.0.UPF
     MD5 check sum: e99d9cef9b487d1ca56f5b95ecd0fd7a
     Pseudo is Projector augmented-wave + core cor, Zval =  6.0
     Generated using &quot;atomic&quot; code by A. Dal Corso  v.6.3
     Shape of augmentation charge: PSQ
     Using radial grid of 1095 points,  4 beta functions with: 
                l(1) =   0
                l(2) =   0
                l(3) =   1
                l(4) =   1
     Q(r) pseudized with 0 coefficients 


     PseudoPot. # 3 for Na read from file:
     ../../pseudo/Na.pbe-spn-kjpaw_psl.1.0.0.UPF
     MD5 check sum: 05b4deb74e3932c23ab016979dc8b5d4
     Pseudo is Projector augmented-wave + core cor, Zval =  9.0
     Generated using &quot;atomic&quot; code by A. Dal Corso  v.6.3
     Shape of augmentation charge: PSQ
     Using radial grid of 1121 points,  4 beta functions with: 
                l(1) =   0
                l(2) =   0
                l(3) =   1
                l(4) =   1
     Q(r) pseudized with 0 coefficients 


     atomic species   valence    mass     pseudopotential
     Co               17.00    58.93300     Co( 1.00)
     O                 6.00    15.99900     O ( 1.00)
     Na                9.00    22.98977     Na( 1.00)

     Starting magnetic structure 
     atomic species   magnetization
     Co              0.300
     O               0.000
     Na              0.000

      6 Sym. Ops. (no inversion) found


                                    s                        frac. trans.

      isym =  1     identity                                     

 cryst.   s( 1) = (     1          0          0      )
                  (     0          1          0      )
                  (     0          0          1      )

 cart.    s( 1) = (  1.0000000  0.0000000  0.0000000 )
                  (  0.0000000  1.0000000  0.0000000 )
                  (  0.0000000  0.0000000  1.0000000 )


      isym =  2     120 deg rotation - cryst. axis [0,0,1]       

 cryst.   s( 2) = (     0          1          0      )
                  (    -1         -1          0      )
                  (     0          0          1      )

 cart.    s( 2) = ( -0.5000000 -0.8660254  0.0000000 )
                  (  0.8660254 -0.5000000  0.0000000 )
                  (  0.0000000  0.0000000  1.0000000 )


      isym =  3     120 deg rotation - cryst. axis [0,0,-1]      

 cryst.   s( 3) = (    -1         -1          0      )
                  (     1          0          0      )
                  (     0          0          1      )

 cart.    s( 3) = ( -0.5000000  0.8660254  0.0000000 )
                  ( -0.8660254 -0.5000000  0.0000000 )
                  (  0.0000000  0.0000000  1.0000000 )


      isym =  4     inv. 180 deg rotation - cart. axis [1,0,0]   

 cryst.   s( 4) = (    -1          0          0      )
                  (     1          1          0      )
                  (     0          0          1      )

 cart.    s( 4) = ( -1.0000000  0.0000000  0.0000000 )
                  (  0.0000000  1.0000000  0.0000000 )
                  (  0.0000000  0.0000000  1.0000000 )


      isym =  5     inv. 180 deg rotation - cryst. axis [0,1,0]  

 cryst.   s( 5) = (     1          1          0      )
                  (     0         -1          0      )
                  (     0          0          1      )

 cart.    s( 5) = (  0.5000000  0.8660254  0.0000000 )
                  (  0.8660254 -0.5000000  0.0000000 )
                  (  0.0000000  0.0000000  1.0000000 )


      isym =  6     inv. 180 deg rotation - cryst. axis [1,1,0]  

 cryst.   s( 6) = (     0         -1          0      )
                  (    -1          0          0      )
                  (     0          0          1      )

 cart.    s( 6) = (  0.5000000 -0.8660254  0.0000000 )
                  ( -0.8660254 -0.5000000  0.0000000 )
                  (  0.0000000  0.0000000  1.0000000 )


     point group C_3v (3m)  
     there are  3 classes
     the character table:

       E     2C3   3s_v 
A_1    1.00  1.00  1.00
A_2    1.00  1.00 -1.00
E      2.00 -1.00  0.00

     the symmetry operations in each class and the name of the first element:

     E        1
          identity                                               
     2C3      2    3
          120 deg rotation - cryst. axis [0,0,1]                 
     3s_v     4    5    6
          inv. 180 deg rotation - cart. axis [1,0,0]             

   Cartesian axes

     site n.     atom                  positions (alat units)
         1        Co     tau(   1) = (   0.0000000   0.0000000   0.0000000  )
         2        O      tau(   2) = (  -0.0000000   0.5773503   0.3324100  )
         3        O      tau(   3) = (   0.5000000   0.2886751   2.0567867  )
         4        Na     tau(   4) = (   0.0000000   0.0000000   1.5408587  )

   Crystallographic axes

     site n.     atom                  positions (cryst. coord.)
         1        Co     tau(   1) = (  0.0000000  0.0000000  0.0000000  )
         2        O      tau(   2) = (  0.3333333  0.6666667  0.1391304  )
         3        O      tau(   3) = (  0.6666667  0.3333333  0.8608696  )
         4        Na     tau(   4) = (  0.0000000  0.0000000  0.6449275  )

     number of k points=    25  Marzari-Vanderbilt smearing, width (Ry)=  0.0200
                       cart. coord. in units 2pi/alat
        k(    1) = (   0.0000000   0.0000000   0.0000000), wk =   0.0052083
        k(    2) = (   0.0000000   0.0000000   0.1395169), wk =   0.0104167
        k(    3) = (   0.0000000   0.1443376   0.0000000), wk =   0.0312500
        k(    4) = (   0.0000000   0.1443376   0.1395169), wk =   0.0312500
        k(    5) = (   0.0000000   0.2886751   0.0000000), wk =   0.0312500
        k(    6) = (   0.0000000   0.2886751   0.1395169), wk =   0.0312500
        k(    7) = (   0.0000000   0.4330127   0.0000000), wk =   0.0312500
        k(    8) = (   0.0000000   0.4330127   0.1395169), wk =   0.0312500
        k(    9) = (   0.0000000  -0.5773503   0.0000000), wk =   0.0156250
        k(   10) = (   0.0000000  -0.5773503   0.1395169), wk =   0.0312500
        k(   11) = (   0.1250000   0.2165064   0.0000000), wk =   0.0312500
        k(   12) = (   0.1250000   0.2165064   0.1395169), wk =   0.0625000
        k(   13) = (   0.1250000   0.3608439   0.0000000), wk =   0.0625000
        k(   14) = (   0.1250000   0.3608439   0.1395169), wk =   0.0625000
        k(   15) = (   0.1250000   0.5051815   0.0000000), wk =   0.0625000
        k(   16) = (   0.1250000   0.5051815   0.1395169), wk =   0.0625000
        k(   17) = (   0.2500000   0.4330127   0.0000000), wk =   0.0312500
        k(   18) = (   0.2500000   0.4330127   0.1395169), wk =   0.0625000
        k(   19) = (   0.2500000   0.5773503   0.0000000), wk =   0.0312500
        k(   20) = (   0.2500000   0.5773503   0.1395169), wk =   0.0625000
        k(   21) = (   0.0000000  -0.1443376   0.1395169), wk =   0.0312500
        k(   22) = (   0.0000000  -0.2886751   0.1395169), wk =   0.0312500
        k(   23) = (   0.0000000  -0.4330127   0.1395169), wk =   0.0312500
        k(   24) = (  -0.1250000  -0.3608439   0.1395169), wk =   0.0625000
        k(   25) = (  -0.1250000  -0.5051815   0.1395169), wk =   0.0625000

                       cryst. coord.
        k(    1) = (   0.0000000   0.0000000   0.0000000), wk =   0.0052083
        k(    2) = (   0.0000000   0.0000000   0.3333333), wk =   0.0104167
        k(    3) = (   0.0000000   0.1250000   0.0000000), wk =   0.0312500
        k(    4) = (   0.0000000   0.1250000   0.3333333), wk =   0.0312500
        k(    5) = (   0.0000000   0.2500000   0.0000000), wk =   0.0312500
        k(    6) = (   0.0000000   0.2500000   0.3333333), wk =   0.0312500
        k(    7) = (   0.0000000   0.3750000   0.0000000), wk =   0.0312500
        k(    8) = (   0.0000000   0.3750000   0.3333333), wk =   0.0312500
        k(    9) = (   0.0000000  -0.5000000   0.0000000), wk =   0.0156250
        k(   10) = (   0.0000000  -0.5000000   0.3333333), wk =   0.0312500
        k(   11) = (   0.1250000   0.1250000   0.0000000), wk =   0.0312500
        k(   12) = (   0.1250000   0.1250000   0.3333333), wk =   0.0625000
        k(   13) = (   0.1250000   0.2500000   0.0000000), wk =   0.0625000
        k(   14) = (   0.1250000   0.2500000   0.3333333), wk =   0.0625000
        k(   15) = (   0.1250000   0.3750000   0.0000000), wk =   0.0625000
        k(   16) = (   0.1250000   0.3750000   0.3333333), wk =   0.0625000
        k(   17) = (   0.2500000   0.2500000   0.0000000), wk =   0.0312500
        k(   18) = (   0.2500000   0.2500000   0.3333333), wk =   0.0625000
        k(   19) = (   0.2500000   0.3750000   0.0000000), wk =   0.0312500
        k(   20) = (   0.2500000   0.3750000   0.3333333), wk =   0.0625000
        k(   21) = (   0.0000000  -0.1250000   0.3333333), wk =   0.0312500
        k(   22) = (   0.0000000  -0.2500000   0.3333333), wk =   0.0312500
        k(   23) = (   0.0000000  -0.3750000   0.3333333), wk =   0.0312500
        k(   24) = (  -0.1250000  -0.2500000   0.3333333), wk =   0.0625000
        k(   25) = (  -0.1250000  -0.3750000   0.3333333), wk =   0.0625000

     Dense  grid:    59641 G-vectors     FFT dimensions: (  40,  40,  96)

     Smooth grid:    21167 G-vectors     FFT dimensions: (  27,  27,  72)

     Dynamical RAM for                 wfc:       1.09 MB

     Dynamical RAM for     wfc (w. buffer):      55.47 MB

     Dynamical RAM for           str. fact:       2.73 MB

     Dynamical RAM for           local pot:       0.00 MB

     Dynamical RAM for          nlocal pot:       1.69 MB

     Dynamical RAM for                qrad:       5.27 MB

     Dynamical RAM for          rho,v,vnew:      12.49 MB

     Dynamical RAM for               rhoin:       4.16 MB

     Dynamical RAM for            rho*nmix:      29.12 MB

     Dynamical RAM for           G-vectors:       3.57 MB

     Dynamical RAM for          h,s,v(r/c):       0.13 MB

     Dynamical RAM for          <psi|beta>:       0.02 MB

     Dynamical RAM for                 psi:       2.18 MB

     Dynamical RAM for                hpsi:       2.18 MB

     Dynamical RAM for                spsi:       2.18 MB

     Dynamical RAM for      wfcinit/wfcrot:       2.19 MB

     Dynamical RAM for           addusdens:     172.00 MB

     Dynamical RAM for          addusforce:     173.84 MB

     Estimated static dynamical RAM per process >      96.07 MB

     Estimated max dynamical RAM per process >     299.02 MB

     Check: negative core charge=   -0.000008
     Generating pointlists ...
     new r_m :   0.2748 (alat units)  1.4998 (a.u.) for type    1
     new r_m :   0.2748 (alat units)  1.4998 (a.u.) for type    2
     new r_m :   0.3194 (alat units)  1.7431 (a.u.) for type    3

     Initial potential from superposition of free atoms

     starting charge      37.9934, renormalised to      38.0000
     Starting wfcs are   23 randomized atomic wfcs +    4 random wfcs
     Checking if some PAW data can be deallocated... 

     total cpu time spent up to now is        3.7 secs

     Self-consistent Calculation
[tb_dev] Currently allocated     6.54E-01 Mbytes, locked:    0 /   6
[tb_pin] Currently allocated     0.00E+00 Mbytes, locked:    0 /   0

     iteration #  1     ecut=    60.00 Ry     beta= 0.30
     Davidson diagonalization with overlap

---- Real-time Memory Report at c_bands before calling an iterative solver
           669 MiB given to the printing process from OS
             0 MiB allocation reported by mallinfo(arena+hblkhd)
        849208 MiB available memory on the node where the printing process lives
     GPU memory used/free/total (MiB): 998 / 80152 / 81151
------------------
     ethr =  1.00E-02,  avg # of iterations = 10.1

     total cpu time spent up to now is        5.9 secs

     total energy              =    -569.08941524 Ry
     estimated scf accuracy    <       1.49484301 Ry

     total magnetization       =     4.00 Bohr mag/cell
     absolute magnetization    =     4.00 Bohr mag/cell
[tb_dev] Currently allocated     3.05E-05 Mbytes, locked:    0 /   2
[tb_pin] Currently allocated     0.00E+00 Mbytes, locked:    0 /   0

     iteration #  2     ecut=    60.00 Ry     beta= 0.30
     Davidson diagonalization with overlap

---- Real-time Memory Report at c_bands before calling an iterative solver
           712 MiB given to the printing process from OS
             0 MiB allocation reported by mallinfo(arena+hblkhd)
        849099 MiB available memory on the node where the printing process lives
     GPU memory used/free/total (MiB): 1014 / 80136 / 81151
------------------
     ethr =  3.93E-03,  avg # of iterations =  1.9

     total cpu time spent up to now is        7.0 secs

     total energy              =    -569.07114766 Ry
     estimated scf accuracy    <       0.50705119 Ry

     total magnetization       =     3.89 Bohr mag/cell
     absolute magnetization    =     3.89 Bohr mag/cell
[tb_dev] Currently allocated     3.05E-05 Mbytes, locked:    0 /   2
[tb_pin] Currently allocated     0.00E+00 Mbytes, locked:    0 /   0

     iteration #  3     ecut=    60.00 Ry     beta= 0.30
     Davidson diagonalization with overlap

---- Real-time Memory Report at c_bands before calling an iterative solver
           715 MiB given to the printing process from OS
             0 MiB allocation reported by mallinfo(arena+hblkhd)
        849045 MiB available memory on the node where the printing process lives
     GPU memory used/free/total (MiB): 1014 / 80136 / 81151
------------------
     ethr =  1.33E-03,  avg # of iterations =  2.6

     total cpu time spent up to now is        8.3 secs

     total energy              =    -569.28014134 Ry
     estimated scf accuracy    <       0.99046289 Ry

     total magnetization       =     1.56 Bohr mag/cell
     absolute magnetization    =     1.73 Bohr mag/cell
[tb_dev] Currently allocated     3.05E-05 Mbytes, locked:    0 /   2
[tb_pin] Currently allocated     0.00E+00 Mbytes, locked:    0 /   0

     iteration #  4     ecut=    60.00 Ry     beta= 0.30
     Davidson diagonalization with overlap

---- Real-time Memory Report at c_bands before calling an iterative solver
           715 MiB given to the printing process from OS
             0 MiB allocation reported by mallinfo(arena+hblkhd)
        849025 MiB available memory on the node where the printing process lives
     GPU memory used/free/total (MiB): 1014 / 80136 / 81151
------------------
     ethr =  1.33E-03,  avg # of iterations =  1.6

     total cpu time spent up to now is        9.4 secs

     total energy              =    -569.29717999 Ry
     estimated scf accuracy    <       2.51828215 Ry

     total magnetization       =     0.89 Bohr mag/cell
     absolute magnetization    =     1.25 Bohr mag/cell
[tb_dev] Currently allocated     3.05E-05 Mbytes, locked:    0 /   2
[tb_pin] Currently allocated     0.00E+00 Mbytes, locked:    0 /   0

     iteration #  5     ecut=    60.00 Ry     beta= 0.30
     Davidson diagonalization with overlap

---- Real-time Memory Report at c_bands before calling an iterative solver
           716 MiB given to the printing process from OS
             0 MiB allocation reported by mallinfo(arena+hblkhd)
        849016 MiB available memory on the node where the printing process lives
     GPU memory used/free/total (MiB): 1014 / 80136 / 81151
------------------
     ethr =  1.33E-03,  avg # of iterations =  1.4

     total cpu time spent up to now is       10.5 secs

     total energy              =    -569.14012441 Ry
     estimated scf accuracy    <       1.82821430 Ry

     total magnetization       =     0.77 Bohr mag/cell
     absolute magnetization    =     1.19 Bohr mag/cell
[tb_dev] Currently allocated     3.05E-05 Mbytes, locked:    0 /   2
[tb_pin] Currently allocated     0.00E+00 Mbytes, locked:    0 /   0

     iteration #  6     ecut=    60.00 Ry     beta= 0.30
     Davidson diagonalization with overlap

---- Real-time Memory Report at c_bands before calling an iterative solver
           717 MiB given to the printing process from OS
             0 MiB allocation reported by mallinfo(arena+hblkhd)
        848990 MiB available memory on the node where the printing process lives
     GPU memory used/free/total (MiB): 1014 / 80136 / 81151
------------------
     ethr =  1.33E-03,  avg # of iterations =  1.6

     total cpu time spent up to now is       11.6 secs

     total energy              =    -569.24382689 Ry
     estimated scf accuracy    <       0.21755579 Ry

     total magnetization       =     0.27 Bohr mag/cell
     absolute magnetization    =     0.80 Bohr mag/cell
[tb_dev] Currently allocated     3.05E-05 Mbytes, locked:    0 /   2
[tb_pin] Currently allocated     0.00E+00 Mbytes, locked:    0 /   0

     iteration #  7     ecut=    60.00 Ry     beta= 0.30
     Davidson diagonalization with overlap

---- Real-time Memory Report at c_bands before calling an iterative solver
           719 MiB given to the printing process from OS
             0 MiB allocation reported by mallinfo(arena+hblkhd)
        848980 MiB available memory on the node where the printing process lives
     GPU memory used/free/total (MiB): 1014 / 80136 / 81151
------------------
     ethr =  5.73E-04,  avg # of iterations =  2.2

     total cpu time spent up to now is       12.8 secs

     total energy              =    -569.26137847 Ry
     estimated scf accuracy    <       0.07043131 Ry

     total magnetization       =     0.02 Bohr mag/cell
     absolute magnetization    =     0.47 Bohr mag/cell
[tb_dev] Currently allocated     3.05E-05 Mbytes, locked:    0 /   2
[tb_pin] Currently allocated     0.00E+00 Mbytes, locked:    0 /   0

     iteration #  8     ecut=    60.00 Ry     beta= 0.30
     Davidson diagonalization with overlap

---- Real-time Memory Report at c_bands before calling an iterative solver
           720 MiB given to the printing process from OS
             0 MiB allocation reported by mallinfo(arena+hblkhd)
        849000 MiB available memory on the node where the printing process lives
     GPU memory used/free/total (MiB): 1014 / 80136 / 81151
------------------
     ethr =  1.85E-04,  avg # of iterations =  6.5
     Minimization algorithm failed to find Fermi energy: reverting to bisection
     Possible cause: smearing is larger than the electronic band-gap.

     total cpu time spent up to now is       14.5 secs

     total energy              =    -569.26504677 Ry
     estimated scf accuracy    <       0.01343432 Ry

     total magnetization       =     0.16 Bohr mag/cell
     absolute magnetization    =     0.35 Bohr mag/cell
[tb_dev] Currently allocated     3.05E-05 Mbytes, locked:    0 /   2
[tb_pin] Currently allocated     0.00E+00 Mbytes, locked:    0 /   0

     iteration #  9     ecut=    60.00 Ry     beta= 0.30
     Davidson diagonalization with overlap

---- Real-time Memory Report at c_bands before calling an iterative solver
           720 MiB given to the printing process from OS
             0 MiB allocation reported by mallinfo(arena+hblkhd)
        848981 MiB available memory on the node where the printing process lives
     GPU memory used/free/total (MiB): 1014 / 80136 / 81151
------------------
     c_bands:  1 eigenvalues not converged
     ethr =  3.54E-05,  avg # of iterations =  7.5
     Minimization algorithm failed to find Fermi energy: reverting to bisection
     Possible cause: smearing is larger than the electronic band-gap.

     total cpu time spent up to now is       16.4 secs

     total energy              =    -569.26759962 Ry
     estimated scf accuracy    <       0.00151497 Ry

     total magnetization       =     0.16 Bohr mag/cell
     absolute magnetization    =     0.27 Bohr mag/cell
[tb_dev] Currently allocated     3.05E-05 Mbytes, locked:    0 /   2
[tb_pin] Currently allocated     0.00E+00 Mbytes, locked:    0 /   0

     iteration # 10     ecut=    60.00 Ry     beta= 0.30
     Davidson diagonalization with overlap

---- Real-time Memory Report at c_bands before calling an iterative solver
           724 MiB given to the printing process from OS
             0 MiB allocation reported by mallinfo(arena+hblkhd)
        848963 MiB available memory on the node where the printing process lives
     GPU memory used/free/total (MiB): 1014 / 80136 / 81151
------------------
     ethr =  3.99E-06,  avg # of iterations =  7.6
     Minimization algorithm failed to find Fermi energy: reverting to bisection
     Possible cause: smearing is larger than the electronic band-gap.

     total cpu time spent up to now is       18.3 secs

     total energy              =    -569.26825929 Ry
     estimated scf accuracy    <       0.00136988 Ry

     total magnetization       =     0.12 Bohr mag/cell
     absolute magnetization    =     0.19 Bohr mag/cell
[tb_dev] Currently allocated     3.05E-05 Mbytes, locked:    0 /   2
[tb_pin] Currently allocated     0.00E+00 Mbytes, locked:    0 /   0

     iteration # 11     ecut=    60.00 Ry     beta= 0.30
     Davidson diagonalization with overlap

---- Real-time Memory Report at c_bands before calling an iterative solver
           724 MiB given to the printing process from OS
             0 MiB allocation reported by mallinfo(arena+hblkhd)
        848931 MiB available memory on the node where the printing process lives
     GPU memory used/free/total (MiB): 1014 / 80136 / 81151
------------------
     ethr =  3.60E-06,  avg # of iterations =  1.6
     Minimization algorithm failed to find Fermi energy: reverting to bisection
     Possible cause: smearing is larger than the electronic band-gap.

     total cpu time spent up to now is       19.5 secs

     total energy              =    -569.26846014 Ry
     estimated scf accuracy    <       0.00026598 Ry

     total magnetization       =     0.16 Bohr mag/cell
     absolute magnetization    =     0.22 Bohr mag/cell
[tb_dev] Currently allocated     3.05E-05 Mbytes, locked:    0 /   2
[tb_pin] Currently allocated     0.00E+00 Mbytes, locked:    0 /   0

     iteration # 12     ecut=    60.00 Ry     beta= 0.30
     Davidson diagonalization with overlap

---- Real-time Memory Report at c_bands before calling an iterative solver
           724 MiB given to the printing process from OS
             0 MiB allocation reported by mallinfo(arena+hblkhd)
        848965 MiB available memory on the node where the printing process lives
     GPU memory used/free/total (MiB): 1014 / 80136 / 81151
------------------
     ethr =  7.00E-07,  avg # of iterations =  3.0

     total cpu time spent up to now is       20.8 secs

     total energy              =    -569.26851680 Ry
     estimated scf accuracy    <       0.00010041 Ry

     total magnetization       =     0.17 Bohr mag/cell
     absolute magnetization    =     0.22 Bohr mag/cell
[tb_dev] Currently allocated     3.05E-05 Mbytes, locked:    0 /   2
[tb_pin] Currently allocated     0.00E+00 Mbytes, locked:    0 /   0

     iteration # 13     ecut=    60.00 Ry     beta= 0.30
     Davidson diagonalization with overlap

---- Real-time Memory Report at c_bands before calling an iterative solver
           724 MiB given to the printing process from OS
             0 MiB allocation reported by mallinfo(arena+hblkhd)
        848960 MiB available memory on the node where the printing process lives
     GPU memory used/free/total (MiB): 1014 / 80136 / 81151
------------------
     ethr =  2.64E-07,  avg # of iterations =  4.0

     total cpu time spent up to now is       22.2 secs

     total energy              =    -569.26855869 Ry
     estimated scf accuracy    <       0.00004829 Ry

     total magnetization       =     0.17 Bohr mag/cell
     absolute magnetization    =     0.21 Bohr mag/cell
[tb_dev] Currently allocated     3.05E-05 Mbytes, locked:    0 /   2
[tb_pin] Currently allocated     0.00E+00 Mbytes, locked:    0 /   0

     iteration # 14     ecut=    60.00 Ry     beta= 0.30
     Davidson diagonalization with overlap

---- Real-time Memory Report at c_bands before calling an iterative solver
           724 MiB given to the printing process from OS
             0 MiB allocation reported by mallinfo(arena+hblkhd)
        848917 MiB available memory on the node where the printing process lives
     GPU memory used/free/total (MiB): 1014 / 80136 / 81151
------------------
     ethr =  1.27E-07,  avg # of iterations =  3.2

     total cpu time spent up to now is       23.5 secs

     total energy              =    -569.26857853 Ry
     estimated scf accuracy    <       0.00002804 Ry

     total magnetization       =     0.16 Bohr mag/cell
     absolute magnetization    =     0.20 Bohr mag/cell
[tb_dev] Currently allocated     3.05E-05 Mbytes, locked:    0 /   2
[tb_pin] Currently allocated     0.00E+00 Mbytes, locked:    0 /   0

     iteration # 15     ecut=    60.00 Ry     beta= 0.30
     Davidson diagonalization with overlap

---- Real-time Memory Report at c_bands before calling an iterative solver
           724 MiB given to the printing process from OS
             0 MiB allocation reported by mallinfo(arena+hblkhd)
        848922 MiB available memory on the node where the printing process lives
     GPU memory used/free/total (MiB): 1014 / 80136 / 81151
------------------
     ethr =  7.38E-08,  avg # of iterations =  3.1

     total cpu time spent up to now is       24.8 secs

     total energy              =    -569.26858222 Ry
     estimated scf accuracy    <       0.00001469 Ry

     total magnetization       =     0.16 Bohr mag/cell
     absolute magnetization    =     0.19 Bohr mag/cell
[tb_dev] Currently allocated     3.05E-05 Mbytes, locked:    0 /   2
[tb_pin] Currently allocated     0.00E+00 Mbytes, locked:    0 /   0

     iteration # 16     ecut=    60.00 Ry     beta= 0.30
     Davidson diagonalization with overlap

---- Real-time Memory Report at c_bands before calling an iterative solver
           724 MiB given to the printing process from OS
             0 MiB allocation reported by mallinfo(arena+hblkhd)
        848918 MiB available memory on the node where the printing process lives
     GPU memory used/free/total (MiB): 1014 / 80136 / 81151
------------------
     ethr =  3.87E-08,  avg # of iterations =  3.0

     total cpu time spent up to now is       26.1 secs

     total energy              =    -569.26858530 Ry
     estimated scf accuracy    <       0.00000239 Ry

     total magnetization       =     0.16 Bohr mag/cell
     absolute magnetization    =     0.19 Bohr mag/cell
[tb_dev] Currently allocated     3.05E-05 Mbytes, locked:    0 /   2
[tb_pin] Currently allocated     0.00E+00 Mbytes, locked:    0 /   0

     iteration # 17     ecut=    60.00 Ry     beta= 0.30
     Davidson diagonalization with overlap

---- Real-time Memory Report at c_bands before calling an iterative solver
           724 MiB given to the printing process from OS
             0 MiB allocation reported by mallinfo(arena+hblkhd)
        849413 MiB available memory on the node where the printing process lives
     GPU memory used/free/total (MiB): 1014 / 80136 / 81151
------------------
     ethr =  6.28E-09,  avg # of iterations =  5.6

     total cpu time spent up to now is       27.7 secs

     total energy              =    -569.26858694 Ry
     estimated scf accuracy    <       0.00000069 Ry

     total magnetization       =     0.15 Bohr mag/cell
     absolute magnetization    =     0.19 Bohr mag/cell
[tb_dev] Currently allocated     3.05E-05 Mbytes, locked:    0 /   2
[tb_pin] Currently allocated     0.00E+00 Mbytes, locked:    0 /   0

     iteration # 18     ecut=    60.00 Ry     beta= 0.30
     Davidson diagonalization with overlap

---- Real-time Memory Report at c_bands before calling an iterative solver
           724 MiB given to the printing process from OS
             0 MiB allocation reported by mallinfo(arena+hblkhd)
        849084 MiB available memory on the node where the printing process lives
     GPU memory used/free/total (MiB): 1014 / 80136 / 81151
------------------
     ethr =  1.82E-09,  avg # of iterations =  3.3

     total cpu time spent up to now is       29.1 secs

     total energy              =    -569.26858718 Ry
     estimated scf accuracy    <       0.00000044 Ry

     total magnetization       =     0.15 Bohr mag/cell
     absolute magnetization    =     0.18 Bohr mag/cell
[tb_dev] Currently allocated     3.05E-05 Mbytes, locked:    0 /   2
[tb_pin] Currently allocated     0.00E+00 Mbytes, locked:    0 /   0

     iteration # 19     ecut=    60.00 Ry     beta= 0.30
     Davidson diagonalization with overlap

---- Real-time Memory Report at c_bands before calling an iterative solver
           724 MiB given to the printing process from OS
             0 MiB allocation reported by mallinfo(arena+hblkhd)
        849082 MiB available memory on the node where the printing process lives
     GPU memory used/free/total (MiB): 1014 / 80136 / 81151
------------------
     ethr =  1.17E-09,  avg # of iterations =  2.7

     total cpu time spent up to now is       30.4 secs

     total energy              =    -569.26858749 Ry
     estimated scf accuracy    <       0.00000016 Ry

     total magnetization       =     0.15 Bohr mag/cell
     absolute magnetization    =     0.18 Bohr mag/cell
[tb_dev] Currently allocated     3.05E-05 Mbytes, locked:    0 /   2
[tb_pin] Currently allocated     0.00E+00 Mbytes, locked:    0 /   0

     iteration # 20     ecut=    60.00 Ry     beta= 0.30
     Davidson diagonalization with overlap

---- Real-time Memory Report at c_bands before calling an iterative solver
           724 MiB given to the printing process from OS
             0 MiB allocation reported by mallinfo(arena+hblkhd)
        848896 MiB available memory on the node where the printing process lives
     GPU memory used/free/total (MiB): 1014 / 80136 / 81151
------------------
     ethr =  4.18E-10,  avg # of iterations =  5.5
 
     Magnetic moment per site  (integrated on atomic sphere of radius R)
     atom   1 (R=0.275)  charge= 14.1665  magn=  0.1293
     atom   2 (R=0.275)  charge=  5.2163  magn=  0.0134
     atom   3 (R=0.275)  charge=  5.3405  magn=  0.0076
     atom   4 (R=0.319)  charge=  7.9459  magn= -0.0016

     total cpu time spent up to now is       32.0 secs

     End of self-consistent calculation

 ------ SPIN UP ------------


          k = 0.0000 0.0000 0.0000 (  2625 PWs)   bands (ev):

   -87.4929 -50.7526 -50.7526 -50.7181 -45.6279 -17.5919 -17.4270 -17.4270
   -12.3112 -10.2545   1.2253   2.3036   2.3036   4.8366   5.5961   5.5961
     6.4709   6.4709   6.7959   7.8914   9.9557   9.9557  13.9429  15.2379
    17.5891  23.3427  24.3943

     occupation numbers 
     1.0000   1.0000   1.0000   1.0000   1.0000   1.0000   1.0000   1.0000
     1.0000   1.0000   1.0000   1.0000   1.0000   1.0000   1.0000   1.0000
     1.0000   1.0000   1.0002   0.1001   0.0000   0.0000   0.0000   0.0000
     0.0000   0.0000   0.0000

          k = 0.0000 0.0000 0.1395 (  2666 PWs)   bands (ev):

   -87.4930 -50.7528 -50.7528 -50.7183 -45.6280 -17.5925 -17.4275 -17.4275
   -12.3079 -10.2598   1.3212   2.3036   2.3036   4.3926   5.5954   5.5954
     6.4709   6.4709   7.3436   7.9237   9.9562   9.9562  12.9335  16.0533
    17.8086  23.2988  24.3126

     occupation numbers 
     1.0000   1.0000   1.0000   1.0000   1.0000   1.0000   1.0000   1.0000
     1.0000   1.0000   1.0000   1.0000   1.0000   1.0000   1.0000   1.0000
     1.0000   1.0000   1.0832   0.0708   0.0000   0.0000   0.0000   0.0000
     0.0000   0.0000   0.0000

          k = 0.0000 0.1443 0.0000 (  2643 PWs)   bands (ev):

   -87.4922 -50.7612 -50.7547 -50.7170 -45.6226 -17.5797 -17.4748 -17.4371
   -12.1553 -10.2385   1.3867   2.0906   2.3904   4.5667   5.1273   5.2145
     6.6989   6.8662   7.0162   8.1347   9.5213   9.8576  14.3080  15.8202
    18.2382  21.7692  23.5576

     occupation numbers 
     1.0000   1.0000   1.0000   1.0000   1.0000   1.0000   1.0000   1.0000
     1.0000   1.0000   1.0000   1.0000   1.0000   1.0000   1.0000   1.0000
     1.0000   1.0007   1.0073   0.0038   0.0000   0.0000   0.0000   0.0000
     0.0000   0.0000   0.0000

          k = 0.0000 0.1443 0.1395 (  2651 PWs)   bands (ev):

   -87.4922 -50.7613 -50.7547 -50.7170 -45.6226 -17.5800 -17.4749 -17.4372
   -12.1526 -10.2427   1.4537   2.0848   2.3905   4.5623   4.8950   5.1270
     6.6778   6.8661   7.4540   8.0548   9.6512   9.8579  13.4436  16.6229
    18.2599  21.8975  23.5434

     occupation numbers 
     1.0000   1.0000   1.0000   1.0000   1.0000   1.0000   1.0000   1.0000
     1.0000   1.0000   1.0000   1.0000   1.0000   1.0000   1.0000   1.0000
     1.0000   1.0007   1.0244   0.0131   0.0000   0.0000   0.0000   0.0000
     0.0000   0.0000   0.0000

          k = 0.0000 0.2887 0.0000 (  2620 PWs)   bands (ev):

   -87.4903 -50.7818 -50.7596 -50.7138 -45.6095 -17.6080 -17.5285 -17.4608
   -11.7596 -10.1985   1.4761   1.9871   2.5846   3.3129   4.5621   5.4298
     6.8210   7.1785   7.3473   8.5003   9.2772   9.7347  14.9814  17.1833
    18.6037  19.7081  21.4909

     occupation numbers 
     1.0000   1.0000   1.0000   1.0000   1.0000   1.0000   1.0000   1.0000
     1.0000   1.0000   1.0000   1.0000   1.0000   1.0000   1.0000   1.0000
     1.0003   1.0409   1.0831   0.0000   0.0000   0.0000   0.0000   0.0000
     0.0000   0.0000   0.0000

          k = 0.0000 0.2887 0.1395 (  2636 PWs)   bands (ev):

   -87.4903 -50.7819 -50.7597 -50.7138 -45.6095 -17.6081 -17.5287 -17.4610
   -11.7580 -10.2006   1.4540   2.0221   2.5846   3.3513   4.5619   5.3368
     6.7690   7.1785   7.5137   8.1373   9.7040   9.7343  14.4990  17.7118
    18.3109  19.7948  21.6598

     occupation numbers 
     1.0000   1.0000   1.0000   1.0000   1.0000   1.0000   1.0000   1.0000
     1.0000   1.0000   1.0000   1.0000   1.0000   1.0000   1.0000   1.0000
     1.0001   1.0408   0.9341   0.0036   0.0000   0.0000   0.0000   0.0000
     0.0000   0.0000   0.0000

          k = 0.0000 0.4330 0.0000 (  2652 PWs)   bands (ev):

   -87.4885 -50.8026 -50.7647 -50.7107 -45.5965 -17.7166 -17.4996 -17.4851
   -11.3356 -10.1494   0.9446   1.9579   2.7191   3.3260   4.3094   4.9225
     6.7439   7.1062   7.3349   9.0231   9.7690  10.3545  14.8690  16.5733
    18.1828  19.7450  20.6142

     occupation numbers 
     1.0000   1.0000   1.0000   1.0000   1.0000   1.0000   1.0000   1.0000
     1.0000   1.0000   1.0000   1.0000   1.0000   1.0000   1.0000   1.0000
     1.0001   1.0211   1.0833   0.0000   0.0000   0.0000   0.0000   0.0000
     0.0000   0.0000   0.0000

          k = 0.0000 0.4330 0.1395 (  2641 PWs)   bands (ev):

   -87.4885 -50.8025 -50.7646 -50.7108 -45.5965 -17.7165 -17.4996 -17.4848
   -11.3351 -10.1499   0.9400   1.9472   2.7192   3.3568   4.3094   4.9393
     6.7320   7.1062   7.3431   8.8372   9.7686  10.5697  14.8471  16.1342
    18.5426  20.1289  20.4877

     occupation numbers 
     1.0000   1.0000   1.0000   1.0000   1.0000   1.0000   1.0000   1.0000
     1.0000   1.0000   1.0000   1.0000   1.0000   1.0000   1.0000   1.0000
     1.0001   1.0211   1.0833   0.0000   0.0000   0.0000   0.0000   0.0000
     0.0000   0.0000   0.0000

          k = 0.0000-0.5774 0.0000 (  2642 PWs)   bands (ev):

   -87.4877 -50.8112 -50.7667 -50.7093 -45.5911 -17.7624 -17.4947 -17.4855
   -11.1536 -10.1210   0.5548   2.0596   2.7417   3.5553   4.2882   4.5809
     6.6165   6.9974   7.2781   9.3246   9.8184  11.8505  13.0478  16.9901
    17.8617  19.4444  20.4954

     occupation numbers 
     1.0000   1.0000   1.0000   1.0000   1.0000   1.0000   1.0000   1.0000
     1.0000   1.0000   1.0000   1.0000   1.0000   1.0000   1.0000   1.0000
     1.0000   1.0057   1.0737   0.0000   0.0000   0.0000   0.0000   0.0000
     0.0000   0.0000   0.0000

          k = 0.0000-0.5774 0.1395 (  2638 PWs)   bands (ev):

   -87.4877 -50.8111 -50.7667 -50.7094 -45.5911 -17.7622 -17.4946 -17.4857
   -11.1536 -10.1209   0.5544   2.0461   2.7419   3.5638   4.2882   4.6099
     6.6112   6.9974   7.2738   9.3182   9.8180  11.8423  12.9689  16.7150
    18.5204  19.3884  20.4537

     occupation numbers 
     1.0000   1.0000   1.0000   1.0000   1.0000   1.0000   1.0000   1.0000
     1.0000   1.0000   1.0000   1.0000   1.0000   1.0000   1.0000   1.0000
     1.0000   1.0057   1.0725   0.0000   0.0000   0.0000   0.0000   0.0000
     0.0000   0.0000   0.0000

          k = 0.1250 0.2165 0.0000 (  2659 PWs)   bands (ev):

   -87.4909 -50.7750 -50.7592 -50.7149 -45.6134 -17.5798 -17.5284 -17.4596
   -11.8793 -10.2099   1.5309   1.9889   2.4975   3.6803   4.4801   5.4887
     6.8572   7.1402   7.3058   8.4483   9.1618   9.7096  14.8190  16.8268
    19.1541  19.8914  22.2023

     occupation numbers 
     1.0000   1.0000   1.0000   1.0000   1.0000   1.0000   1.0000   1.0000
     1.0000   1.0000   1.0000   1.0000   1.0000   1.0000   1.0000   1.0000
     1.0006   1.0295   1.0801   0.0000   0.0000   0.0000   0.0000   0.0000
     0.0000   0.0000   0.0000

          k = 0.1250 0.2165 0.1395 (  2634 PWs)   bands (ev):

   -87.4909 -50.7748 -50.7592 -50.7147 -45.6133 -17.5794 -17.5281 -17.4596
   -11.8774 -10.2125   1.5289   2.0158   2.4986   3.7138   4.4802   5.3184
     6.8548   7.0894   7.4899   8.2998   9.4362   9.6769  14.3124  17.4404
    18.8256  20.0454  22.3585

     occupation numbers 
     1.0000   1.0000   1.0000   1.0000   1.0000   1.0000   1.0000   1.0000
     1.0000   1.0000   1.0000   1.0000   1.0000   1.0000   1.0000   1.0000
     1.0006   1.0177   0.9753   0.0002   0.0000   0.0000   0.0000   0.0000
     0.0000   0.0000   0.0000

          k = 0.1250 0.3608 0.0000 (  2630 PWs)   bands (ev):

   -87.4890 -50.7934 -50.7662 -50.7116 -45.6003 -17.6665 -17.5103 -17.4943
   -11.4688 -10.1598   1.3433   1.9243   2.6499   3.1693   4.0632   5.2411
     6.8859   7.2158   7.4045   8.8748   9.3444  10.0122  15.3724  17.2870
    18.2509  19.9399  20.7893

     occupation numbers 
     1.0000   1.0000   1.0000   1.0000   1.0000   1.0000   1.0000   1.0000
     1.0000   1.0000   1.0000   1.0000   1.0000   1.0000   1.0000   1.0000
     1.0010   1.0534   1.0663   0.0000   0.0000   0.0000   0.0000   0.0000
     0.0000   0.0000   0.0000

          k = 0.1250 0.3608 0.1395 (  2633 PWs)   bands (ev):

   -87.4890 -50.7934 -50.7662 -50.7116 -45.6003 -17.6665 -17.5103 -17.4944
   -11.4680 -10.1607   1.3281   1.9242   2.6526   3.2120   4.0641   5.2287
     6.8820   7.2107   7.4004   8.6593   9.4718  10.1366  15.2735  17.0064
    18.5034  20.2296  20.5705

     occupation numbers 
     1.0000   1.0000   1.0000   1.0000   1.0000   1.0000   1.0000   1.0000
     1.0000   1.0000   1.0000   1.0000   1.0000   1.0000   1.0000   1.0000
     1.0010   1.0516   1.0685   0.0000   0.0000   0.0000   0.0000   0.0000
     0.0000   0.0000   0.0000

          k = 0.1250 0.5052 0.0000 (  2636 PWs)   bands (ev):

   -87.4877 -50.8064 -50.7713 -50.7093 -45.5911 -17.7354 -17.5228 -17.4851
   -11.1703 -10.1051   0.8137   1.9581   2.6522   3.5793   3.8810   4.7047
     6.7264   7.0711   7.3844   9.2391   9.5449  11.4797  14.0068  16.9138
    18.3943  19.6602  20.2984

     occupation numbers 
     1.0000   1.0000   1.0000   1.0000   1.0000   1.0000   1.0000   1.0000
     1.0000   1.0000   1.0000   1.0000   1.0000   1.0000   1.0000   1.0000
     1.0000   1.0144   1.0756   0.0000   0.0000   0.0000   0.0000   0.0000
     0.0000   0.0000   0.0000

          k = 0.1250 0.5052 0.1395 (  2647 PWs)   bands (ev):

   -87.4877 -50.8065 -50.7713 -50.7094 -45.5911 -17.7355 -17.5228 -17.4854
   -11.1702 -10.1052   0.8132   1.9476   2.6530   3.5904   3.8810   4.7245
     6.7216   7.0725   7.3765   9.2086   9.5673  11.4763  13.9424  16.6976
    18.7109  19.8164  20.3405

     occupation numbers 
     1.0000   1.0000   1.0000   1.0000   1.0000   1.0000   1.0000   1.0000
     1.0000   1.0000   1.0000   1.0000   1.0000   1.0000   1.0000   1.0000
     1.0000   1.0147   1.0782   0.0000   0.0000   0.0000   0.0000   0.0000
     0.0000   0.0000   0.0000

          k = 0.2500 0.4330 0.0000 (  2639 PWs)   bands (ev):

   -87.4877 -50.8000 -50.7777 -50.7094 -45.5911 -17.6985 -17.5604 -17.4853
   -11.1864 -10.0898   1.1984   1.8549   2.4305   3.3061   3.8695   4.7860
     6.8117   7.1190   7.5127   9.0974   9.3259  11.2832  15.0700  16.7595
    18.3845  19.8766  19.9619

     occupation numbers 
     1.0000   1.0000   1.0000   1.0000   1.0000   1.0000   1.0000   1.0000
     1.0000   1.0000   1.0000   1.0000   1.0000   1.0000   1.0000   1.0000
     1.0003   1.0241   0.9360   0.0000   0.0000   0.0000   0.0000   0.0000
     0.0000   0.0000   0.0000

          k = 0.2500 0.4330 0.1395 (  2630 PWs)   bands (ev):

   -87.4877 -50.7999 -50.7777 -50.7094 -45.5911 -17.6983 -17.5602 -17.4854
   -11.1864 -10.0898   1.1949   1.8473   2.4320   3.3247   3.8721   4.7867
     6.8138   7.1212   7.4892   9.1669   9.3018  11.1913  15.1061  16.7083
    18.2300  20.0409  20.2426

     occupation numbers 
     1.0000   1.0000   1.0000   1.0000   1.0000   1.0000   1.0000   1.0000
     1.0000   1.0000   1.0000   1.0000   1.0000   1.0000   1.0000   1.0000
     1.0003   1.0246   0.9765   0.0000   0.0000   0.0000   0.0000   0.0000
     0.0000   0.0000   0.0000

          k = 0.2500 0.5774 0.0000 (  2630 PWs)   bands (ev):

   -87.4872 -50.8004 -50.7847 -50.7084 -45.5873 -17.6989 -17.5991 -17.4758
   -11.0781 -10.0441   1.1106   1.8679   2.2542   3.4002   3.9966   4.4385
     6.6230   7.2576   7.4806   9.1742   9.3184  12.7670  13.7782  16.3993
    18.5888  19.5492  20.5478

     occupation numbers 
     1.0000   1.0000   1.0000   1.0000   1.0000   1.0000   1.0000   1.0000
     1.0000   1.0000   1.0000   1.0000   1.0000   1.0000   1.0000   1.0000
     1.0000   1.0675   0.9896   0.0000   0.0000   0.0000   0.0000   0.0000
     0.0000   0.0000   0.0000

          k = 0.2500 0.5774 0.1395 (  2649 PWs)   bands (ev):

   -87.4872 -50.8005 -50.7848 -50.7086 -45.5873 -17.6991 -17.5993 -17.4761
   -11.0781 -10.0441   1.1098   1.8668   2.2532   3.4075   3.9908   4.4427
     6.6240   7.2572   7.4724   9.2059   9.3395  12.6677  13.7059  16.3841
    18.5262  19.8140  20.3878

     occupation numbers 
     1.0000   1.0000   1.0000   1.0000   1.0000   1.0000   1.0000   1.0000
     1.0000   1.0000   1.0000   1.0000   1.0000   1.0000   1.0000   1.0000
     1.0000   1.0674   1.0012   0.0000   0.0000   0.0000   0.0000   0.0000
     0.0000   0.0000   0.0000

          k = 0.0000-0.1443 0.1395 (  2651 PWs)   bands (ev):

   -87.4922 -50.7613 -50.7547 -50.7170 -45.6226 -17.5800 -17.4749 -17.4372
   -12.1526 -10.2426   1.4558   2.0825   2.3905   4.5242   4.9396   5.1269
     6.6741   6.8660   7.4136   8.1480   9.5656   9.8584  13.4965  16.6050
    18.2541  21.8676  23.5609

     occupation numbers 
     1.0000   1.0000   1.0000   1.0000   1.0000   1.0000   1.0000   1.0000
     1.0000   1.0000   1.0000   1.0000   1.0000   1.0000   1.0000   1.0000
     1.0000   1.0007   1.0607   0.0030   0.0000   0.0000   0.0000   0.0000
     0.0000   0.0000   0.0000

          k = 0.0000-0.2887 0.1395 (  2636 PWs)   bands (ev):

   -87.4903 -50.7819 -50.7597 -50.7138 -45.6095 -17.6081 -17.5287 -17.4611
   -11.7582 -10.2004   1.4614   2.0071   2.5846   3.3608   4.5618   5.3180
     6.7846   7.1784   7.4075   8.5365   9.3187   9.7349  14.7088  17.5585
    18.5845  19.4578  21.9938

     occupation numbers 
     1.0000   1.0000   1.0000   1.0000   1.0000   1.0000   1.0000   1.0000
     1.0000   1.0000   1.0000   1.0000   1.0000   1.0000   1.0000   1.0000
     1.0002   1.0408   1.0645   0.0000   0.0000   0.0000   0.0000   0.0000
     0.0000   0.0000   0.0000

          k = 0.0000-0.4330 0.1395 (  2641 PWs)   bands (ev):

   -87.4885 -50.8025 -50.7646 -50.7107 -45.5965 -17.7165 -17.4996 -17.4848
   -11.3354 -10.1495   0.9363   1.9473   2.7192   3.3722   4.3094   4.9124
     6.7404   7.1062   7.3164   9.0747   9.7689  10.2523  14.9523  16.4690
    18.4119  19.6280  20.6222

     occupation numbers 
     1.0000   1.0000   1.0000   1.0000   1.0000   1.0000   1.0000   1.0000
     1.0000   1.0000   1.0000   1.0000   1.0000   1.0000   1.0000   1.0000
     1.0001   1.0211   1.0818   0.0000   0.0000   0.0000   0.0000   0.0000
     0.0000   0.0000   0.0000

          k =-0.1250-0.3608 0.1395 (  2633 PWs)   bands (ev):

   -87.4890 -50.7934 -50.7662 -50.7116 -45.6003 -17.6665 -17.5103 -17.4944
   -11.4682 -10.1605   1.3272   1.9220   2.6494   3.2246   4.0628   5.2121
     6.8953   7.2240   7.3488   8.9137   9.3336   9.9991  15.4066  17.0686
    18.5740  19.7771  20.9311

     occupation numbers 
     1.0000   1.0000   1.0000   1.0000   1.0000   1.0000   1.0000   1.0000
     1.0000   1.0000   1.0000   1.0000   1.0000   1.0000   1.0000   1.0000
     1.0012   1.0562   1.0830   0.0000   0.0000   0.0000   0.0000   0.0000
     0.0000   0.0000   0.0000

          k =-0.1250-0.5052 0.1395 (  2647 PWs)   bands (ev):

   -87.4877 -50.8065 -50.7713 -50.7094 -45.5911 -17.7355 -17.5228 -17.4854
   -11.1703 -10.1050   0.8110   1.9488   2.6537   3.5987   3.8798   4.7125
     6.7260   7.0719   7.3694   9.2843   9.5470  11.3592  13.9981  16.9408
    18.4987  19.8534  20.3314

     occupation numbers 
     1.0000   1.0000   1.0000   1.0000   1.0000   1.0000   1.0000   1.0000
     1.0000   1.0000   1.0000   1.0000   1.0000   1.0000   1.0000   1.0000
     1.0000   1.0145   1.0800   0.0000   0.0000   0.0000   0.0000   0.0000
     0.0000   0.0000   0.0000

 ------ SPIN DOWN ----------


          k = 0.0000 0.0000 0.0000 (  2625 PWs)   bands (ev):

   -87.3373 -50.6163 -50.6163 -50.5355 -45.6300 -17.5947 -17.4291 -17.4291
   -12.2958 -10.2333   1.2617   2.3418   2.3418   4.8753   5.6118   5.6118
     6.6147   6.6147   6.8118   7.9894  10.0193  10.0193  13.9475  15.2584
    17.6014  23.3618  24.3950

     occupation numbers 
     1.0000   1.0000   1.0000   1.0000   1.0000   1.0000   1.0000   1.0000
     1.0000   1.0000   1.0000   1.0000   1.0000   1.0000   1.0000   1.0000
     1.0000   1.0000   1.0003   0.0322   0.0000   0.0000   0.0000   0.0000
     0.0000   0.0000   0.0000

          k = 0.0000 0.0000 0.1395 (  2666 PWs)   bands (ev):

   -87.3373 -50.6165 -50.6165 -50.5357 -45.6302 -17.5953 -17.4296 -17.4296
   -12.2925 -10.2386   1.3604   2.3419   2.3419   4.4135   5.6112   5.6112
     6.6147   6.6147   7.4398   7.9556  10.0198  10.0198  12.9406  16.0745
    17.8211  23.3096  24.3123

     occupation numbers 
     1.0000   1.0000   1.0000   1.0000   1.0000   1.0000   1.0000   1.0000
     1.0000   1.0000   1.0000   1.0000   1.0000   1.0000   1.0000   1.0000
     1.0000   1.0000   1.0393   0.0489   0.0000   0.0000   0.0000   0.0000
     0.0000   0.0000   0.0000

          k = 0.0000 0.1443 0.0000 (  2643 PWs)   bands (ev):

   -87.3366 -50.6250 -50.6185 -50.5343 -45.6247 -17.5824 -17.4770 -17.4393
   -12.1400 -10.2169   1.4210   2.1288   2.4273   4.6001   5.1644   5.2506
     6.8272   6.9920   7.0707   8.1956   9.5857   9.9205  14.3120  15.8401
    18.2520  21.7572  23.5472

     occupation numbers 
     1.0000   1.0000   1.0000   1.0000   1.0000   1.0000   1.0000   1.0000
     1.0000   1.0000   1.0000   1.0000   1.0000   1.0000   1.0000   1.0000
     1.0004   1.0053   1.0144   0.0013   0.0000   0.0000   0.0000   0.0000
     0.0000   0.0000   0.0000

          k = 0.0000 0.1443 0.1395 (  2651 PWs)   bands (ev):

   -87.3366 -50.6251 -50.6185 -50.5343 -45.6247 -17.5827 -17.4771 -17.4393
   -12.1372 -10.2212   1.4893   2.1238   2.4275   4.5979   4.9158   5.1641
     6.8074   6.9919   7.5721   8.0665   9.7109   9.9208  13.4491  16.6441
    18.2734  21.8733  23.5479

     occupation numbers 
     1.0000   1.0000   1.0000   1.0000   1.0000   1.0000   1.0000   1.0000
     1.0000   1.0000   1.0000   1.0000   1.0000   1.0000   1.0000   1.0000
     1.0003   1.0053   0.8067   0.0111   0.0000   0.0000   0.0000   0.0000
     0.0000   0.0000   0.0000

          k = 0.0000 0.2887 0.0000 (  2620 PWs)   bands (ev):

   -87.3347 -50.6458 -50.6234 -50.5311 -45.6116 -17.6101 -17.5314 -17.4630
   -11.7445 -10.1762   1.5045   2.0211   2.6190   3.3508   4.5999   5.4686
     6.9556   7.3100   7.4812   8.5093   9.3113   9.7971  14.9812  17.2018
    18.5666  19.7237  21.4972

     occupation numbers 
     1.0000   1.0000   1.0000   1.0000   1.0000   1.0000   1.0000   1.0000
     1.0000   1.0000   1.0000   1.0000   1.0000   1.0000   1.0000   1.0000
     1.0031   1.0808   0.9887   0.0000   0.0000   0.0000   0.0000   0.0000
     0.0000   0.0000   0.0000

          k = 0.0000 0.2887 0.1395 (  2636 PWs)   bands (ev):

   -87.3347 -50.6458 -50.6235 -50.5311 -45.6117 -17.6102 -17.5316 -17.4632
   -11.7430 -10.1783   1.4820   2.0564   2.6190   3.3919   4.5998   5.3698
     6.9001   7.3100   7.6754   8.1363   9.7279   9.7967  14.4999  17.7301
    18.2857  19.7913  21.6753

     occupation numbers 
     1.0000   1.0000   1.0000   1.0000   1.0000   1.0000   1.0000   1.0000
     1.0000   1.0000   1.0000   1.0000   1.0000   1.0000   1.0000   1.0000
     1.0013   1.0808   0.5290   0.0037   0.0000   0.0000   0.0000   0.0000
     0.0000   0.0000   0.0000

          k = 0.0000 0.4330 0.0000 (  2652 PWs)   bands (ev):

   -87.3329 -50.6667 -50.6286 -50.5280 -45.5987 -17.7189 -17.5025 -17.4872
   -11.3211 -10.1259   0.9714   1.9792   2.7536   3.3674   4.3356   4.9637
     6.8928   7.2495   7.4923   9.0853   9.8346  10.3088  14.8279  16.5603
    18.1978  19.7608  20.6278

     occupation numbers 
     1.0000   1.0000   1.0000   1.0000   1.0000   1.0000   1.0000   1.0000
     1.0000   1.0000   1.0000   1.0000   1.0000   1.0000   1.0000   1.0000
     1.0012   1.0649   0.9716   0.0000   0.0000   0.0000   0.0000   0.0000
     0.0000   0.0000   0.0000

          k = 0.0000 0.4330 0.1395 (  2641 PWs)   bands (ev):

   -87.3328 -50.6667 -50.6285 -50.5280 -45.5987 -17.7188 -17.5025 -17.4870
   -11.3206 -10.1264   0.9668   1.9682   2.7538   3.3993   4.3356   4.9809
     6.8797   7.2495   7.5006   8.8848   9.8341  10.5391  14.8082  16.1213
    18.5610  20.1427  20.4977

     occupation numbers 
     1.0000   1.0000   1.0000   1.0000   1.0000   1.0000   1.0000   1.0000
     1.0000   1.0000   1.0000   1.0000   1.0000   1.0000   1.0000   1.0000
     1.0009   1.0649   0.9577   0.0000   0.0000   0.0000   0.0000   0.0000
     0.0000   0.0000   0.0000

          k = 0.0000-0.5774 0.0000 (  2642 PWs)   bands (ev):

   -87.3321 -50.6754 -50.6305 -50.5266 -45.5932 -17.7648 -17.4969 -17.4884
   -11.1395 -10.0969   0.5807   2.0770   2.7776   3.5931   4.3056   4.6236
     6.7787   7.1474   7.4306   9.4037   9.8861  11.7828  12.9973  16.9870
    17.8709  19.4561  20.5218

     occupation numbers 
     1.0000   1.0000   1.0000   1.0000   1.0000   1.0000   1.0000   1.0000
     1.0000   1.0000   1.0000   1.0000   1.0000   1.0000   1.0000   1.0000
     1.0001   1.0314   1.0478   0.0000   0.0000   0.0000   0.0000   0.0000
     0.0000   0.0000   0.0000

          k = 0.0000-0.5774 0.1395 (  2638 PWs)   bands (ev):

   -87.3321 -50.6753 -50.6305 -50.5266 -45.5932 -17.7646 -17.4968 -17.4886
   -11.1395 -10.0968   0.5803   2.0633   2.7778   3.6019   4.3057   4.6533
     6.7729   7.1474   7.4264   9.3956   9.8857  11.7771  12.9182  16.7122
    18.5241  19.4161  20.4669

     occupation numbers 
     1.0000   1.0000   1.0000   1.0000   1.0000   1.0000   1.0000   1.0000
     1.0000   1.0000   1.0000   1.0000   1.0000   1.0000   1.0000   1.0000
     1.0001   1.0314   1.0512   0.0000   0.0000   0.0000   0.0000   0.0000
     0.0000   0.0000   0.0000

          k = 0.1250 0.2165 0.0000 (  2659 PWs)   bands (ev):

   -87.3353 -50.6389 -50.6230 -50.5322 -45.6156 -17.5820 -17.5312 -17.4618
   -11.8641 -10.1879   1.5599   2.0269   2.5324   3.7141   4.5224   5.5252
     7.0009   7.2573   7.4217   8.4492   9.2285   9.7660  14.8209  16.8460
    19.1570  19.8731  22.2025

     occupation numbers 
     1.0000   1.0000   1.0000   1.0000   1.0000   1.0000   1.0000   1.0000
     1.0000   1.0000   1.0000   1.0000   1.0000   1.0000   1.0000   1.0000
     1.0060   1.0674   1.0549   0.0000   0.0000   0.0000   0.0000   0.0000
     0.0000   0.0000   0.0000

          k = 0.1250 0.2165 0.1395 (  2634 PWs)   bands (ev):

   -87.3352 -50.6387 -50.6230 -50.5320 -45.6155 -17.5817 -17.5309 -17.4617
   -11.8622 -10.1904   1.5574   2.0547   2.5337   3.7500   4.5225   5.3464
     6.9988   7.1975   7.6415   8.2969   9.4891   9.7298  14.3157  17.4586
    18.8339  20.0150  22.3550

     occupation numbers 
     1.0000   1.0000   1.0000   1.0000   1.0000   1.0000   1.0000   1.0000
     1.0000   1.0000   1.0000   1.0000   1.0000   1.0000   1.0000   1.0000
     1.0058   1.0471   0.6228   0.0002   0.0000   0.0000   0.0000   0.0000
     0.0000   0.0000   0.0000

          k = 0.1250 0.3608 0.0000 (  2630 PWs)   bands (ev):

   -87.3334 -50.6574 -50.6300 -50.5289 -45.6024 -17.6687 -17.5131 -17.4966
   -11.4540 -10.1367   1.3707   1.9497   2.6806   3.2118   4.0996   5.2790
     7.0353   7.3706   7.5408   8.9058   9.3989  10.0069  15.3596  17.2501
    18.2672  19.9489  20.7815

     occupation numbers 
     1.0000   1.0000   1.0000   1.0000   1.0000   1.0000   1.0000   1.0000
     1.0000   1.0000   1.0000   1.0000   1.0000   1.0000   1.0000   1.0000
     1.0094   1.0797   0.8793   0.0000   0.0000   0.0000   0.0000   0.0000
     0.0000   0.0000   0.0000

          k = 0.1250 0.3608 0.1395 (  2633 PWs)   bands (ev):

   -87.3334 -50.6574 -50.6300 -50.5289 -45.6025 -17.6688 -17.5131 -17.4967
   -11.4533 -10.1376   1.3552   1.9495   2.6832   3.2565   4.1006   5.2657
     7.0297   7.3576   7.5438   8.6863   9.5379  10.1260  15.2650  16.9685
    18.5179  20.2324  20.5718

     occupation numbers 
     1.0000   1.0000   1.0000   1.0000   1.0000   1.0000   1.0000   1.0000
     1.0000   1.0000   1.0000   1.0000   1.0000   1.0000   1.0000   1.0000
     1.0087   1.0821   0.8728   0.0000   0.0000   0.0000   0.0000   0.0000
     0.0000   0.0000   0.0000

          k = 0.1250 0.5052 0.0000 (  2636 PWs)   bands (ev):

   -87.3321 -50.6706 -50.6352 -50.5266 -45.5932 -17.7377 -17.5250 -17.4880
   -11.1560 -10.0812   0.8393   1.9802   2.6814   3.6157   3.9105   4.7449
     6.8988   7.2190   7.5236   9.3125   9.6121  11.4213  13.9530  16.9064
    18.3995  19.6682  20.3026

     occupation numbers 
     1.0000   1.0000   1.0000   1.0000   1.0000   1.0000   1.0000   1.0000
     1.0000   1.0000   1.0000   1.0000   1.0000   1.0000   1.0000   1.0000
     1.0013   1.0545   0.9150   0.0000   0.0000   0.0000   0.0000   0.0000
     0.0000   0.0000   0.0000

          k = 0.1250 0.5052 0.1395 (  2647 PWs)   bands (ev):

   -87.3321 -50.6706 -50.6352 -50.5267 -45.5933 -17.7378 -17.5250 -17.4883
   -11.1560 -10.0812   0.8389   1.9694   2.6823   3.6271   3.9102   4.7655
     6.8934   7.2207   7.5154   9.2794   9.6362  11.4189  13.8893  16.6916
    18.7102  19.8423  20.3298

     occupation numbers 
     1.0000   1.0000   1.0000   1.0000   1.0000   1.0000   1.0000   1.0000
     1.0000   1.0000   1.0000   1.0000   1.0000   1.0000   1.0000   1.0000
     1.0012   1.0551   0.9309   0.0000   0.0000   0.0000   0.0000   0.0000
     0.0000   0.0000   0.0000

          k = 0.2500 0.4330 0.0000 (  2639 PWs)   bands (ev):

   -87.3321 -50.6641 -50.6417 -50.5266 -45.5933 -17.7008 -17.5626 -17.4882
   -11.1721 -10.0659   1.2239   1.8804   2.4533   3.3427   3.9059   4.8255
     6.9932   7.2646   7.6428   9.1622   9.3971  11.2293  15.0183  16.7389
    18.3626  19.8968  19.9725

     occupation numbers 
     1.0000   1.0000   1.0000   1.0000   1.0000   1.0000   1.0000   1.0000
     1.0000   1.0000   1.0000   1.0000   1.0000   1.0000   1.0000   1.0000
     1.0054   1.0697   0.6190   0.0000   0.0000   0.0000   0.0000   0.0000
     0.0000   0.0000   0.0000

          k = 0.2500 0.4330 0.1395 (  2630 PWs)   bands (ev):

   -87.3321 -50.6640 -50.6416 -50.5266 -45.5932 -17.7006 -17.5625 -17.4883
   -11.1721 -10.0660   1.2203   1.8726   2.4547   3.3617   3.9086   4.8264
     6.9954   7.2670   7.6176   9.2369   9.3710  11.1354  15.0527  16.6895
    18.2109  20.0466  20.2685

     occupation numbers 
     1.0000   1.0000   1.0000   1.0000   1.0000   1.0000   1.0000   1.0000
     1.0000   1.0000   1.0000   1.0000   1.0000   1.0000   1.0000   1.0000
     1.0056   1.0704   0.6882   0.0000   0.0000   0.0000   0.0000   0.0000
     0.0000   0.0000   0.0000

          k = 0.2500 0.5774 0.0000 (  2630 PWs)   bands (ev):

   -87.3315 -50.6645 -50.6487 -50.5256 -45.5894 -17.7013 -17.6014 -17.4786
   -11.0639 -10.0199   1.1359   1.8923   2.2766   3.4303   4.0271   4.4829
     6.8153   7.3956   7.6176   9.2474   9.3885  12.7046  13.7179  16.3721
    18.5720  19.5601  20.5581

     occupation numbers 
     1.0000   1.0000   1.0000   1.0000   1.0000   1.0000   1.0000   1.0000
     1.0000   1.0000   1.0000   1.0000   1.0000   1.0000   1.0000   1.0000
     1.0003   1.0709   0.6884   0.0000   0.0000   0.0000   0.0000   0.0000
     0.0000   0.0000   0.0000

          k = 0.2500 0.5774 0.1395 (  2649 PWs)   bands (ev):

   -87.3315 -50.6646 -50.6488 -50.5258 -45.5895 -17.7014 -17.6016 -17.4790
   -11.0639 -10.0199   1.1352   1.8912   2.2755   3.4379   4.0209   4.4876
     6.8165   7.3953   7.6092   9.2810   9.4103  12.6033  13.6451  16.3562
    18.5125  19.8223  20.4144

     occupation numbers 
     1.0000   1.0000   1.0000   1.0000   1.0000   1.0000   1.0000   1.0000
     1.0000   1.0000   1.0000   1.0000   1.0000   1.0000   1.0000   1.0000
     1.0003   1.0710   0.7110   0.0000   0.0000   0.0000   0.0000   0.0000
     0.0000   0.0000   0.0000

          k = 0.0000-0.1443 0.1395 (  2651 PWs)   bands (ev):

   -87.3366 -50.6251 -50.6185 -50.5343 -45.6247 -17.5827 -17.4771 -17.4393
   -12.1373 -10.2211   1.4914   2.1214   2.4275   4.5564   4.9641   5.1641
     6.8010   6.9918   7.5310   8.1595   9.6282   9.9213  13.5026  16.6254
    18.2683  21.8473  23.5574

     occupation numbers 
     1.0000   1.0000   1.0000   1.0000   1.0000   1.0000   1.0000   1.0000
     1.0000   1.0000   1.0000   1.0000   1.0000   1.0000   1.0000   1.0000
     1.0002   1.0053   0.9002   0.0025   0.0000   0.0000   0.0000   0.0000
     0.0000   0.0000   0.0000

          k = 0.0000-0.2887 0.1395 (  2636 PWs)   bands (ev):

   -87.3347 -50.6458 -50.6235 -50.5311 -45.6117 -17.6103 -17.5316 -17.4632
   -11.7431 -10.1780   1.4892   2.0416   2.6190   3.4015   4.5997   5.3505
     6.9135   7.3099   7.5535   8.5495   9.3465   9.7973  14.7108  17.5623
    18.5761  19.4543  22.0016

     occupation numbers 
     1.0000   1.0000   1.0000   1.0000   1.0000   1.0000   1.0000   1.0000
     1.0000   1.0000   1.0000   1.0000   1.0000   1.0000   1.0000   1.0000
     1.0016   1.0808   0.8510   0.0000   0.0000   0.0000   0.0000   0.0000
     0.0000   0.0000   0.0000

          k = 0.0000-0.4330 0.1395 (  2641 PWs)   bands (ev):

   -87.3328 -50.6667 -50.6285 -50.5280 -45.5986 -17.7188 -17.5025 -17.4870
   -11.3209 -10.1260   0.9629   1.9683   2.7538   3.4154   4.3356   4.9529
     6.8873   7.2495   7.4731   9.1422   9.8345  10.2041  14.9087  16.4578
    18.4281  19.6391  20.6422

     occupation numbers 
     1.0000   1.0000   1.0000   1.0000   1.0000   1.0000   1.0000   1.0000
     1.0000   1.0000   1.0000   1.0000   1.0000   1.0000   1.0000   1.0000
     1.0011   1.0649   1.0003   0.0000   0.0000   0.0000   0.0000   0.0000
     0.0000   0.0000   0.0000

          k =-0.1250-0.3608 0.1395 (  2633 PWs)   bands (ev):

   -87.3334 -50.6574 -50.6300 -50.5289 -45.6025 -17.6688 -17.5131 -17.4967
   -11.4535 -10.1374   1.3542   1.9473   2.6802   3.2692   4.0994   5.2484
     7.0439   7.3721   7.4871   8.9518   9.3863   9.9943  15.3968  17.0314
    18.5865  19.7847  20.9211

     occupation numbers 
     1.0000   1.0000   1.0000   1.0000   1.0000   1.0000   1.0000   1.0000
     1.0000   1.0000   1.0000   1.0000   1.0000   1.0000   1.0000   1.0000
     1.0104   1.0794   0.9797   0.0000   0.0000   0.0000   0.0000   0.0000
     0.0000   0.0000   0.0000

          k =-0.1250-0.5052 0.1395 (  2647 PWs)   bands (ev):

   -87.3321 -50.6706 -50.6352 -50.5267 -45.5933 -17.7378 -17.5250 -17.4882
   -11.1561 -10.0810   0.8366   1.9707   2.6830   3.6357   3.9092   4.7530
     6.8979   7.2197   7.5083   9.3611   9.6140  11.2991  13.9432  16.9329
    18.5011  19.8721  20.3331

     occupation numbers 
     1.0000   1.0000   1.0000   1.0000   1.0000   1.0000   1.0000   1.0000
     1.0000   1.0000   1.0000   1.0000   1.0000   1.0000   1.0000   1.0000
     1.0013   1.0548   0.9440   0.0000   0.0000   0.0000   0.0000   0.0000
     0.0000   0.0000   0.0000

     the Fermi energy is     7.7239 ev

!    total energy              =    -569.26858774 Ry
     total all-electron energy =     -3412.759143 Ry
     estimated scf accuracy    <       0.00000004 Ry
     smearing contrib. (-TS)   =       0.00639293 Ry
     internal energy E=F+TS    =    -569.27498066 Ry

     The total energy is F=E-TS. E is the sum of the following terms:
     one-electron contribution =    -484.77595700 Ry
     hartree contribution      =     260.26068237 Ry
     xc contribution           =     -60.33045438 Ry
     ewald contribution        =    -162.50250773 Ry
     one-center paw contrib.   =    -121.92674392 Ry
      -> PAW hartree energy AE =     346.00455796 Ry
      -> PAW hartree energy PS =    -345.98406617 Ry
      -> PAW xc energy AE      =    -179.26038634 Ry
      -> PAW xc energy PS      =      57.31315064 Ry
      -> total E_H with PAW    =     260.28117416 Ry
      -> total E_XC with PAW   =    -182.27769009 Ry

     total magnetization       =     0.15 Bohr mag/cell
     absolute magnetization    =     0.18 Bohr mag/cell

     convergence has been achieved in  20 iterations

     Forces acting on atoms (cartesian axes, Ry/au):

     atom    1 type  1   force =    -0.00000000   -0.00000000    0.10749352
     atom    2 type  2   force =     0.00000000    0.00000000   -0.01794449
     atom    3 type  2   force =     0.00000000    0.00000000   -0.04187582
     atom    4 type  3   force =     0.00000000    0.00000000   -0.04767321
     The non-local contrib.  to forces
     atom    1 type  1   force =     0.00000000    0.00000000   -0.12347473
     atom    2 type  2   force =     0.00000000    0.00000000   -1.06903030
     atom    3 type  2   force =     0.00000000    0.00000000    0.32200356
     atom    4 type  3   force =     0.00000000    0.00000000   -0.55611977
     The ionic contribution  to forces
     atom    1 type  1   force =    -0.00000000   -0.00000000   22.56112674
     atom    2 type  2   force =     0.00000000   -0.00000000   33.27331650
     atom    3 type  2   force =    -0.00000000    0.00000000  -19.70261946
     atom    4 type  3   force =     0.00000000   -0.00000000  -36.13182379
     The local contribution  to forces
     atom    1 type  1   force =    -0.00000000   -0.00000000  -22.32973680
     atom    2 type  2   force =     0.00000001   -0.00000001  -32.23155707
     atom    3 type  2   force =    -0.00000001    0.00000001   19.34134470
     atom    4 type  3   force =    -0.00000000    0.00000000   36.64015104
     The core correction contribution to forces
     atom    1 type  1   force =     0.00000000   -0.00000000   -0.00036514
     atom    2 type  2   force =    -0.00000000    0.00000000    0.00932807
     atom    3 type  2   force =     0.00000000   -0.00000000   -0.00271430
     atom    4 type  3   force =    -0.00000000    0.00000000    0.00028293
     The Hubbard contrib.    to forces
     atom    1 type  1   force =     0.00000000    0.00000000    0.00000000
     atom    2 type  2   force =     0.00000000    0.00000000    0.00000000
     atom    3 type  2   force =     0.00000000    0.00000000    0.00000000
     atom    4 type  3   force =     0.00000000    0.00000000    0.00000000
     The SCF correction term to forces
     atom    1 type  1   force =     0.00000000   -0.00000000   -0.00007629
     atom    2 type  2   force =     0.00000000   -0.00000000   -0.00002143
     atom    3 type  2   force =    -0.00000000    0.00000000    0.00008995
     atom    4 type  3   force =     0.00000000   -0.00000000   -0.00018337

     Total force =     0.126108     Total SCF correction =     0.000219

     Writing all to output data dir ./out/pw.save/ :
     XML data file, charge density, pseudopotentials, collected wavefunctions
 
     init_run     :     13.66s CPU      3.23s WALL (       1 calls)
     electrons    :    105.53s CPU     28.31s WALL (       1 calls)
     forces       :      0.68s CPU      0.56s WALL (       1 calls)

     Called by init_run:
     wfcinit      :      0.28s CPU      0.34s WALL (       1 calls)
     wfcinit:atom :      0.04s CPU      0.04s WALL (      50 calls)
     wfcinit:wfcr :      0.17s CPU      0.22s WALL (      50 calls)
     potinit      :     12.85s CPU      2.33s WALL (       1 calls)
     hinit0       :      0.44s CPU      0.43s WALL (       1 calls)

     Called by electrons:
     c_bands      :     13.93s CPU     14.00s WALL (      20 calls)
     sum_band     :      2.24s CPU      2.20s WALL (      20 calls)
     v_of_rho     :      0.35s CPU      0.16s WALL (      21 calls)
     v_h          :      0.24s CPU      0.03s WALL (      21 calls)
     v_xc         :      0.11s CPU      0.13s WALL (      22 calls)
     newd         :      0.51s CPU      0.39s WALL (      21 calls)
                                        0.39s GPU  (      21 calls)
     PAW_pot      :     92.03s CPU     11.53s WALL (      21 calls)
     mix_rho      :      0.61s CPU      0.59s WALL (      20 calls)

     Called by c_bands:
     init_us_2    :      0.88s CPU      0.84s WALL (    2100 calls)
     cegterg      :     12.31s CPU     12.45s WALL (    1000 calls)

     Called by sum_band:
     sum_band:wei :      0.04s CPU      0.04s WALL (      20 calls)
                                        0.04s GPU  (      20 calls)
     sum_band:loo :      1.41s CPU      1.37s WALL (      20 calls)
                                        1.36s GPU  (      20 calls)
     sum_band:buf :      0.16s CPU      0.18s WALL (    1000 calls)
                                        0.17s GPU  (    1000 calls)
     sum_band:ini :      0.41s CPU      0.41s WALL (    1000 calls)
                                        0.40s GPU  (    1000 calls)
     sum_band:cal :      0.04s CPU      0.06s WALL (    1000 calls)
                                        0.05s GPU  (    1000 calls)
     sum_band:bec :      0.22s CPU      0.24s WALL (    1000 calls)
                                        0.22s GPU  (    1000 calls)
     addusdens    :      0.67s CPU      0.67s WALL (      20 calls)
                                        0.67s GPU  (      20 calls)
     addusd:skk   :      0.00s CPU      0.00s WALL (      60 calls)
                                        0.00s GPU  (      60 calls)

     Called by *egterg:
     cdiaghg      :      4.31s CPU      4.47s WALL (    4892 calls)
                                        4.41s GPU  (    4892 calls)
     cegterg:over :      0.89s CPU      0.93s WALL (    3892 calls)
     cegterg:upda :      0.71s CPU      0.73s WALL (    3892 calls)
     cegterg:last :      0.13s CPU      0.13s WALL (    2011 calls)
     h_psi        :      4.34s CPU      4.43s WALL (    4942 calls)
                                        4.37s GPU  (    4942 calls)
     s_psi        :      0.75s CPU      0.80s WALL (    4942 calls)
     g_psi        :      0.02s CPU      0.09s WALL (    3892 calls)
                                        0.04s GPU  (    3892 calls)

     Called by h_psi:
     h_psi:calbec :      0.15s CPU      0.28s WALL (    4942 calls)
                                        0.22s GPU  (    4942 calls)
     vloc_psi     :      2.99s CPU      2.99s WALL (    4942 calls)
                                        2.93s GPU  (    4942 calls)
     add_vuspsi   :      0.68s CPU      0.82s WALL (    4942 calls)
                                        0.75s GPU  (    4942 calls)

     General routines
     calbec       :      0.16s CPU      0.20s WALL (    6142 calls)
     fft          :      3.62s CPU      0.89s WALL (     538 calls)
                                        0.02s GPU  (     496 calls)
     ffts         :      4.86s CPU      0.84s WALL (     765 calls)
                                        0.02s GPU  (     723 calls)
     fftw         :      0.29s CPU      0.96s WALL (   16014 calls)
                                        0.77s GPU  (   16014 calls)
     interpolate  :      8.61s CPU      1.70s WALL (      42 calls)
 
     Parallel routines

     PAW routines
     PAW_pot      :     92.03s CPU     11.53s WALL (      21 calls)
     PAW_symme    :      0.02s CPU      0.00s WALL (      41 calls)
 
     PWSCF        :   2m 0.74s CPU     32.62s WALL

 
   This run was terminated on:   3:17:17  12Jul2026            

=------------------------------------------------------------------------------=
   JOB DONE.
=------------------------------------------------------------------------------=
Warning: ieee_divide_by_zero is signaling
Warning: ieee_inexact is signaling
FORTRAN STOP
