
     Program PWSCF v.7.3.1 starts on 12Jul2026 at  2:40:27 

     This program is part of the open-source Quantum ESPRESSO suite
     for quantum simulation of materials; please cite
         "P. Giannozzi et al., J. Phys.:Condens. Matter 21 395502 (2009);
         "P. Giannozzi et al., J. Phys.:Condens. Matter 29 465901 (2017);
         "P. Giannozzi et al., J. Chem. Phys. 152 154105 (2020);
          URL http://www.quantum-espresso.org", 
     in publications or presentations arising from this work. More details at
     http://www.quantum-espresso.org/quote

     Parallel version (MPI & OpenMP), running on      14 processor cores
     Number of MPI processes:                 1
     Threads/MPI process:                    14

     MPI processes distributed on     1 nodes
     850094 MiB available memory on the printing compute node when the environment starts
 
     Reading input from pw.in

     Current dimensions of program PWSCF are:
     Max number of different atomic species (ntypx) = 10
     Max number of k-points (npk) =  40000
     Max angular momentum in pseudopotentials (lmaxx) =  4
     file Co.pbe-spn-kjpaw_psl.0.3.1.UPF: wavefunction(s)  3P 3D renormalized
     file O.pbe-n-kjpaw_psl.1.0.0.UPF: wavefunction(s)  2S 2P renormalized
     file Na.pbe-spn-kjpaw_psl.1.0.0.UPF: wavefunction(s)  2P renormalized
 
     Subspace diagonalization in iterative solution of the eigenvalue problem:
     a serial algorithm will be used

 
     G-vector sticks info
     --------------------
     sticks:   dense  smooth     PW     G-vecs:    dense   smooth      PW
     Sum         979     499    151                85601    30351    5001
 
     Using Slab Decomposition
 


     bravais-lattice index     =            4
     lattice parameter (alat)  =       5.4575  a.u.
     unit-cell volume          =     482.5661 (a.u.)^3
     number of atoms/cell      =            4
     number of atomic types    =            3
     number of electrons       =        38.00
     number of Kohn-Sham states=           27
     kinetic-energy cutoff     =      60.0000  Ry
     charge density cutoff     =     480.0000  Ry
     scf convergence threshold =      1.0E-07
     mixing beta               =       0.3000
     number of iterations used =            8  local-TF  mixing
     Exchange-correlation= SLA  PW   PBX  PBC
                           (   1   4   3   4   0   0   0)

     GPU acceleration is ACTIVE.  1 visible GPUs per MPI rank
     GPU-aware MPI enabled


     GPU used by master process:

        Device Number: 0
        Device name: NVIDIA A100-SXM4-80GB
        Compute capability : 80
        Ratio of single to double precision performance  : 2
        Memory Clock Rate (KHz): 1593000
        Memory Bus Width (bits): 5120
        Peak Memory Bandwidth (GB/s): ******

     celldm(1)=   5.457529  celldm(2)=   0.000000  celldm(3)=   3.427978
     celldm(4)=   0.000000  celldm(5)=   0.000000  celldm(6)=   0.000000

     crystal axes: (cart. coord. in units of alat)
               a(1) = (   1.000000   0.000000   0.000000 )  
               a(2) = (  -0.500000   0.866025   0.000000 )  
               a(3) = (   0.000000   0.000000   3.427978 )  

     reciprocal axes: (cart. coord. in units 2 pi/alat)
               b(1) = (  1.000000  0.577350 -0.000000 )  
               b(2) = (  0.000000  1.154701  0.000000 )  
               b(3) = (  0.000000 -0.000000  0.291717 )  


     PseudoPot. # 1 for Co read from file:
     ../../pseudo/Co.pbe-spn-kjpaw_psl.0.3.1.UPF
     MD5 check sum: 3c0a43779828c046024e4f3be63f8e67
     Pseudo is Projector augmented-wave + core cor, Zval = 17.0
     Generated using &quot;atomic&quot; code by A. Dal Corso  v.6.2.2
     Shape of augmentation charge: PSQ
     Using radial grid of 1193 points,  6 beta functions with: 
                l(1) =   0
                l(2) =   0
                l(3) =   1
                l(4) =   1
                l(5) =   2
                l(6) =   2
     Q(r) pseudized with 0 coefficients 


     PseudoPot. # 2 for O  read from file:
     ../../pseudo/O.pbe-n-kjpaw_psl.1.0.0.UPF
     MD5 check sum: e99d9cef9b487d1ca56f5b95ecd0fd7a
     Pseudo is Projector augmented-wave + core cor, Zval =  6.0
     Generated using &quot;atomic&quot; code by A. Dal Corso  v.6.3
     Shape of augmentation charge: PSQ
     Using radial grid of 1095 points,  4 beta functions with: 
                l(1) =   0
                l(2) =   0
                l(3) =   1
                l(4) =   1
     Q(r) pseudized with 0 coefficients 


     PseudoPot. # 3 for Na read from file:
     ../../pseudo/Na.pbe-spn-kjpaw_psl.1.0.0.UPF
     MD5 check sum: 05b4deb74e3932c23ab016979dc8b5d4
     Pseudo is Projector augmented-wave + core cor, Zval =  9.0
     Generated using &quot;atomic&quot; code by A. Dal Corso  v.6.3
     Shape of augmentation charge: PSQ
     Using radial grid of 1121 points,  4 beta functions with: 
                l(1) =   0
                l(2) =   0
                l(3) =   1
                l(4) =   1
     Q(r) pseudized with 0 coefficients 


     atomic species   valence    mass     pseudopotential
     Co               17.00    58.93300     Co( 1.00)
     O                 6.00    15.99900     O ( 1.00)
     Na                9.00    22.98977     Na( 1.00)

     Starting magnetic structure 
     atomic species   magnetization
     Co              0.300
     O               0.000
     Na              0.000

      6 Sym. Ops. (no inversion) found


                                    s                        frac. trans.

      isym =  1     identity                                     

 cryst.   s( 1) = (     1          0          0      )
                  (     0          1          0      )
                  (     0          0          1      )

 cart.    s( 1) = (  1.0000000  0.0000000  0.0000000 )
                  (  0.0000000  1.0000000  0.0000000 )
                  (  0.0000000  0.0000000  1.0000000 )


      isym =  2     120 deg rotation - cryst. axis [0,0,1]       

 cryst.   s( 2) = (     0          1          0      )
                  (    -1         -1          0      )
                  (     0          0          1      )

 cart.    s( 2) = ( -0.5000000 -0.8660254  0.0000000 )
                  (  0.8660254 -0.5000000  0.0000000 )
                  (  0.0000000  0.0000000  1.0000000 )


      isym =  3     120 deg rotation - cryst. axis [0,0,-1]      

 cryst.   s( 3) = (    -1         -1          0      )
                  (     1          0          0      )
                  (     0          0          1      )

 cart.    s( 3) = ( -0.5000000  0.8660254  0.0000000 )
                  ( -0.8660254 -0.5000000  0.0000000 )
                  (  0.0000000  0.0000000  1.0000000 )


      isym =  4     inv. 180 deg rotation - cart. axis [1,0,0]   

 cryst.   s( 4) = (    -1          0          0      )
                  (     1          1          0      )
                  (     0          0          1      )

 cart.    s( 4) = ( -1.0000000  0.0000000  0.0000000 )
                  (  0.0000000  1.0000000  0.0000000 )
                  (  0.0000000  0.0000000  1.0000000 )


      isym =  5     inv. 180 deg rotation - cryst. axis [0,1,0]  

 cryst.   s( 5) = (     1          1          0      )
                  (     0         -1          0      )
                  (     0          0          1      )

 cart.    s( 5) = (  0.5000000  0.8660254  0.0000000 )
                  (  0.8660254 -0.5000000  0.0000000 )
                  (  0.0000000  0.0000000  1.0000000 )


      isym =  6     inv. 180 deg rotation - cryst. axis [1,1,0]  

 cryst.   s( 6) = (     0         -1          0      )
                  (    -1          0          0      )
                  (     0          0          1      )

 cart.    s( 6) = (  0.5000000 -0.8660254  0.0000000 )
                  ( -0.8660254 -0.5000000  0.0000000 )
                  (  0.0000000  0.0000000  1.0000000 )


     point group C_3v (3m)  
     there are  3 classes
     the character table:

       E     2C3   3s_v 
A_1    1.00  1.00  1.00
A_2    1.00  1.00 -1.00
E      2.00 -1.00  0.00

     the symmetry operations in each class and the name of the first element:

     E        1
          identity                                               
     2C3      2    3
          120 deg rotation - cryst. axis [0,0,1]                 
     3s_v     4    5    6
          inv. 180 deg rotation - cart. axis [1,0,0]             

   Cartesian axes

     site n.     atom                  positions (alat units)
         1        Co     tau(   1) = (   0.0000000   0.0000000   0.0000000  )
         2        O      tau(   2) = (  -0.0000000   0.5773503   0.3324100  )
         3        O      tau(   3) = (   0.5000000   0.2886751   3.0955679  )
         4        Na     tau(   4) = (   0.0000000   0.0000000   2.0602493  )

   Crystallographic axes

     site n.     atom                  positions (cryst. coord.)
         1        Co     tau(   1) = (  0.0000000  0.0000000  0.0000000  )
         2        O      tau(   2) = (  0.3333333  0.6666667  0.0969697  )
         3        O      tau(   3) = (  0.6666667  0.3333333  0.9030303  )
         4        Na     tau(   4) = (  0.0000000  0.0000000  0.6010101  )

     number of k points=    25  Marzari-Vanderbilt smearing, width (Ry)=  0.0200
                       cart. coord. in units 2pi/alat
        k(    1) = (   0.0000000   0.0000000   0.0000000), wk =   0.0052083
        k(    2) = (   0.0000000   0.0000000   0.0972391), wk =   0.0104167
        k(    3) = (   0.0000000   0.1443376   0.0000000), wk =   0.0312500
        k(    4) = (   0.0000000   0.1443376   0.0972391), wk =   0.0312500
        k(    5) = (   0.0000000   0.2886751   0.0000000), wk =   0.0312500
        k(    6) = (   0.0000000   0.2886751   0.0972391), wk =   0.0312500
        k(    7) = (   0.0000000   0.4330127   0.0000000), wk =   0.0312500
        k(    8) = (   0.0000000   0.4330127   0.0972391), wk =   0.0312500
        k(    9) = (   0.0000000  -0.5773503   0.0000000), wk =   0.0156250
        k(   10) = (   0.0000000  -0.5773503   0.0972391), wk =   0.0312500
        k(   11) = (   0.1250000   0.2165064   0.0000000), wk =   0.0312500
        k(   12) = (   0.1250000   0.2165064   0.0972391), wk =   0.0625000
        k(   13) = (   0.1250000   0.3608439   0.0000000), wk =   0.0625000
        k(   14) = (   0.1250000   0.3608439   0.0972391), wk =   0.0625000
        k(   15) = (   0.1250000   0.5051815   0.0000000), wk =   0.0625000
        k(   16) = (   0.1250000   0.5051815   0.0972391), wk =   0.0625000
        k(   17) = (   0.2500000   0.4330127   0.0000000), wk =   0.0312500
        k(   18) = (   0.2500000   0.4330127   0.0972391), wk =   0.0625000
        k(   19) = (   0.2500000   0.5773503   0.0000000), wk =   0.0312500
        k(   20) = (   0.2500000   0.5773503   0.0972391), wk =   0.0625000
        k(   21) = (   0.0000000  -0.1443376   0.0972391), wk =   0.0312500
        k(   22) = (   0.0000000  -0.2886751   0.0972391), wk =   0.0312500
        k(   23) = (   0.0000000  -0.4330127   0.0972391), wk =   0.0312500
        k(   24) = (  -0.1250000  -0.3608439   0.0972391), wk =   0.0625000
        k(   25) = (  -0.1250000  -0.5051815   0.0972391), wk =   0.0625000

                       cryst. coord.
        k(    1) = (   0.0000000   0.0000000   0.0000000), wk =   0.0052083
        k(    2) = (   0.0000000   0.0000000   0.3333333), wk =   0.0104167
        k(    3) = (   0.0000000   0.1250000   0.0000000), wk =   0.0312500
        k(    4) = (   0.0000000   0.1250000   0.3333333), wk =   0.0312500
        k(    5) = (   0.0000000   0.2500000   0.0000000), wk =   0.0312500
        k(    6) = (   0.0000000   0.2500000   0.3333333), wk =   0.0312500
        k(    7) = (   0.0000000   0.3750000   0.0000000), wk =   0.0312500
        k(    8) = (   0.0000000   0.3750000   0.3333333), wk =   0.0312500
        k(    9) = (   0.0000000  -0.5000000   0.0000000), wk =   0.0156250
        k(   10) = (   0.0000000  -0.5000000   0.3333333), wk =   0.0312500
        k(   11) = (   0.1250000   0.1250000   0.0000000), wk =   0.0312500
        k(   12) = (   0.1250000   0.1250000   0.3333333), wk =   0.0625000
        k(   13) = (   0.1250000   0.2500000   0.0000000), wk =   0.0625000
        k(   14) = (   0.1250000   0.2500000   0.3333333), wk =   0.0625000
        k(   15) = (   0.1250000   0.3750000   0.0000000), wk =   0.0625000
        k(   16) = (   0.1250000   0.3750000   0.3333333), wk =   0.0625000
        k(   17) = (   0.2500000   0.2500000   0.0000000), wk =   0.0312500
        k(   18) = (   0.2500000   0.2500000   0.3333333), wk =   0.0625000
        k(   19) = (   0.2500000   0.3750000   0.0000000), wk =   0.0312500
        k(   20) = (   0.2500000   0.3750000   0.3333333), wk =   0.0625000
        k(   21) = (   0.0000000  -0.1250000   0.3333333), wk =   0.0312500
        k(   22) = (   0.0000000  -0.2500000   0.3333333), wk =   0.0312500
        k(   23) = (   0.0000000  -0.3750000   0.3333333), wk =   0.0312500
        k(   24) = (  -0.1250000  -0.2500000   0.3333333), wk =   0.0625000
        k(   25) = (  -0.1250000  -0.3750000   0.3333333), wk =   0.0625000

     Dense  grid:    85601 G-vectors     FFT dimensions: (  40,  40, 135)

     Smooth grid:    30351 G-vectors     FFT dimensions: (  27,  27,  96)

     Dynamical RAM for                 wfc:       1.56 MB

     Dynamical RAM for     wfc (w. buffer):      79.57 MB

     Dynamical RAM for           str. fact:       3.92 MB

     Dynamical RAM for           local pot:       0.00 MB

     Dynamical RAM for          nlocal pot:       2.43 MB

     Dynamical RAM for                qrad:       5.27 MB

     Dynamical RAM for          rho,v,vnew:      17.72 MB

     Dynamical RAM for               rhoin:       5.91 MB

     Dynamical RAM for            rho*nmix:      41.80 MB

     Dynamical RAM for           G-vectors:       5.13 MB

     Dynamical RAM for          h,s,v(r/c):       0.13 MB

     Dynamical RAM for          <psi|beta>:       0.02 MB

     Dynamical RAM for                 psi:       3.12 MB

     Dynamical RAM for                hpsi:       3.12 MB

     Dynamical RAM for                spsi:       3.12 MB

     Dynamical RAM for      wfcinit/wfcrot:       3.14 MB

     Dynamical RAM for           addusdens:     246.87 MB

     Dynamical RAM for          addusforce:     249.49 MB

     Estimated static dynamical RAM per process >     135.06 MB

     Estimated max dynamical RAM per process >     426.35 MB

     Check: negative core charge=   -0.000006
     Generating pointlists ...
     new r_m :   0.2748 (alat units)  1.4998 (a.u.) for type    1
     new r_m :   0.2748 (alat units)  1.4998 (a.u.) for type    2
     new r_m :   0.4125 (alat units)  2.2512 (a.u.) for type    3

     Initial potential from superposition of free atoms

     starting charge      37.9934, renormalised to      38.0000
     Starting wfcs are   23 randomized atomic wfcs +    4 random wfcs
     Checking if some PAW data can be deallocated... 

     total cpu time spent up to now is        3.4 secs

     Self-consistent Calculation
[tb_dev] Currently allocated     6.54E-01 Mbytes, locked:    0 /   6
[tb_pin] Currently allocated     0.00E+00 Mbytes, locked:    0 /   0

     iteration #  1     ecut=    60.00 Ry     beta= 0.30
     Davidson diagonalization with overlap

---- Real-time Memory Report at c_bands before calling an iterative solver
           706 MiB given to the printing process from OS
             0 MiB allocation reported by mallinfo(arena+hblkhd)
        849465 MiB available memory on the node where the printing process lives
     GPU memory used/free/total (MiB): 1108 / 80042 / 81151
------------------
     ethr =  1.00E-02,  avg # of iterations =  9.3

     total cpu time spent up to now is        5.6 secs

     total energy              =    -568.97130305 Ry
     estimated scf accuracy    <       1.95723248 Ry

     total magnetization       =     4.24 Bohr mag/cell
     absolute magnetization    =     4.24 Bohr mag/cell
[tb_dev] Currently allocated     3.05E-05 Mbytes, locked:    0 /   2
[tb_pin] Currently allocated     0.00E+00 Mbytes, locked:    0 /   0

     iteration #  2     ecut=    60.00 Ry     beta= 0.30
     Davidson diagonalization with overlap

---- Real-time Memory Report at c_bands before calling an iterative solver
           749 MiB given to the printing process from OS
             0 MiB allocation reported by mallinfo(arena+hblkhd)
        849392 MiB available memory on the node where the printing process lives
     GPU memory used/free/total (MiB): 1128 / 80022 / 81151
------------------
     ethr =  5.15E-03,  avg # of iterations =  1.9

     total cpu time spent up to now is        6.8 secs

     total energy              =    -569.02235538 Ry
     estimated scf accuracy    <       1.06077538 Ry

     total magnetization       =     3.66 Bohr mag/cell
     absolute magnetization    =     3.66 Bohr mag/cell
[tb_dev] Currently allocated     3.05E-05 Mbytes, locked:    0 /   2
[tb_pin] Currently allocated     0.00E+00 Mbytes, locked:    0 /   0

     iteration #  3     ecut=    60.00 Ry     beta= 0.30
     Davidson diagonalization with overlap

---- Real-time Memory Report at c_bands before calling an iterative solver
           755 MiB given to the printing process from OS
             0 MiB allocation reported by mallinfo(arena+hblkhd)
        849368 MiB available memory on the node where the printing process lives
     GPU memory used/free/total (MiB): 1128 / 80022 / 81151
------------------
     ethr =  2.79E-03,  avg # of iterations =  2.0

     total cpu time spent up to now is        8.0 secs

     total energy              =    -569.09184065 Ry
     estimated scf accuracy    <       0.78096971 Ry

     total magnetization       =     2.17 Bohr mag/cell
     absolute magnetization    =     2.19 Bohr mag/cell
[tb_dev] Currently allocated     3.05E-05 Mbytes, locked:    0 /   2
[tb_pin] Currently allocated     0.00E+00 Mbytes, locked:    0 /   0

     iteration #  4     ecut=    60.00 Ry     beta= 0.30
     Davidson diagonalization with overlap

---- Real-time Memory Report at c_bands before calling an iterative solver
           757 MiB given to the printing process from OS
             0 MiB allocation reported by mallinfo(arena+hblkhd)
        849346 MiB available memory on the node where the printing process lives
     GPU memory used/free/total (MiB): 1128 / 80022 / 81151
------------------
     ethr =  2.06E-03,  avg # of iterations =  1.4

     total cpu time spent up to now is        9.1 secs

     total energy              =    -569.08192607 Ry
     estimated scf accuracy    <       0.54625531 Ry

     total magnetization       =     3.05 Bohr mag/cell
     absolute magnetization    =     3.09 Bohr mag/cell
[tb_dev] Currently allocated     3.05E-05 Mbytes, locked:    0 /   2
[tb_pin] Currently allocated     0.00E+00 Mbytes, locked:    0 /   0

     iteration #  5     ecut=    60.00 Ry     beta= 0.30
     Davidson diagonalization with overlap

---- Real-time Memory Report at c_bands before calling an iterative solver
           759 MiB given to the printing process from OS
             0 MiB allocation reported by mallinfo(arena+hblkhd)
        849366 MiB available memory on the node where the printing process lives
     GPU memory used/free/total (MiB): 1128 / 80022 / 81151
------------------
     ethr =  1.44E-03,  avg # of iterations =  1.8

     total cpu time spent up to now is       10.3 secs

     total energy              =    -569.17449047 Ry
     estimated scf accuracy    <       0.10749607 Ry

     total magnetization       =     0.76 Bohr mag/cell
     absolute magnetization    =     1.20 Bohr mag/cell
[tb_dev] Currently allocated     3.05E-05 Mbytes, locked:    0 /   2
[tb_pin] Currently allocated     0.00E+00 Mbytes, locked:    0 /   0

     iteration #  6     ecut=    60.00 Ry     beta= 0.30
     Davidson diagonalization with overlap

---- Real-time Memory Report at c_bands before calling an iterative solver
           759 MiB given to the printing process from OS
             0 MiB allocation reported by mallinfo(arena+hblkhd)
        849345 MiB available memory on the node where the printing process lives
     GPU memory used/free/total (MiB): 1128 / 80022 / 81151
------------------
     ethr =  2.83E-04,  avg # of iterations =  7.2

     total cpu time spent up to now is       12.1 secs

     total energy              =    -569.18338415 Ry
     estimated scf accuracy    <       0.05233463 Ry

     total magnetization       =     0.63 Bohr mag/cell
     absolute magnetization    =     0.88 Bohr mag/cell
[tb_dev] Currently allocated     3.05E-05 Mbytes, locked:    0 /   2
[tb_pin] Currently allocated     0.00E+00 Mbytes, locked:    0 /   0

     iteration #  7     ecut=    60.00 Ry     beta= 0.30
     Davidson diagonalization with overlap

---- Real-time Memory Report at c_bands before calling an iterative solver
           761 MiB given to the printing process from OS
             0 MiB allocation reported by mallinfo(arena+hblkhd)
        849308 MiB available memory on the node where the printing process lives
     GPU memory used/free/total (MiB): 1128 / 80022 / 81151
------------------
     ethr =  1.38E-04,  avg # of iterations =  3.8

     total cpu time spent up to now is       13.5 secs

     total energy              =    -569.18115896 Ry
     estimated scf accuracy    <       0.02905401 Ry

     total magnetization       =     0.71 Bohr mag/cell
     absolute magnetization    =     0.84 Bohr mag/cell
[tb_dev] Currently allocated     3.05E-05 Mbytes, locked:    0 /   2
[tb_pin] Currently allocated     0.00E+00 Mbytes, locked:    0 /   0

     iteration #  8     ecut=    60.00 Ry     beta= 0.30
     Davidson diagonalization with overlap

---- Real-time Memory Report at c_bands before calling an iterative solver
           762 MiB given to the printing process from OS
             0 MiB allocation reported by mallinfo(arena+hblkhd)
        849308 MiB available memory on the node where the printing process lives
     GPU memory used/free/total (MiB): 1128 / 80022 / 81151
------------------
     ethr =  7.65E-05,  avg # of iterations =  4.5

     total cpu time spent up to now is       15.0 secs

     total energy              =    -569.18467745 Ry
     estimated scf accuracy    <       0.05608990 Ry

     total magnetization       =     0.28 Bohr mag/cell
     absolute magnetization    =     0.34 Bohr mag/cell
[tb_dev] Currently allocated     3.05E-05 Mbytes, locked:    0 /   2
[tb_pin] Currently allocated     0.00E+00 Mbytes, locked:    0 /   0

     iteration #  9     ecut=    60.00 Ry     beta= 0.30
     Davidson diagonalization with overlap

---- Real-time Memory Report at c_bands before calling an iterative solver
           766 MiB given to the printing process from OS
             0 MiB allocation reported by mallinfo(arena+hblkhd)
        849285 MiB available memory on the node where the printing process lives
     GPU memory used/free/total (MiB): 1128 / 80022 / 81151
------------------
     ethr =  7.65E-05,  avg # of iterations =  1.6

     total cpu time spent up to now is       16.2 secs

     total energy              =    -569.18951394 Ry
     estimated scf accuracy    <       0.00340161 Ry

     total magnetization       =     0.46 Bohr mag/cell
     absolute magnetization    =     0.49 Bohr mag/cell
[tb_dev] Currently allocated     3.05E-05 Mbytes, locked:    0 /   2
[tb_pin] Currently allocated     0.00E+00 Mbytes, locked:    0 /   0

     iteration # 10     ecut=    60.00 Ry     beta= 0.30
     Davidson diagonalization with overlap

---- Real-time Memory Report at c_bands before calling an iterative solver
           769 MiB given to the printing process from OS
             0 MiB allocation reported by mallinfo(arena+hblkhd)
        849270 MiB available memory on the node where the printing process lives
     GPU memory used/free/total (MiB): 1128 / 80022 / 81151
------------------
     c_bands:  1 eigenvalues not converged
     c_bands:  1 eigenvalues not converged
     ethr =  8.95E-06,  avg # of iterations =  8.5

     total cpu time spent up to now is       18.2 secs

     total energy              =    -569.19031180 Ry
     estimated scf accuracy    <       0.00788483 Ry

     total magnetization       =     0.59 Bohr mag/cell
     absolute magnetization    =     0.62 Bohr mag/cell
[tb_dev] Currently allocated     3.05E-05 Mbytes, locked:    0 /   2
[tb_pin] Currently allocated     0.00E+00 Mbytes, locked:    0 /   0

     iteration # 11     ecut=    60.00 Ry     beta= 0.30
     Davidson diagonalization with overlap

---- Real-time Memory Report at c_bands before calling an iterative solver
           769 MiB given to the printing process from OS
             0 MiB allocation reported by mallinfo(arena+hblkhd)
        849273 MiB available memory on the node where the printing process lives
     GPU memory used/free/total (MiB): 1128 / 80022 / 81151
------------------
     ethr =  8.95E-06,  avg # of iterations =  1.7

     total cpu time spent up to now is       19.4 secs

     total energy              =    -569.19128408 Ry
     estimated scf accuracy    <       0.00119425 Ry

     total magnetization       =     0.73 Bohr mag/cell
     absolute magnetization    =     0.77 Bohr mag/cell
[tb_dev] Currently allocated     3.05E-05 Mbytes, locked:    0 /   2
[tb_pin] Currently allocated     0.00E+00 Mbytes, locked:    0 /   0

     iteration # 12     ecut=    60.00 Ry     beta= 0.30
     Davidson diagonalization with overlap

---- Real-time Memory Report at c_bands before calling an iterative solver
           769 MiB given to the printing process from OS
             0 MiB allocation reported by mallinfo(arena+hblkhd)
        849247 MiB available memory on the node where the printing process lives
     GPU memory used/free/total (MiB): 1128 / 80022 / 81151
------------------
     c_bands:  1 eigenvalues not converged
     ethr =  3.14E-06,  avg # of iterations =  2.3

     total cpu time spent up to now is       20.6 secs

     total energy              =    -569.19171466 Ry
     estimated scf accuracy    <       0.00128230 Ry

     total magnetization       =     0.74 Bohr mag/cell
     absolute magnetization    =     0.78 Bohr mag/cell
[tb_dev] Currently allocated     3.05E-05 Mbytes, locked:    0 /   2
[tb_pin] Currently allocated     0.00E+00 Mbytes, locked:    0 /   0

     iteration # 13     ecut=    60.00 Ry     beta= 0.30
     Davidson diagonalization with overlap

---- Real-time Memory Report at c_bands before calling an iterative solver
           769 MiB given to the printing process from OS
             0 MiB allocation reported by mallinfo(arena+hblkhd)
        849257 MiB available memory on the node where the printing process lives
     GPU memory used/free/total (MiB): 1128 / 80022 / 81151
------------------
     ethr =  3.14E-06,  avg # of iterations =  2.3

     total cpu time spent up to now is       21.8 secs

     total energy              =    -569.19189324 Ry
     estimated scf accuracy    <       0.00030126 Ry

     total magnetization       =     0.75 Bohr mag/cell
     absolute magnetization    =     0.82 Bohr mag/cell
[tb_dev] Currently allocated     3.05E-05 Mbytes, locked:    0 /   2
[tb_pin] Currently allocated     0.00E+00 Mbytes, locked:    0 /   0

     iteration # 14     ecut=    60.00 Ry     beta= 0.30
     Davidson diagonalization with overlap

---- Real-time Memory Report at c_bands before calling an iterative solver
           769 MiB given to the printing process from OS
             0 MiB allocation reported by mallinfo(arena+hblkhd)
        849254 MiB available memory on the node where the printing process lives
     GPU memory used/free/total (MiB): 1128 / 80022 / 81151
------------------
     ethr =  7.93E-07,  avg # of iterations =  5.4

     total cpu time spent up to now is       23.5 secs

     total energy              =    -569.19202028 Ry
     estimated scf accuracy    <       0.00066144 Ry

     total magnetization       =     0.75 Bohr mag/cell
     absolute magnetization    =     0.83 Bohr mag/cell
[tb_dev] Currently allocated     3.05E-05 Mbytes, locked:    0 /   2
[tb_pin] Currently allocated     0.00E+00 Mbytes, locked:    0 /   0

     iteration # 15     ecut=    60.00 Ry     beta= 0.30
     Davidson diagonalization with overlap

---- Real-time Memory Report at c_bands before calling an iterative solver
           769 MiB given to the printing process from OS
             0 MiB allocation reported by mallinfo(arena+hblkhd)
        849803 MiB available memory on the node where the printing process lives
     GPU memory used/free/total (MiB): 1128 / 80022 / 81151
------------------
     ethr =  7.93E-07,  avg # of iterations =  1.2

     total cpu time spent up to now is       24.6 secs

     total energy              =    -569.19202082 Ry
     estimated scf accuracy    <       0.00023827 Ry

     total magnetization       =     0.75 Bohr mag/cell
     absolute magnetization    =     0.83 Bohr mag/cell
[tb_dev] Currently allocated     3.05E-05 Mbytes, locked:    0 /   2
[tb_pin] Currently allocated     0.00E+00 Mbytes, locked:    0 /   0

     iteration # 16     ecut=    60.00 Ry     beta= 0.30
     Davidson diagonalization with overlap

---- Real-time Memory Report at c_bands before calling an iterative solver
           769 MiB given to the printing process from OS
             0 MiB allocation reported by mallinfo(arena+hblkhd)
        849598 MiB available memory on the node where the printing process lives
     GPU memory used/free/total (MiB): 1128 / 80022 / 81151
------------------
     ethr =  6.27E-07,  avg # of iterations =  1.3

     total cpu time spent up to now is       25.7 secs

     total energy              =    -569.19203261 Ry
     estimated scf accuracy    <       0.00000716 Ry

     total magnetization       =     0.74 Bohr mag/cell
     absolute magnetization    =     0.82 Bohr mag/cell
[tb_dev] Currently allocated     3.05E-05 Mbytes, locked:    0 /   2
[tb_pin] Currently allocated     0.00E+00 Mbytes, locked:    0 /   0

     iteration # 17     ecut=    60.00 Ry     beta= 0.30
     Davidson diagonalization with overlap

---- Real-time Memory Report at c_bands before calling an iterative solver
           770 MiB given to the printing process from OS
             0 MiB allocation reported by mallinfo(arena+hblkhd)
        849495 MiB available memory on the node where the printing process lives
     GPU memory used/free/total (MiB): 1128 / 80022 / 81151
------------------
     ethr =  1.89E-08,  avg # of iterations =  8.0

     total cpu time spent up to now is       27.7 secs

     total energy              =    -569.19203911 Ry
     estimated scf accuracy    <       0.00000225 Ry

     total magnetization       =     0.74 Bohr mag/cell
     absolute magnetization    =     0.82 Bohr mag/cell
[tb_dev] Currently allocated     3.05E-05 Mbytes, locked:    0 /   2
[tb_pin] Currently allocated     0.00E+00 Mbytes, locked:    0 /   0

     iteration # 18     ecut=    60.00 Ry     beta= 0.30
     Davidson diagonalization with overlap

---- Real-time Memory Report at c_bands before calling an iterative solver
           770 MiB given to the printing process from OS
             0 MiB allocation reported by mallinfo(arena+hblkhd)
        849295 MiB available memory on the node where the printing process lives
     GPU memory used/free/total (MiB): 1128 / 80022 / 81151
------------------
     ethr =  5.93E-09,  avg # of iterations =  2.8

     total cpu time spent up to now is       29.0 secs

     total energy              =    -569.19203929 Ry
     estimated scf accuracy    <       0.00000196 Ry

     total magnetization       =     0.74 Bohr mag/cell
     absolute magnetization    =     0.83 Bohr mag/cell
[tb_dev] Currently allocated     3.05E-05 Mbytes, locked:    0 /   2
[tb_pin] Currently allocated     0.00E+00 Mbytes, locked:    0 /   0

     iteration # 19     ecut=    60.00 Ry     beta= 0.30
     Davidson diagonalization with overlap

---- Real-time Memory Report at c_bands before calling an iterative solver
           770 MiB given to the printing process from OS
             0 MiB allocation reported by mallinfo(arena+hblkhd)
        849736 MiB available memory on the node where the printing process lives
     GPU memory used/free/total (MiB): 1128 / 80022 / 81151
------------------
     ethr =  5.17E-09,  avg # of iterations =  2.2

     total cpu time spent up to now is       30.2 secs

     total energy              =    -569.19203995 Ry
     estimated scf accuracy    <       0.00000219 Ry

     total magnetization       =     0.74 Bohr mag/cell
     absolute magnetization    =     0.83 Bohr mag/cell
[tb_dev] Currently allocated     3.05E-05 Mbytes, locked:    0 /   2
[tb_pin] Currently allocated     0.00E+00 Mbytes, locked:    0 /   0

     iteration # 20     ecut=    60.00 Ry     beta= 0.30
     Davidson diagonalization with overlap

---- Real-time Memory Report at c_bands before calling an iterative solver
           770 MiB given to the printing process from OS
             0 MiB allocation reported by mallinfo(arena+hblkhd)
        849488 MiB available memory on the node where the printing process lives
     GPU memory used/free/total (MiB): 1128 / 80022 / 81151
------------------
     ethr =  5.17E-09,  avg # of iterations =  1.1

     total cpu time spent up to now is       31.4 secs

     total energy              =    -569.19203997 Ry
     estimated scf accuracy    <       0.00000015 Ry

     total magnetization       =     0.74 Bohr mag/cell
     absolute magnetization    =     0.83 Bohr mag/cell
[tb_dev] Currently allocated     3.05E-05 Mbytes, locked:    0 /   2
[tb_pin] Currently allocated     0.00E+00 Mbytes, locked:    0 /   0

     iteration # 21     ecut=    60.00 Ry     beta= 0.30
     Davidson diagonalization with overlap

---- Real-time Memory Report at c_bands before calling an iterative solver
           770 MiB given to the printing process from OS
             0 MiB allocation reported by mallinfo(arena+hblkhd)
        849461 MiB available memory on the node where the printing process lives
     GPU memory used/free/total (MiB): 1128 / 80022 / 81151
------------------
     ethr =  3.90E-10,  avg # of iterations =  5.7

     total cpu time spent up to now is       33.1 secs

     total energy              =    -569.19204005 Ry
     estimated scf accuracy    <       0.00000011 Ry

     total magnetization       =     0.74 Bohr mag/cell
     absolute magnetization    =     0.83 Bohr mag/cell
[tb_dev] Currently allocated     3.05E-05 Mbytes, locked:    0 /   2
[tb_pin] Currently allocated     0.00E+00 Mbytes, locked:    0 /   0

     iteration # 22     ecut=    60.00 Ry     beta= 0.30
     Davidson diagonalization with overlap

---- Real-time Memory Report at c_bands before calling an iterative solver
           770 MiB given to the printing process from OS
             0 MiB allocation reported by mallinfo(arena+hblkhd)
        849859 MiB available memory on the node where the printing process lives
     GPU memory used/free/total (MiB): 1128 / 80022 / 81151
------------------
     ethr =  3.01E-10,  avg # of iterations =  1.6
 
     Magnetic moment per site  (integrated on atomic sphere of radius R)
     atom   1 (R=0.275)  charge= 14.0946  magn=  0.5967
     atom   2 (R=0.275)  charge=  5.2034  magn=  0.0711
     atom   3 (R=0.275)  charge=  5.2296  magn=  0.0538
     atom   4 (R=0.413)  charge=  8.2404  magn= -0.0147

     total cpu time spent up to now is       34.2 secs

     End of self-consistent calculation

 ------ SPIN UP ------------


          k = 0.0000 0.0000 0.0000 (  3803 PWs)   bands (ev):

   -92.0277 -55.2568 -55.2279 -55.2279 -49.8401 -21.7071 -21.6442 -21.6442
   -15.5040 -13.5872  -1.8044  -1.3110  -1.3110   1.0815   1.9446   2.1891
     2.1891   2.3897   2.3897   3.4734   6.0084   6.1020   6.1020   9.2845
    12.6279  13.1062  15.5102

     occupation numbers 
     1.0000   1.0000   1.0000   1.0000   1.0000   1.0000   1.0000   1.0000
     1.0000   1.0000   1.0000   1.0000   1.0000   1.0000   1.0000   1.0000
     1.0000   1.0000   1.0000   1.0833   0.0000   0.0000   0.0000   0.0000
     0.0000   0.0000   0.0000

          k = 0.0000 0.0000 0.0972 (  3796 PWs)   bands (ev):

   -92.0277 -55.2568 -55.2280 -55.2280 -49.8401 -21.7069 -21.6442 -21.6442
   -15.5039 -13.5872  -1.7998  -1.3110  -1.3110   0.9943   2.0870   2.1891
     2.1891   2.3896   2.3896   3.4415   5.8818   6.1020   6.1020   9.7480
    11.5441  13.8875  15.5341

     occupation numbers 
     1.0000   1.0000   1.0000   1.0000   1.0000   1.0000   1.0000   1.0000
     1.0000   1.0000   1.0000   1.0000   1.0000   1.0000   1.0000   1.0000
     1.0000   1.0000   1.0000   1.0807   0.0000   0.0000   0.0000   0.0000
     0.0000   0.0000   0.0000

          k = 0.0000 0.1443 0.0000 (  3787 PWs)   bands (ev):

   -92.0269 -55.2556 -55.2360 -55.2299 -49.8348 -21.6998 -21.6884 -21.6538
   -15.3329 -13.5924  -1.6390  -1.4441  -1.1971   1.1585   1.5087   1.5628
     2.2427   2.6547   2.9091   3.5431   5.5883   6.0039   6.3958   9.7639
    13.0575  13.5969  16.0477

     occupation numbers 
     1.0000   1.0000   1.0000   1.0000   1.0000   1.0000   1.0000   1.0000
     1.0000   1.0000   1.0000   1.0000   1.0000   1.0000   1.0000   1.0000
     1.0000   1.0000   1.0001   1.0626   0.0000   0.0000   0.0000   0.0000
     0.0000   0.0000   0.0000

          k = 0.0000 0.1443 0.0972 (  3806 PWs)   bands (ev):

   -92.0269 -55.2557 -55.2361 -55.2299 -49.8349 -21.7000 -21.6886 -21.6538
   -15.3329 -13.5924  -1.6366  -1.4437  -1.1971   1.1604   1.4309   1.5628
     2.3486   2.6746   2.9091   3.5059   5.6311   6.0039   6.2539  10.1535
    12.0639  14.4712  15.8822

     occupation numbers 
     1.0000   1.0000   1.0000   1.0000   1.0000   1.0000   1.0000   1.0000
     1.0000   1.0000   1.0000   1.0000   1.0000   1.0000   1.0000   1.0000
     1.0000   1.0000   1.0001   1.0790   0.0000   0.0000   0.0000   0.0000
     0.0000   0.0000   0.0000

          k = 0.0000 0.2887 0.0000 (  3786 PWs)   bands (ev):

   -92.0252 -55.2557 -55.2527 -55.2346 -49.8222 -21.7941 -21.6827 -21.6766
   -14.8845 -13.6181  -1.7457  -1.1202  -0.9262  -0.1331   1.0117   2.1804
     2.6721   2.9755   3.1072   3.4625   5.0136   5.8865   7.2939  10.9283
    13.4470  14.1272  14.8061

     occupation numbers 
     1.0000   1.0000   1.0000   1.0000   1.0000   1.0000   1.0000   1.0000
     1.0000   1.0000   1.0000   1.0000   1.0000   1.0000   1.0000   1.0000
     1.0000   1.0005   1.0042   1.0831   0.0000   0.0000   0.0000   0.0000
     0.0000   0.0000   0.0000

          k = 0.0000 0.2887 0.0972 (  3778 PWs)   bands (ev):

   -92.0252 -55.2557 -55.2526 -55.2346 -49.8222 -21.7940 -21.6827 -21.6766
   -14.8845 -13.6181  -1.7464  -1.1187  -0.9262  -0.1317   1.0117   2.1613
     2.6496   3.0492   3.1072   3.4163   5.0628   5.8866   7.2068  11.1628
    13.1541  13.7463  15.6692

     occupation numbers 
     1.0000   1.0000   1.0000   1.0000   1.0000   1.0000   1.0000   1.0000
     1.0000   1.0000   1.0000   1.0000   1.0000   1.0000   1.0000   1.0000
     1.0000   1.0017   1.0042   1.0752   0.0000   0.0000   0.0000   0.0000
     0.0000   0.0000   0.0000

          k = 0.0000 0.4330 0.0000 (  3780 PWs)   bands (ev):

   -92.0234 -55.2752 -55.2499 -55.2393 -49.8096 -21.8977 -21.6994 -21.6655
   -14.3470 -13.6927  -2.1842  -1.1155  -0.7139  -0.0868   0.8475   1.7468
     2.6199   2.8441   3.1156   4.6266   5.2638   5.9255   8.7892  10.1768
    12.6336  13.9514  15.0751

     occupation numbers 
     1.0000   1.0000   1.0000   1.0000   1.0000   1.0000   1.0000   1.0000
     1.0000   1.0000   1.0000   1.0000   1.0000   1.0000   1.0000   1.0000
     1.0000   1.0000   1.0047   0.0000   0.0000   0.0000   0.0000   0.0000
     0.0000   0.0000   0.0000

          k = 0.0000 0.4330 0.0972 (  3794 PWs)   bands (ev):

   -92.0234 -55.2753 -55.2499 -55.2393 -49.8096 -21.8979 -21.6995 -21.6656
   -14.3470 -13.6927  -2.1844  -1.1158  -0.7139  -0.0860   0.8475   1.7475
     2.6196   2.8440   3.1165   4.5886   5.3118   5.9255   8.7611  10.1705
    12.7181  14.0400  14.7253

     occupation numbers 
     1.0000   1.0000   1.0000   1.0000   1.0000   1.0000   1.0000   1.0000
     1.0000   1.0000   1.0000   1.0000   1.0000   1.0000   1.0000   1.0000
     1.0000   1.0000   1.0047   0.0000   0.0000   0.0000   0.0000   0.0000
     0.0000   0.0000   0.0000

          k = 0.0000-0.5774 0.0000 (  3798 PWs)   bands (ev):

   -92.0227 -55.2834 -55.2487 -55.2413 -49.8044 -21.9403 -21.7090 -21.6584
   -14.0185 -13.8142  -2.5638  -0.9202  -0.6708   0.0751   0.9223   1.5008
     2.3552   2.6102   3.0488   5.3550   5.9742   6.5712   7.8319  10.6567
    11.4296  14.5448  14.7377

     occupation numbers 
     1.0000   1.0000   1.0000   1.0000   1.0000   1.0000   1.0000   1.0000
     1.0000   1.0000   1.0000   1.0000   1.0000   1.0000   1.0000   1.0000
     1.0000   1.0000   1.0017   0.0000   0.0000   0.0000   0.0000   0.0000
     0.0000   0.0000   0.0000

          k = 0.0000-0.5774 0.0972 (  3790 PWs)   bands (ev):

   -92.0227 -55.2834 -55.2487 -55.2413 -49.8044 -21.9403 -21.7088 -21.6584
   -14.0185 -13.8142  -2.5638  -0.9202  -0.6708   0.0751   0.9224   1.5014
     2.3551   2.6102   3.0485   5.3527   5.9742   6.5755   7.8232  10.6581
    11.4879  14.2055  14.8460

     occupation numbers 
     1.0000   1.0000   1.0000   1.0000   1.0000   1.0000   1.0000   1.0000
     1.0000   1.0000   1.0000   1.0000   1.0000   1.0000   1.0000   1.0000
     1.0000   1.0000   1.0017   0.0000   0.0000   0.0000   0.0000   0.0000
     0.0000   0.0000   0.0000

          k = 0.1250 0.2165 0.0000 (  3789 PWs)   bands (ev):

   -92.0257 -55.2536 -55.2490 -55.2341 -49.8259 -21.7585 -21.6877 -21.6749
   -15.0230 -13.6070  -1.6627  -1.2318  -1.0391   0.3306   0.8680   2.1284
     2.6598   2.6821   3.2360   3.4824   5.2095   5.7458   7.0059  10.5826
    13.6765  14.4581  14.8867

     occupation numbers 
     1.0000   1.0000   1.0000   1.0000   1.0000   1.0000   1.0000   1.0000
     1.0000   1.0000   1.0000   1.0000   1.0000   1.0000   1.0000   1.0000
     1.0000   1.0000   1.0206   1.0829   0.0000   0.0000   0.0000   0.0000
     0.0000   0.0000   0.0000

          k = 0.1250 0.2165 0.0972 (  3785 PWs)   bands (ev):

   -92.0257 -55.2536 -55.2490 -55.2341 -49.8259 -21.7584 -21.6878 -21.6749
   -15.0230 -13.6070  -1.6634  -1.2299  -1.0390   0.3322   0.8680   2.0721
     2.6729   2.7378   3.2583   3.4503   5.2438   5.7270   6.9395  10.8071
    12.9943  14.8527  15.3436

     occupation numbers 
     1.0000   1.0000   1.0000   1.0000   1.0000   1.0000   1.0000   1.0000
     1.0000   1.0000   1.0000   1.0000   1.0000   1.0000   1.0000   1.0000
     1.0000   1.0000   1.0257   1.0819   0.0000   0.0000   0.0000   0.0000
     0.0000   0.0000   0.0000

          k = 0.1250 0.3608 0.0000 (  3780 PWs)   bands (ev):

   -92.0239 -55.2666 -55.2508 -55.2408 -49.8133 -21.8517 -21.7087 -21.6706
   -14.5306 -13.6498  -1.7799  -1.2671  -0.6920  -0.1897   0.4585   2.0442
     2.7124   2.9820   3.3374   4.0135   5.1702   5.6408   8.1980  11.6617
    12.1220  14.4533  15.6031

     occupation numbers 
     1.0000   1.0000   1.0000   1.0000   1.0000   1.0000   1.0000   1.0000
     1.0000   1.0000   1.0000   1.0000   1.0000   1.0000   1.0000   1.0000
     1.0000   1.0005   1.0497   0.1113   0.0000   0.0000   0.0000   0.0000
     0.0000   0.0000   0.0000

          k = 0.1250 0.3608 0.0972 (  3782 PWs)   bands (ev):

   -92.0239 -55.2666 -55.2508 -55.2408 -49.8133 -21.8518 -21.7087 -21.6706
   -14.5306 -13.6498  -1.7802  -1.2672  -0.6918  -0.1886   0.4585   2.0432
     2.7122   2.9854   3.3303   4.0012   5.2107   5.6271   8.1709  11.6865
    12.1792  14.2098  15.9494

     occupation numbers 
     1.0000   1.0000   1.0000   1.0000   1.0000   1.0000   1.0000   1.0000
     1.0000   1.0000   1.0000   1.0000   1.0000   1.0000   1.0000   1.0000
     1.0000   1.0006   1.0473   0.1256   0.0000   0.0000   0.0000   0.0000
     0.0000   0.0000   0.0000

          k = 0.1250 0.5052 0.0000 (  3784 PWs)   bands (ev):

   -92.0227 -55.2789 -55.2487 -55.2456 -49.8044 -21.9163 -21.7332 -21.6584
   -14.0882 -13.7450  -2.2768  -1.2569  -0.4349   0.0901   0.4277   1.4669
     2.4469   2.7557   3.2553   5.2950   5.6903   6.0863   8.9127  10.0459
    12.7045  13.6376  14.8485

     occupation numbers 
     1.0000   1.0000   1.0000   1.0000   1.0000   1.0000   1.0000   1.0000
     1.0000   1.0000   1.0000   1.0000   1.0000   1.0000   1.0000   1.0000
     1.0000   1.0000   1.0250   0.0000   0.0000   0.0000   0.0000   0.0000
     0.0000   0.0000   0.0000

          k = 0.1250 0.5052 0.0972 (  3793 PWs)   bands (ev):

   -92.0227 -55.2790 -55.2488 -55.2456 -49.8044 -21.9163 -21.7332 -21.6585
   -14.0882 -13.7450  -2.2768  -1.2570  -0.4350   0.0903   0.4277   1.4673
     2.4468   2.7558   3.2549   5.2863   5.6996   6.0860   8.9089  10.0453
    12.7425  13.6216  14.9186

     occupation numbers 
     1.0000   1.0000   1.0000   1.0000   1.0000   1.0000   1.0000   1.0000
     1.0000   1.0000   1.0000   1.0000   1.0000   1.0000   1.0000   1.0000
     1.0000   1.0000   1.0249   0.0000   0.0000   0.0000   0.0000   0.0000
     0.0000   0.0000   0.0000

          k = 0.2500 0.4330 0.0000 (  3781 PWs)   bands (ev):

   -92.0227 -55.2728 -55.2518 -55.2487 -49.8044 -21.8830 -21.7668 -21.6585
   -14.1369 -13.6967  -1.7376  -1.5610  -0.6382   0.0292   0.2210   1.4822
     2.5038   2.8669   3.4453   5.2500   5.3762   5.8340   9.7328  10.1577
    12.5702  14.2386  14.9258

     occupation numbers 
     1.0000   1.0000   1.0000   1.0000   1.0000   1.0000   1.0000   1.0000
     1.0000   1.0000   1.0000   1.0000   1.0000   1.0000   1.0000   1.0000
     1.0000   1.0001   1.0813   0.0000   0.0000   0.0000   0.0000   0.0000
     0.0000   0.0000   0.0000

          k = 0.2500 0.4330 0.0972 (  3790 PWs)   bands (ev):

   -92.0227 -55.2728 -55.2519 -55.2487 -49.8044 -21.8830 -21.7669 -21.6586
   -14.1369 -13.6967  -1.7376  -1.5611  -0.6382   0.0293   0.2213   1.4821
     2.5039   2.8672   3.4439   5.2618   5.3725   5.8221   9.7551  10.1534
    12.5418  14.2351  14.9791

     occupation numbers 
     1.0000   1.0000   1.0000   1.0000   1.0000   1.0000   1.0000   1.0000
     1.0000   1.0000   1.0000   1.0000   1.0000   1.0000   1.0000   1.0000
     1.0000   1.0001   1.0811   0.0000   0.0000   0.0000   0.0000   0.0000
     0.0000   0.0000   0.0000

          k = 0.2500 0.5774 0.0000 (  3794 PWs)   bands (ev):

   -92.0222 -55.2733 -55.2584 -55.2479 -49.8007 -21.8844 -21.8026 -21.6534
   -13.9424 -13.7389  -1.8777  -1.4821  -0.7968   0.1827   0.4401   1.0425
     2.2228   3.0694   3.3421   5.3600   5.3933   7.4488   8.4509  11.7105
    11.9272  12.4813  14.7253

     occupation numbers 
     1.0000   1.0000   1.0000   1.0000   1.0000   1.0000   1.0000   1.0000
     1.0000   1.0000   1.0000   1.0000   1.0000   1.0000   1.0000   1.0000
     1.0000   1.0024   1.0513   0.0000   0.0000   0.0000   0.0000   0.0000
     0.0000   0.0000   0.0000

          k = 0.2500 0.5774 0.0972 (  3783 PWs)   bands (ev):

   -92.0222 -55.2733 -55.2584 -55.2479 -49.8007 -21.8842 -21.8025 -21.6534
   -13.9424 -13.7389  -1.8776  -1.4821  -0.7967   0.1827   0.4401   1.0425
     2.2228   3.0695   3.3418   5.3607   5.3949   7.4434   8.4465  11.7293
    11.9313  12.5020  14.7374

     occupation numbers 
     1.0000   1.0000   1.0000   1.0000   1.0000   1.0000   1.0000   1.0000
     1.0000   1.0000   1.0000   1.0000   1.0000   1.0000   1.0000   1.0000
     1.0000   1.0024   1.0512   0.0000   0.0000   0.0000   0.0000   0.0000
     0.0000   0.0000   0.0000

          k = 0.0000-0.1443 0.0972 (  3806 PWs)   bands (ev):

   -92.0269 -55.2557 -55.2361 -55.2299 -49.8349 -21.7000 -21.6886 -21.6538
   -15.3329 -13.5924  -1.6363  -1.4440  -1.1971   1.1531   1.4412   1.5628
     2.3451   2.6739   2.9091   3.5105   5.5936   6.0039   6.2975  10.1193
    12.1031  14.4635  15.8621

     occupation numbers 
     1.0000   1.0000   1.0000   1.0000   1.0000   1.0000   1.0000   1.0000
     1.0000   1.0000   1.0000   1.0000   1.0000   1.0000   1.0000   1.0000
     1.0000   1.0000   1.0001   1.0777   0.0000   0.0000   0.0000   0.0000
     0.0000   0.0000   0.0000

          k = 0.0000-0.2887 0.0972 (  3778 PWs)   bands (ev):

   -92.0252 -55.2557 -55.2526 -55.2346 -49.8222 -21.7940 -21.6827 -21.6766
   -14.8845 -13.6181  -1.7461  -1.1192  -0.9262  -0.1314   1.0118   2.1546
     2.6606   3.0249   3.1072   3.4580   5.0106   5.8866   7.2685  11.0306
    13.3375  13.7543  15.5542

     occupation numbers 
     1.0000   1.0000   1.0000   1.0000   1.0000   1.0000   1.0000   1.0000
     1.0000   1.0000   1.0000   1.0000   1.0000   1.0000   1.0000   1.0000
     1.0000   1.0012   1.0042   1.0827   0.0000   0.0000   0.0000   0.0000
     0.0000   0.0000   0.0000

          k = 0.0000-0.4330 0.0972 (  3794 PWs)   bands (ev):

   -92.0234 -55.2753 -55.2499 -55.2393 -49.8096 -21.8979 -21.6995 -21.6656
   -14.3470 -13.6927  -2.1844  -1.1158  -0.7140  -0.0858   0.8475   1.7463
     2.6204   2.8440   3.1131   4.6329   5.2540   5.9255   8.8179  10.1677
    12.5364  14.0168  15.0201

     occupation numbers 
     1.0000   1.0000   1.0000   1.0000   1.0000   1.0000   1.0000   1.0000
     1.0000   1.0000   1.0000   1.0000   1.0000   1.0000   1.0000   1.0000
     1.0000   1.0000   1.0045   0.0000   0.0000   0.0000   0.0000   0.0000
     0.0000   0.0000   0.0000

          k =-0.1250-0.3608 0.0972 (  3782 PWs)   bands (ev):

   -92.0239 -55.2666 -55.2508 -55.2408 -49.8133 -21.8518 -21.7087 -21.6706
   -14.5306 -13.6498  -1.7801  -1.2672  -0.6919  -0.1882   0.4585   2.0418
     2.7132   2.9862   3.3215   4.0283   5.1706   5.6374   8.2022  11.6326
    12.1511  14.3681  15.7489

     occupation numbers 
     1.0000   1.0000   1.0000   1.0000   1.0000   1.0000   1.0000   1.0000
     1.0000   1.0000   1.0000   1.0000   1.0000   1.0000   1.0000   1.0000
     1.0000   1.0006   1.0443   0.0955   0.0000   0.0000   0.0000   0.0000
     0.0000   0.0000   0.0000

          k =-0.1250-0.5052 0.0972 (  3793 PWs)   bands (ev):

   -92.0227 -55.2790 -55.2488 -55.2456 -49.8044 -21.9163 -21.7332 -21.6585
   -14.0882 -13.7450  -2.2768  -1.2570  -0.4349   0.0904   0.4277   1.4670
     2.4469   2.7558   3.2545   5.2999   5.6925   6.0740   8.9091  10.0802
    12.7334  13.4714  14.9721

     occupation numbers 
     1.0000   1.0000   1.0000   1.0000   1.0000   1.0000   1.0000   1.0000
     1.0000   1.0000   1.0000   1.0000   1.0000   1.0000   1.0000   1.0000
     1.0000   1.0000   1.0248   0.0000   0.0000   0.0000   0.0000   0.0000
     0.0000   0.0000   0.0000

 ------ SPIN DOWN ----------


          k = 0.0000 0.0000 0.0000 (  3803 PWs)   bands (ev):

   -91.2964 -54.5737 -54.5737 -54.4265 -49.8465 -21.7118 -21.6518 -21.6518
   -15.4038 -13.4754  -1.5000  -1.0815  -1.0815   1.0880   2.0519   2.4617
     2.4617   2.7938   2.7938   4.3224   5.9776   6.4165   6.4165   9.3037
    12.6948  13.1954  15.5585

     occupation numbers 
     1.0000   1.0000   1.0000   1.0000   1.0000   1.0000   1.0000   1.0000
     1.0000   1.0000   1.0000   1.0000   1.0000   1.0000   1.0000   1.0000
     1.0000   1.0000   1.0000   0.0015   0.0000   0.0000   0.0000   0.0000
     0.0000   0.0000   0.0000

          k = 0.0000 0.0000 0.0972 (  3796 PWs)   bands (ev):

   -91.2964 -54.5737 -54.5737 -54.4265 -49.8465 -21.7117 -21.6518 -21.6518
   -15.4038 -13.4755  -1.4937  -1.0815  -1.0815   0.9994   2.1936   2.4617
     2.4617   2.7938   2.7938   4.2837   5.8571   6.4165   6.4165   9.7651
    11.6135  13.9719  15.6009

     occupation numbers 
     1.0000   1.0000   1.0000   1.0000   1.0000   1.0000   1.0000   1.0000
     1.0000   1.0000   1.0000   1.0000   1.0000   1.0000   1.0000   1.0000
     1.0000   1.0000   1.0000   0.0029   0.0000   0.0000   0.0000   0.0000
     0.0000   0.0000   0.0000

          k = 0.0000 0.1443 0.0000 (  3787 PWs)   bands (ev):

   -91.2956 -54.5821 -54.5758 -54.4252 -49.8413 -21.7045 -21.6962 -21.6613
   -15.2323 -13.4798  -1.3751  -1.1860  -0.9746   1.3332   1.5599   1.8408
     2.3603   3.1544   3.3281   4.3463   5.8496   6.3102   6.4249   9.7776
    13.1158  13.6900  16.1050

     occupation numbers 
     1.0000   1.0000   1.0000   1.0000   1.0000   1.0000   1.0000   1.0000
     1.0000   1.0000   1.0000   1.0000   1.0000   1.0000   1.0000   1.0000
     1.0000   1.0079   1.0465   0.0009   0.0000   0.0000   0.0000   0.0000
     0.0000   0.0000   0.0000

          k = 0.0000 0.1443 0.0972 (  3806 PWs)   bands (ev):

   -91.2957 -54.5822 -54.5758 -54.4253 -49.8413 -21.7048 -21.6963 -21.6614
   -15.2323 -13.4798  -1.3733  -1.1838  -0.9746   1.3270   1.4876   1.8408
     2.4763   3.1612   3.3280   4.3082   5.9195   6.2585   6.3101  10.1681
    12.1290  14.5569  15.9545

     occupation numbers 
     1.0000   1.0000   1.0000   1.0000   1.0000   1.0000   1.0000   1.0000
     1.0000   1.0000   1.0000   1.0000   1.0000   1.0000   1.0000   1.0000
     1.0000   1.0087   1.0465   0.0019   0.0000   0.0000   0.0000   0.0000
     0.0000   0.0000   0.0000

          k = 0.0000 0.2887 0.0000 (  3786 PWs)   bands (ev):

   -91.2938 -54.6024 -54.5806 -54.4222 -49.8286 -21.8024 -21.6873 -21.6843
   -14.7825 -13.5035  -1.5503  -0.8623  -0.7203   0.0834   1.2439   2.3502
     2.8659   3.3523   3.6191   4.1970   5.3548   6.1743   7.2737  10.9321
    13.3901  14.1361  14.9071

     occupation numbers 
     1.0000   1.0000   1.0000   1.0000   1.0000   1.0000   1.0000   1.0000
     1.0000   1.0000   1.0000   1.0000   1.0000   1.0000   1.0000   1.0000
     1.0001   1.0548   0.9805   0.0114   0.0000   0.0000   0.0000   0.0000
     0.0000   0.0000   0.0000

          k = 0.0000 0.2887 0.0972 (  3778 PWs)   bands (ev):

   -91.2938 -54.6024 -54.5806 -54.4222 -49.8286 -21.8024 -21.6873 -21.6842
   -14.7825 -13.5035  -1.5511  -0.8606  -0.7203   0.0860   1.2439   2.3116
     2.8897   3.3768   3.6191   4.1729   5.4138   6.1744   7.1725  11.1697
    13.1693  13.6968  15.7607

     occupation numbers 
     1.0000   1.0000   1.0000   1.0000   1.0000   1.0000   1.0000   1.0000
     1.0000   1.0000   1.0000   1.0000   1.0000   1.0000   1.0000   1.0000
     1.0001   1.0632   0.9804   0.0162   0.0000   0.0000   0.0000   0.0000
     0.0000   0.0000   0.0000

          k = 0.0000 0.4330 0.0000 (  3780 PWs)   bands (ev):

   -91.2920 -54.6227 -54.5855 -54.4192 -49.8160 -21.9066 -21.7071 -21.6701
   -14.2440 -13.5754  -2.0187  -0.9900  -0.5133   0.2317   0.9940   1.9440
     3.3109   3.4645   3.8196   4.5971   5.6055   6.2087   8.7471  10.0967
    12.6296  13.9235  15.0978

     occupation numbers 
     1.0000   1.0000   1.0000   1.0000   1.0000   1.0000   1.0000   1.0000
     1.0000   1.0000   1.0000   1.0000   1.0000   1.0000   1.0000   1.0000
     1.0408   1.0832   0.4969   0.0000   0.0000   0.0000   0.0000   0.0000
     0.0000   0.0000   0.0000

          k = 0.0000 0.4330 0.0972 (  3794 PWs)   bands (ev):

   -91.2920 -54.6227 -54.5855 -54.4192 -49.8160 -21.9067 -21.7072 -21.6701
   -14.2441 -13.5754  -2.0189  -0.9902  -0.5133   0.2327   0.9939   1.9448
     3.3092   3.4644   3.8223   4.5688   5.6464   6.2087   8.7146  10.0903
    12.7128  14.0154  14.7547

     occupation numbers 
     1.0000   1.0000   1.0000   1.0000   1.0000   1.0000   1.0000   1.0000
     1.0000   1.0000   1.0000   1.0000   1.0000   1.0000   1.0000   1.0000
     1.0403   1.0832   0.4896   0.0000   0.0000   0.0000   0.0000   0.0000
     0.0000   0.0000   0.0000

          k = 0.0000-0.5774 0.0000 (  3798 PWs)   bands (ev):

   -91.2913 -54.6312 -54.5875 -54.4179 -49.8107 -21.9494 -21.7167 -21.6629
   -13.9217 -13.6892  -2.4140  -0.8281  -0.4648   0.3979   0.9948   1.6701
     3.1958   3.3021   3.6871   5.7381   6.2600   6.4855   7.7661  10.5971
    11.3988  14.5429  14.7439

     occupation numbers 
     1.0000   1.0000   1.0000   1.0000   1.0000   1.0000   1.0000   1.0000
     1.0000   1.0000   1.0000   1.0000   1.0000   1.0000   1.0000   1.0000
     1.0132   1.0380   0.8482   0.0000   0.0000   0.0000   0.0000   0.0000
     0.0000   0.0000   0.0000

          k = 0.0000-0.5774 0.0972 (  3790 PWs)   bands (ev):

   -91.2912 -54.6311 -54.5875 -54.4179 -49.8107 -21.9493 -21.7166 -21.6629
   -13.9217 -13.6892  -2.4140  -0.8282  -0.4648   0.3979   0.9949   1.6708
     3.1955   3.3021   3.6869   5.7321   6.2600   6.4945   7.7566  10.5975
    11.4573  14.2055  14.8643

     occupation numbers 
     1.0000   1.0000   1.0000   1.0000   1.0000   1.0000   1.0000   1.0000
     1.0000   1.0000   1.0000   1.0000   1.0000   1.0000   1.0000   1.0000
     1.0132   1.0380   0.8487   0.0000   0.0000   0.0000   0.0000   0.0000
     0.0000   0.0000   0.0000

          k = 0.1250 0.2165 0.0000 (  3789 PWs)   bands (ev):

   -91.2943 -54.5956 -54.5801 -54.4231 -49.8323 -21.7667 -21.6923 -21.6826
   -14.9215 -13.4930  -1.4641  -0.9450  -0.8219   0.5192   1.1099   2.2069
     2.7327   3.2818   3.6761   4.2627   5.5116   6.0456   6.9963  10.5896
    13.7180  14.5584  14.7892

     occupation numbers 
     1.0000   1.0000   1.0000   1.0000   1.0000   1.0000   1.0000   1.0000
     1.0000   1.0000   1.0000   1.0000   1.0000   1.0000   1.0000   1.0000
     1.0000   1.0320   0.8730   0.0041   0.0000   0.0000   0.0000   0.0000
     0.0000   0.0000   0.0000

          k = 0.1250 0.2165 0.0972 (  3785 PWs)   bands (ev):

   -91.2943 -54.5955 -54.5801 -54.4231 -49.8323 -21.7665 -21.6924 -21.6826
   -14.9215 -13.4930  -1.4650  -0.9428  -0.8215   0.5220   1.1099   2.1369
     2.8125   3.2820   3.6904   4.2390   5.5568   6.0185   6.9251  10.8161
    13.0524  14.7603  15.4199

     occupation numbers 
     1.0000   1.0000   1.0000   1.0000   1.0000   1.0000   1.0000   1.0000
     1.0000   1.0000   1.0000   1.0000   1.0000   1.0000   1.0000   1.0000
     1.0000   1.0321   0.8406   0.0060   0.0000   0.0000   0.0000   0.0000
     0.0000   0.0000   0.0000

          k = 0.1250 0.3608 0.0000 (  3780 PWs)   bands (ev):

   -91.2925 -54.6137 -54.5870 -54.4201 -49.8197 -21.8603 -21.7165 -21.6751
   -14.4278 -13.5335  -1.5978  -1.1116  -0.4906   0.0966   0.6507   2.2338
     3.3499   3.6804   3.8539   4.0776   5.5059   5.9334   8.1631  11.5997
    12.0910  14.4679  15.6731

     occupation numbers 
     1.0000   1.0000   1.0000   1.0000   1.0000   1.0000   1.0000   1.0000
     1.0000   1.0000   1.0000   1.0000   1.0000   1.0000   1.0000   1.0000
     1.0540   0.8634   0.4069   0.0554   0.0000   0.0000   0.0000   0.0000
     0.0000   0.0000   0.0000

          k = 0.1250 0.3608 0.0972 (  3782 PWs)   bands (ev):

   -91.2925 -54.6137 -54.5870 -54.4201 -49.8197 -21.8604 -21.7165 -21.6751
   -14.4278 -13.5335  -1.5982  -1.1117  -0.4905   0.0983   0.6507   2.2319
     3.3487   3.6654   3.8704   4.0654   5.5473   5.9184   8.1311  11.6187
    12.1550  14.2425  15.9286

     occupation numbers 
     1.0000   1.0000   1.0000   1.0000   1.0000   1.0000   1.0000   1.0000
     1.0000   1.0000   1.0000   1.0000   1.0000   1.0000   1.0000   1.0000
     1.0536   0.8959   0.3659   0.0637   0.0000   0.0000   0.0000   0.0000
     0.0000   0.0000   0.0000

          k = 0.1250 0.5052 0.0000 (  3784 PWs)   bands (ev):

   -91.2912 -54.6265 -54.5920 -54.4179 -49.8107 -21.9252 -21.7411 -21.6629
   -13.9871 -13.6242  -2.1261  -1.1200  -0.2601   0.3426   0.6021   1.6557
     3.3401   3.4130   3.8207   5.6092   5.9312   6.1120   8.8326   9.9970
    12.6616  13.6229  14.8452

     occupation numbers 
     1.0000   1.0000   1.0000   1.0000   1.0000   1.0000   1.0000   1.0000
     1.0000   1.0000   1.0000   1.0000   1.0000   1.0000   1.0000   1.0000
     1.0506   1.0743   0.4940   0.0000   0.0000   0.0000   0.0000   0.0000
     0.0000   0.0000   0.0000

          k = 0.1250 0.5052 0.0972 (  3793 PWs)   bands (ev):

   -91.2913 -54.6266 -54.5920 -54.4180 -49.8107 -21.9253 -21.7411 -21.6630
   -13.9871 -13.6242  -2.1261  -1.1201  -0.2601   0.3428   0.6022   1.6562
     3.3399   3.4131   3.8201   5.5905   5.9613   6.1016   8.8287   9.9959
    12.6983  13.6051  14.9225

     occupation numbers 
     1.0000   1.0000   1.0000   1.0000   1.0000   1.0000   1.0000   1.0000
     1.0000   1.0000   1.0000   1.0000   1.0000   1.0000   1.0000   1.0000
     1.0505   1.0744   0.4955   0.0000   0.0000   0.0000   0.0000   0.0000
     0.0000   0.0000   0.0000

          k = 0.2500 0.4330 0.0000 (  3781 PWs)   bands (ev):

   -91.2912 -54.6202 -54.5983 -54.4180 -49.8107 -21.8917 -21.7749 -21.6630
   -14.0345 -13.5772  -1.5964  -1.3926  -0.5145   0.2364   0.4993   1.6713
     3.4255   3.5083   3.9819   5.4216   5.7127   5.8943   9.6819  10.0624
    12.5448  14.2406  14.8756

     occupation numbers 
     1.0000   1.0000   1.0000   1.0000   1.0000   1.0000   1.0000   1.0000
     1.0000   1.0000   1.0000   1.0000   1.0000   1.0000   1.0000   1.0000
     1.0775   1.0783   0.1511   0.0000   0.0000   0.0000   0.0000   0.0000
     0.0000   0.0000   0.0000

          k = 0.2500 0.4330 0.0972 (  3790 PWs)   bands (ev):

   -91.2912 -54.6202 -54.5983 -54.4180 -49.8107 -21.8918 -21.7750 -21.6631
   -14.0345 -13.5772  -1.5965  -1.3928  -0.5145   0.2364   0.4998   1.6712
     3.4255   3.5087   3.9795   5.4362   5.7063   5.8832   9.7046  10.0576
    12.5161  14.2329  14.9258

     occupation numbers 
     1.0000   1.0000   1.0000   1.0000   1.0000   1.0000   1.0000   1.0000
     1.0000   1.0000   1.0000   1.0000   1.0000   1.0000   1.0000   1.0000
     1.0775   1.0782   0.1544   0.0000   0.0000   0.0000   0.0000   0.0000
     0.0000   0.0000   0.0000

          k = 0.2500 0.5774 0.0000 (  3794 PWs)   bands (ev):

   -91.2907 -54.6207 -54.6053 -54.4170 -49.8070 -21.8931 -21.8109 -21.6579
   -13.8445 -13.6135  -1.7337  -1.3356  -0.6822   0.3786   0.7119   1.2073
     3.2161   3.6825   3.9159   5.6993   5.7005   7.3573   8.3656  11.6498
    11.8889  12.4540  14.6920

     occupation numbers 
     1.0000   1.0000   1.0000   1.0000   1.0000   1.0000   1.0000   1.0000
     1.0000   1.0000   1.0000   1.0000   1.0000   1.0000   1.0000   1.0000
     1.0166   0.8586   0.2645   0.0000   0.0000   0.0000   0.0000   0.0000
     0.0000   0.0000   0.0000

          k = 0.2500 0.5774 0.0972 (  3783 PWs)   bands (ev):

   -91.2907 -54.6207 -54.6052 -54.4170 -49.8070 -21.8930 -21.8108 -21.6579
   -13.8445 -13.6135  -1.7337  -1.3356  -0.6821   0.3786   0.7119   1.2074
     3.2161   3.6826   3.9155   5.7000   5.7032   7.3511   8.3607  11.6693
    11.8924  12.4751  14.7063

     occupation numbers 
     1.0000   1.0000   1.0000   1.0000   1.0000   1.0000   1.0000   1.0000
     1.0000   1.0000   1.0000   1.0000   1.0000   1.0000   1.0000   1.0000
     1.0166   0.8585   0.2652   0.0000   0.0000   0.0000   0.0000   0.0000
     0.0000   0.0000   0.0000

          k = 0.0000-0.1443 0.0972 (  3806 PWs)   bands (ev):

   -91.2957 -54.5822 -54.5758 -54.4253 -49.8413 -21.7048 -21.6963 -21.6614
   -15.2323 -13.4798  -1.3730  -1.1842  -0.9746   1.3093   1.5103   1.8408
     2.4685   3.1650   3.3280   4.3116   5.8526   6.3102   6.3312  10.1328
    12.1699  14.5466  15.9338

     occupation numbers 
     1.0000   1.0000   1.0000   1.0000   1.0000   1.0000   1.0000   1.0000
     1.0000   1.0000   1.0000   1.0000   1.0000   1.0000   1.0000   1.0000
     1.0000   1.0091   1.0465   0.0018   0.0000   0.0000   0.0000   0.0000
     0.0000   0.0000   0.0000

          k = 0.0000-0.2887 0.0972 (  3778 PWs)   bands (ev):

   -91.2938 -54.6024 -54.5806 -54.4222 -49.8286 -21.8024 -21.6873 -21.6842
   -14.7825 -13.5035  -1.5508  -0.8612  -0.7203   0.0863   1.2440   2.3040
     2.8987   3.3802   3.6191   4.1906   5.3511   6.1744   7.2452  11.0353
    13.3355  13.7306  15.6217

     occupation numbers 
     1.0000   1.0000   1.0000   1.0000   1.0000   1.0000   1.0000   1.0000
     1.0000   1.0000   1.0000   1.0000   1.0000   1.0000   1.0000   1.0000
     1.0001   1.0643   0.9805   0.0125   0.0000   0.0000   0.0000   0.0000
     0.0000   0.0000   0.0000

          k = 0.0000-0.4330 0.0972 (  3794 PWs)   bands (ev):

   -91.2920 -54.6227 -54.5855 -54.4192 -49.8160 -21.9067 -21.7072 -21.6701
   -14.2441 -13.5754  -2.0189  -0.9902  -0.5133   0.2332   0.9939   1.9430
     3.3098   3.4644   3.8163   4.6032   5.5988   6.2087   8.7745  10.0877
    12.5327  13.9843  15.0814

     occupation numbers 
     1.0000   1.0000   1.0000   1.0000   1.0000   1.0000   1.0000   1.0000
     1.0000   1.0000   1.0000   1.0000   1.0000   1.0000   1.0000   1.0000
     1.0405   1.0832   0.5058   0.0000   0.0000   0.0000   0.0000   0.0000
     0.0000   0.0000   0.0000

          k =-0.1250-0.3608 0.0972 (  3782 PWs)   bands (ev):

   -91.2925 -54.6137 -54.5870 -54.4201 -49.8197 -21.8604 -21.7165 -21.6751
   -14.4278 -13.5335  -1.5982  -1.1117  -0.4906   0.0988   0.6506   2.2298
     3.3504   3.6709   3.8400   4.1060   5.5071   5.9297   8.1652  11.5737
    12.1169  14.4064  15.7695

     occupation numbers 
     1.0000   1.0000   1.0000   1.0000   1.0000   1.0000   1.0000   1.0000
     1.0000   1.0000   1.0000   1.0000   1.0000   1.0000   1.0000   1.0000
     1.0541   0.8843   0.4426   0.0393   0.0000   0.0000   0.0000   0.0000
     0.0000   0.0000   0.0000

          k =-0.1250-0.5052 0.0972 (  3793 PWs)   bands (ev):

   -91.2913 -54.6266 -54.5920 -54.4180 -49.8107 -21.9253 -21.7411 -21.6630
   -13.9871 -13.6242  -2.1261  -1.1201  -0.2601   0.3428   0.6023   1.6558
     3.3401   3.4131   3.8196   5.6192   5.9297   6.0987   8.8286  10.0307
    12.6908  13.4595  14.9658

     occupation numbers 
     1.0000   1.0000   1.0000   1.0000   1.0000   1.0000   1.0000   1.0000
     1.0000   1.0000   1.0000   1.0000   1.0000   1.0000   1.0000   1.0000
     1.0506   1.0744   0.4970   0.0000   0.0000   0.0000   0.0000   0.0000
     0.0000   0.0000   0.0000

     the Fermi energy is     3.8564 ev

!    total energy              =    -569.19204004 Ry
     total all-electron energy =     -3412.682595 Ry
     estimated scf accuracy    <       0.00000002 Ry
     smearing contrib. (-TS)   =       0.00299004 Ry
     internal energy E=F+TS    =    -569.19503008 Ry

     The total energy is F=E-TS. E is the sum of the following terms:
     one-electron contribution =    -724.69930058 Ry
     hartree contribution      =     374.75704897 Ry
     xc contribution           =     -59.98520111 Ry
     ewald contribution        =     -37.31263059 Ry
     one-center paw contrib.   =    -121.95494677 Ry
      -> PAW hartree energy AE =     342.43784359 Ry
      -> PAW hartree energy PS =    -342.44077177 Ry
      -> PAW xc energy AE      =    -178.90182104 Ry
      -> PAW xc energy PS      =      56.94980246 Ry
      -> total E_H with PAW    =     374.75412078 Ry
      -> total E_XC with PAW   =    -181.93721969 Ry

     total magnetization       =     0.74 Bohr mag/cell
     absolute magnetization    =     0.83 Bohr mag/cell

     convergence has been achieved in  22 iterations

     Forces acting on atoms (cartesian axes, Ry/au):

     atom    1 type  1   force =    -0.00000000   -0.00000000    0.02173861
     atom    2 type  2   force =     0.00000000    0.00000000   -0.03452709
     atom    3 type  2   force =     0.00000000    0.00000000   -0.00469472
     atom    4 type  3   force =     0.00000000    0.00000000    0.01748320
     The non-local contrib.  to forces
     atom    1 type  1   force =    -0.00000000   -0.00000000    0.01331312
     atom    2 type  2   force =     0.00000000    0.00000000   -1.25121860
     atom    3 type  2   force =     0.00000000    0.00000000    0.94603865
     atom    4 type  3   force =     0.00000000    0.00000000    0.04928840
     The ionic contribution  to forces
     atom    1 type  1   force =    -0.00000000   -0.00000000   15.08000860
     atom    2 type  2   force =     0.00000000   -0.00000000   40.33113719
     atom    3 type  2   force =    -0.00000000    0.00000000  -29.74469844
     atom    4 type  3   force =     0.00000000   -0.00000000  -25.66644734
     The local contribution  to forces
     atom    1 type  1   force =    -0.00000000   -0.00000000  -15.07163604
     atom    2 type  2   force =     0.00000001   -0.00000001  -39.12582980
     atom    3 type  2   force =    -0.00000001    0.00000001   28.80216333
     atom    4 type  3   force =    -0.00000000   -0.00000000   25.63487479
     The core correction contribution to forces
     atom    1 type  1   force =     0.00000000   -0.00000000   -0.00010914
     atom    2 type  2   force =    -0.00000000    0.00000000    0.01110750
     atom    3 type  2   force =     0.00000000   -0.00000000   -0.00808127
     atom    4 type  3   force =     0.00000000   -0.00000000   -0.00005449
     The Hubbard contrib.    to forces
     atom    1 type  1   force =     0.00000000    0.00000000    0.00000000
     atom    2 type  2   force =     0.00000000    0.00000000    0.00000000
     atom    3 type  2   force =     0.00000000    0.00000000    0.00000000
     atom    4 type  3   force =     0.00000000    0.00000000    0.00000000
     The SCF correction term to forces
     atom    1 type  1   force =    -0.00000000    0.00000000    0.00013489
     atom    2 type  2   force =    -0.00000000   -0.00000000    0.00024943
     atom    3 type  2   force =     0.00000000   -0.00000000   -0.00014418
     atom    4 type  3   force =     0.00000000    0.00000000   -0.00020535

     Total force =     0.044636     Total SCF correction =     0.000379

     Writing all to output data dir ./out/pw.save/ :
     XML data file, charge density, pseudopotentials, collected wavefunctions
 
     init_run     :     12.73s CPU      2.99s WALL (       1 calls)
     electrons    :    115.99s CPU     30.80s WALL (       1 calls)
     forces       :      0.63s CPU      0.56s WALL (       1 calls)

     Called by init_run:
     wfcinit      :      0.28s CPU      0.35s WALL (       1 calls)
     wfcinit:atom :      0.04s CPU      0.04s WALL (      50 calls)
     wfcinit:wfcr :      0.18s CPU      0.21s WALL (      50 calls)
     potinit      :     11.90s CPU      2.06s WALL (       1 calls)
     hinit0       :      0.45s CPU      0.44s WALL (       1 calls)

     Called by electrons:
     c_bands      :     14.78s CPU     14.67s WALL (      22 calls)
     sum_band     :      2.64s CPU      2.55s WALL (      22 calls)
     v_of_rho     :      0.40s CPU      0.20s WALL (      23 calls)
     v_h          :      0.26s CPU      0.04s WALL (      23 calls)
     v_xc         :      0.14s CPU      0.16s WALL (      24 calls)
     newd         :      0.54s CPU      0.42s WALL (      23 calls)
                                        0.42s GPU  (      23 calls)
     PAW_pot      :    100.40s CPU     12.61s WALL (      23 calls)
     mix_rho      :      0.86s CPU      0.81s WALL (      22 calls)

     Called by c_bands:
     init_us_2    :      0.98s CPU      0.91s WALL (    2300 calls)
     cegterg      :     12.76s CPU     12.74s WALL (    1100 calls)

     Called by sum_band:
     sum_band:wei :      0.03s CPU      0.03s WALL (      22 calls)
                                        0.03s GPU  (      22 calls)
     sum_band:loo :      1.66s CPU      1.57s WALL (      22 calls)
                                        1.57s GPU  (      22 calls)
     sum_band:buf :      0.23s CPU      0.25s WALL (    1100 calls)
                                        0.24s GPU  (    1100 calls)
     sum_band:ini :      0.46s CPU      0.44s WALL (    1100 calls)
                                        0.43s GPU  (    1100 calls)
     sum_band:cal :      0.04s CPU      0.07s WALL (    1100 calls)
                                        0.05s GPU  (    1100 calls)
     sum_band:bec :      0.24s CPU      0.25s WALL (    1100 calls)
                                        0.24s GPU  (    1100 calls)
     addusdens    :      0.75s CPU      0.76s WALL (      22 calls)
                                        0.76s GPU  (      22 calls)
     addusd:skk   :      0.00s CPU      0.00s WALL (      66 calls)
                                        0.00s GPU  (      66 calls)

     Called by *egterg:
     cdiaghg      :      4.25s CPU      4.41s WALL (    4967 calls)
                                        4.35s GPU  (    4967 calls)
     cegterg:over :      1.15s CPU      1.19s WALL (    3867 calls)
     cegterg:upda :      0.72s CPU      0.73s WALL (    3867 calls)
     cegterg:last :      0.15s CPU      0.14s WALL (    2062 calls)
     h_psi        :      4.74s CPU      4.70s WALL (    5017 calls)
                                        4.63s GPU  (    5017 calls)
     s_psi        :      0.76s CPU      0.81s WALL (    5017 calls)
     g_psi        :      0.02s CPU      0.10s WALL (    3867 calls)
                                        0.05s GPU  (    3867 calls)

     Called by h_psi:
     h_psi:calbec :      0.15s CPU      0.29s WALL (    5017 calls)
                                        0.23s GPU  (    5017 calls)
     vloc_psi     :      3.34s CPU      3.21s WALL (    5017 calls)
                                        3.15s GPU  (    5017 calls)
     add_vuspsi   :      0.69s CPU      0.83s WALL (    5017 calls)
                                        0.77s GPU  (    5017 calls)

     General routines
     calbec       :      0.17s CPU      0.20s WALL (    6317 calls)
     fft          :      3.50s CPU      0.65s WALL (     588 calls)
                                        0.02s GPU  (     542 calls)
     ffts         :      4.46s CPU      0.85s WALL (    1035 calls)
                                        0.03s GPU  (     989 calls)
     fftw         :      0.32s CPU      1.16s WALL (   16734 calls)
                                        0.97s GPU  (   16734 calls)
     interpolate  :      8.13s CPU      1.48s WALL (      46 calls)
 
     Parallel routines

     PAW routines
     PAW_pot      :    100.40s CPU     12.61s WALL (      23 calls)
     PAW_symme    :      0.02s CPU      0.00s WALL (      45 calls)
 
     PWSCF        :   2m10.26s CPU     34.88s WALL

 
   This run was terminated on:   2:41: 2  12Jul2026            

=------------------------------------------------------------------------------=
   JOB DONE.
=------------------------------------------------------------------------------=
Warning: ieee_divide_by_zero is signaling
Warning: ieee_inexact is signaling
FORTRAN STOP
