
     Program PWSCF v.7.3.1 starts on 12Jul2026 at  3:53:41 

     This program is part of the open-source Quantum ESPRESSO suite
     for quantum simulation of materials; please cite
         "P. Giannozzi et al., J. Phys.:Condens. Matter 21 395502 (2009);
         "P. Giannozzi et al., J. Phys.:Condens. Matter 29 465901 (2017);
         "P. Giannozzi et al., J. Chem. Phys. 152 154105 (2020);
          URL http://www.quantum-espresso.org", 
     in publications or presentations arising from this work. More details at
     http://www.quantum-espresso.org/quote

     Parallel version (MPI & OpenMP), running on      14 processor cores
     Number of MPI processes:                 1
     Threads/MPI process:                    14

     MPI processes distributed on     1 nodes
     840742 MiB available memory on the printing compute node when the environment starts
 
     Reading input from pw.in

     Current dimensions of program PWSCF are:
     Max number of different atomic species (ntypx) = 10
     Max number of k-points (npk) =  40000
     Max angular momentum in pseudopotentials (lmaxx) =  4
     file Co.pbe-spn-kjpaw_psl.0.3.1.UPF: wavefunction(s)  3P 3D renormalized
     file O.pbe-n-kjpaw_psl.1.0.0.UPF: wavefunction(s)  2S 2P renormalized
 
     Subspace diagonalization in iterative solution of the eigenvalue problem:
     a serial algorithm will be used

 
     G-vector sticks info
     --------------------
     sticks:   dense  smooth     PW     G-vecs:    dense   smooth      PW
     Sum         931     475    151                56785    20183    3305
 
     Using Slab Decomposition
 


     bravais-lattice index     =            4
     lattice parameter (alat)  =       5.3290  a.u.
     unit-cell volume          =     320.6820 (a.u.)^3
     number of atoms/cell      =            4
     number of atomic types    =            3
     number of electrons       =        32.00
     number of Kohn-Sham states=           24
     kinetic-energy cutoff     =      60.0000  Ry
     charge density cutoff     =     480.0000  Ry
     scf convergence threshold =      1.0E-07
     mixing beta               =       0.3000
     number of iterations used =            8  local-TF  mixing
     Exchange-correlation= SLA  PW   PBX  PBC
                           (   1   4   3   4   0   0   0)

     GPU acceleration is ACTIVE.  1 visible GPUs per MPI rank
     GPU-aware MPI enabled


     GPU used by master process:

        Device Number: 0
        Device name: NVIDIA A100-SXM4-80GB
        Compute capability : 80
        Ratio of single to double precision performance  : 2
        Memory Clock Rate (KHz): 1593000
        Memory Bus Width (bits): 5120
        Peak Memory Bandwidth (GB/s): ******

     celldm(1)=   5.329028  celldm(2)=   0.000000  celldm(3)=   2.446809
     celldm(4)=   0.000000  celldm(5)=   0.000000  celldm(6)=   0.000000

     crystal axes: (cart. coord. in units of alat)
               a(1) = (   1.000000   0.000000   0.000000 )  
               a(2) = (  -0.500000   0.866025   0.000000 )  
               a(3) = (   0.000000   0.000000   2.446809 )  

     reciprocal axes: (cart. coord. in units 2 pi/alat)
               b(1) = (  1.000000  0.577350 -0.000000 )  
               b(2) = (  0.000000  1.154701  0.000000 )  
               b(3) = (  0.000000 -0.000000  0.408696 )  


     PseudoPot. # 1 for Co read from file:
     ../../pseudo/Co.pbe-spn-kjpaw_psl.0.3.1.UPF
     MD5 check sum: 3c0a43779828c046024e4f3be63f8e67
     Pseudo is Projector augmented-wave + core cor, Zval = 17.0
     Generated using &quot;atomic&quot; code by A. Dal Corso  v.6.2.2
     Shape of augmentation charge: PSQ
     Using radial grid of 1193 points,  6 beta functions with: 
                l(1) =   0
                l(2) =   0
                l(3) =   1
                l(4) =   1
                l(5) =   2
                l(6) =   2
     Q(r) pseudized with 0 coefficients 


     PseudoPot. # 2 for O  read from file:
     ../../pseudo/O.pbe-n-kjpaw_psl.1.0.0.UPF
     MD5 check sum: e99d9cef9b487d1ca56f5b95ecd0fd7a
     Pseudo is Projector augmented-wave + core cor, Zval =  6.0
     Generated using &quot;atomic&quot; code by A. Dal Corso  v.6.3
     Shape of augmentation charge: PSQ
     Using radial grid of 1095 points,  4 beta functions with: 
                l(1) =   0
                l(2) =   0
                l(3) =   1
                l(4) =   1
     Q(r) pseudized with 0 coefficients 


     PseudoPot. # 3 for Li read from file:
     ../../pseudo/Li.pbe-s-kjpaw_psl.1.0.0.UPF
     MD5 check sum: 3974953fb0fea6c4f83fb01d64ffc134
     Pseudo is Projector augmented-wave, Zval =  3.0
     Generated using &quot;atomic&quot; code by A. Dal Corso  v.6.3
     Shape of augmentation charge: PSQ
     Using radial grid of 1017 points,  4 beta functions with: 
                l(1) =   0
                l(2) =   0
                l(3) =   1
                l(4) =   1
     Q(r) pseudized with 0 coefficients 


     atomic species   valence    mass     pseudopotential
     Co               17.00    58.93300     Co( 1.00)
     O                 6.00    15.99900     O ( 1.00)
     Li                3.00     6.94100     Li( 1.00)

     Starting magnetic structure 
     atomic species   magnetization
     Co              0.300
     O               0.000
     Li              0.000

      6 Sym. Ops. (no inversion) found


                                    s                        frac. trans.

      isym =  1     identity                                     

 cryst.   s( 1) = (     1          0          0      )
                  (     0          1          0      )
                  (     0          0          1      )

 cart.    s( 1) = (  1.0000000  0.0000000  0.0000000 )
                  (  0.0000000  1.0000000  0.0000000 )
                  (  0.0000000  0.0000000  1.0000000 )


      isym =  2     120 deg rotation - cryst. axis [0,0,1]       

 cryst.   s( 2) = (     0          1          0      )
                  (    -1         -1          0      )
                  (     0          0          1      )

 cart.    s( 2) = ( -0.5000000 -0.8660254  0.0000000 )
                  (  0.8660254 -0.5000000  0.0000000 )
                  (  0.0000000  0.0000000  1.0000000 )


      isym =  3     120 deg rotation - cryst. axis [0,0,-1]      

 cryst.   s( 3) = (    -1         -1          0      )
                  (     1          0          0      )
                  (     0          0          1      )

 cart.    s( 3) = ( -0.5000000  0.8660254  0.0000000 )
                  ( -0.8660254 -0.5000000  0.0000000 )
                  (  0.0000000  0.0000000  1.0000000 )


      isym =  4     inv. 180 deg rotation - cart. axis [1,0,0]   

 cryst.   s( 4) = (    -1          0          0      )
                  (     1          1          0      )
                  (     0          0          1      )

 cart.    s( 4) = ( -1.0000000  0.0000000  0.0000000 )
                  (  0.0000000  1.0000000  0.0000000 )
                  (  0.0000000  0.0000000  1.0000000 )


      isym =  5     inv. 180 deg rotation - cryst. axis [0,1,0]  

 cryst.   s( 5) = (     1          1          0      )
                  (     0         -1          0      )
                  (     0          0          1      )

 cart.    s( 5) = (  0.5000000  0.8660254  0.0000000 )
                  (  0.8660254 -0.5000000  0.0000000 )
                  (  0.0000000  0.0000000  1.0000000 )


      isym =  6     inv. 180 deg rotation - cryst. axis [1,1,0]  

 cryst.   s( 6) = (     0         -1          0      )
                  (    -1          0          0      )
                  (     0          0          1      )

 cart.    s( 6) = (  0.5000000 -0.8660254  0.0000000 )
                  ( -0.8660254 -0.5000000  0.0000000 )
                  (  0.0000000  0.0000000  1.0000000 )


     point group C_3v (3m)  
     there are  3 classes
     the character table:

       E     2C3   3s_v 
A_1    1.00  1.00  1.00
A_2    1.00  1.00 -1.00
E      2.00 -1.00  0.00

     the symmetry operations in each class and the name of the first element:

     E        1
          identity                                               
     2C3      2    3
          120 deg rotation - cryst. axis [0,0,1]                 
     3s_v     4    5    6
          inv. 180 deg rotation - cart. axis [1,0,0]             

   Cartesian axes

     site n.     atom                  positions (alat units)
         1        Co     tau(   1) = (   0.0000000   0.0000000   0.0000000  )
         2        O      tau(   2) = (  -0.0000000   0.5773503   0.3404255  )
         3        O      tau(   3) = (   0.5000000   0.2886751   2.1063830  )
         4        Li     tau(   4) = (   0.0000000   0.0000000   1.3297872  )

   Crystallographic axes

     site n.     atom                  positions (cryst. coord.)
         1        Co     tau(   1) = (  0.0000000  0.0000000  0.0000000  )
         2        O      tau(   2) = (  0.3333333  0.6666667  0.1391304  )
         3        O      tau(   3) = (  0.6666667  0.3333333  0.8608696  )
         4        Li     tau(   4) = (  0.0000000  0.0000000  0.5434783  )

     number of k points=    25  Marzari-Vanderbilt smearing, width (Ry)=  0.0200
                       cart. coord. in units 2pi/alat
        k(    1) = (   0.0000000   0.0000000   0.0000000), wk =   0.0052083
        k(    2) = (   0.0000000   0.0000000   0.1362319), wk =   0.0104167
        k(    3) = (   0.0000000   0.1443376   0.0000000), wk =   0.0312500
        k(    4) = (   0.0000000   0.1443376   0.1362319), wk =   0.0312500
        k(    5) = (   0.0000000   0.2886751   0.0000000), wk =   0.0312500
        k(    6) = (   0.0000000   0.2886751   0.1362319), wk =   0.0312500
        k(    7) = (   0.0000000   0.4330127   0.0000000), wk =   0.0312500
        k(    8) = (   0.0000000   0.4330127   0.1362319), wk =   0.0312500
        k(    9) = (   0.0000000  -0.5773503   0.0000000), wk =   0.0156250
        k(   10) = (   0.0000000  -0.5773503   0.1362319), wk =   0.0312500
        k(   11) = (   0.1250000   0.2165064   0.0000000), wk =   0.0312500
        k(   12) = (   0.1250000   0.2165064   0.1362319), wk =   0.0625000
        k(   13) = (   0.1250000   0.3608439   0.0000000), wk =   0.0625000
        k(   14) = (   0.1250000   0.3608439   0.1362319), wk =   0.0625000
        k(   15) = (   0.1250000   0.5051815   0.0000000), wk =   0.0625000
        k(   16) = (   0.1250000   0.5051815   0.1362319), wk =   0.0625000
        k(   17) = (   0.2500000   0.4330127   0.0000000), wk =   0.0312500
        k(   18) = (   0.2500000   0.4330127   0.1362319), wk =   0.0625000
        k(   19) = (   0.2500000   0.5773503   0.0000000), wk =   0.0312500
        k(   20) = (   0.2500000   0.5773503   0.1362319), wk =   0.0625000
        k(   21) = (   0.0000000  -0.1443376   0.1362319), wk =   0.0312500
        k(   22) = (   0.0000000  -0.2886751   0.1362319), wk =   0.0312500
        k(   23) = (   0.0000000  -0.4330127   0.1362319), wk =   0.0312500
        k(   24) = (  -0.1250000  -0.3608439   0.1362319), wk =   0.0625000
        k(   25) = (  -0.1250000  -0.5051815   0.1362319), wk =   0.0625000

                       cryst. coord.
        k(    1) = (   0.0000000   0.0000000   0.0000000), wk =   0.0052083
        k(    2) = (   0.0000000   0.0000000   0.3333333), wk =   0.0104167
        k(    3) = (   0.0000000   0.1250000   0.0000000), wk =   0.0312500
        k(    4) = (   0.0000000   0.1250000   0.3333333), wk =   0.0312500
        k(    5) = (   0.0000000   0.2500000   0.0000000), wk =   0.0312500
        k(    6) = (   0.0000000   0.2500000   0.3333333), wk =   0.0312500
        k(    7) = (   0.0000000   0.3750000   0.0000000), wk =   0.0312500
        k(    8) = (   0.0000000   0.3750000   0.3333333), wk =   0.0312500
        k(    9) = (   0.0000000  -0.5000000   0.0000000), wk =   0.0156250
        k(   10) = (   0.0000000  -0.5000000   0.3333333), wk =   0.0312500
        k(   11) = (   0.1250000   0.1250000   0.0000000), wk =   0.0312500
        k(   12) = (   0.1250000   0.1250000   0.3333333), wk =   0.0625000
        k(   13) = (   0.1250000   0.2500000   0.0000000), wk =   0.0625000
        k(   14) = (   0.1250000   0.2500000   0.3333333), wk =   0.0625000
        k(   15) = (   0.1250000   0.3750000   0.0000000), wk =   0.0625000
        k(   16) = (   0.1250000   0.3750000   0.3333333), wk =   0.0625000
        k(   17) = (   0.2500000   0.2500000   0.0000000), wk =   0.0312500
        k(   18) = (   0.2500000   0.2500000   0.3333333), wk =   0.0625000
        k(   19) = (   0.2500000   0.3750000   0.0000000), wk =   0.0312500
        k(   20) = (   0.2500000   0.3750000   0.3333333), wk =   0.0625000
        k(   21) = (   0.0000000  -0.1250000   0.3333333), wk =   0.0312500
        k(   22) = (   0.0000000  -0.2500000   0.3333333), wk =   0.0312500
        k(   23) = (   0.0000000  -0.3750000   0.3333333), wk =   0.0312500
        k(   24) = (  -0.1250000  -0.2500000   0.3333333), wk =   0.0625000
        k(   25) = (  -0.1250000  -0.3750000   0.3333333), wk =   0.0625000

     Dense  grid:    56785 G-vectors     FFT dimensions: (  40,  40,  96)

     Smooth grid:    20183 G-vectors     FFT dimensions: (  27,  27,  72)

     Dynamical RAM for                 wfc:       0.92 MB

     Dynamical RAM for     wfc (w. buffer):      47.01 MB

     Dynamical RAM for           str. fact:       2.60 MB

     Dynamical RAM for           local pot:       0.00 MB

     Dynamical RAM for          nlocal pot:       1.61 MB

     Dynamical RAM for                qrad:       5.27 MB

     Dynamical RAM for          rho,v,vnew:      12.23 MB

     Dynamical RAM for               rhoin:       4.08 MB

     Dynamical RAM for            rho*nmix:      27.73 MB

     Dynamical RAM for           G-vectors:       3.40 MB

     Dynamical RAM for          h,s,v(r/c):       0.11 MB

     Dynamical RAM for          <psi|beta>:       0.02 MB

     Dynamical RAM for                 psi:       1.84 MB

     Dynamical RAM for                hpsi:       1.84 MB

     Dynamical RAM for                spsi:       1.84 MB

     Dynamical RAM for      wfcinit/wfcrot:       1.86 MB

     Dynamical RAM for           addusdens:     163.76 MB

     Dynamical RAM for          addusforce:     165.51 MB

     Estimated static dynamical RAM per process >      86.70 MB

     Estimated max dynamical RAM per process >     279.94 MB

     Check: negative core charge=   -0.000008
     Generating pointlists ...
     new r_m :   0.2765 (alat units)  1.4733 (a.u.) for type    1
     new r_m :   0.2765 (alat units)  1.4733 (a.u.) for type    2
     new r_m :   0.3992 (alat units)  2.1272 (a.u.) for type    3

     Initial potential from superposition of free atoms

     starting charge      31.9951, renormalised to      32.0000
     Starting wfcs are   23 randomized atomic wfcs +    1 random wfcs
     Checking if some PAW data can be deallocated... 

     total cpu time spent up to now is        3.6 secs

     Self-consistent Calculation
[tb_dev] Currently allocated     6.36E-01 Mbytes, locked:    0 /   6
[tb_pin] Currently allocated     0.00E+00 Mbytes, locked:    0 /   0

     iteration #  1     ecut=    60.00 Ry     beta= 0.30
     Davidson diagonalization with overlap

---- Real-time Memory Report at c_bands before calling an iterative solver
           665 MiB given to the printing process from OS
             0 MiB allocation reported by mallinfo(arena+hblkhd)
        840985 MiB available memory on the node where the printing process lives
     GPU memory used/free/total (MiB): 990 / 80160 / 81151
------------------
     ethr =  1.00E-02,  avg # of iterations =  7.4

     total cpu time spent up to now is        5.3 secs

     total energy              =    -474.80860532 Ry
     estimated scf accuracy    <       1.48217110 Ry

     total magnetization       =     4.06 Bohr mag/cell
     absolute magnetization    =     4.07 Bohr mag/cell
[tb_dev] Currently allocated     3.05E-05 Mbytes, locked:    0 /   2
[tb_pin] Currently allocated     0.00E+00 Mbytes, locked:    0 /   0

     iteration #  2     ecut=    60.00 Ry     beta= 0.30
     Davidson diagonalization with overlap

---- Real-time Memory Report at c_bands before calling an iterative solver
           707 MiB given to the printing process from OS
             0 MiB allocation reported by mallinfo(arena+hblkhd)
        841256 MiB available memory on the node where the printing process lives
     GPU memory used/free/total (MiB): 1004 / 80146 / 81151
------------------
     ethr =  4.63E-03,  avg # of iterations =  1.9

     total cpu time spent up to now is        6.5 secs

     total energy              =    -474.83534430 Ry
     estimated scf accuracy    <       0.48158472 Ry

     total magnetization       =     3.69 Bohr mag/cell
     absolute magnetization    =     3.69 Bohr mag/cell
[tb_dev] Currently allocated     3.05E-05 Mbytes, locked:    0 /   2
[tb_pin] Currently allocated     0.00E+00 Mbytes, locked:    0 /   0

     iteration #  3     ecut=    60.00 Ry     beta= 0.30
     Davidson diagonalization with overlap

---- Real-time Memory Report at c_bands before calling an iterative solver
           710 MiB given to the printing process from OS
             0 MiB allocation reported by mallinfo(arena+hblkhd)
        841453 MiB available memory on the node where the printing process lives
     GPU memory used/free/total (MiB): 1004 / 80146 / 81151
------------------
     ethr =  1.50E-03,  avg # of iterations =  2.0

     total cpu time spent up to now is        7.6 secs

     total energy              =    -474.93678752 Ry
     estimated scf accuracy    <       0.55693325 Ry

     total magnetization       =     1.76 Bohr mag/cell
     absolute magnetization    =     1.83 Bohr mag/cell
[tb_dev] Currently allocated     3.05E-05 Mbytes, locked:    0 /   2
[tb_pin] Currently allocated     0.00E+00 Mbytes, locked:    0 /   0

     iteration #  4     ecut=    60.00 Ry     beta= 0.30
     Davidson diagonalization with overlap

---- Real-time Memory Report at c_bands before calling an iterative solver
           712 MiB given to the printing process from OS
             0 MiB allocation reported by mallinfo(arena+hblkhd)
        841100 MiB available memory on the node where the printing process lives
     GPU memory used/free/total (MiB): 1004 / 80146 / 81151
------------------
     ethr =  1.50E-03,  avg # of iterations =  1.1

     total cpu time spent up to now is        8.6 secs

     total energy              =    -474.95805152 Ry
     estimated scf accuracy    <       0.31702203 Ry

     total magnetization       =     2.08 Bohr mag/cell
     absolute magnetization    =     2.12 Bohr mag/cell
[tb_dev] Currently allocated     3.05E-05 Mbytes, locked:    0 /   2
[tb_pin] Currently allocated     0.00E+00 Mbytes, locked:    0 /   0

     iteration #  5     ecut=    60.00 Ry     beta= 0.30
     Davidson diagonalization with overlap

---- Real-time Memory Report at c_bands before calling an iterative solver
           713 MiB given to the printing process from OS
             0 MiB allocation reported by mallinfo(arena+hblkhd)
        840794 MiB available memory on the node where the printing process lives
     GPU memory used/free/total (MiB): 1004 / 80146 / 81151
------------------
     ethr =  9.91E-04,  avg # of iterations =  1.3

     total cpu time spent up to now is        9.7 secs

     total energy              =    -474.99561867 Ry
     estimated scf accuracy    <       0.07525584 Ry

     total magnetization       =     1.30 Bohr mag/cell
     absolute magnetization    =     1.48 Bohr mag/cell
[tb_dev] Currently allocated     3.05E-05 Mbytes, locked:    0 /   2
[tb_pin] Currently allocated     0.00E+00 Mbytes, locked:    0 /   0

     iteration #  6     ecut=    60.00 Ry     beta= 0.30
     Davidson diagonalization with overlap

---- Real-time Memory Report at c_bands before calling an iterative solver
           714 MiB given to the printing process from OS
             0 MiB allocation reported by mallinfo(arena+hblkhd)
        840626 MiB available memory on the node where the printing process lives
     GPU memory used/free/total (MiB): 1004 / 80146 / 81151
------------------
     ethr =  2.35E-04,  avg # of iterations =  3.6

     total cpu time spent up to now is       11.0 secs

     total energy              =    -474.98236482 Ry
     estimated scf accuracy    <       0.72895251 Ry

     total magnetization       =     0.29 Bohr mag/cell
     absolute magnetization    =     0.93 Bohr mag/cell
[tb_dev] Currently allocated     3.05E-05 Mbytes, locked:    0 /   2
[tb_pin] Currently allocated     0.00E+00 Mbytes, locked:    0 /   0

     iteration #  7     ecut=    60.00 Ry     beta= 0.30
     Davidson diagonalization with overlap

---- Real-time Memory Report at c_bands before calling an iterative solver
           716 MiB given to the printing process from OS
             0 MiB allocation reported by mallinfo(arena+hblkhd)
        840379 MiB available memory on the node where the printing process lives
     GPU memory used/free/total (MiB): 1004 / 80146 / 81151
------------------
     ethr =  2.35E-04,  avg # of iterations =  2.6

     total cpu time spent up to now is       12.2 secs

     total energy              =    -475.05115124 Ry
     estimated scf accuracy    <       0.02053537 Ry

     total magnetization       =     0.24 Bohr mag/cell
     absolute magnetization    =     0.64 Bohr mag/cell
[tb_dev] Currently allocated     3.05E-05 Mbytes, locked:    0 /   2
[tb_pin] Currently allocated     0.00E+00 Mbytes, locked:    0 /   0

     iteration #  8     ecut=    60.00 Ry     beta= 0.30
     Davidson diagonalization with overlap

---- Real-time Memory Report at c_bands before calling an iterative solver
           717 MiB given to the printing process from OS
             0 MiB allocation reported by mallinfo(arena+hblkhd)
        840310 MiB available memory on the node where the printing process lives
     GPU memory used/free/total (MiB): 1004 / 80146 / 81151
------------------
     ethr =  6.42E-05,  avg # of iterations =  5.9

     total cpu time spent up to now is       13.8 secs

     total energy              =    -475.05214429 Ry
     estimated scf accuracy    <       0.00660107 Ry

     total magnetization       =     0.19 Bohr mag/cell
     absolute magnetization    =     0.42 Bohr mag/cell
[tb_dev] Currently allocated     3.05E-05 Mbytes, locked:    0 /   2
[tb_pin] Currently allocated     0.00E+00 Mbytes, locked:    0 /   0

     iteration #  9     ecut=    60.00 Ry     beta= 0.30
     Davidson diagonalization with overlap

---- Real-time Memory Report at c_bands before calling an iterative solver
           719 MiB given to the printing process from OS
             0 MiB allocation reported by mallinfo(arena+hblkhd)
        840292 MiB available memory on the node where the printing process lives
     GPU memory used/free/total (MiB): 1004 / 80146 / 81151
------------------
     c_bands:  1 eigenvalues not converged
     ethr =  2.06E-05,  avg # of iterations =  3.9

     total cpu time spent up to now is       15.2 secs

     total energy              =    -475.05822969 Ry
     estimated scf accuracy    <       0.03273906 Ry

     total magnetization       =     0.08 Bohr mag/cell
     absolute magnetization    =     0.47 Bohr mag/cell
[tb_dev] Currently allocated     3.05E-05 Mbytes, locked:    0 /   2
[tb_pin] Currently allocated     0.00E+00 Mbytes, locked:    0 /   0

     iteration # 10     ecut=    60.00 Ry     beta= 0.30
     Davidson diagonalization with overlap

---- Real-time Memory Report at c_bands before calling an iterative solver
           720 MiB given to the printing process from OS
             0 MiB allocation reported by mallinfo(arena+hblkhd)
        840273 MiB available memory on the node where the printing process lives
     GPU memory used/free/total (MiB): 1004 / 80146 / 81151
------------------
     ethr =  2.06E-05,  avg # of iterations =  1.3

     total cpu time spent up to now is       16.3 secs

     total energy              =    -475.05884550 Ry
     estimated scf accuracy    <       0.00580512 Ry

     total magnetization       =     0.13 Bohr mag/cell
     absolute magnetization    =     0.39 Bohr mag/cell
[tb_dev] Currently allocated     3.05E-05 Mbytes, locked:    0 /   2
[tb_pin] Currently allocated     0.00E+00 Mbytes, locked:    0 /   0

     iteration # 11     ecut=    60.00 Ry     beta= 0.30
     Davidson diagonalization with overlap

---- Real-time Memory Report at c_bands before calling an iterative solver
           720 MiB given to the printing process from OS
             0 MiB allocation reported by mallinfo(arena+hblkhd)
        840272 MiB available memory on the node where the printing process lives
     GPU memory used/free/total (MiB): 1004 / 80146 / 81151
------------------
     ethr =  1.81E-05,  avg # of iterations =  1.5
     Minimization algorithm failed to find Fermi energy: reverting to bisection
     Possible cause: smearing is larger than the electronic band-gap.

     total cpu time spent up to now is       17.4 secs

     total energy              =    -475.05987574 Ry
     estimated scf accuracy    <       0.00161216 Ry

     total magnetization       =     0.14 Bohr mag/cell
     absolute magnetization    =     0.40 Bohr mag/cell
[tb_dev] Currently allocated     3.05E-05 Mbytes, locked:    0 /   2
[tb_pin] Currently allocated     0.00E+00 Mbytes, locked:    0 /   0

     iteration # 12     ecut=    60.00 Ry     beta= 0.30
     Davidson diagonalization with overlap

---- Real-time Memory Report at c_bands before calling an iterative solver
           720 MiB given to the printing process from OS
             0 MiB allocation reported by mallinfo(arena+hblkhd)
        840304 MiB available memory on the node where the printing process lives
     GPU memory used/free/total (MiB): 1004 / 80146 / 81151
------------------
     ethr =  5.04E-06,  avg # of iterations =  3.1

     total cpu time spent up to now is       18.6 secs

     total energy              =    -475.05996866 Ry
     estimated scf accuracy    <       0.00084961 Ry

     total magnetization       =     0.17 Bohr mag/cell
     absolute magnetization    =     0.39 Bohr mag/cell
[tb_dev] Currently allocated     3.05E-05 Mbytes, locked:    0 /   2
[tb_pin] Currently allocated     0.00E+00 Mbytes, locked:    0 /   0

     iteration # 13     ecut=    60.00 Ry     beta= 0.30
     Davidson diagonalization with overlap

---- Real-time Memory Report at c_bands before calling an iterative solver
           720 MiB given to the printing process from OS
             0 MiB allocation reported by mallinfo(arena+hblkhd)
        840305 MiB available memory on the node where the printing process lives
     GPU memory used/free/total (MiB): 1004 / 80146 / 81151
------------------
     ethr =  2.66E-06,  avg # of iterations =  3.5

     total cpu time spent up to now is       19.9 secs

     total energy              =    -475.06014376 Ry
     estimated scf accuracy    <       0.00013935 Ry

     total magnetization       =     0.16 Bohr mag/cell
     absolute magnetization    =     0.40 Bohr mag/cell
[tb_dev] Currently allocated     3.05E-05 Mbytes, locked:    0 /   2
[tb_pin] Currently allocated     0.00E+00 Mbytes, locked:    0 /   0

     iteration # 14     ecut=    60.00 Ry     beta= 0.30
     Davidson diagonalization with overlap

---- Real-time Memory Report at c_bands before calling an iterative solver
           720 MiB given to the printing process from OS
             0 MiB allocation reported by mallinfo(arena+hblkhd)
        840307 MiB available memory on the node where the printing process lives
     GPU memory used/free/total (MiB): 1004 / 80146 / 81151
------------------
     ethr =  4.35E-07,  avg # of iterations =  4.7

     total cpu time spent up to now is       21.4 secs

     total energy              =    -475.06020460 Ry
     estimated scf accuracy    <       0.00002007 Ry

     total magnetization       =     0.17 Bohr mag/cell
     absolute magnetization    =     0.40 Bohr mag/cell
[tb_dev] Currently allocated     3.05E-05 Mbytes, locked:    0 /   2
[tb_pin] Currently allocated     0.00E+00 Mbytes, locked:    0 /   0

     iteration # 15     ecut=    60.00 Ry     beta= 0.30
     Davidson diagonalization with overlap

---- Real-time Memory Report at c_bands before calling an iterative solver
           720 MiB given to the printing process from OS
             0 MiB allocation reported by mallinfo(arena+hblkhd)
        840292 MiB available memory on the node where the printing process lives
     GPU memory used/free/total (MiB): 1004 / 80146 / 81151
------------------
     ethr =  6.27E-08,  avg # of iterations =  5.3

     total cpu time spent up to now is       22.9 secs

     total energy              =    -475.06021975 Ry
     estimated scf accuracy    <       0.00000459 Ry

     total magnetization       =     0.17 Bohr mag/cell
     absolute magnetization    =     0.40 Bohr mag/cell
[tb_dev] Currently allocated     3.05E-05 Mbytes, locked:    0 /   2
[tb_pin] Currently allocated     0.00E+00 Mbytes, locked:    0 /   0

     iteration # 16     ecut=    60.00 Ry     beta= 0.30
     Davidson diagonalization with overlap

---- Real-time Memory Report at c_bands before calling an iterative solver
           721 MiB given to the printing process from OS
             0 MiB allocation reported by mallinfo(arena+hblkhd)
        840302 MiB available memory on the node where the printing process lives
     GPU memory used/free/total (MiB): 1004 / 80146 / 81151
------------------
     ethr =  1.43E-08,  avg # of iterations =  3.5

     total cpu time spent up to now is       24.2 secs

     total energy              =    -475.06022107 Ry
     estimated scf accuracy    <       0.00000041 Ry

     total magnetization       =     0.17 Bohr mag/cell
     absolute magnetization    =     0.40 Bohr mag/cell
[tb_dev] Currently allocated     3.05E-05 Mbytes, locked:    0 /   2
[tb_pin] Currently allocated     0.00E+00 Mbytes, locked:    0 /   0

     iteration # 17     ecut=    60.00 Ry     beta= 0.30
     Davidson diagonalization with overlap

---- Real-time Memory Report at c_bands before calling an iterative solver
           721 MiB given to the printing process from OS
             0 MiB allocation reported by mallinfo(arena+hblkhd)
        840297 MiB available memory on the node where the printing process lives
     GPU memory used/free/total (MiB): 1004 / 80146 / 81151
------------------
     ethr =  1.29E-09,  avg # of iterations =  7.1

     total cpu time spent up to now is       26.0 secs

     total energy              =    -475.06022154 Ry
     estimated scf accuracy    <       0.00000023 Ry

     total magnetization       =     0.17 Bohr mag/cell
     absolute magnetization    =     0.40 Bohr mag/cell
[tb_dev] Currently allocated     3.05E-05 Mbytes, locked:    0 /   2
[tb_pin] Currently allocated     0.00E+00 Mbytes, locked:    0 /   0

     iteration # 18     ecut=    60.00 Ry     beta= 0.30
     Davidson diagonalization with overlap

---- Real-time Memory Report at c_bands before calling an iterative solver
           721 MiB given to the printing process from OS
             0 MiB allocation reported by mallinfo(arena+hblkhd)
        840304 MiB available memory on the node where the printing process lives
     GPU memory used/free/total (MiB): 1004 / 80146 / 81151
------------------
     ethr =  7.12E-10,  avg # of iterations =  1.9
 
     Magnetic moment per site  (integrated on atomic sphere of radius R)
     atom   1 (R=0.276)  charge= 14.0559  magn=  0.2297
     atom   2 (R=0.276)  charge=  5.1669  magn=  0.0177
     atom   3 (R=0.276)  charge=  5.1882  magn=  0.0144
     atom   4 (R=0.399)  charge=  2.2535  magn= -0.0513

     total cpu time spent up to now is       27.0 secs

     End of self-consistent calculation

 ------ SPIN UP ------------


          k = 0.0000 0.0000 0.0000 (  2553 PWs)   bands (ev):

   -88.7404 -52.0191 -51.9531 -51.9531 -41.0955 -13.3575 -11.3786   0.1746
     1.2522   1.2522   3.6707   4.8483   4.8483   5.3084   5.3084   5.6718
     7.0627   9.1774   9.1774  11.2046  14.9481  17.1781  22.0043  22.0044

     occupation numbers 
     1.0000   1.0000   1.0000   1.0000   1.0000   1.0000   1.0000   1.0000
     1.0000   1.0000   1.0000   1.0000   1.0000   1.0000   1.0000   1.0000
     0.0117   0.0000   0.0000   0.0000   0.0000   0.0000   0.0000   0.0000

          k = 0.0000 0.0000 0.1362 (  2534 PWs)   bands (ev):

   -88.7404 -52.0190 -51.9531 -51.9531 -41.0954 -13.3572 -11.3795   0.2448
     1.2522   1.2522   3.2796   4.8483   4.8483   5.3083   5.3083   6.2774
     7.0543   9.1776   9.1776  10.5437  15.7363  16.9766  21.7789  22.0189

     occupation numbers 
     1.0000   1.0000   1.0000   1.0000   1.0000   1.0000   1.0000   1.0000
     1.0000   1.0000   1.0000   1.0000   1.0000   1.0000   1.0000   1.0734
     0.0133   0.0000   0.0000   0.0000   0.0000   0.0000   0.0000   0.0000

          k = 0.0000 0.1443 0.0000 (  2529 PWs)   bands (ev):

   -88.7393 -52.0174 -51.9641 -51.9557 -41.0914 -13.1685 -11.3703   0.3920
     0.9686   1.3622   3.6875   4.1456   4.2175   5.6296   5.8125   5.8494
     7.2257   8.6471   9.0709  11.5552  15.5208  17.9025  20.1302  21.0380

     occupation numbers 
     1.0000   1.0000   1.0000   1.0000   1.0000   1.0000   1.0000   1.0000
     1.0000   1.0000   1.0000   1.0000   1.0000   1.0000   1.0003   1.0005
     0.0008   0.0000   0.0000   0.0000   0.0000   0.0000   0.0000   0.0000

          k = 0.0000 0.1443 0.1362 (  2537 PWs)   bands (ev):

   -88.7393 -52.0173 -51.9642 -51.9557 -41.0914 -13.1682 -11.3712   0.4536
     0.9561   1.3622   3.6697   3.8207   4.2176   5.6089   5.8495   6.3571
     7.1022   8.8138   9.0704  10.9667  16.2856  17.5225  20.0865  21.0332

     occupation numbers 
     1.0000   1.0000   1.0000   1.0000   1.0000   1.0000   1.0000   1.0000
     1.0000   1.0000   1.0000   1.0000   1.0000   1.0000   1.0005   1.0822
     0.0064   0.0000   0.0000   0.0000   0.0000   0.0000   0.0000   0.0000

          k = 0.0000 0.2887 0.0000 (  2521 PWs)   bands (ev):

   -88.7367 -52.0132 -51.9911 -51.9620 -41.0816 -12.6734 -11.3617   0.5144
     1.0268   1.6149   2.1558   3.5889   4.5232   5.7077   6.1594   6.1741
     7.2742   8.2284   8.9375  12.2375  16.2459  17.5318  19.5540  19.5671

     occupation numbers 
     1.0000   1.0000   1.0000   1.0000   1.0000   1.0000   1.0000   1.0000
     1.0000   1.0000   1.0000   1.0000   1.0000   1.0000   1.0349   1.0394
     0.0003   0.0000   0.0000   0.0000   0.0000   0.0000   0.0000   0.0000

          k = 0.0000 0.2887 0.1362 (  2522 PWs)   bands (ev):

   -88.7367 -52.0132 -51.9912 -51.9620 -41.0816 -12.6730 -11.3624   0.4880
     1.0777   1.6147   2.1757   3.5894   4.3892   5.6323   6.1745   6.4500
     6.9062   8.6778   8.9359  11.8685  16.4282  17.8096  18.8613  19.5747

     occupation numbers 
     1.0000   1.0000   1.0000   1.0000   1.0000   1.0000   1.0000   1.0000
     1.0000   1.0000   1.0000   1.0000   1.0000   1.0000   1.0395   1.0290
     0.0859   0.0000   0.0000   0.0000   0.0000   0.0000   0.0000   0.0000

          k = 0.0000 0.4330 0.0000 (  2498 PWs)   bands (ev):

   -88.7341 -52.0184 -52.0087 -51.9683 -41.0717 -12.0887 -11.3922   0.0354
     1.0651   1.7939   2.0834   3.3456   3.9460   5.6222   6.0440   6.2533
     7.7724   8.6069   8.9752  12.9872  14.1745  17.9373  18.5555  18.9800

     occupation numbers 
     1.0000   1.0000   1.0000   1.0000   1.0000   1.0000   1.0000   1.0000
     1.0000   1.0000   1.0000   1.0000   1.0000   1.0000   1.0104   1.0661
     0.0000   0.0000   0.0000   0.0000   0.0000   0.0000   0.0000   0.0000

          k = 0.0000 0.4330 0.1362 (  2508 PWs)   bands (ev):

   -88.7341 -52.0185 -52.0088 -51.9683 -41.0718 -12.0885 -11.3925   0.0202
     1.0624   1.7934   2.1109   3.3468   4.0021   5.5775   6.0442   6.2777
     7.4328   8.9653   8.9723  12.9860  13.9850  18.4248  18.5778  18.8221

     occupation numbers 
     1.0000   1.0000   1.0000   1.0000   1.0000   1.0000   1.0000   1.0000
     1.0000   1.0000   1.0000   1.0000   1.0000   1.0000   1.0105   1.0735
     0.0000   0.0000   0.0000   0.0000   0.0000   0.0000   0.0000   0.0000

          k = 0.0000-0.5774 0.0000 (  2514 PWs)   bands (ev):

   -88.7331 -52.0295 -52.0073 -51.9710 -41.0677 -11.7673 -11.4644  -0.3816
     1.1866   1.8210   2.3865   3.3593   3.5224   5.4667   5.8923   6.2179
     8.4688   8.6969   9.0278  12.5693  14.2429  16.7837  18.2053  18.9961

     occupation numbers 
     1.0000   1.0000   1.0000   1.0000   1.0000   1.0000   1.0000   1.0000
     1.0000   1.0000   1.0000   1.0000   1.0000   1.0000   1.0012   1.0540
     0.0000   0.0000   0.0000   0.0000   0.0000   0.0000   0.0000   0.0000

          k = 0.0000-0.5774 0.1362 (  2506 PWs)   bands (ev):

   -88.7331 -52.0295 -52.0072 -51.9710 -41.0677 -11.7672 -11.4644  -0.3908
     1.1845   1.8204   2.3706   3.3605   3.6159   5.4407   5.8924   6.1991
     8.1571   8.9796   9.0250  12.4437  14.5543  16.6455  18.2327  19.0239

     occupation numbers 
     1.0000   1.0000   1.0000   1.0000   1.0000   1.0000   1.0000   1.0000
     1.0000   1.0000   1.0000   1.0000   1.0000   1.0000   1.0012   1.0476
     0.0000   0.0000   0.0000   0.0000   0.0000   0.0000   0.0000   0.0000

          k = 0.1250 0.2165 0.0000 (  2525 PWs)   bands (ev):

   -88.7375 -52.0144 -51.9820 -51.9614 -41.0845 -12.8260 -11.3612   0.6052
     0.8949   1.4887   2.7122   3.4518   4.5520   5.7571   6.0596   6.1702
     7.3245   8.2120   8.8886  12.0537  16.3861  18.0640  18.9400  19.4856

     occupation numbers 
     1.0000   1.0000   1.0000   1.0000   1.0000   1.0000   1.0000   1.0000
     1.0000   1.0000   1.0000   1.0000   1.0000   1.0001   1.0126   1.0381
     0.0001   0.0000   0.0000   0.0000   0.0000   0.0000   0.0000   0.0000

          k = 0.1250 0.2165 0.1362 (  2531 PWs)   bands (ev):

   -88.7375 -52.0144 -51.9820 -51.9615 -41.0845 -12.8256 -11.3620   0.5933
     0.9434   1.4900   2.7234   3.4509   4.3065   5.7738   6.0630   6.4145
     7.1925   8.4985   8.8282  11.7286  16.8406  18.0981  18.3109  19.6961

     occupation numbers 
     1.0000   1.0000   1.0000   1.0000   1.0000   1.0000   1.0000   1.0000
     1.0000   1.0000   1.0000   1.0000   1.0000   1.0001   1.0131   1.0602
     0.0014   0.0000   0.0000   0.0000   0.0000   0.0000   0.0000   0.0000

          k = 0.1250 0.3608 0.0000 (  2516 PWs)   bands (ev):

   -88.7349 -52.0104 -52.0061 -51.9705 -41.0747 -12.2847 -11.3658   0.4492
     1.0236   1.6984   2.0197   2.9499   4.3275   5.7719   6.1487   6.3509
     7.4946   8.3464   8.8807  12.8266  15.0622  17.1145  18.7314  20.1562

     occupation numbers 
     1.0000   1.0000   1.0000   1.0000   1.0000   1.0000   1.0000   1.0000
     1.0000   1.0000   1.0000   1.0000   1.0000   1.0001   1.0317   1.0829
     0.0000   0.0000   0.0000   0.0000   0.0000   0.0000   0.0000   0.0000

          k = 0.1250 0.3608 0.1362 (  2518 PWs)   bands (ev):

   -88.7349 -52.0105 -52.0061 -51.9705 -41.0747 -12.2844 -11.3663   0.4270
     1.0253   1.7300   2.0404   2.9504   4.3040   5.7617   6.1423   6.3370
     7.3283   8.6355   8.8455  12.7396  14.9913  17.0943  18.9407  20.0443

     occupation numbers 
     1.0000   1.0000   1.0000   1.0000   1.0000   1.0000   1.0000   1.0000
     1.0000   1.0000   1.0000   1.0000   1.0000   1.0001   1.0300   1.0833
     0.0001   0.0000   0.0000   0.0000   0.0000   0.0000   0.0000   0.0000

          k = 0.1250 0.5052 0.0000 (  2507 PWs)   bands (ev):

   -88.7331 -52.0234 -52.0072 -51.9772 -41.0677 -11.8208 -11.4131  -0.0747
     0.9748   1.9159   2.3712   2.8412   3.6406   5.6052   5.9796   6.3386
     8.1914   8.5970   9.1483  12.6661  14.1766  16.9203  17.5722  19.4581

     occupation numbers 
     1.0000   1.0000   1.0000   1.0000   1.0000   1.0000   1.0000   1.0000
     1.0000   1.0000   1.0000   1.0000   1.0000   1.0000   1.0044   1.0833
     0.0000   0.0000   0.0000   0.0000   0.0000   0.0000   0.0000   0.0000

          k = 0.1250 0.5052 0.1362 (  2512 PWs)   bands (ev):

   -88.7331 -52.0234 -52.0073 -51.9772 -41.0677 -11.8208 -11.4131  -0.0848
     0.9694   1.9180   2.3705   2.8438   3.7042   5.5852   5.9849   6.3123
     8.0641   8.7425   9.1035  12.6150  14.2179  16.8321  17.7414  19.6214

     occupation numbers 
     1.0000   1.0000   1.0000   1.0000   1.0000   1.0000   1.0000   1.0000
     1.0000   1.0000   1.0000   1.0000   1.0000   1.0000   1.0048   1.0812
     0.0000   0.0000   0.0000   0.0000   0.0000   0.0000   0.0000   0.0000

          k = 0.2500 0.4330 0.0000 (  2509 PWs)   bands (ev):

   -88.7331 -52.0148 -52.0073 -51.9857 -41.0677 -11.8634 -11.3728   0.4824
     0.6995   1.7269   2.2876   2.5488   3.7699   5.7027   6.0398   6.4898
     7.9074   8.4899   9.2593  12.8191  14.0610  16.1495  19.0514  19.9076

     occupation numbers 
     1.0000   1.0000   1.0000   1.0000   1.0000   1.0000   1.0000   1.0000
     1.0000   1.0000   1.0000   1.0000   1.0000   1.0000   1.0099   0.9759
     0.0000   0.0000   0.0000   0.0000   0.0000   0.0000   0.0000   0.0000

          k = 0.2500 0.4330 0.1362 (  2519 PWs)   bands (ev):

   -88.7331 -52.0149 -52.0074 -51.9857 -41.0677 -11.8631 -11.3731   0.4758
     0.6865   1.7255   2.3181   2.5602   3.7647   5.7107   6.0472   6.4208
     8.1069   8.4505   9.0876  12.8129  14.1342  16.0641  18.8773  20.0145

     occupation numbers 
     1.0000   1.0000   1.0000   1.0000   1.0000   1.0000   1.0000   1.0000
     1.0000   1.0000   1.0000   1.0000   1.0000   1.0000   1.0108   1.0558
     0.0000   0.0000   0.0000   0.0000   0.0000   0.0000   0.0000   0.0000

          k = 0.2500 0.5774 0.0000 (  2514 PWs)   bands (ev):

   -88.7323 -52.0155 -52.0061 -51.9949 -41.0649 -11.6790 -11.3747   0.3398
     0.7911   1.4854   2.4618   2.7922   3.2689   5.4781   6.2179   6.4397
     8.2333   8.4184   9.9142  11.5059  14.8986  15.9197  17.8389  19.6827

     occupation numbers 
     1.0000   1.0000   1.0000   1.0000   1.0000   1.0000   1.0000   1.0000
     1.0000   1.0000   1.0000   1.0000   1.0000   1.0000   1.0540   1.0396
     0.0000   0.0000   0.0000   0.0000   0.0000   0.0000   0.0000   0.0000

          k = 0.2500 0.5774 0.1362 (  2508 PWs)   bands (ev):

   -88.7323 -52.0154 -52.0061 -51.9949 -41.0648 -11.6790 -11.3747   0.3323
     0.7852   1.4803   2.4748   2.7946   3.2894   5.4754   6.2209   6.4095
     8.3652   8.4725   9.7228  11.3916  14.9832  15.8843  17.9160  19.5682

     occupation numbers 
     1.0000   1.0000   1.0000   1.0000   1.0000   1.0000   1.0000   1.0000
     1.0000   1.0000   1.0000   1.0000   1.0000   1.0000   1.0551   1.0634
     0.0000   0.0000   0.0000   0.0000   0.0000   0.0000   0.0000   0.0000

          k = 0.0000-0.1443 0.1362 (  2537 PWs)   bands (ev):

   -88.7393 -52.0173 -51.9642 -51.9557 -41.0914 -13.1681 -11.3712   0.4570
     0.9545   1.3623   3.6141   3.8731   4.2172   5.6097   5.8494   6.3302
     7.1915   8.6926   9.0714  11.0509  16.2058  17.5508  20.2467  21.0442

     occupation numbers 
     1.0000   1.0000   1.0000   1.0000   1.0000   1.0000   1.0000   1.0000
     1.0000   1.0000   1.0000   1.0000   1.0000   1.0000   1.0005   1.0831
     0.0014   0.0000   0.0000   0.0000   0.0000   0.0000   0.0000   0.0000

          k = 0.0000-0.2887 0.1362 (  2522 PWs)   bands (ev):

   -88.7367 -52.0132 -51.9912 -51.9620 -41.0816 -12.6729 -11.3626   0.5015
     1.0696   1.6150   2.1766   3.5886   4.3226   5.6791   6.1743   6.3181
     7.3639   8.2236   8.9375  12.1376  16.1349  18.0246  18.9209  19.5743

     occupation numbers 
     1.0000   1.0000   1.0000   1.0000   1.0000   1.0000   1.0000   1.0000
     1.0000   1.0000   1.0000   1.0000   1.0000   1.0000   1.0394   1.0820
     0.0000   0.0000   0.0000   0.0000   0.0000   0.0000   0.0000   0.0000

          k = 0.0000-0.4330 0.1362 (  2508 PWs)   bands (ev):

   -88.7341 -52.0184 -52.0088 -51.9683 -41.0718 -12.0881 -11.3929   0.0247
     1.0582   1.7938   2.1401   3.3460   3.9139   5.6176   6.0442   6.2176
     7.8196   8.5473   8.9735  13.2116  14.1028  17.7016  18.5753  18.9313

     occupation numbers 
     1.0000   1.0000   1.0000   1.0000   1.0000   1.0000   1.0000   1.0000
     1.0000   1.0000   1.0000   1.0000   1.0000   1.0000   1.0105   1.0540
     0.0000   0.0000   0.0000   0.0000   0.0000   0.0000   0.0000   0.0000

          k =-0.1250-0.3608 0.1362 (  2518 PWs)   bands (ev):

   -88.7349 -52.0104 -52.0061 -51.9705 -41.0747 -12.2842 -11.3665   0.4333
     1.0215   1.7274   2.0512   2.9504   4.2525   5.8046   6.1762   6.2323
     7.6340   8.3269   8.8491  12.9132  14.9585  17.0564  18.8777  19.8872

     occupation numbers 
     1.0000   1.0000   1.0000   1.0000   1.0000   1.0000   1.0000   1.0000
     1.0000   1.0000   1.0000   1.0000   1.0000   1.0002   1.0400   1.0590
     0.0000   0.0000   0.0000   0.0000   0.0000   0.0000   0.0000   0.0000

          k =-0.1250-0.5052 0.1362 (  2512 PWs)   bands (ev):

   -88.7331 -52.0234 -52.0073 -51.9772 -41.0677 -11.8205 -11.4134  -0.0837
     0.9691   1.9146   2.3934   2.8473   3.6589   5.6043   5.9847   6.2893
     8.2774   8.5960   9.0333  12.5867  14.4708  16.7406  17.4677  19.7048

     occupation numbers 
     1.0000   1.0000   1.0000   1.0000   1.0000   1.0000   1.0000   1.0000
     1.0000   1.0000   1.0000   1.0000   1.0000   1.0000   1.0048   1.0765
     0.0000   0.0000   0.0000   0.0000   0.0000   0.0000   0.0000   0.0000

 ------ SPIN DOWN ----------


          k = 0.0000 0.0000 0.0000 (  2553 PWs)   bands (ev):

   -88.4613 -51.7079 -51.7079 -51.6934 -41.1405 -13.3293 -11.3479   0.2377
     1.3262   1.3262   3.7072   4.8710   4.8710   5.4511   5.5565   5.5565
     7.1818   9.2889   9.2889  11.1077  14.9301  17.1895  21.9008  21.9009

     occupation numbers 
     1.0000   1.0000   1.0000   1.0000   1.0000   1.0000   1.0000   1.0000
     1.0000   1.0000   1.0000   1.0000   1.0000   1.0000   1.0000   1.0000
     0.0017   0.0000   0.0000   0.0000   0.0000   0.0000   0.0000   0.0000

          k = 0.0000 0.0000 0.1362 (  2534 PWs)   bands (ev):

   -88.4613 -51.7079 -51.7079 -51.6933 -41.1404 -13.3288 -11.3489   0.3241
     1.3263   1.3263   3.2162   4.8710   4.8710   5.5565   5.5565   6.2639
     7.0403   9.2892   9.2892  10.4578  15.7304  16.9818  21.7138  21.9148

     occupation numbers 
     1.0000   1.0000   1.0000   1.0000   1.0000   1.0000   1.0000   1.0000
     1.0000   1.0000   1.0000   1.0000   1.0000   1.0000   1.0000   1.0695
     0.0162   0.0000   0.0000   0.0000   0.0000   0.0000   0.0000   0.0000

          k = 0.0000 0.1443 0.0000 (  2529 PWs)   bands (ev):

   -88.4602 -51.7191 -51.7106 -51.6916 -41.1362 -13.1402 -11.3394   0.4545
     1.0371   1.4337   3.7435   4.1857   4.2967   5.6429   5.8511   6.0482
     7.2856   8.7500   9.1803  11.4664  15.5039  17.9128  19.9596  20.8664

     occupation numbers 
     1.0000   1.0000   1.0000   1.0000   1.0000   1.0000   1.0000   1.0000
     1.0000   1.0000   1.0000   1.0000   1.0000   1.0000   1.0006   1.0110
     0.0002   0.0000   0.0000   0.0000   0.0000   0.0000   0.0000   0.0000

          k = 0.0000 0.1443 0.1362 (  2537 PWs)   bands (ev):

   -88.4602 -51.7192 -51.7106 -51.6916 -41.1363 -13.1398 -11.3404   0.5291
     1.0224   1.4337   3.6827   3.8137   4.2968   5.8138   6.0483   6.3896
     7.0654   8.9071   9.1799  10.8791  16.2778  17.5280  19.9094  20.8621

     occupation numbers 
     1.0000   1.0000   1.0000   1.0000   1.0000   1.0000   1.0000   1.0000
     1.0000   1.0000   1.0000   1.0000   1.0000   1.0003   1.0110   1.0737
     0.0113   0.0000   0.0000   0.0000   0.0000   0.0000   0.0000   0.0000

          k = 0.0000 0.2887 0.0000 (  2521 PWs)   bands (ev):

   -88.4576 -51.7465 -51.7170 -51.6873 -41.1262 -12.6449 -11.3303   0.5723
     1.0897   1.6812   2.2093   3.6621   4.5657   5.9355   6.1652   6.3937
     7.2110   8.2828   9.0435  12.1439  16.0736  17.4031  19.3461  19.5640

     occupation numbers 
     1.0000   1.0000   1.0000   1.0000   1.0000   1.0000   1.0000   1.0000
     1.0000   1.0000   1.0000   1.0000   1.0000   1.0023   1.0366   1.0719
     0.0010   0.0000   0.0000   0.0000   0.0000   0.0000   0.0000   0.0000

          k = 0.0000 0.2887 0.1362 (  2522 PWs)   bands (ev):

   -88.4576 -51.7466 -51.7169 -51.6873 -41.1262 -12.6445 -11.3310   0.5408
     1.1506   1.6810   2.2365   3.6627   4.3836   5.8145   6.3941   6.6014
     6.8306   8.6864   9.0419  11.7699  16.1997  17.7655  18.8220  19.3540

     occupation numbers 
     1.0000   1.0000   1.0000   1.0000   1.0000   1.0000   1.0000   1.0000
     1.0000   1.0000   1.0000   1.0000   1.0000   1.0003   1.0717   0.7324
     0.1797   0.0000   0.0000   0.0000   0.0000   0.0000   0.0000   0.0000

          k = 0.0000 0.4330 0.0000 (  2498 PWs)   bands (ev):

   -88.4549 -51.7739 -51.7233 -51.6830 -41.1161 -12.0602 -11.3602   0.0892
     1.1023   1.8613   2.1559   3.3904   3.9863   5.8872   6.2948   6.5176
     7.4987   8.6011   9.0839  12.7899  13.9529  17.9050  18.3153  18.9101

     occupation numbers 
     1.0000   1.0000   1.0000   1.0000   1.0000   1.0000   1.0000   1.0000
     1.0000   1.0000   1.0000   1.0000   1.0000   1.0011   1.0778   0.9271
     0.0000   0.0000   0.0000   0.0000   0.0000   0.0000   0.0000   0.0000

          k = 0.0000 0.4330 0.1362 (  2508 PWs)   bands (ev):

   -88.4549 -51.7740 -51.7233 -51.6830 -41.1161 -12.0600 -11.3605   0.0720
     1.0987   1.8607   2.1903   3.3917   4.0510   5.8146   6.2950   6.5624
     7.1916   8.9244   9.0808  12.8005  13.7553  18.3372  18.3640  18.8130

     occupation numbers 
     1.0000   1.0000   1.0000   1.0000   1.0000   1.0000   1.0000   1.0000
     1.0000   1.0000   1.0000   1.0000   1.0000   1.0003   1.0779   0.8306
     0.0014   0.0000   0.0000   0.0000   0.0000   0.0000   0.0000   0.0000

          k = 0.0000-0.5774 0.0000 (  2514 PWs)   bands (ev):

   -88.4538 -51.7853 -51.7261 -51.6814 -41.1120 -11.7396 -11.4314  -0.3309
     1.2142   1.8919   2.4756   3.3823   3.5454   5.7643   6.1614   6.4921
     8.1747   8.6823   9.1393  12.2071  14.2012  16.6703  17.9601  18.9942

     occupation numbers 
     1.0000   1.0000   1.0000   1.0000   1.0000   1.0000   1.0000   1.0000
     1.0000   1.0000   1.0000   1.0000   1.0000   1.0001   1.0355   0.9721
     0.0000   0.0000   0.0000   0.0000   0.0000   0.0000   0.0000   0.0000

          k = 0.0000-0.5774 0.1362 (  2506 PWs)   bands (ev):

   -88.4538 -51.7852 -51.7261 -51.6813 -41.1120 -11.7395 -11.4314  -0.3412
     1.2113   1.8912   2.4568   3.3835   3.6543   5.7254   6.1614   6.4700
     7.9242   8.9144   9.1363  12.0894  14.5075  16.5374  17.9866  18.9737

     occupation numbers 
     1.0000   1.0000   1.0000   1.0000   1.0000   1.0000   1.0000   1.0000
     1.0000   1.0000   1.0000   1.0000   1.0000   1.0000   1.0355   1.0048
     0.0000   0.0000   0.0000   0.0000   0.0000   0.0000   0.0000   0.0000

          k = 0.1250 0.2165 0.0000 (  2525 PWs)   bands (ev):

   -88.4583 -51.7372 -51.7164 -51.6886 -41.1292 -12.7976 -11.3299   0.6624
     0.9631   1.5546   2.7629   3.5326   4.5926   5.9364   6.0768   6.3564
     7.2823   8.3186   8.9804  11.9642  16.3603  17.7508  18.8408  19.4485

     occupation numbers 
     1.0000   1.0000   1.0000   1.0000   1.0000   1.0000   1.0000   1.0000
     1.0000   1.0000   1.0000   1.0000   1.0000   1.0023   1.0153   1.0823
     0.0002   0.0000   0.0000   0.0000   0.0000   0.0000   0.0000   0.0000

          k = 0.1250 0.2165 0.1362 (  2531 PWs)   bands (ev):

   -88.4583 -51.7372 -51.7165 -51.6886 -41.1292 -12.7972 -11.3309   0.6472
     1.0227   1.5564   2.7793   3.5311   4.2750   6.0231   6.1585   6.6125
     7.0897   8.5677   8.9189  11.6381  16.8028  17.7837  18.2803  19.5952

     occupation numbers 
     1.0000   1.0000   1.0000   1.0000   1.0000   1.0000   1.0000   1.0000
     1.0000   1.0000   1.0000   1.0000   1.0000   1.0080   1.0346   0.7027
     0.0078   0.0000   0.0000   0.0000   0.0000   0.0000   0.0000   0.0000

          k = 0.1250 0.3608 0.0000 (  2516 PWs)   bands (ev):

   -88.4557 -51.7618 -51.7257 -51.6843 -41.1191 -12.2563 -11.3339   0.5050
     1.0714   1.7633   2.0793   3.0142   4.3726   6.0249   6.4086   6.5498
     7.2394   8.4272   8.9249  12.7125  14.7223  16.9793  18.6890  20.0869

     occupation numbers 
     1.0000   1.0000   1.0000   1.0000   1.0000   1.0000   1.0000   1.0000
     1.0000   1.0000   1.0000   1.0000   1.0000   1.0082   1.0639   0.8599
     0.0006   0.0000   0.0000   0.0000   0.0000   0.0000   0.0000   0.0000

          k = 0.1250 0.3608 0.1362 (  2518 PWs)   bands (ev):

   -88.4557 -51.7618 -51.7256 -51.6843 -41.1191 -12.2558 -11.3345   0.4790
     1.0733   1.7995   2.1081   3.0149   4.3391   5.9911   6.3468   6.5980
     7.1328   8.7420   8.8250  12.6294  14.6461  16.9538  18.9361  19.9757

     occupation numbers 
     1.0000   1.0000   1.0000   1.0000   1.0000   1.0000   1.0000   1.0000
     1.0000   1.0000   1.0000   1.0000   1.0000   1.0052   1.0831   0.7412
     0.0039   0.0000   0.0000   0.0000   0.0000   0.0000   0.0000   0.0000

          k = 0.1250 0.5052 0.0000 (  2507 PWs)   bands (ev):

   -88.4538 -51.7791 -51.7323 -51.6812 -41.1120 -11.7927 -11.3804  -0.0241
     1.0162   1.9739   2.4449   2.8840   3.6788   5.9246   6.2407   6.5787
     7.9867   8.6764   9.0780  12.2835  14.1012  16.7494  17.4622  19.4515

     occupation numbers 
     1.0000   1.0000   1.0000   1.0000   1.0000   1.0000   1.0000   1.0000
     1.0000   1.0000   1.0000   1.0000   1.0000   1.0019   1.0619   0.7908
     0.0000   0.0000   0.0000   0.0000   0.0000   0.0000   0.0000   0.0000

          k = 0.1250 0.5052 0.1362 (  2512 PWs)   bands (ev):

   -88.4538 -51.7791 -51.7323 -51.6813 -41.1120 -11.7927 -11.3805  -0.0352
     1.0098   1.9763   2.4444   2.8870   3.7529   5.8913   6.2494   6.5447
     7.8810   8.8469   8.9970  12.2330  14.1441  16.6656  17.6342  19.6419

     occupation numbers 
     1.0000   1.0000   1.0000   1.0000   1.0000   1.0000   1.0000   1.0000
     1.0000   1.0000   1.0000   1.0000   1.0000   1.0011   1.0648   0.8712
     0.0000   0.0000   0.0000   0.0000   0.0000   0.0000   0.0000   0.0000

          k = 0.2500 0.4330 0.0000 (  2509 PWs)   bands (ev):

   -88.4538 -51.7705 -51.7410 -51.6813 -41.1120 -11.8351 -11.3403   0.5310
     0.7516   1.7684   2.3507   2.6117   3.8204   6.0395   6.2956   6.7077
     7.7588   8.6078   9.0931  12.4012  13.9522  16.0347  18.9499  19.9182

     occupation numbers 
     1.0000   1.0000   1.0000   1.0000   1.0000   1.0000   1.0000   1.0000
     1.0000   1.0000   1.0000   1.0000   1.0000   1.0099   1.0780   0.4428
     0.0000   0.0000   0.0000   0.0000   0.0000   0.0000   0.0000   0.0000

          k = 0.2500 0.4330 0.1362 (  2519 PWs)   bands (ev):

   -88.4538 -51.7706 -51.7411 -51.6813 -41.1120 -11.8348 -11.3406   0.5238
     0.7364   1.7670   2.3856   2.6270   3.8127   6.0504   6.3047   6.6058
     7.9794   8.5591   8.9371  12.3887  14.0298  15.9559  18.8036  19.9347

     occupation numbers 
     1.0000   1.0000   1.0000   1.0000   1.0000   1.0000   1.0000   1.0000
     1.0000   1.0000   1.0000   1.0000   1.0000   1.0113   1.0799   0.7205
     0.0000   0.0000   0.0000   0.0000   0.0000   0.0000   0.0000   0.0000

          k = 0.2500 0.5774 0.0000 (  2514 PWs)   bands (ev):

   -88.4531 -51.7711 -51.7503 -51.6801 -41.1091 -11.6512 -11.3415   0.3890
     0.8404   1.5262   2.5132   2.8610   3.3122   5.8439   6.4578   6.6724
     8.2420   8.5200   9.5810  11.0906  14.7784  15.8496  17.7075  19.5766

     occupation numbers 
     1.0000   1.0000   1.0000   1.0000   1.0000   1.0000   1.0000   1.0000
     1.0000   1.0000   1.0000   1.0000   1.0000   1.0005   1.0201   0.5378
     0.0000   0.0000   0.0000   0.0000   0.0000   0.0000   0.0000   0.0000

          k = 0.2500 0.5774 0.1362 (  2508 PWs)   bands (ev):

   -88.4530 -51.7711 -51.7502 -51.6801 -41.1090 -11.6511 -11.3415   0.3807
     0.8337   1.5206   2.5277   2.8632   3.3360   5.8401   6.4627   6.6334
     8.4274   8.5898   9.3397  10.9648  14.8550  15.8264  17.7938  19.4808

     occupation numbers 
     1.0000   1.0000   1.0000   1.0000   1.0000   1.0000   1.0000   1.0000
     1.0000   1.0000   1.0000   1.0000   1.0000   1.0005   1.0142   0.6456
     0.0000   0.0000   0.0000   0.0000   0.0000   0.0000   0.0000   0.0000

          k = 0.0000-0.1443 0.1362 (  2537 PWs)   bands (ev):

   -88.4602 -51.7192 -51.7106 -51.6916 -41.1363 -13.1398 -11.3405   0.5332
     1.0205   1.4338   3.6069   3.8877   4.2963   5.8056   6.0482   6.3834
     7.1304   8.7924   9.1809  10.9679  16.1937  17.5591  20.0696  20.8721

     occupation numbers 
     1.0000   1.0000   1.0000   1.0000   1.0000   1.0000   1.0000   1.0000
     1.0000   1.0000   1.0000   1.0000   1.0000   1.0002   1.0110   1.0760
     0.0041   0.0000   0.0000   0.0000   0.0000   0.0000   0.0000   0.0000

          k = 0.0000-0.2887 0.1362 (  2522 PWs)   bands (ev):

   -88.4576 -51.7466 -51.7169 -51.6873 -41.1262 -12.6444 -11.3313   0.5557
     1.1417   1.6813   2.2377   3.6618   4.3052   5.8751   6.3939   6.4744
     7.2367   8.2711   9.0436  12.0433  15.9527  17.9083  18.9009  19.3529

     occupation numbers 
     1.0000   1.0000   1.0000   1.0000   1.0000   1.0000   1.0000   1.0000
     1.0000   1.0000   1.0000   1.0000   1.0000   1.0009   1.0718   0.9987
     0.0006   0.0000   0.0000   0.0000   0.0000   0.0000   0.0000   0.0000

          k = 0.0000-0.4330 0.1362 (  2508 PWs)   bands (ev):

   -88.4549 -51.7740 -51.7233 -51.6831 -41.1161 -12.0596 -11.3610   0.0768
     1.0940   1.8611   2.2266   3.3908   3.9431   5.8662   6.2950   6.4713
     7.5640   8.5540   9.0821  12.9699  13.9330  17.6460  18.3344  18.8561

     occupation numbers 
     1.0000   1.0000   1.0000   1.0000   1.0000   1.0000   1.0000   1.0000
     1.0000   1.0000   1.0000   1.0000   1.0000   1.0007   1.0779   1.0030
     0.0000   0.0000   0.0000   0.0000   0.0000   0.0000   0.0000   0.0000

          k =-0.1250-0.3608 0.1362 (  2518 PWs)   bands (ev):

   -88.4557 -51.7618 -51.7256 -51.6843 -41.1191 -12.2557 -11.3347   0.4857
     1.0689   1.7961   2.1222   3.0147   4.2755   6.0658   6.3314   6.4938
     7.4211   8.4055   8.9000  12.7995  14.6270  16.9055  18.8535  19.8423

     occupation numbers 
     1.0000   1.0000   1.0000   1.0000   1.0000   1.0000   1.0000   1.0000
     1.0000   1.0000   1.0000   1.0000   1.0000   1.0135   1.0831   0.9694
     0.0000   0.0000   0.0000   0.0000   0.0000   0.0000   0.0000   0.0000

          k =-0.1250-0.5052 0.1362 (  2512 PWs)   bands (ev):

   -88.4538 -51.7791 -51.7323 -51.6813 -41.1120 -11.7924 -11.3808  -0.0341
     1.0095   1.9723   2.4719   2.8917   3.6984   5.9181   6.2458   6.5133
     8.0680   8.6667   8.9980  12.2043  14.3933  16.5847  17.3592  19.6768

     occupation numbers 
     1.0000   1.0000   1.0000   1.0000   1.0000   1.0000   1.0000   1.0000
     1.0000   1.0000   1.0000   1.0000   1.0000   1.0018   1.0636   0.9353
     0.0000   0.0000   0.0000   0.0000   0.0000   0.0000   0.0000   0.0000

     the Fermi energy is     6.7242 ev

!    total energy              =    -475.06022163 Ry
     total all-electron energy =     -3102.932359 Ry
     estimated scf accuracy    <       0.00000004 Ry
     smearing contrib. (-TS)   =       0.00592118 Ry
     internal energy E=F+TS    =    -475.06614282 Ry

     The total energy is F=E-TS. E is the sum of the following terms:
     one-electron contribution =    -480.27267282 Ry
     hartree contribution      =     252.14386520 Ry
     xc contribution           =     -49.04692521 Ry
     ewald contribution        =     -91.19715491 Ry
     one-center paw contrib.   =    -106.69325508 Ry
      -> PAW hartree energy AE =     279.89523599 Ry
      -> PAW hartree energy PS =    -278.53506455 Ry
      -> PAW xc energy AE      =    -154.26003930 Ry
      -> PAW xc energy PS      =      46.20661279 Ry
      -> total E_H with PAW    =     253.50403664 Ry
      -> total E_XC with PAW   =    -157.10035172 Ry

     total magnetization       =     0.17 Bohr mag/cell
     absolute magnetization    =     0.40 Bohr mag/cell

     convergence has been achieved in  18 iterations

     Forces acting on atoms (cartesian axes, Ry/au):

     atom    1 type  1   force =     0.00000000    0.00000000    0.02263827
     atom    2 type  2   force =     0.00000000    0.00000000    0.01478446
     atom    3 type  2   force =     0.00000000    0.00000000   -0.05701603
     atom    4 type  3   force =     0.00000000    0.00000000    0.01959331
     The non-local contrib.  to forces
     atom    1 type  1   force =     0.00000000    0.00000000    0.02650750
     atom    2 type  2   force =     0.00000000    0.00000000   -0.96080017
     atom    3 type  2   force =     0.00000000    0.00000000    0.63327206
     atom    4 type  3   force =     0.00000000    0.00000000   -0.00505530
     The ionic contribution  to forces
     atom    1 type  1   force =    -0.00000000   -0.00000000    2.30327320
     atom    2 type  2   force =     0.00000000   -0.00000000   33.39387551
     atom    3 type  2   force =    -0.00000000    0.00000000  -31.86982668
     atom    4 type  3   force =     0.00000000   -0.00000000   -3.82732203
     The local contribution  to forces
     atom    1 type  1   force =    -0.00000000   -0.00000000   -2.30660088
     atom    2 type  2   force =     0.00000001   -0.00000001  -32.42639146
     atom    3 type  2   force =    -0.00000001    0.00000001   31.18442071
     atom    4 type  3   force =    -0.00000000   -0.00000000    3.85193974
     The core correction contribution to forces
     atom    1 type  1   force =    -0.00000000    0.00000000   -0.00038712
     atom    2 type  2   force =    -0.00000000    0.00000000    0.00791600
     atom    3 type  2   force =     0.00000000   -0.00000000   -0.00466599
     atom    4 type  3   force =     0.00000000    0.00000000    0.00000000
     The Hubbard contrib.    to forces
     atom    1 type  1   force =     0.00000000    0.00000000    0.00000000
     atom    2 type  2   force =     0.00000000    0.00000000    0.00000000
     atom    3 type  2   force =     0.00000000    0.00000000    0.00000000
     atom    4 type  3   force =     0.00000000    0.00000000    0.00000000
     The SCF correction term to forces
     atom    1 type  1   force =     0.00000000   -0.00000000   -0.00017467
     atom    2 type  2   force =     0.00000000   -0.00000000    0.00016435
     atom    3 type  2   force =    -0.00000000    0.00000000   -0.00023636
     atom    4 type  3   force =     0.00000000   -0.00000000    0.00001067

     Total force =     0.066074     Total SCF correction =     0.000337

     Writing all to output data dir ./out/pw.save/ :
     XML data file, charge density, pseudopotentials, collected wavefunctions
 
     init_run     :     12.93s CPU      3.16s WALL (       1 calls)
     electrons    :     91.35s CPU     23.45s WALL (       1 calls)
     forces       :      0.54s CPU      0.52s WALL (       1 calls)

     Called by init_run:
     wfcinit      :      0.26s CPU      0.36s WALL (       1 calls)
     wfcinit:atom :      0.04s CPU      0.04s WALL (      50 calls)
     wfcinit:wfcr :      0.17s CPU      0.24s WALL (      50 calls)
     potinit      :     12.17s CPU      2.28s WALL (       1 calls)
     hinit0       :      0.42s CPU      0.40s WALL (       1 calls)

     Called by electrons:
     c_bands      :     10.68s CPU     10.76s WALL (      18 calls)
     sum_band     :      1.94s CPU      1.96s WALL (      18 calls)
     v_of_rho     :      0.30s CPU      0.15s WALL (      19 calls)
     v_h          :      0.21s CPU      0.03s WALL (      19 calls)
     v_xc         :      0.09s CPU      0.12s WALL (      20 calls)
     newd         :      0.46s CPU      0.35s WALL (      19 calls)
                                        0.35s GPU  (      19 calls)
     PAW_pot      :     81.43s CPU     10.29s WALL (      19 calls)
     mix_rho      :      0.50s CPU      0.48s WALL (      18 calls)

     Called by c_bands:
     init_us_2    :      0.76s CPU      0.76s WALL (    1900 calls)
     cegterg      :      9.36s CPU      9.44s WALL (     900 calls)

     Called by sum_band:
     sum_band:wei :      0.02s CPU      0.02s WALL (      18 calls)
                                        0.02s GPU  (      18 calls)
     sum_band:loo :      1.19s CPU      1.21s WALL (      18 calls)
                                        1.21s GPU  (      18 calls)
     sum_band:buf :      0.12s CPU      0.14s WALL (     900 calls)
                                        0.13s GPU  (     900 calls)
     sum_band:ini :      0.36s CPU      0.37s WALL (     900 calls)
                                        0.36s GPU  (     900 calls)
     sum_band:cal :      0.03s CPU      0.05s WALL (     900 calls)
                                        0.04s GPU  (     900 calls)
     sum_band:bec :      0.19s CPU      0.22s WALL (     900 calls)
                                        0.20s GPU  (     900 calls)
     addusdens    :      0.61s CPU      0.62s WALL (      18 calls)
                                        0.62s GPU  (      18 calls)
     addusd:skk   :      0.00s CPU      0.00s WALL (      54 calls)
                                        0.00s GPU  (      54 calls)

     Called by *egterg:
     cdiaghg      :      3.07s CPU      3.23s WALL (    3970 calls)
                                        3.18s GPU  (    3970 calls)
     cegterg:over :      0.66s CPU      0.68s WALL (    3070 calls)
     cegterg:upda :      0.55s CPU      0.56s WALL (    3070 calls)
     cegterg:last :      0.11s CPU      0.11s WALL (    1752 calls)
     h_psi        :      3.42s CPU      3.49s WALL (    4020 calls)
                                        3.44s GPU  (    4020 calls)
     s_psi        :      0.63s CPU      0.65s WALL (    4020 calls)
     g_psi        :      0.02s CPU      0.07s WALL (    3070 calls)
                                        0.03s GPU  (    3070 calls)

     Called by h_psi:
     h_psi:calbec :      0.12s CPU      0.22s WALL (    4020 calls)
                                        0.17s GPU  (    4020 calls)
     vloc_psi     :      2.32s CPU      2.33s WALL (    4020 calls)
                                        2.28s GPU  (    4020 calls)
     add_vuspsi   :      0.56s CPU      0.66s WALL (    4020 calls)
                                        0.61s GPU  (    4020 calls)

     General routines
     calbec       :      0.13s CPU      0.16s WALL (    5120 calls)
     fft          :      3.49s CPU      0.88s WALL (     488 calls)
                                        0.02s GPU  (     450 calls)
     ffts         :      4.51s CPU      0.81s WALL (     623 calls)
                                        0.02s GPU  (     585 calls)
     fftw         :      0.24s CPU      0.79s WALL (   13540 calls)
                                        0.64s GPU  (   13540 calls)
     interpolate  :      8.11s CPU      1.67s WALL (      38 calls)
 
     Parallel routines

     PAW routines
     PAW_pot      :     81.43s CPU     10.29s WALL (      19 calls)
     PAW_symme    :      0.02s CPU      0.00s WALL (      37 calls)
 
     PWSCF        :   1m45.62s CPU     27.62s WALL

 
   This run was terminated on:   3:54: 9  12Jul2026            

=------------------------------------------------------------------------------=
   JOB DONE.
=------------------------------------------------------------------------------=
Warning: ieee_divide_by_zero is signaling
Warning: ieee_inexact is signaling
FORTRAN STOP
