
     Program PWSCF v.7.3.1 starts on 12Jul2026 at  3:35:19 

     This program is part of the open-source Quantum ESPRESSO suite
     for quantum simulation of materials; please cite
         "P. Giannozzi et al., J. Phys.:Condens. Matter 21 395502 (2009);
         "P. Giannozzi et al., J. Phys.:Condens. Matter 29 465901 (2017);
         "P. Giannozzi et al., J. Chem. Phys. 152 154105 (2020);
          URL http://www.quantum-espresso.org", 
     in publications or presentations arising from this work. More details at
     http://www.quantum-espresso.org/quote

     Parallel version (MPI & OpenMP), running on      14 processor cores
     Number of MPI processes:                 1
     Threads/MPI process:                    14

     MPI processes distributed on     1 nodes
     822286 MiB available memory on the printing compute node when the environment starts
 
     Reading input from pw.in

     Current dimensions of program PWSCF are:
     Max number of different atomic species (ntypx) = 10
     Max number of k-points (npk) =  40000
     Max angular momentum in pseudopotentials (lmaxx) =  4
     file Co.pbe-spn-kjpaw_psl.0.3.1.UPF: wavefunction(s)  3P 3D renormalized
     file O.pbe-n-kjpaw_psl.1.0.0.UPF: wavefunction(s)  2S 2P renormalized
     file Na.pbe-spn-kjpaw_psl.1.0.0.UPF: wavefunction(s)  2P renormalized

     Atomic positions and unit cell read from directory:
     ../Na_s3_c9.9_d0.75/out/pw.save/
 
 
     Subspace diagonalization in iterative solution of the eigenvalue problem:
     a serial algorithm will be used

 
     G-vector sticks info
     --------------------
     sticks:   dense  smooth     PW     G-vecs:    dense   smooth      PW
     Sum        2941    1483    421               256907    90927   13645
 
     Using Slab Decomposition
 


     bravais-lattice index     =            4
     lattice parameter (alat)  =       9.4527  a.u.
     unit-cell volume          =    1447.6983 (a.u.)^3
     number of atoms/cell      =           10
     number of atomic types    =            3
     number of electrons       =        96.00
     number of Kohn-Sham states=           64
     kinetic-energy cutoff     =      60.0000  Ry
     charge density cutoff     =     480.0000  Ry
     Exchange-correlation= SLA  PW   PBX  PBC
                           (   1   4   3   4   0   0   0)

     GPU acceleration is ACTIVE.  1 visible GPUs per MPI rank
     GPU-aware MPI enabled


     GPU used by master process:

        Device Number: 0
        Device name: NVIDIA A100-SXM4-80GB
        Compute capability : 80
        Ratio of single to double precision performance  : 2
        Memory Clock Rate (KHz): 1593000
        Memory Bus Width (bits): 5120
        Peak Memory Bandwidth (GB/s): ******

     celldm(1)=   9.452718  celldm(2)=   0.000000  celldm(3)=   1.979144
     celldm(4)=   0.000000  celldm(5)=   0.000000  celldm(6)=   0.000000

     crystal axes: (cart. coord. in units of alat)
               a(1) = (   1.000000   0.000000   0.000000 )  
               a(2) = (  -0.500000   0.866025   0.000000 )  
               a(3) = (   0.000000   0.000000   1.979144 )  

     reciprocal axes: (cart. coord. in units 2 pi/alat)
               b(1) = (  1.000000  0.577350 -0.000000 )  
               b(2) = (  0.000000  1.154701  0.000000 )  
               b(3) = (  0.000000 -0.000000  0.505269 )  


     PseudoPot. # 1 for Co read from file:
     ../../pseudo/Co.pbe-spn-kjpaw_psl.0.3.1.UPF
     MD5 check sum: 3c0a43779828c046024e4f3be63f8e67
     Pseudo is Projector augmented-wave + core cor, Zval = 17.0
     Generated using &quot;atomic&quot; code by A. Dal Corso  v.6.2.2
     Shape of augmentation charge: PSQ
     Using radial grid of 1193 points,  6 beta functions with: 
                l(1) =   0
                l(2) =   0
                l(3) =   1
                l(4) =   1
                l(5) =   2
                l(6) =   2
     Q(r) pseudized with 0 coefficients 


     PseudoPot. # 2 for O  read from file:
     ../../pseudo/O.pbe-n-kjpaw_psl.1.0.0.UPF
     MD5 check sum: e99d9cef9b487d1ca56f5b95ecd0fd7a
     Pseudo is Projector augmented-wave + core cor, Zval =  6.0
     Generated using &quot;atomic&quot; code by A. Dal Corso  v.6.3
     Shape of augmentation charge: PSQ
     Using radial grid of 1095 points,  4 beta functions with: 
                l(1) =   0
                l(2) =   0
                l(3) =   1
                l(4) =   1
     Q(r) pseudized with 0 coefficients 


     PseudoPot. # 3 for Na read from file:
     ../../pseudo/Na.pbe-spn-kjpaw_psl.1.0.0.UPF
     MD5 check sum: 05b4deb74e3932c23ab016979dc8b5d4
     Pseudo is Projector augmented-wave + core cor, Zval =  9.0
     Generated using &quot;atomic&quot; code by A. Dal Corso  v.6.3
     Shape of augmentation charge: PSQ
     Using radial grid of 1121 points,  4 beta functions with: 
                l(1) =   0
                l(2) =   0
                l(3) =   1
                l(4) =   1
     Q(r) pseudized with 0 coefficients 


     atomic species   valence    mass     pseudopotential
     Co               17.00    58.93300     Co( 1.00)
     O                 6.00    15.99900     O ( 1.00)
     Na                9.00    22.98977     Na( 1.00)

     Starting magnetic structure 
     atomic species   magnetization
     Co              0.300
     O               0.000
     Na              0.000

      6 Sym. Ops. (no inversion) found


                                    s                        frac. trans.

      isym =  1     identity                                     

 cryst.   s( 1) = (     1          0          0      )
                  (     0          1          0      )
                  (     0          0          1      )

 cart.    s( 1) = (  1.0000000  0.0000000  0.0000000 )
                  (  0.0000000  1.0000000  0.0000000 )
                  (  0.0000000  0.0000000  1.0000000 )


      isym =  2     120 deg rotation - cryst. axis [0,0,1]       

 cryst.   s( 2) = (     0          1          0      )
                  (    -1         -1          0      )
                  (     0          0          1      )

 cart.    s( 2) = ( -0.5000000 -0.8660254  0.0000000 )
                  (  0.8660254 -0.5000000  0.0000000 )
                  (  0.0000000  0.0000000  1.0000000 )


      isym =  3     120 deg rotation - cryst. axis [0,0,-1]      

 cryst.   s( 3) = (    -1         -1          0      )
                  (     1          0          0      )
                  (     0          0          1      )

 cart.    s( 3) = ( -0.5000000  0.8660254  0.0000000 )
                  ( -0.8660254 -0.5000000  0.0000000 )
                  (  0.0000000  0.0000000  1.0000000 )


      isym =  4     inv. 180 deg rotation - cart. axis [0,1,0]   

 cryst.   s( 4) = (     1          0          0      )
                  (    -1         -1          0      )
                  (     0          0          1      )

 cart.    s( 4) = (  1.0000000  0.0000000  0.0000000 )
                  (  0.0000000 -1.0000000  0.0000000 )
                  (  0.0000000  0.0000000  1.0000000 )


      isym =  5     inv. 180 deg rotation - cryst. axis [1,-1,0] 

 cryst.   s( 5) = (     0          1          0      )
                  (     1          0          0      )
                  (     0          0          1      )

 cart.    s( 5) = ( -0.5000000  0.8660254  0.0000000 )
                  (  0.8660254  0.5000000  0.0000000 )
                  (  0.0000000  0.0000000  1.0000000 )


      isym =  6     inv. 180 deg rotation - cryst. axis [2,1,0]  

 cryst.   s( 6) = (    -1         -1          0      )
                  (     0          1          0      )
                  (     0          0          1      )

 cart.    s( 6) = ( -0.5000000 -0.8660254  0.0000000 )
                  ( -0.8660254  0.5000000  0.0000000 )
                  (  0.0000000  0.0000000  1.0000000 )


     point group C_3v (3m)  
     there are  3 classes
     the character table:

       E     2C3   3s_v 
A_1    1.00  1.00  1.00
A_2    1.00  1.00 -1.00
E      2.00 -1.00  0.00

     the symmetry operations in each class and the name of the first element:

     E        1
          identity                                               
     2C3      2    3
          120 deg rotation - cryst. axis [0,0,1]                 
     3s_v     4    6    5
          inv. 180 deg rotation - cart. axis [0,1,0]             

   Cartesian axes

     site n.     atom                  positions (alat units)
         1        Co     tau(   1) = (   0.0000000   0.0000000   0.0000000  )
         2        Co     tau(   2) = (  -0.0000000   0.5773503   0.0000000  )
         3        Co     tau(   3) = (   0.5000000   0.2886751   0.0000000  )
         4        O      tau(   4) = (   0.1666667   0.2886751   0.1919170  )
         5        O      tau(   5) = (   0.6666667   0.0000000   0.1919170  )
         6        O      tau(   6) = (  -0.3333333   0.5773503   0.1919170  )
         7        O      tau(   7) = (   0.3333333   0.0000000   1.7872269  )
         8        O      tau(   8) = (   0.3333333   0.5773503   1.7872269  )
         9        O      tau(   9) = (  -0.1666667   0.2886751   1.7872269  )
        10        Na     tau(  10) = (   0.0000000   0.0000000   1.1395071  )

   Crystallographic axes

     site n.     atom                  positions (cryst. coord.)
         1        Co     tau(   1) = (  0.0000000  0.0000000  0.0000000  )
         2        Co     tau(   2) = (  0.3333333  0.6666667  0.0000000  )
         3        Co     tau(   3) = (  0.6666667  0.3333333  0.0000000  )
         4        O      tau(   4) = (  0.3333333  0.3333333  0.0969697  )
         5        O      tau(   5) = (  0.6666667  0.0000000  0.0969697  )
         6        O      tau(   6) = (  0.0000000  0.6666667  0.0969697  )
         7        O      tau(   7) = (  0.3333333  0.0000000  0.9030303  )
         8        O      tau(   8) = (  0.6666667  0.6666667  0.9030303  )
         9        O      tau(   9) = ( -0.0000000  0.3333333  0.9030303  )
        10        Na     tau(  10) = (  0.0000000  0.0000000  0.5757576  )

     number of k points=   449  Marzari-Vanderbilt smearing, width (Ry)=  0.0200
                       cart. coord. in units 2pi/alat
        k(    1) = (   0.0000000   0.0000000   0.0000000), wk =   0.0002170
        k(    2) = (   0.0000000   0.0000000   0.0631586), wk =   0.0004340
        k(    3) = (   0.0000000   0.0000000   0.1263172), wk =   0.0004340
        k(    4) = (   0.0000000   0.0000000   0.1894759), wk =   0.0004340
        k(    5) = (   0.0000000   0.0000000  -0.2526345), wk =   0.0002170
        k(    6) = (   0.0000000   0.0481125   0.0000000), wk =   0.0013021
        k(    7) = (   0.0000000   0.0481125   0.0631586), wk =   0.0026042
        k(    8) = (   0.0000000   0.0481125   0.1263172), wk =   0.0026042
        k(    9) = (   0.0000000   0.0481125   0.1894759), wk =   0.0026042
        k(   10) = (   0.0000000   0.0481125  -0.2526345), wk =   0.0013021
        k(   11) = (   0.0000000   0.0962250   0.0000000), wk =   0.0013021
        k(   12) = (   0.0000000   0.0962250   0.0631586), wk =   0.0026042
        k(   13) = (   0.0000000   0.0962250   0.1263172), wk =   0.0026042
        k(   14) = (   0.0000000   0.0962250   0.1894759), wk =   0.0026042
        k(   15) = (   0.0000000   0.0962250  -0.2526345), wk =   0.0013021
        k(   16) = (   0.0000000   0.1443376   0.0000000), wk =   0.0013021
        k(   17) = (   0.0000000   0.1443376   0.0631586), wk =   0.0026042
        k(   18) = (   0.0000000   0.1443376   0.1263172), wk =   0.0026042
        k(   19) = (   0.0000000   0.1443376   0.1894759), wk =   0.0026042
        k(   20) = (   0.0000000   0.1443376  -0.2526345), wk =   0.0013021
        k(   21) = (   0.0000000   0.1924501   0.0000000), wk =   0.0013021
        k(   22) = (   0.0000000   0.1924501   0.0631586), wk =   0.0026042
        k(   23) = (   0.0000000   0.1924501   0.1263172), wk =   0.0026042
        k(   24) = (   0.0000000   0.1924501   0.1894759), wk =   0.0026042
        k(   25) = (   0.0000000   0.1924501  -0.2526345), wk =   0.0013021
        k(   26) = (   0.0000000   0.2405626   0.0000000), wk =   0.0013021
        k(   27) = (   0.0000000   0.2405626   0.0631586), wk =   0.0026042
        k(   28) = (   0.0000000   0.2405626   0.1263172), wk =   0.0026042
        k(   29) = (   0.0000000   0.2405626   0.1894759), wk =   0.0026042
        k(   30) = (   0.0000000   0.2405626  -0.2526345), wk =   0.0013021
        k(   31) = (   0.0000000   0.2886751   0.0000000), wk =   0.0013021
        k(   32) = (   0.0000000   0.2886751   0.0631586), wk =   0.0026042
        k(   33) = (   0.0000000   0.2886751   0.1263172), wk =   0.0026042
        k(   34) = (   0.0000000   0.2886751   0.1894759), wk =   0.0026042
        k(   35) = (   0.0000000   0.2886751  -0.2526345), wk =   0.0013021
        k(   36) = (   0.0000000   0.3367877   0.0000000), wk =   0.0013021
        k(   37) = (   0.0000000   0.3367877   0.0631586), wk =   0.0026042
        k(   38) = (   0.0000000   0.3367877   0.1263172), wk =   0.0026042
        k(   39) = (   0.0000000   0.3367877   0.1894759), wk =   0.0026042
        k(   40) = (   0.0000000   0.3367877  -0.2526345), wk =   0.0013021
        k(   41) = (   0.0000000   0.3849002   0.0000000), wk =   0.0013021
        k(   42) = (   0.0000000   0.3849002   0.0631586), wk =   0.0026042
        k(   43) = (   0.0000000   0.3849002   0.1263172), wk =   0.0026042
        k(   44) = (   0.0000000   0.3849002   0.1894759), wk =   0.0026042
        k(   45) = (   0.0000000   0.3849002  -0.2526345), wk =   0.0013021
        k(   46) = (   0.0000000   0.4330127   0.0000000), wk =   0.0013021
        k(   47) = (   0.0000000   0.4330127   0.0631586), wk =   0.0026042
        k(   48) = (   0.0000000   0.4330127   0.1263172), wk =   0.0026042
        k(   49) = (   0.0000000   0.4330127   0.1894759), wk =   0.0026042
        k(   50) = (   0.0000000   0.4330127  -0.2526345), wk =   0.0013021
        k(   51) = (   0.0000000   0.4811252   0.0000000), wk =   0.0013021
        k(   52) = (   0.0000000   0.4811252   0.0631586), wk =   0.0026042
        k(   53) = (   0.0000000   0.4811252   0.1263172), wk =   0.0026042
        k(   54) = (   0.0000000   0.4811252   0.1894759), wk =   0.0026042
        k(   55) = (   0.0000000   0.4811252  -0.2526345), wk =   0.0013021
        k(   56) = (   0.0000000   0.5292377   0.0000000), wk =   0.0013021
        k(   57) = (   0.0000000   0.5292377   0.0631586), wk =   0.0026042
        k(   58) = (   0.0000000   0.5292377   0.1263172), wk =   0.0026042
        k(   59) = (   0.0000000   0.5292377   0.1894759), wk =   0.0026042
        k(   60) = (   0.0000000   0.5292377  -0.2526345), wk =   0.0013021
        k(   61) = (   0.0000000  -0.5773503   0.0000000), wk =   0.0006510
        k(   62) = (   0.0000000  -0.5773503   0.0631586), wk =   0.0013021
        k(   63) = (   0.0000000  -0.5773503   0.1263172), wk =   0.0013021
        k(   64) = (   0.0000000  -0.5773503   0.1894759), wk =   0.0013021
        k(   65) = (   0.0000000  -0.5773503  -0.2526345), wk =   0.0006510
        k(   66) = (   0.0416667   0.0721688   0.0000000), wk =   0.0013021
        k(   67) = (   0.0416667   0.0721688   0.0631586), wk =   0.0013021
        k(   68) = (   0.0416667   0.0721688   0.1263172), wk =   0.0013021
        k(   69) = (   0.0416667   0.0721688   0.1894759), wk =   0.0013021
        k(   70) = (   0.0416667   0.0721688  -0.2526345), wk =   0.0013021
        k(   71) = (   0.0416667   0.1202813   0.0000000), wk =   0.0026042
        k(   72) = (   0.0416667   0.1202813   0.0631586), wk =   0.0026042
        k(   73) = (   0.0416667   0.1202813   0.1263172), wk =   0.0026042
        k(   74) = (   0.0416667   0.1202813   0.1894759), wk =   0.0026042
        k(   75) = (   0.0416667   0.1202813  -0.2526345), wk =   0.0026042
        k(   76) = (   0.0416667   0.1683938   0.0000000), wk =   0.0026042
        k(   77) = (   0.0416667   0.1683938   0.0631586), wk =   0.0026042
        k(   78) = (   0.0416667   0.1683938   0.1263172), wk =   0.0026042
        k(   79) = (   0.0416667   0.1683938   0.1894759), wk =   0.0026042
        k(   80) = (   0.0416667   0.1683938  -0.2526345), wk =   0.0026042
        k(   81) = (   0.0416667   0.2165064   0.0000000), wk =   0.0026042
        k(   82) = (   0.0416667   0.2165064   0.0631586), wk =   0.0026042
        k(   83) = (   0.0416667   0.2165064   0.1263172), wk =   0.0026042
        k(   84) = (   0.0416667   0.2165064   0.1894759), wk =   0.0026042
        k(   85) = (   0.0416667   0.2165064  -0.2526345), wk =   0.0026042
        k(   86) = (   0.0416667   0.2646189   0.0000000), wk =   0.0026042
        k(   87) = (   0.0416667   0.2646189   0.0631586), wk =   0.0026042
        k(   88) = (   0.0416667   0.2646189   0.1263172), wk =   0.0026042
        k(   89) = (   0.0416667   0.2646189   0.1894759), wk =   0.0026042
        k(   90) = (   0.0416667   0.2646189  -0.2526345), wk =   0.0026042
        k(   91) = (   0.0416667   0.3127314   0.0000000), wk =   0.0026042
        k(   92) = (   0.0416667   0.3127314   0.0631586), wk =   0.0026042
        k(   93) = (   0.0416667   0.3127314   0.1263172), wk =   0.0026042
        k(   94) = (   0.0416667   0.3127314   0.1894759), wk =   0.0026042
        k(   95) = (   0.0416667   0.3127314  -0.2526345), wk =   0.0026042
        k(   96) = (   0.0416667   0.3608439   0.0000000), wk =   0.0026042
        k(   97) = (   0.0416667   0.3608439   0.0631586), wk =   0.0026042
        k(   98) = (   0.0416667   0.3608439   0.1263172), wk =   0.0026042
        k(   99) = (   0.0416667   0.3608439   0.1894759), wk =   0.0026042
        k(  100) = (   0.0416667   0.3608439  -0.2526345), wk =   0.0026042
        k(  101) = (   0.0416667   0.4089564   0.0000000), wk =   0.0026042
        k(  102) = (   0.0416667   0.4089564   0.0631586), wk =   0.0026042
        k(  103) = (   0.0416667   0.4089564   0.1263172), wk =   0.0026042
        k(  104) = (   0.0416667   0.4089564   0.1894759), wk =   0.0026042
        k(  105) = (   0.0416667   0.4089564  -0.2526345), wk =   0.0026042
        k(  106) = (   0.0416667   0.4570690   0.0000000), wk =   0.0026042
        k(  107) = (   0.0416667   0.4570690   0.0631586), wk =   0.0026042
        k(  108) = (   0.0416667   0.4570690   0.1263172), wk =   0.0026042
        k(  109) = (   0.0416667   0.4570690   0.1894759), wk =   0.0026042
        k(  110) = (   0.0416667   0.4570690  -0.2526345), wk =   0.0026042
        k(  111) = (   0.0416667   0.5051815   0.0000000), wk =   0.0026042
        k(  112) = (   0.0416667   0.5051815   0.0631586), wk =   0.0026042
        k(  113) = (   0.0416667   0.5051815   0.1263172), wk =   0.0026042
        k(  114) = (   0.0416667   0.5051815   0.1894759), wk =   0.0026042
        k(  115) = (   0.0416667   0.5051815  -0.2526345), wk =   0.0026042
        k(  116) = (   0.0416667   0.5532940   0.0000000), wk =   0.0026042
        k(  117) = (   0.0416667   0.5532940   0.0631586), wk =   0.0026042
        k(  118) = (   0.0416667   0.5532940   0.1263172), wk =   0.0026042
        k(  119) = (   0.0416667   0.5532940   0.1894759), wk =   0.0026042
        k(  120) = (   0.0416667   0.5532940  -0.2526345), wk =   0.0026042
        k(  121) = (   0.0833333   0.1443376   0.0000000), wk =   0.0013021
        k(  122) = (   0.0833333   0.1443376   0.0631586), wk =   0.0013021
        k(  123) = (   0.0833333   0.1443376   0.1263172), wk =   0.0013021
        k(  124) = (   0.0833333   0.1443376   0.1894759), wk =   0.0013021
        k(  125) = (   0.0833333   0.1443376  -0.2526345), wk =   0.0013021
        k(  126) = (   0.0833333   0.1924501   0.0000000), wk =   0.0026042
        k(  127) = (   0.0833333   0.1924501   0.0631586), wk =   0.0026042
        k(  128) = (   0.0833333   0.1924501   0.1263172), wk =   0.0026042
        k(  129) = (   0.0833333   0.1924501   0.1894759), wk =   0.0026042
        k(  130) = (   0.0833333   0.1924501  -0.2526345), wk =   0.0026042
        k(  131) = (   0.0833333   0.2405626   0.0000000), wk =   0.0026042
        k(  132) = (   0.0833333   0.2405626   0.0631586), wk =   0.0026042
        k(  133) = (   0.0833333   0.2405626   0.1263172), wk =   0.0026042
        k(  134) = (   0.0833333   0.2405626   0.1894759), wk =   0.0026042
        k(  135) = (   0.0833333   0.2405626  -0.2526345), wk =   0.0026042
        k(  136) = (   0.0833333   0.2886751   0.0000000), wk =   0.0026042
        k(  137) = (   0.0833333   0.2886751   0.0631586), wk =   0.0026042
        k(  138) = (   0.0833333   0.2886751   0.1263172), wk =   0.0026042
        k(  139) = (   0.0833333   0.2886751   0.1894759), wk =   0.0026042
        k(  140) = (   0.0833333   0.2886751  -0.2526345), wk =   0.0026042
        k(  141) = (   0.0833333   0.3367877   0.0000000), wk =   0.0026042
        k(  142) = (   0.0833333   0.3367877   0.0631586), wk =   0.0026042
        k(  143) = (   0.0833333   0.3367877   0.1263172), wk =   0.0026042
        k(  144) = (   0.0833333   0.3367877   0.1894759), wk =   0.0026042
        k(  145) = (   0.0833333   0.3367877  -0.2526345), wk =   0.0026042
        k(  146) = (   0.0833333   0.3849002   0.0000000), wk =   0.0026042
        k(  147) = (   0.0833333   0.3849002   0.0631586), wk =   0.0026042
        k(  148) = (   0.0833333   0.3849002   0.1263172), wk =   0.0026042
        k(  149) = (   0.0833333   0.3849002   0.1894759), wk =   0.0026042
        k(  150) = (   0.0833333   0.3849002  -0.2526345), wk =   0.0026042
        k(  151) = (   0.0833333   0.4330127   0.0000000), wk =   0.0026042
        k(  152) = (   0.0833333   0.4330127   0.0631586), wk =   0.0026042
        k(  153) = (   0.0833333   0.4330127   0.1263172), wk =   0.0026042
        k(  154) = (   0.0833333   0.4330127   0.1894759), wk =   0.0026042
        k(  155) = (   0.0833333   0.4330127  -0.2526345), wk =   0.0026042
        k(  156) = (   0.0833333   0.4811252   0.0000000), wk =   0.0026042
        k(  157) = (   0.0833333   0.4811252   0.0631586), wk =   0.0026042
        k(  158) = (   0.0833333   0.4811252   0.1263172), wk =   0.0026042
        k(  159) = (   0.0833333   0.4811252   0.1894759), wk =   0.0026042
        k(  160) = (   0.0833333   0.4811252  -0.2526345), wk =   0.0026042
        k(  161) = (   0.0833333   0.5292377   0.0000000), wk =   0.0026042
        k(  162) = (   0.0833333   0.5292377   0.0631586), wk =   0.0026042
        k(  163) = (   0.0833333   0.5292377   0.1263172), wk =   0.0026042
        k(  164) = (   0.0833333   0.5292377   0.1894759), wk =   0.0026042
        k(  165) = (   0.0833333   0.5292377  -0.2526345), wk =   0.0026042
        k(  166) = (   0.0833333   0.5773503   0.0000000), wk =   0.0013021
        k(  167) = (   0.0833333   0.5773503   0.0631586), wk =   0.0013021
        k(  168) = (   0.0833333   0.5773503   0.1263172), wk =   0.0013021
        k(  169) = (   0.0833333   0.5773503   0.1894759), wk =   0.0013021
        k(  170) = (   0.0833333   0.5773503  -0.2526345), wk =   0.0013021
        k(  171) = (   0.1250000   0.2165064   0.0000000), wk =   0.0013021
        k(  172) = (   0.1250000   0.2165064   0.0631586), wk =   0.0013021
        k(  173) = (   0.1250000   0.2165064   0.1263172), wk =   0.0013021
        k(  174) = (   0.1250000   0.2165064   0.1894759), wk =   0.0013021
        k(  175) = (   0.1250000   0.2165064  -0.2526345), wk =   0.0013021
        k(  176) = (   0.1250000   0.2646189   0.0000000), wk =   0.0026042
        k(  177) = (   0.1250000   0.2646189   0.0631586), wk =   0.0026042
        k(  178) = (   0.1250000   0.2646189   0.1263172), wk =   0.0026042
        k(  179) = (   0.1250000   0.2646189   0.1894759), wk =   0.0026042
        k(  180) = (   0.1250000   0.2646189  -0.2526345), wk =   0.0026042
        k(  181) = (   0.1250000   0.3127314   0.0000000), wk =   0.0026042
        k(  182) = (   0.1250000   0.3127314   0.0631586), wk =   0.0026042
        k(  183) = (   0.1250000   0.3127314   0.1263172), wk =   0.0026042
        k(  184) = (   0.1250000   0.3127314   0.1894759), wk =   0.0026042
        k(  185) = (   0.1250000   0.3127314  -0.2526345), wk =   0.0026042
        k(  186) = (   0.1250000   0.3608439   0.0000000), wk =   0.0026042
        k(  187) = (   0.1250000   0.3608439   0.0631586), wk =   0.0026042
        k(  188) = (   0.1250000   0.3608439   0.1263172), wk =   0.0026042
        k(  189) = (   0.1250000   0.3608439   0.1894759), wk =   0.0026042
        k(  190) = (   0.1250000   0.3608439  -0.2526345), wk =   0.0026042
        k(  191) = (   0.1250000   0.4089564   0.0000000), wk =   0.0026042
        k(  192) = (   0.1250000   0.4089564   0.0631586), wk =   0.0026042
        k(  193) = (   0.1250000   0.4089564   0.1263172), wk =   0.0026042
        k(  194) = (   0.1250000   0.4089564   0.1894759), wk =   0.0026042
        k(  195) = (   0.1250000   0.4089564  -0.2526345), wk =   0.0026042
        k(  196) = (   0.1250000   0.4570690   0.0000000), wk =   0.0026042
        k(  197) = (   0.1250000   0.4570690   0.0631586), wk =   0.0026042
        k(  198) = (   0.1250000   0.4570690   0.1263172), wk =   0.0026042
        k(  199) = (   0.1250000   0.4570690   0.1894759), wk =   0.0026042
        k(  200) = (   0.1250000   0.4570690  -0.2526345), wk =   0.0026042
        k(  201) = (   0.1250000   0.5051815   0.0000000), wk =   0.0026042
        k(  202) = (   0.1250000   0.5051815   0.0631586), wk =   0.0026042
        k(  203) = (   0.1250000   0.5051815   0.1263172), wk =   0.0026042
        k(  204) = (   0.1250000   0.5051815   0.1894759), wk =   0.0026042
        k(  205) = (   0.1250000   0.5051815  -0.2526345), wk =   0.0026042
        k(  206) = (   0.1250000   0.5532940   0.0000000), wk =   0.0026042
        k(  207) = (   0.1250000   0.5532940   0.0631586), wk =   0.0026042
        k(  208) = (   0.1250000   0.5532940   0.1263172), wk =   0.0026042
        k(  209) = (   0.1250000   0.5532940   0.1894759), wk =   0.0026042
        k(  210) = (   0.1250000   0.5532940  -0.2526345), wk =   0.0026042
        k(  211) = (   0.1666667   0.2886751   0.0000000), wk =   0.0013021
        k(  212) = (   0.1666667   0.2886751   0.0631586), wk =   0.0013021
        k(  213) = (   0.1666667   0.2886751   0.1263172), wk =   0.0013021
        k(  214) = (   0.1666667   0.2886751   0.1894759), wk =   0.0013021
        k(  215) = (   0.1666667   0.2886751  -0.2526345), wk =   0.0013021
        k(  216) = (   0.1666667   0.3367877   0.0000000), wk =   0.0026042
        k(  217) = (   0.1666667   0.3367877   0.0631586), wk =   0.0026042
        k(  218) = (   0.1666667   0.3367877   0.1263172), wk =   0.0026042
        k(  219) = (   0.1666667   0.3367877   0.1894759), wk =   0.0026042
        k(  220) = (   0.1666667   0.3367877  -0.2526345), wk =   0.0026042
        k(  221) = (   0.1666667   0.3849002   0.0000000), wk =   0.0026042
        k(  222) = (   0.1666667   0.3849002   0.0631586), wk =   0.0026042
        k(  223) = (   0.1666667   0.3849002   0.1263172), wk =   0.0026042
        k(  224) = (   0.1666667   0.3849002   0.1894759), wk =   0.0026042
        k(  225) = (   0.1666667   0.3849002  -0.2526345), wk =   0.0026042
        k(  226) = (   0.1666667   0.4330127   0.0000000), wk =   0.0026042
        k(  227) = (   0.1666667   0.4330127   0.0631586), wk =   0.0026042
        k(  228) = (   0.1666667   0.4330127   0.1263172), wk =   0.0026042
        k(  229) = (   0.1666667   0.4330127   0.1894759), wk =   0.0026042
        k(  230) = (   0.1666667   0.4330127  -0.2526345), wk =   0.0026042
        k(  231) = (   0.1666667   0.4811252   0.0000000), wk =   0.0026042
        k(  232) = (   0.1666667   0.4811252   0.0631586), wk =   0.0026042
        k(  233) = (   0.1666667   0.4811252   0.1263172), wk =   0.0026042
        k(  234) = (   0.1666667   0.4811252   0.1894759), wk =   0.0026042
        k(  235) = (   0.1666667   0.4811252  -0.2526345), wk =   0.0026042
        k(  236) = (   0.1666667   0.5292377   0.0000000), wk =   0.0026042
        k(  237) = (   0.1666667   0.5292377   0.0631586), wk =   0.0026042
        k(  238) = (   0.1666667   0.5292377   0.1263172), wk =   0.0026042
        k(  239) = (   0.1666667   0.5292377   0.1894759), wk =   0.0026042
        k(  240) = (   0.1666667   0.5292377  -0.2526345), wk =   0.0026042
        k(  241) = (   0.1666667   0.5773503   0.0000000), wk =   0.0013021
        k(  242) = (   0.1666667   0.5773503   0.0631586), wk =   0.0013021
        k(  243) = (   0.1666667   0.5773503   0.1263172), wk =   0.0013021
        k(  244) = (   0.1666667   0.5773503   0.1894759), wk =   0.0013021
        k(  245) = (   0.1666667   0.5773503  -0.2526345), wk =   0.0013021
        k(  246) = (   0.2083333   0.3608439   0.0000000), wk =   0.0013021
        k(  247) = (   0.2083333   0.3608439   0.0631586), wk =   0.0013021
        k(  248) = (   0.2083333   0.3608439   0.1263172), wk =   0.0013021
        k(  249) = (   0.2083333   0.3608439   0.1894759), wk =   0.0013021
        k(  250) = (   0.2083333   0.3608439  -0.2526345), wk =   0.0013021
        k(  251) = (   0.2083333   0.4089564   0.0000000), wk =   0.0026042
        k(  252) = (   0.2083333   0.4089564   0.0631586), wk =   0.0026042
        k(  253) = (   0.2083333   0.4089564   0.1263172), wk =   0.0026042
        k(  254) = (   0.2083333   0.4089564   0.1894759), wk =   0.0026042
        k(  255) = (   0.2083333   0.4089564  -0.2526345), wk =   0.0026042
        k(  256) = (   0.2083333   0.4570690   0.0000000), wk =   0.0026042
        k(  257) = (   0.2083333   0.4570690   0.0631586), wk =   0.0026042
        k(  258) = (   0.2083333   0.4570690   0.1263172), wk =   0.0026042
        k(  259) = (   0.2083333   0.4570690   0.1894759), wk =   0.0026042
        k(  260) = (   0.2083333   0.4570690  -0.2526345), wk =   0.0026042
        k(  261) = (   0.2083333   0.5051815   0.0000000), wk =   0.0026042
        k(  262) = (   0.2083333   0.5051815   0.0631586), wk =   0.0026042
        k(  263) = (   0.2083333   0.5051815   0.1263172), wk =   0.0026042
        k(  264) = (   0.2083333   0.5051815   0.1894759), wk =   0.0026042
        k(  265) = (   0.2083333   0.5051815  -0.2526345), wk =   0.0026042
        k(  266) = (   0.2083333   0.5532940   0.0000000), wk =   0.0026042
        k(  267) = (   0.2083333   0.5532940   0.0631586), wk =   0.0026042
        k(  268) = (   0.2083333   0.5532940   0.1263172), wk =   0.0026042
        k(  269) = (   0.2083333   0.5532940   0.1894759), wk =   0.0026042
        k(  270) = (   0.2083333   0.5532940  -0.2526345), wk =   0.0026042
        k(  271) = (   0.2500000   0.4330127   0.0000000), wk =   0.0013021
        k(  272) = (   0.2500000   0.4330127   0.0631586), wk =   0.0013021
        k(  273) = (   0.2500000   0.4330127   0.1263172), wk =   0.0013021
        k(  274) = (   0.2500000   0.4330127   0.1894759), wk =   0.0013021
        k(  275) = (   0.2500000   0.4330127  -0.2526345), wk =   0.0013021
        k(  276) = (   0.2500000   0.4811252   0.0000000), wk =   0.0026042
        k(  277) = (   0.2500000   0.4811252   0.0631586), wk =   0.0026042
        k(  278) = (   0.2500000   0.4811252   0.1263172), wk =   0.0026042
        k(  279) = (   0.2500000   0.4811252   0.1894759), wk =   0.0026042
        k(  280) = (   0.2500000   0.4811252  -0.2526345), wk =   0.0026042
        k(  281) = (   0.2500000   0.5292377   0.0000000), wk =   0.0026042
        k(  282) = (   0.2500000   0.5292377   0.0631586), wk =   0.0026042
        k(  283) = (   0.2500000   0.5292377   0.1263172), wk =   0.0026042
        k(  284) = (   0.2500000   0.5292377   0.1894759), wk =   0.0026042
        k(  285) = (   0.2500000   0.5292377  -0.2526345), wk =   0.0026042
        k(  286) = (   0.2500000   0.5773503   0.0000000), wk =   0.0013021
        k(  287) = (   0.2500000   0.5773503   0.0631586), wk =   0.0013021
        k(  288) = (   0.2500000   0.5773503   0.1263172), wk =   0.0013021
        k(  289) = (   0.2500000   0.5773503   0.1894759), wk =   0.0013021
        k(  290) = (   0.2500000   0.5773503  -0.2526345), wk =   0.0013021
        k(  291) = (   0.2916667   0.5051815   0.0000000), wk =   0.0013021
        k(  292) = (   0.2916667   0.5051815   0.0631586), wk =   0.0013021
        k(  293) = (   0.2916667   0.5051815   0.1263172), wk =   0.0013021
        k(  294) = (   0.2916667   0.5051815   0.1894759), wk =   0.0013021
        k(  295) = (   0.2916667   0.5051815  -0.2526345), wk =   0.0013021
        k(  296) = (   0.2916667   0.5532940   0.0000000), wk =   0.0026042
        k(  297) = (   0.2916667   0.5532940   0.0631586), wk =   0.0026042
        k(  298) = (   0.2916667   0.5532940   0.1263172), wk =   0.0026042
        k(  299) = (   0.2916667   0.5532940   0.1894759), wk =   0.0026042
        k(  300) = (   0.2916667   0.5532940  -0.2526345), wk =   0.0026042
        k(  301) = (   0.3333333   0.5773503   0.0000000), wk =   0.0004340
        k(  302) = (   0.3333333   0.5773503   0.0631586), wk =   0.0004340
        k(  303) = (   0.3333333   0.5773503   0.1263172), wk =   0.0004340
        k(  304) = (   0.3333333   0.5773503   0.1894759), wk =   0.0004340
        k(  305) = (   0.3333333   0.5773503  -0.2526345), wk =   0.0004340
        k(  306) = (  -0.0416667  -0.0721688   0.0631586), wk =   0.0013021
        k(  307) = (  -0.0416667  -0.0721688   0.1263172), wk =   0.0013021
        k(  308) = (  -0.0416667  -0.0721688   0.1894759), wk =   0.0013021
        k(  309) = (  -0.0416667  -0.1202813   0.0631586), wk =   0.0026042
        k(  310) = (  -0.0416667  -0.1202813   0.1263172), wk =   0.0026042
        k(  311) = (  -0.0416667  -0.1202813   0.1894759), wk =   0.0026042
        k(  312) = (  -0.0416667  -0.1683938   0.0631586), wk =   0.0026042
        k(  313) = (  -0.0416667  -0.1683938   0.1263172), wk =   0.0026042
        k(  314) = (  -0.0416667  -0.1683938   0.1894759), wk =   0.0026042
        k(  315) = (  -0.0416667  -0.2165064   0.0631586), wk =   0.0026042
        k(  316) = (  -0.0416667  -0.2165064   0.1263172), wk =   0.0026042
        k(  317) = (  -0.0416667  -0.2165064   0.1894759), wk =   0.0026042
        k(  318) = (  -0.0416667  -0.2646189   0.0631586), wk =   0.0026042
        k(  319) = (  -0.0416667  -0.2646189   0.1263172), wk =   0.0026042
        k(  320) = (  -0.0416667  -0.2646189   0.1894759), wk =   0.0026042
        k(  321) = (  -0.0416667  -0.3127314   0.0631586), wk =   0.0026042
        k(  322) = (  -0.0416667  -0.3127314   0.1263172), wk =   0.0026042
        k(  323) = (  -0.0416667  -0.3127314   0.1894759), wk =   0.0026042
        k(  324) = (  -0.0416667  -0.3608439   0.0631586), wk =   0.0026042
        k(  325) = (  -0.0416667  -0.3608439   0.1263172), wk =   0.0026042
        k(  326) = (  -0.0416667  -0.3608439   0.1894759), wk =   0.0026042
        k(  327) = (  -0.0416667  -0.4089564   0.0631586), wk =   0.0026042
        k(  328) = (  -0.0416667  -0.4089564   0.1263172), wk =   0.0026042
        k(  329) = (  -0.0416667  -0.4089564   0.1894759), wk =   0.0026042
        k(  330) = (  -0.0416667  -0.4570690   0.0631586), wk =   0.0026042
        k(  331) = (  -0.0416667  -0.4570690   0.1263172), wk =   0.0026042
        k(  332) = (  -0.0416667  -0.4570690   0.1894759), wk =   0.0026042
        k(  333) = (  -0.0416667  -0.5051815   0.0631586), wk =   0.0026042
        k(  334) = (  -0.0416667  -0.5051815   0.1263172), wk =   0.0026042
        k(  335) = (  -0.0416667  -0.5051815   0.1894759), wk =   0.0026042
        k(  336) = (  -0.0416667  -0.5532940   0.0631586), wk =   0.0026042
        k(  337) = (  -0.0416667  -0.5532940   0.1263172), wk =   0.0026042
        k(  338) = (  -0.0416667  -0.5532940   0.1894759), wk =   0.0026042
        k(  339) = (  -0.0833333  -0.1443376   0.0631586), wk =   0.0013021
        k(  340) = (  -0.0833333  -0.1443376   0.1263172), wk =   0.0013021
        k(  341) = (  -0.0833333  -0.1443376   0.1894759), wk =   0.0013021
        k(  342) = (  -0.0833333  -0.1924501   0.0631586), wk =   0.0026042
        k(  343) = (  -0.0833333  -0.1924501   0.1263172), wk =   0.0026042
        k(  344) = (  -0.0833333  -0.1924501   0.1894759), wk =   0.0026042
        k(  345) = (  -0.0833333  -0.2405626   0.0631586), wk =   0.0026042
        k(  346) = (  -0.0833333  -0.2405626   0.1263172), wk =   0.0026042
        k(  347) = (  -0.0833333  -0.2405626   0.1894759), wk =   0.0026042
        k(  348) = (  -0.0833333  -0.2886751   0.0631586), wk =   0.0026042
        k(  349) = (  -0.0833333  -0.2886751   0.1263172), wk =   0.0026042
        k(  350) = (  -0.0833333  -0.2886751   0.1894759), wk =   0.0026042
        k(  351) = (  -0.0833333  -0.3367877   0.0631586), wk =   0.0026042
        k(  352) = (  -0.0833333  -0.3367877   0.1263172), wk =   0.0026042
        k(  353) = (  -0.0833333  -0.3367877   0.1894759), wk =   0.0026042
        k(  354) = (  -0.0833333  -0.3849002   0.0631586), wk =   0.0026042
        k(  355) = (  -0.0833333  -0.3849002   0.1263172), wk =   0.0026042
        k(  356) = (  -0.0833333  -0.3849002   0.1894759), wk =   0.0026042
        k(  357) = (  -0.0833333  -0.4330127   0.0631586), wk =   0.0026042
        k(  358) = (  -0.0833333  -0.4330127   0.1263172), wk =   0.0026042
        k(  359) = (  -0.0833333  -0.4330127   0.1894759), wk =   0.0026042
        k(  360) = (  -0.0833333  -0.4811252   0.0631586), wk =   0.0026042
        k(  361) = (  -0.0833333  -0.4811252   0.1263172), wk =   0.0026042
        k(  362) = (  -0.0833333  -0.4811252   0.1894759), wk =   0.0026042
        k(  363) = (  -0.0833333  -0.5292377   0.0631586), wk =   0.0026042
        k(  364) = (  -0.0833333  -0.5292377   0.1263172), wk =   0.0026042
        k(  365) = (  -0.0833333  -0.5292377   0.1894759), wk =   0.0026042
        k(  366) = (  -0.0833333  -0.5773503   0.0631586), wk =   0.0013021
        k(  367) = (  -0.0833333  -0.5773503   0.1263172), wk =   0.0013021
        k(  368) = (  -0.0833333  -0.5773503   0.1894759), wk =   0.0013021
        k(  369) = (  -0.1250000  -0.2165064   0.0631586), wk =   0.0013021
        k(  370) = (  -0.1250000  -0.2165064   0.1263172), wk =   0.0013021
        k(  371) = (  -0.1250000  -0.2165064   0.1894759), wk =   0.0013021
        k(  372) = (  -0.1250000  -0.2646189   0.0631586), wk =   0.0026042
        k(  373) = (  -0.1250000  -0.2646189   0.1263172), wk =   0.0026042
        k(  374) = (  -0.1250000  -0.2646189   0.1894759), wk =   0.0026042
        k(  375) = (  -0.1250000  -0.3127314   0.0631586), wk =   0.0026042
        k(  376) = (  -0.1250000  -0.3127314   0.1263172), wk =   0.0026042
        k(  377) = (  -0.1250000  -0.3127314   0.1894759), wk =   0.0026042
        k(  378) = (  -0.1250000  -0.3608439   0.0631586), wk =   0.0026042
        k(  379) = (  -0.1250000  -0.3608439   0.1263172), wk =   0.0026042
        k(  380) = (  -0.1250000  -0.3608439   0.1894759), wk =   0.0026042
        k(  381) = (  -0.1250000  -0.4089564   0.0631586), wk =   0.0026042
        k(  382) = (  -0.1250000  -0.4089564   0.1263172), wk =   0.0026042
        k(  383) = (  -0.1250000  -0.4089564   0.1894759), wk =   0.0026042
        k(  384) = (  -0.1250000  -0.4570690   0.0631586), wk =   0.0026042
        k(  385) = (  -0.1250000  -0.4570690   0.1263172), wk =   0.0026042
        k(  386) = (  -0.1250000  -0.4570690   0.1894759), wk =   0.0026042
        k(  387) = (  -0.1250000  -0.5051815   0.0631586), wk =   0.0026042
        k(  388) = (  -0.1250000  -0.5051815   0.1263172), wk =   0.0026042
        k(  389) = (  -0.1250000  -0.5051815   0.1894759), wk =   0.0026042
        k(  390) = (  -0.1250000  -0.5532940   0.0631586), wk =   0.0026042
        k(  391) = (  -0.1250000  -0.5532940   0.1263172), wk =   0.0026042
        k(  392) = (  -0.1250000  -0.5532940   0.1894759), wk =   0.0026042
        k(  393) = (  -0.1666667  -0.2886751   0.0631586), wk =   0.0013021
        k(  394) = (  -0.1666667  -0.2886751   0.1263172), wk =   0.0013021
        k(  395) = (  -0.1666667  -0.2886751   0.1894759), wk =   0.0013021
        k(  396) = (  -0.1666667  -0.3367877   0.0631586), wk =   0.0026042
        k(  397) = (  -0.1666667  -0.3367877   0.1263172), wk =   0.0026042
        k(  398) = (  -0.1666667  -0.3367877   0.1894759), wk =   0.0026042
        k(  399) = (  -0.1666667  -0.3849002   0.0631586), wk =   0.0026042
        k(  400) = (  -0.1666667  -0.3849002   0.1263172), wk =   0.0026042
        k(  401) = (  -0.1666667  -0.3849002   0.1894759), wk =   0.0026042
        k(  402) = (  -0.1666667  -0.4330127   0.0631586), wk =   0.0026042
        k(  403) = (  -0.1666667  -0.4330127   0.1263172), wk =   0.0026042
        k(  404) = (  -0.1666667  -0.4330127   0.1894759), wk =   0.0026042
        k(  405) = (  -0.1666667  -0.4811252   0.0631586), wk =   0.0026042
        k(  406) = (  -0.1666667  -0.4811252   0.1263172), wk =   0.0026042
        k(  407) = (  -0.1666667  -0.4811252   0.1894759), wk =   0.0026042
        k(  408) = (  -0.1666667  -0.5292377   0.0631586), wk =   0.0026042
        k(  409) = (  -0.1666667  -0.5292377   0.1263172), wk =   0.0026042
        k(  410) = (  -0.1666667  -0.5292377   0.1894759), wk =   0.0026042
        k(  411) = (  -0.1666667  -0.5773503   0.0631586), wk =   0.0013021
        k(  412) = (  -0.1666667  -0.5773503   0.1263172), wk =   0.0013021
        k(  413) = (  -0.1666667  -0.5773503   0.1894759), wk =   0.0013021
        k(  414) = (  -0.2083333  -0.3608439   0.0631586), wk =   0.0013021
        k(  415) = (  -0.2083333  -0.3608439   0.1263172), wk =   0.0013021
        k(  416) = (  -0.2083333  -0.3608439   0.1894759), wk =   0.0013021
        k(  417) = (  -0.2083333  -0.4089564   0.0631586), wk =   0.0026042
        k(  418) = (  -0.2083333  -0.4089564   0.1263172), wk =   0.0026042
        k(  419) = (  -0.2083333  -0.4089564   0.1894759), wk =   0.0026042
        k(  420) = (  -0.2083333  -0.4570690   0.0631586), wk =   0.0026042
        k(  421) = (  -0.2083333  -0.4570690   0.1263172), wk =   0.0026042
        k(  422) = (  -0.2083333  -0.4570690   0.1894759), wk =   0.0026042
        k(  423) = (  -0.2083333  -0.5051815   0.0631586), wk =   0.0026042
        k(  424) = (  -0.2083333  -0.5051815   0.1263172), wk =   0.0026042
        k(  425) = (  -0.2083333  -0.5051815   0.1894759), wk =   0.0026042
        k(  426) = (  -0.2083333  -0.5532940   0.0631586), wk =   0.0026042
        k(  427) = (  -0.2083333  -0.5532940   0.1263172), wk =   0.0026042
        k(  428) = (  -0.2083333  -0.5532940   0.1894759), wk =   0.0026042
        k(  429) = (  -0.2500000  -0.4330127   0.0631586), wk =   0.0013021
        k(  430) = (  -0.2500000  -0.4330127   0.1263172), wk =   0.0013021
        k(  431) = (  -0.2500000  -0.4330127   0.1894759), wk =   0.0013021
        k(  432) = (  -0.2500000  -0.4811252   0.0631586), wk =   0.0026042
        k(  433) = (  -0.2500000  -0.4811252   0.1263172), wk =   0.0026042
        k(  434) = (  -0.2500000  -0.4811252   0.1894759), wk =   0.0026042
        k(  435) = (  -0.2500000  -0.5292377   0.0631586), wk =   0.0026042
        k(  436) = (  -0.2500000  -0.5292377   0.1263172), wk =   0.0026042
        k(  437) = (  -0.2500000  -0.5292377   0.1894759), wk =   0.0026042
        k(  438) = (  -0.2500000  -0.5773503   0.0631586), wk =   0.0013021
        k(  439) = (  -0.2500000  -0.5773503   0.1263172), wk =   0.0013021
        k(  440) = (  -0.2500000  -0.5773503   0.1894759), wk =   0.0013021
        k(  441) = (  -0.2916667  -0.5051815   0.0631586), wk =   0.0013021
        k(  442) = (  -0.2916667  -0.5051815   0.1263172), wk =   0.0013021
        k(  443) = (  -0.2916667  -0.5051815   0.1894759), wk =   0.0013021
        k(  444) = (  -0.2916667  -0.5532940   0.0631586), wk =   0.0026042
        k(  445) = (  -0.2916667  -0.5532940   0.1263172), wk =   0.0026042
        k(  446) = (  -0.2916667  -0.5532940   0.1894759), wk =   0.0026042
        k(  447) = (  -0.3333333  -0.5773503   0.0631586), wk =   0.0004340
        k(  448) = (  -0.3333333  -0.5773503   0.1263172), wk =   0.0004340
        k(  449) = (  -0.3333333  -0.5773503   0.1894759), wk =   0.0004340

                       cryst. coord.
        k(    1) = (   0.0000000   0.0000000   0.0000000), wk =   0.0002170
        k(    2) = (   0.0000000   0.0000000   0.1250000), wk =   0.0004340
        k(    3) = (   0.0000000   0.0000000   0.2500000), wk =   0.0004340
        k(    4) = (   0.0000000   0.0000000   0.3750000), wk =   0.0004340
        k(    5) = (   0.0000000   0.0000000  -0.5000000), wk =   0.0002170
        k(    6) = (   0.0000000   0.0416667   0.0000000), wk =   0.0013021
        k(    7) = (   0.0000000   0.0416667   0.1250000), wk =   0.0026042
        k(    8) = (   0.0000000   0.0416667   0.2500000), wk =   0.0026042
        k(    9) = (   0.0000000   0.0416667   0.3750000), wk =   0.0026042
        k(   10) = (   0.0000000   0.0416667  -0.5000000), wk =   0.0013021
        k(   11) = (   0.0000000   0.0833333   0.0000000), wk =   0.0013021
        k(   12) = (   0.0000000   0.0833333   0.1250000), wk =   0.0026042
        k(   13) = (   0.0000000   0.0833333   0.2500000), wk =   0.0026042
        k(   14) = (   0.0000000   0.0833333   0.3750000), wk =   0.0026042
        k(   15) = (   0.0000000   0.0833333  -0.5000000), wk =   0.0013021
        k(   16) = (   0.0000000   0.1250000   0.0000000), wk =   0.0013021
        k(   17) = (   0.0000000   0.1250000   0.1250000), wk =   0.0026042
        k(   18) = (   0.0000000   0.1250000   0.2500000), wk =   0.0026042
        k(   19) = (   0.0000000   0.1250000   0.3750000), wk =   0.0026042
        k(   20) = (   0.0000000   0.1250000  -0.5000000), wk =   0.0013021
        k(   21) = (   0.0000000   0.1666667   0.0000000), wk =   0.0013021
        k(   22) = (   0.0000000   0.1666667   0.1250000), wk =   0.0026042
        k(   23) = (   0.0000000   0.1666667   0.2500000), wk =   0.0026042
        k(   24) = (   0.0000000   0.1666667   0.3750000), wk =   0.0026042
        k(   25) = (   0.0000000   0.1666667  -0.5000000), wk =   0.0013021
        k(   26) = (   0.0000000   0.2083333   0.0000000), wk =   0.0013021
        k(   27) = (   0.0000000   0.2083333   0.1250000), wk =   0.0026042
        k(   28) = (   0.0000000   0.2083333   0.2500000), wk =   0.0026042
        k(   29) = (   0.0000000   0.2083333   0.3750000), wk =   0.0026042
        k(   30) = (   0.0000000   0.2083333  -0.5000000), wk =   0.0013021
        k(   31) = (   0.0000000   0.2500000   0.0000000), wk =   0.0013021
        k(   32) = (   0.0000000   0.2500000   0.1250000), wk =   0.0026042
        k(   33) = (   0.0000000   0.2500000   0.2500000), wk =   0.0026042
        k(   34) = (   0.0000000   0.2500000   0.3750000), wk =   0.0026042
        k(   35) = (   0.0000000   0.2500000  -0.5000000), wk =   0.0013021
        k(   36) = (   0.0000000   0.2916667   0.0000000), wk =   0.0013021
        k(   37) = (   0.0000000   0.2916667   0.1250000), wk =   0.0026042
        k(   38) = (   0.0000000   0.2916667   0.2500000), wk =   0.0026042
        k(   39) = (   0.0000000   0.2916667   0.3750000), wk =   0.0026042
        k(   40) = (   0.0000000   0.2916667  -0.5000000), wk =   0.0013021
        k(   41) = (   0.0000000   0.3333333   0.0000000), wk =   0.0013021
        k(   42) = (   0.0000000   0.3333333   0.1250000), wk =   0.0026042
        k(   43) = (   0.0000000   0.3333333   0.2500000), wk =   0.0026042
        k(   44) = (   0.0000000   0.3333333   0.3750000), wk =   0.0026042
        k(   45) = (   0.0000000   0.3333333  -0.5000000), wk =   0.0013021
        k(   46) = (   0.0000000   0.3750000   0.0000000), wk =   0.0013021
        k(   47) = (   0.0000000   0.3750000   0.1250000), wk =   0.0026042
        k(   48) = (   0.0000000   0.3750000   0.2500000), wk =   0.0026042
        k(   49) = (   0.0000000   0.3750000   0.3750000), wk =   0.0026042
        k(   50) = (   0.0000000   0.3750000  -0.5000000), wk =   0.0013021
        k(   51) = (   0.0000000   0.4166667   0.0000000), wk =   0.0013021
        k(   52) = (   0.0000000   0.4166667   0.1250000), wk =   0.0026042
        k(   53) = (   0.0000000   0.4166667   0.2500000), wk =   0.0026042
        k(   54) = (   0.0000000   0.4166667   0.3750000), wk =   0.0026042
        k(   55) = (   0.0000000   0.4166667  -0.5000000), wk =   0.0013021
        k(   56) = (   0.0000000   0.4583333   0.0000000), wk =   0.0013021
        k(   57) = (   0.0000000   0.4583333   0.1250000), wk =   0.0026042
        k(   58) = (   0.0000000   0.4583333   0.2500000), wk =   0.0026042
        k(   59) = (   0.0000000   0.4583333   0.3750000), wk =   0.0026042
        k(   60) = (   0.0000000   0.4583333  -0.5000000), wk =   0.0013021
        k(   61) = (   0.0000000  -0.5000000   0.0000000), wk =   0.0006510
        k(   62) = (   0.0000000  -0.5000000   0.1250000), wk =   0.0013021
        k(   63) = (   0.0000000  -0.5000000   0.2500000), wk =   0.0013021
        k(   64) = (   0.0000000  -0.5000000   0.3750000), wk =   0.0013021
        k(   65) = (   0.0000000  -0.5000000  -0.5000000), wk =   0.0006510
        k(   66) = (   0.0416667   0.0416667   0.0000000), wk =   0.0013021
        k(   67) = (   0.0416667   0.0416667   0.1250000), wk =   0.0013021
        k(   68) = (   0.0416667   0.0416667   0.2500000), wk =   0.0013021
        k(   69) = (   0.0416667   0.0416667   0.3750000), wk =   0.0013021
        k(   70) = (   0.0416667   0.0416667  -0.5000000), wk =   0.0013021
        k(   71) = (   0.0416667   0.0833333   0.0000000), wk =   0.0026042
        k(   72) = (   0.0416667   0.0833333   0.1250000), wk =   0.0026042
        k(   73) = (   0.0416667   0.0833333   0.2500000), wk =   0.0026042
        k(   74) = (   0.0416667   0.0833333   0.3750000), wk =   0.0026042
        k(   75) = (   0.0416667   0.0833333  -0.5000000), wk =   0.0026042
        k(   76) = (   0.0416667   0.1250000   0.0000000), wk =   0.0026042
        k(   77) = (   0.0416667   0.1250000   0.1250000), wk =   0.0026042
        k(   78) = (   0.0416667   0.1250000   0.2500000), wk =   0.0026042
        k(   79) = (   0.0416667   0.1250000   0.3750000), wk =   0.0026042
        k(   80) = (   0.0416667   0.1250000  -0.5000000), wk =   0.0026042
        k(   81) = (   0.0416667   0.1666667   0.0000000), wk =   0.0026042
        k(   82) = (   0.0416667   0.1666667   0.1250000), wk =   0.0026042
        k(   83) = (   0.0416667   0.1666667   0.2500000), wk =   0.0026042
        k(   84) = (   0.0416667   0.1666667   0.3750000), wk =   0.0026042
        k(   85) = (   0.0416667   0.1666667  -0.5000000), wk =   0.0026042
        k(   86) = (   0.0416667   0.2083333   0.0000000), wk =   0.0026042
        k(   87) = (   0.0416667   0.2083333   0.1250000), wk =   0.0026042
        k(   88) = (   0.0416667   0.2083333   0.2500000), wk =   0.0026042
        k(   89) = (   0.0416667   0.2083333   0.3750000), wk =   0.0026042
        k(   90) = (   0.0416667   0.2083333  -0.5000000), wk =   0.0026042
        k(   91) = (   0.0416667   0.2500000   0.0000000), wk =   0.0026042
        k(   92) = (   0.0416667   0.2500000   0.1250000), wk =   0.0026042
        k(   93) = (   0.0416667   0.2500000   0.2500000), wk =   0.0026042
        k(   94) = (   0.0416667   0.2500000   0.3750000), wk =   0.0026042
        k(   95) = (   0.0416667   0.2500000  -0.5000000), wk =   0.0026042
        k(   96) = (   0.0416667   0.2916667   0.0000000), wk =   0.0026042
        k(   97) = (   0.0416667   0.2916667   0.1250000), wk =   0.0026042
        k(   98) = (   0.0416667   0.2916667   0.2500000), wk =   0.0026042
        k(   99) = (   0.0416667   0.2916667   0.3750000), wk =   0.0026042
        k(  100) = (   0.0416667   0.2916667  -0.5000000), wk =   0.0026042
        k(  101) = (   0.0416667   0.3333333   0.0000000), wk =   0.0026042
        k(  102) = (   0.0416667   0.3333333   0.1250000), wk =   0.0026042
        k(  103) = (   0.0416667   0.3333333   0.2500000), wk =   0.0026042
        k(  104) = (   0.0416667   0.3333333   0.3750000), wk =   0.0026042
        k(  105) = (   0.0416667   0.3333333  -0.5000000), wk =   0.0026042
        k(  106) = (   0.0416667   0.3750000   0.0000000), wk =   0.0026042
        k(  107) = (   0.0416667   0.3750000   0.1250000), wk =   0.0026042
        k(  108) = (   0.0416667   0.3750000   0.2500000), wk =   0.0026042
        k(  109) = (   0.0416667   0.3750000   0.3750000), wk =   0.0026042
        k(  110) = (   0.0416667   0.3750000  -0.5000000), wk =   0.0026042
        k(  111) = (   0.0416667   0.4166667   0.0000000), wk =   0.0026042
        k(  112) = (   0.0416667   0.4166667   0.1250000), wk =   0.0026042
        k(  113) = (   0.0416667   0.4166667   0.2500000), wk =   0.0026042
        k(  114) = (   0.0416667   0.4166667   0.3750000), wk =   0.0026042
        k(  115) = (   0.0416667   0.4166667  -0.5000000), wk =   0.0026042
        k(  116) = (   0.0416667   0.4583333   0.0000000), wk =   0.0026042
        k(  117) = (   0.0416667   0.4583333   0.1250000), wk =   0.0026042
        k(  118) = (   0.0416667   0.4583333   0.2500000), wk =   0.0026042
        k(  119) = (   0.0416667   0.4583333   0.3750000), wk =   0.0026042
        k(  120) = (   0.0416667   0.4583333  -0.5000000), wk =   0.0026042
        k(  121) = (   0.0833333   0.0833333   0.0000000), wk =   0.0013021
        k(  122) = (   0.0833333   0.0833333   0.1250000), wk =   0.0013021
        k(  123) = (   0.0833333   0.0833333   0.2500000), wk =   0.0013021
        k(  124) = (   0.0833333   0.0833333   0.3750000), wk =   0.0013021
        k(  125) = (   0.0833333   0.0833333  -0.5000000), wk =   0.0013021
        k(  126) = (   0.0833333   0.1250000   0.0000000), wk =   0.0026042
        k(  127) = (   0.0833333   0.1250000   0.1250000), wk =   0.0026042
        k(  128) = (   0.0833333   0.1250000   0.2500000), wk =   0.0026042
        k(  129) = (   0.0833333   0.1250000   0.3750000), wk =   0.0026042
        k(  130) = (   0.0833333   0.1250000  -0.5000000), wk =   0.0026042
        k(  131) = (   0.0833333   0.1666667   0.0000000), wk =   0.0026042
        k(  132) = (   0.0833333   0.1666667   0.1250000), wk =   0.0026042
        k(  133) = (   0.0833333   0.1666667   0.2500000), wk =   0.0026042
        k(  134) = (   0.0833333   0.1666667   0.3750000), wk =   0.0026042
        k(  135) = (   0.0833333   0.1666667  -0.5000000), wk =   0.0026042
        k(  136) = (   0.0833333   0.2083333   0.0000000), wk =   0.0026042
        k(  137) = (   0.0833333   0.2083333   0.1250000), wk =   0.0026042
        k(  138) = (   0.0833333   0.2083333   0.2500000), wk =   0.0026042
        k(  139) = (   0.0833333   0.2083333   0.3750000), wk =   0.0026042
        k(  140) = (   0.0833333   0.2083333  -0.5000000), wk =   0.0026042
        k(  141) = (   0.0833333   0.2500000   0.0000000), wk =   0.0026042
        k(  142) = (   0.0833333   0.2500000   0.1250000), wk =   0.0026042
        k(  143) = (   0.0833333   0.2500000   0.2500000), wk =   0.0026042
        k(  144) = (   0.0833333   0.2500000   0.3750000), wk =   0.0026042
        k(  145) = (   0.0833333   0.2500000  -0.5000000), wk =   0.0026042
        k(  146) = (   0.0833333   0.2916667   0.0000000), wk =   0.0026042
        k(  147) = (   0.0833333   0.2916667   0.1250000), wk =   0.0026042
        k(  148) = (   0.0833333   0.2916667   0.2500000), wk =   0.0026042
        k(  149) = (   0.0833333   0.2916667   0.3750000), wk =   0.0026042
        k(  150) = (   0.0833333   0.2916667  -0.5000000), wk =   0.0026042
        k(  151) = (   0.0833333   0.3333333   0.0000000), wk =   0.0026042
        k(  152) = (   0.0833333   0.3333333   0.1250000), wk =   0.0026042
        k(  153) = (   0.0833333   0.3333333   0.2500000), wk =   0.0026042
        k(  154) = (   0.0833333   0.3333333   0.3750000), wk =   0.0026042
        k(  155) = (   0.0833333   0.3333333  -0.5000000), wk =   0.0026042
        k(  156) = (   0.0833333   0.3750000   0.0000000), wk =   0.0026042
        k(  157) = (   0.0833333   0.3750000   0.1250000), wk =   0.0026042
        k(  158) = (   0.0833333   0.3750000   0.2500000), wk =   0.0026042
        k(  159) = (   0.0833333   0.3750000   0.3750000), wk =   0.0026042
        k(  160) = (   0.0833333   0.3750000  -0.5000000), wk =   0.0026042
        k(  161) = (   0.0833333   0.4166667   0.0000000), wk =   0.0026042
        k(  162) = (   0.0833333   0.4166667   0.1250000), wk =   0.0026042
        k(  163) = (   0.0833333   0.4166667   0.2500000), wk =   0.0026042
        k(  164) = (   0.0833333   0.4166667   0.3750000), wk =   0.0026042
        k(  165) = (   0.0833333   0.4166667  -0.5000000), wk =   0.0026042
        k(  166) = (   0.0833333   0.4583333   0.0000000), wk =   0.0013021
        k(  167) = (   0.0833333   0.4583333   0.1250000), wk =   0.0013021
        k(  168) = (   0.0833333   0.4583333   0.2500000), wk =   0.0013021
        k(  169) = (   0.0833333   0.4583333   0.3750000), wk =   0.0013021
        k(  170) = (   0.0833333   0.4583333  -0.5000000), wk =   0.0013021
        k(  171) = (   0.1250000   0.1250000   0.0000000), wk =   0.0013021
        k(  172) = (   0.1250000   0.1250000   0.1250000), wk =   0.0013021
        k(  173) = (   0.1250000   0.1250000   0.2500000), wk =   0.0013021
        k(  174) = (   0.1250000   0.1250000   0.3750000), wk =   0.0013021
        k(  175) = (   0.1250000   0.1250000  -0.5000000), wk =   0.0013021
        k(  176) = (   0.1250000   0.1666667   0.0000000), wk =   0.0026042
        k(  177) = (   0.1250000   0.1666667   0.1250000), wk =   0.0026042
        k(  178) = (   0.1250000   0.1666667   0.2500000), wk =   0.0026042
        k(  179) = (   0.1250000   0.1666667   0.3750000), wk =   0.0026042
        k(  180) = (   0.1250000   0.1666667  -0.5000000), wk =   0.0026042
        k(  181) = (   0.1250000   0.2083333   0.0000000), wk =   0.0026042
        k(  182) = (   0.1250000   0.2083333   0.1250000), wk =   0.0026042
        k(  183) = (   0.1250000   0.2083333   0.2500000), wk =   0.0026042
        k(  184) = (   0.1250000   0.2083333   0.3750000), wk =   0.0026042
        k(  185) = (   0.1250000   0.2083333  -0.5000000), wk =   0.0026042
        k(  186) = (   0.1250000   0.2500000   0.0000000), wk =   0.0026042
        k(  187) = (   0.1250000   0.2500000   0.1250000), wk =   0.0026042
        k(  188) = (   0.1250000   0.2500000   0.2500000), wk =   0.0026042
        k(  189) = (   0.1250000   0.2500000   0.3750000), wk =   0.0026042
        k(  190) = (   0.1250000   0.2500000  -0.5000000), wk =   0.0026042
        k(  191) = (   0.1250000   0.2916667   0.0000000), wk =   0.0026042
        k(  192) = (   0.1250000   0.2916667   0.1250000), wk =   0.0026042
        k(  193) = (   0.1250000   0.2916667   0.2500000), wk =   0.0026042
        k(  194) = (   0.1250000   0.2916667   0.3750000), wk =   0.0026042
        k(  195) = (   0.1250000   0.2916667  -0.5000000), wk =   0.0026042
        k(  196) = (   0.1250000   0.3333333   0.0000000), wk =   0.0026042
        k(  197) = (   0.1250000   0.3333333   0.1250000), wk =   0.0026042
        k(  198) = (   0.1250000   0.3333333   0.2500000), wk =   0.0026042
        k(  199) = (   0.1250000   0.3333333   0.3750000), wk =   0.0026042
        k(  200) = (   0.1250000   0.3333333  -0.5000000), wk =   0.0026042
        k(  201) = (   0.1250000   0.3750000   0.0000000), wk =   0.0026042
        k(  202) = (   0.1250000   0.3750000   0.1250000), wk =   0.0026042
        k(  203) = (   0.1250000   0.3750000   0.2500000), wk =   0.0026042
        k(  204) = (   0.1250000   0.3750000   0.3750000), wk =   0.0026042
        k(  205) = (   0.1250000   0.3750000  -0.5000000), wk =   0.0026042
        k(  206) = (   0.1250000   0.4166667   0.0000000), wk =   0.0026042
        k(  207) = (   0.1250000   0.4166667   0.1250000), wk =   0.0026042
        k(  208) = (   0.1250000   0.4166667   0.2500000), wk =   0.0026042
        k(  209) = (   0.1250000   0.4166667   0.3750000), wk =   0.0026042
        k(  210) = (   0.1250000   0.4166667  -0.5000000), wk =   0.0026042
        k(  211) = (   0.1666667   0.1666667   0.0000000), wk =   0.0013021
        k(  212) = (   0.1666667   0.1666667   0.1250000), wk =   0.0013021
        k(  213) = (   0.1666667   0.1666667   0.2500000), wk =   0.0013021
        k(  214) = (   0.1666667   0.1666667   0.3750000), wk =   0.0013021
        k(  215) = (   0.1666667   0.1666667  -0.5000000), wk =   0.0013021
        k(  216) = (   0.1666667   0.2083333   0.0000000), wk =   0.0026042
        k(  217) = (   0.1666667   0.2083333   0.1250000), wk =   0.0026042
        k(  218) = (   0.1666667   0.2083333   0.2500000), wk =   0.0026042
        k(  219) = (   0.1666667   0.2083333   0.3750000), wk =   0.0026042
        k(  220) = (   0.1666667   0.2083333  -0.5000000), wk =   0.0026042
        k(  221) = (   0.1666667   0.2500000   0.0000000), wk =   0.0026042
        k(  222) = (   0.1666667   0.2500000   0.1250000), wk =   0.0026042
        k(  223) = (   0.1666667   0.2500000   0.2500000), wk =   0.0026042
        k(  224) = (   0.1666667   0.2500000   0.3750000), wk =   0.0026042
        k(  225) = (   0.1666667   0.2500000  -0.5000000), wk =   0.0026042
        k(  226) = (   0.1666667   0.2916667   0.0000000), wk =   0.0026042
        k(  227) = (   0.1666667   0.2916667   0.1250000), wk =   0.0026042
        k(  228) = (   0.1666667   0.2916667   0.2500000), wk =   0.0026042
        k(  229) = (   0.1666667   0.2916667   0.3750000), wk =   0.0026042
        k(  230) = (   0.1666667   0.2916667  -0.5000000), wk =   0.0026042
        k(  231) = (   0.1666667   0.3333333   0.0000000), wk =   0.0026042
        k(  232) = (   0.1666667   0.3333333   0.1250000), wk =   0.0026042
        k(  233) = (   0.1666667   0.3333333   0.2500000), wk =   0.0026042
        k(  234) = (   0.1666667   0.3333333   0.3750000), wk =   0.0026042
        k(  235) = (   0.1666667   0.3333333  -0.5000000), wk =   0.0026042
        k(  236) = (   0.1666667   0.3750000   0.0000000), wk =   0.0026042
        k(  237) = (   0.1666667   0.3750000   0.1250000), wk =   0.0026042
        k(  238) = (   0.1666667   0.3750000   0.2500000), wk =   0.0026042
        k(  239) = (   0.1666667   0.3750000   0.3750000), wk =   0.0026042
        k(  240) = (   0.1666667   0.3750000  -0.5000000), wk =   0.0026042
        k(  241) = (   0.1666667   0.4166667   0.0000000), wk =   0.0013021
        k(  242) = (   0.1666667   0.4166667   0.1250000), wk =   0.0013021
        k(  243) = (   0.1666667   0.4166667   0.2500000), wk =   0.0013021
        k(  244) = (   0.1666667   0.4166667   0.3750000), wk =   0.0013021
        k(  245) = (   0.1666667   0.4166667  -0.5000000), wk =   0.0013021
        k(  246) = (   0.2083333   0.2083333   0.0000000), wk =   0.0013021
        k(  247) = (   0.2083333   0.2083333   0.1250000), wk =   0.0013021
        k(  248) = (   0.2083333   0.2083333   0.2500000), wk =   0.0013021
        k(  249) = (   0.2083333   0.2083333   0.3750000), wk =   0.0013021
        k(  250) = (   0.2083333   0.2083333  -0.5000000), wk =   0.0013021
        k(  251) = (   0.2083333   0.2500000   0.0000000), wk =   0.0026042
        k(  252) = (   0.2083333   0.2500000   0.1250000), wk =   0.0026042
        k(  253) = (   0.2083333   0.2500000   0.2500000), wk =   0.0026042
        k(  254) = (   0.2083333   0.2500000   0.3750000), wk =   0.0026042
        k(  255) = (   0.2083333   0.2500000  -0.5000000), wk =   0.0026042
        k(  256) = (   0.2083333   0.2916667   0.0000000), wk =   0.0026042
        k(  257) = (   0.2083333   0.2916667   0.1250000), wk =   0.0026042
        k(  258) = (   0.2083333   0.2916667   0.2500000), wk =   0.0026042
        k(  259) = (   0.2083333   0.2916667   0.3750000), wk =   0.0026042
        k(  260) = (   0.2083333   0.2916667  -0.5000000), wk =   0.0026042
        k(  261) = (   0.2083333   0.3333333   0.0000000), wk =   0.0026042
        k(  262) = (   0.2083333   0.3333333   0.1250000), wk =   0.0026042
        k(  263) = (   0.2083333   0.3333333   0.2500000), wk =   0.0026042
        k(  264) = (   0.2083333   0.3333333   0.3750000), wk =   0.0026042
        k(  265) = (   0.2083333   0.3333333  -0.5000000), wk =   0.0026042
        k(  266) = (   0.2083333   0.3750000   0.0000000), wk =   0.0026042
        k(  267) = (   0.2083333   0.3750000   0.1250000), wk =   0.0026042
        k(  268) = (   0.2083333   0.3750000   0.2500000), wk =   0.0026042
        k(  269) = (   0.2083333   0.3750000   0.3750000), wk =   0.0026042
        k(  270) = (   0.2083333   0.3750000  -0.5000000), wk =   0.0026042
        k(  271) = (   0.2500000   0.2500000   0.0000000), wk =   0.0013021
        k(  272) = (   0.2500000   0.2500000   0.1250000), wk =   0.0013021
        k(  273) = (   0.2500000   0.2500000   0.2500000), wk =   0.0013021
        k(  274) = (   0.2500000   0.2500000   0.3750000), wk =   0.0013021
        k(  275) = (   0.2500000   0.2500000  -0.5000000), wk =   0.0013021
        k(  276) = (   0.2500000   0.2916667   0.0000000), wk =   0.0026042
        k(  277) = (   0.2500000   0.2916667   0.1250000), wk =   0.0026042
        k(  278) = (   0.2500000   0.2916667   0.2500000), wk =   0.0026042
        k(  279) = (   0.2500000   0.2916667   0.3750000), wk =   0.0026042
        k(  280) = (   0.2500000   0.2916667  -0.5000000), wk =   0.0026042
        k(  281) = (   0.2500000   0.3333333   0.0000000), wk =   0.0026042
        k(  282) = (   0.2500000   0.3333333   0.1250000), wk =   0.0026042
        k(  283) = (   0.2500000   0.3333333   0.2500000), wk =   0.0026042
        k(  284) = (   0.2500000   0.3333333   0.3750000), wk =   0.0026042
        k(  285) = (   0.2500000   0.3333333  -0.5000000), wk =   0.0026042
        k(  286) = (   0.2500000   0.3750000   0.0000000), wk =   0.0013021
        k(  287) = (   0.2500000   0.3750000   0.1250000), wk =   0.0013021
        k(  288) = (   0.2500000   0.3750000   0.2500000), wk =   0.0013021
        k(  289) = (   0.2500000   0.3750000   0.3750000), wk =   0.0013021
        k(  290) = (   0.2500000   0.3750000  -0.5000000), wk =   0.0013021
        k(  291) = (   0.2916667   0.2916667   0.0000000), wk =   0.0013021
        k(  292) = (   0.2916667   0.2916667   0.1250000), wk =   0.0013021
        k(  293) = (   0.2916667   0.2916667   0.2500000), wk =   0.0013021
        k(  294) = (   0.2916667   0.2916667   0.3750000), wk =   0.0013021
        k(  295) = (   0.2916667   0.2916667  -0.5000000), wk =   0.0013021
        k(  296) = (   0.2916667   0.3333333   0.0000000), wk =   0.0026042
        k(  297) = (   0.2916667   0.3333333   0.1250000), wk =   0.0026042
        k(  298) = (   0.2916667   0.3333333   0.2500000), wk =   0.0026042
        k(  299) = (   0.2916667   0.3333333   0.3750000), wk =   0.0026042
        k(  300) = (   0.2916667   0.3333333  -0.5000000), wk =   0.0026042
        k(  301) = (   0.3333333   0.3333333   0.0000000), wk =   0.0004340
        k(  302) = (   0.3333333   0.3333333   0.1250000), wk =   0.0004340
        k(  303) = (   0.3333333   0.3333333   0.2500000), wk =   0.0004340
        k(  304) = (   0.3333333   0.3333333   0.3750000), wk =   0.0004340
        k(  305) = (   0.3333333   0.3333333  -0.5000000), wk =   0.0004340
        k(  306) = (  -0.0416667  -0.0416667   0.1250000), wk =   0.0013021
        k(  307) = (  -0.0416667  -0.0416667   0.2500000), wk =   0.0013021
        k(  308) = (  -0.0416667  -0.0416667   0.3750000), wk =   0.0013021
        k(  309) = (  -0.0416667  -0.0833333   0.1250000), wk =   0.0026042
        k(  310) = (  -0.0416667  -0.0833333   0.2500000), wk =   0.0026042
        k(  311) = (  -0.0416667  -0.0833333   0.3750000), wk =   0.0026042
        k(  312) = (  -0.0416667  -0.1250000   0.1250000), wk =   0.0026042
        k(  313) = (  -0.0416667  -0.1250000   0.2500000), wk =   0.0026042
        k(  314) = (  -0.0416667  -0.1250000   0.3750000), wk =   0.0026042
        k(  315) = (  -0.0416667  -0.1666667   0.1250000), wk =   0.0026042
        k(  316) = (  -0.0416667  -0.1666667   0.2500000), wk =   0.0026042
        k(  317) = (  -0.0416667  -0.1666667   0.3750000), wk =   0.0026042
        k(  318) = (  -0.0416667  -0.2083333   0.1250000), wk =   0.0026042
        k(  319) = (  -0.0416667  -0.2083333   0.2500000), wk =   0.0026042
        k(  320) = (  -0.0416667  -0.2083333   0.3750000), wk =   0.0026042
        k(  321) = (  -0.0416667  -0.2500000   0.1250000), wk =   0.0026042
        k(  322) = (  -0.0416667  -0.2500000   0.2500000), wk =   0.0026042
        k(  323) = (  -0.0416667  -0.2500000   0.3750000), wk =   0.0026042
        k(  324) = (  -0.0416667  -0.2916667   0.1250000), wk =   0.0026042
        k(  325) = (  -0.0416667  -0.2916667   0.2500000), wk =   0.0026042
        k(  326) = (  -0.0416667  -0.2916667   0.3750000), wk =   0.0026042
        k(  327) = (  -0.0416667  -0.3333333   0.1250000), wk =   0.0026042
        k(  328) = (  -0.0416667  -0.3333333   0.2500000), wk =   0.0026042
        k(  329) = (  -0.0416667  -0.3333333   0.3750000), wk =   0.0026042
        k(  330) = (  -0.0416667  -0.3750000   0.1250000), wk =   0.0026042
        k(  331) = (  -0.0416667  -0.3750000   0.2500000), wk =   0.0026042
        k(  332) = (  -0.0416667  -0.3750000   0.3750000), wk =   0.0026042
        k(  333) = (  -0.0416667  -0.4166667   0.1250000), wk =   0.0026042
        k(  334) = (  -0.0416667  -0.4166667   0.2500000), wk =   0.0026042
        k(  335) = (  -0.0416667  -0.4166667   0.3750000), wk =   0.0026042
        k(  336) = (  -0.0416667  -0.4583333   0.1250000), wk =   0.0026042
        k(  337) = (  -0.0416667  -0.4583333   0.2500000), wk =   0.0026042
        k(  338) = (  -0.0416667  -0.4583333   0.3750000), wk =   0.0026042
        k(  339) = (  -0.0833333  -0.0833333   0.1250000), wk =   0.0013021
        k(  340) = (  -0.0833333  -0.0833333   0.2500000), wk =   0.0013021
        k(  341) = (  -0.0833333  -0.0833333   0.3750000), wk =   0.0013021
        k(  342) = (  -0.0833333  -0.1250000   0.1250000), wk =   0.0026042
        k(  343) = (  -0.0833333  -0.1250000   0.2500000), wk =   0.0026042
        k(  344) = (  -0.0833333  -0.1250000   0.3750000), wk =   0.0026042
        k(  345) = (  -0.0833333  -0.1666667   0.1250000), wk =   0.0026042
        k(  346) = (  -0.0833333  -0.1666667   0.2500000), wk =   0.0026042
        k(  347) = (  -0.0833333  -0.1666667   0.3750000), wk =   0.0026042
        k(  348) = (  -0.0833333  -0.2083333   0.1250000), wk =   0.0026042
        k(  349) = (  -0.0833333  -0.2083333   0.2500000), wk =   0.0026042
        k(  350) = (  -0.0833333  -0.2083333   0.3750000), wk =   0.0026042
        k(  351) = (  -0.0833333  -0.2500000   0.1250000), wk =   0.0026042
        k(  352) = (  -0.0833333  -0.2500000   0.2500000), wk =   0.0026042
        k(  353) = (  -0.0833333  -0.2500000   0.3750000), wk =   0.0026042
        k(  354) = (  -0.0833333  -0.2916667   0.1250000), wk =   0.0026042
        k(  355) = (  -0.0833333  -0.2916667   0.2500000), wk =   0.0026042
        k(  356) = (  -0.0833333  -0.2916667   0.3750000), wk =   0.0026042
        k(  357) = (  -0.0833333  -0.3333333   0.1250000), wk =   0.0026042
        k(  358) = (  -0.0833333  -0.3333333   0.2500000), wk =   0.0026042
        k(  359) = (  -0.0833333  -0.3333333   0.3750000), wk =   0.0026042
        k(  360) = (  -0.0833333  -0.3750000   0.1250000), wk =   0.0026042
        k(  361) = (  -0.0833333  -0.3750000   0.2500000), wk =   0.0026042
        k(  362) = (  -0.0833333  -0.3750000   0.3750000), wk =   0.0026042
        k(  363) = (  -0.0833333  -0.4166667   0.1250000), wk =   0.0026042
        k(  364) = (  -0.0833333  -0.4166667   0.2500000), wk =   0.0026042
        k(  365) = (  -0.0833333  -0.4166667   0.3750000), wk =   0.0026042
        k(  366) = (  -0.0833333  -0.4583333   0.1250000), wk =   0.0013021
        k(  367) = (  -0.0833333  -0.4583333   0.2500000), wk =   0.0013021
        k(  368) = (  -0.0833333  -0.4583333   0.3750000), wk =   0.0013021
        k(  369) = (  -0.1250000  -0.1250000   0.1250000), wk =   0.0013021
        k(  370) = (  -0.1250000  -0.1250000   0.2500000), wk =   0.0013021
        k(  371) = (  -0.1250000  -0.1250000   0.3750000), wk =   0.0013021
        k(  372) = (  -0.1250000  -0.1666667   0.1250000), wk =   0.0026042
        k(  373) = (  -0.1250000  -0.1666667   0.2500000), wk =   0.0026042
        k(  374) = (  -0.1250000  -0.1666667   0.3750000), wk =   0.0026042
        k(  375) = (  -0.1250000  -0.2083333   0.1250000), wk =   0.0026042
        k(  376) = (  -0.1250000  -0.2083333   0.2500000), wk =   0.0026042
        k(  377) = (  -0.1250000  -0.2083333   0.3750000), wk =   0.0026042
        k(  378) = (  -0.1250000  -0.2500000   0.1250000), wk =   0.0026042
        k(  379) = (  -0.1250000  -0.2500000   0.2500000), wk =   0.0026042
        k(  380) = (  -0.1250000  -0.2500000   0.3750000), wk =   0.0026042
        k(  381) = (  -0.1250000  -0.2916667   0.1250000), wk =   0.0026042
        k(  382) = (  -0.1250000  -0.2916667   0.2500000), wk =   0.0026042
        k(  383) = (  -0.1250000  -0.2916667   0.3750000), wk =   0.0026042
        k(  384) = (  -0.1250000  -0.3333333   0.1250000), wk =   0.0026042
        k(  385) = (  -0.1250000  -0.3333333   0.2500000), wk =   0.0026042
        k(  386) = (  -0.1250000  -0.3333333   0.3750000), wk =   0.0026042
        k(  387) = (  -0.1250000  -0.3750000   0.1250000), wk =   0.0026042
        k(  388) = (  -0.1250000  -0.3750000   0.2500000), wk =   0.0026042
        k(  389) = (  -0.1250000  -0.3750000   0.3750000), wk =   0.0026042
        k(  390) = (  -0.1250000  -0.4166667   0.1250000), wk =   0.0026042
        k(  391) = (  -0.1250000  -0.4166667   0.2500000), wk =   0.0026042
        k(  392) = (  -0.1250000  -0.4166667   0.3750000), wk =   0.0026042
        k(  393) = (  -0.1666667  -0.1666667   0.1250000), wk =   0.0013021
        k(  394) = (  -0.1666667  -0.1666667   0.2500000), wk =   0.0013021
        k(  395) = (  -0.1666667  -0.1666667   0.3750000), wk =   0.0013021
        k(  396) = (  -0.1666667  -0.2083333   0.1250000), wk =   0.0026042
        k(  397) = (  -0.1666667  -0.2083333   0.2500000), wk =   0.0026042
        k(  398) = (  -0.1666667  -0.2083333   0.3750000), wk =   0.0026042
        k(  399) = (  -0.1666667  -0.2500000   0.1250000), wk =   0.0026042
        k(  400) = (  -0.1666667  -0.2500000   0.2500000), wk =   0.0026042
        k(  401) = (  -0.1666667  -0.2500000   0.3750000), wk =   0.0026042
        k(  402) = (  -0.1666667  -0.2916667   0.1250000), wk =   0.0026042
        k(  403) = (  -0.1666667  -0.2916667   0.2500000), wk =   0.0026042
        k(  404) = (  -0.1666667  -0.2916667   0.3750000), wk =   0.0026042
        k(  405) = (  -0.1666667  -0.3333333   0.1250000), wk =   0.0026042
        k(  406) = (  -0.1666667  -0.3333333   0.2500000), wk =   0.0026042
        k(  407) = (  -0.1666667  -0.3333333   0.3750000), wk =   0.0026042
        k(  408) = (  -0.1666667  -0.3750000   0.1250000), wk =   0.0026042
        k(  409) = (  -0.1666667  -0.3750000   0.2500000), wk =   0.0026042
        k(  410) = (  -0.1666667  -0.3750000   0.3750000), wk =   0.0026042
        k(  411) = (  -0.1666667  -0.4166667   0.1250000), wk =   0.0013021
        k(  412) = (  -0.1666667  -0.4166667   0.2500000), wk =   0.0013021
        k(  413) = (  -0.1666667  -0.4166667   0.3750000), wk =   0.0013021
        k(  414) = (  -0.2083333  -0.2083333   0.1250000), wk =   0.0013021
        k(  415) = (  -0.2083333  -0.2083333   0.2500000), wk =   0.0013021
        k(  416) = (  -0.2083333  -0.2083333   0.3750000), wk =   0.0013021
        k(  417) = (  -0.2083333  -0.2500000   0.1250000), wk =   0.0026042
        k(  418) = (  -0.2083333  -0.2500000   0.2500000), wk =   0.0026042
        k(  419) = (  -0.2083333  -0.2500000   0.3750000), wk =   0.0026042
        k(  420) = (  -0.2083333  -0.2916667   0.1250000), wk =   0.0026042
        k(  421) = (  -0.2083333  -0.2916667   0.2500000), wk =   0.0026042
        k(  422) = (  -0.2083333  -0.2916667   0.3750000), wk =   0.0026042
        k(  423) = (  -0.2083333  -0.3333333   0.1250000), wk =   0.0026042
        k(  424) = (  -0.2083333  -0.3333333   0.2500000), wk =   0.0026042
        k(  425) = (  -0.2083333  -0.3333333   0.3750000), wk =   0.0026042
        k(  426) = (  -0.2083333  -0.3750000   0.1250000), wk =   0.0026042
        k(  427) = (  -0.2083333  -0.3750000   0.2500000), wk =   0.0026042
        k(  428) = (  -0.2083333  -0.3750000   0.3750000), wk =   0.0026042
        k(  429) = (  -0.2500000  -0.2500000   0.1250000), wk =   0.0013021
        k(  430) = (  -0.2500000  -0.2500000   0.2500000), wk =   0.0013021
        k(  431) = (  -0.2500000  -0.2500000   0.3750000), wk =   0.0013021
        k(  432) = (  -0.2500000  -0.2916667   0.1250000), wk =   0.0026042
        k(  433) = (  -0.2500000  -0.2916667   0.2500000), wk =   0.0026042
        k(  434) = (  -0.2500000  -0.2916667   0.3750000), wk =   0.0026042
        k(  435) = (  -0.2500000  -0.3333333   0.1250000), wk =   0.0026042
        k(  436) = (  -0.2500000  -0.3333333   0.2500000), wk =   0.0026042
        k(  437) = (  -0.2500000  -0.3333333   0.3750000), wk =   0.0026042
        k(  438) = (  -0.2500000  -0.3750000   0.1250000), wk =   0.0013021
        k(  439) = (  -0.2500000  -0.3750000   0.2500000), wk =   0.0013021
        k(  440) = (  -0.2500000  -0.3750000   0.3750000), wk =   0.0013021
        k(  441) = (  -0.2916667  -0.2916667   0.1250000), wk =   0.0013021
        k(  442) = (  -0.2916667  -0.2916667   0.2500000), wk =   0.0013021
        k(  443) = (  -0.2916667  -0.2916667   0.3750000), wk =   0.0013021
        k(  444) = (  -0.2916667  -0.3333333   0.1250000), wk =   0.0026042
        k(  445) = (  -0.2916667  -0.3333333   0.2500000), wk =   0.0026042
        k(  446) = (  -0.2916667  -0.3333333   0.3750000), wk =   0.0026042
        k(  447) = (  -0.3333333  -0.3333333   0.1250000), wk =   0.0004340
        k(  448) = (  -0.3333333  -0.3333333   0.2500000), wk =   0.0004340
        k(  449) = (  -0.3333333  -0.3333333   0.3750000), wk =   0.0004340

     Dense  grid:   256907 G-vectors     FFT dimensions: (  72,  72, 135)

     Smooth grid:    90927 G-vectors     FFT dimensions: (  48,  48,  96)

     Dynamical RAM for                 wfc:      11.10 MB

     Dynamical RAM for     wfc (w. buffer):      11.10 MB

     Dynamical RAM for           str. fact:      11.76 MB

     Dynamical RAM for           local pot:       0.00 MB

     Dynamical RAM for          nlocal pot:      19.07 MB

     Dynamical RAM for                qrad:       5.27 MB

     Dynamical RAM for          rho,v,vnew:      55.56 MB

     Dynamical RAM for           G-vectors:      15.39 MB

     Dynamical RAM for          h,s,v(r/c):       0.75 MB

     Dynamical RAM for          <psi|beta>:       0.11 MB

     Dynamical RAM for                 psi:      22.19 MB

     Dynamical RAM for                hpsi:      22.19 MB

     Dynamical RAM for                spsi:      22.19 MB

     Dynamical RAM for      wfcinit/wfcrot:      22.29 MB

     Dynamical RAM for           addusdens:     756.58 MB

     Estimated static dynamical RAM per process >     165.87 MB

     Estimated max dynamical RAM per process >     922.44 MB

     Check: negative core charge=   -0.000006
     Generating pointlists ...
     new r_m :   0.1587 (alat units)  1.4998 (a.u.) for type    1
     new r_m :   0.1587 (alat units)  1.4998 (a.u.) for type    2
     new r_m :   0.3005 (alat units)  2.8404 (a.u.) for type    3

[...]
     c_bands:  1 eigenvalues not converged
     total cpu time spent up to now is      149.3 secs

     Computing kpt #:   200  of   898
     c_bands:  1 eigenvalues not converged
     total cpu time spent up to now is      150.1 secs

     Computing kpt #:   201  of   898
     total cpu time spent up to now is      150.7 secs

     Computing kpt #:   202  of   898
     total cpu time spent up to now is      151.3 secs

     Computing kpt #:   203  of   898
     total cpu time spent up to now is      151.9 secs

     Computing kpt #:   204  of   898
     total cpu time spent up to now is      152.6 secs

     Computing kpt #:   205  of   898
     total cpu time spent up to now is      153.3 secs

     Computing kpt #:   206  of   898
     total cpu time spent up to now is      153.9 secs

     Computing kpt #:   207  of   898
     total cpu time spent up to now is      154.5 secs

     Computing kpt #:   208  of   898
     total cpu time spent up to now is      155.1 secs

     Computing kpt #:   209  of   898
     total cpu time spent up to now is      155.7 secs

     Computing kpt #:   210  of   898
     total cpu time spent up to now is      156.4 secs

     Computing kpt #:   211  of   898
     total cpu time spent up to now is      157.0 secs

     Computing kpt #:   212  of   898
     total cpu time spent up to now is      157.6 secs

     Computing kpt #:   213  of   898
     total cpu time spent up to now is      158.3 secs

     Computing kpt #:   214  of   898
     total cpu time spent up to now is      159.0 secs

     Computing kpt #:   215  of   898
     total cpu time spent up to now is      159.8 secs

     Computing kpt #:   216  of   898
     total cpu time spent up to now is      160.4 secs

     Computing kpt #:   217  of   898
     total cpu time spent up to now is      161.0 secs

     Computing kpt #:   218  of   898
     total cpu time spent up to now is      161.7 secs

     Computing kpt #:   219  of   898
     total cpu time spent up to now is      162.5 secs

     Computing kpt #:   220  of   898
     c_bands:  1 eigenvalues not converged
     total cpu time spent up to now is      163.3 secs

     Computing kpt #:   221  of   898
     total cpu time spent up to now is      164.0 secs

     Computing kpt #:   222  of   898
     total cpu time spent up to now is      164.7 secs

     Computing kpt #:   223  of   898
     total cpu time spent up to now is      165.4 secs

     Computing kpt #:   224  of   898
     c_bands:  1 eigenvalues not converged
     total cpu time spent up to now is      166.2 secs

     Computing kpt #:   225  of   898
     c_bands:  1 eigenvalues not converged
     total cpu time spent up to now is      167.0 secs

     Computing kpt #:   226  of   898
     total cpu time spent up to now is      167.7 secs

     Computing kpt #:   227  of   898
     total cpu time spent up to now is      168.5 secs

     Computing kpt #:   228  of   898
     c_bands:  1 eigenvalues not converged
     total cpu time spent up to now is      169.3 secs

     Computing kpt #:   229  of   898
     c_bands:  1 eigenvalues not converged
     total cpu time spent up to now is      170.1 secs

     Computing kpt #:   230  of   898
     c_bands:  1 eigenvalues not converged
     total cpu time spent up to now is      170.9 secs

     Computing kpt #:   231  of   898
     total cpu time spent up to now is      171.4 secs

     Computing kpt #:   232  of   898
     total cpu time spent up to now is      172.0 secs

     Computing kpt #:   233  of   898
     total cpu time spent up to now is      172.8 secs

     Computing kpt #:   234  of   898
     total cpu time spent up to now is      173.5 secs

     Computing kpt #:   235  of   898
     total cpu time spent up to now is      174.3 secs

     Computing kpt #:   236  of   898
     total cpu time spent up to now is      174.9 secs

     Computing kpt #:   237  of   898
     total cpu time spent up to now is      175.5 secs

     Computing kpt #:   238  of   898
     total cpu time spent up to now is      176.1 secs

     Computing kpt #:   239  of   898
     total cpu time spent up to now is      176.8 secs

     Computing kpt #:   240  of   898
     total cpu time spent up to now is      177.5 secs

     Computing kpt #:   241  of   898
     total cpu time spent up to now is      178.1 secs

     Computing kpt #:   242  of   898
     total cpu time spent up to now is      178.7 secs

     Computing kpt #:   243  of   898
     total cpu time spent up to now is      179.3 secs

     Computing kpt #:   244  of   898
     total cpu time spent up to now is      180.0 secs

     Computing kpt #:   245  of   898
     total cpu time spent up to now is      180.6 secs

     Computing kpt #:   246  of   898
     total cpu time spent up to now is      181.3 secs

     Computing kpt #:   247  of   898
     total cpu time spent up to now is      181.9 secs

     Computing kpt #:   248  of   898
     total cpu time spent up to now is      182.6 secs

     Computing kpt #:   249  of   898
     total cpu time spent up to now is      183.3 secs

     Computing kpt #:   250  of   898
     total cpu time spent up to now is      184.1 secs

     Computing kpt #:   251  of   898
     total cpu time spent up to now is      184.8 secs

     Computing kpt #:   252  of   898
     total cpu time spent up to now is      185.5 secs

     Computing kpt #:   253  of   898
     total cpu time spent up to now is      186.2 secs

     Computing kpt #:   254  of   898
     total cpu time spent up to now is      186.9 secs

     Computing kpt #:   255  of   898
     total cpu time spent up to now is      187.7 secs

     Computing kpt #:   256  of   898
     total cpu time spent up to now is      188.4 secs

     Computing kpt #:   257  of   898
     total cpu time spent up to now is      189.2 secs

     Computing kpt #:   258  of   898
     total cpu time spent up to now is      189.9 secs

     Computing kpt #:   259  of   898
     total cpu time spent up to now is      190.7 secs

     Computing kpt #:   260  of   898
     c_bands:  1 eigenvalues not converged
     total cpu time spent up to now is      191.5 secs

     Computing kpt #:   261  of   898
     total cpu time spent up to now is      192.1 secs

     Computing kpt #:   262  of   898
     total cpu time spent up to now is      192.7 secs

     Computing kpt #:   263  of   898
     total cpu time spent up to now is      193.4 secs

     Computing kpt #:   264  of   898
     total cpu time spent up to now is      194.1 secs

     Computing kpt #:   265  of   898
     total cpu time spent up to now is      194.8 secs

     Computing kpt #:   266  of   898
     total cpu time spent up to now is      195.4 secs

     Computing kpt #:   267  of   898
     total cpu time spent up to now is      196.1 secs

     Computing kpt #:   268  of   898
     total cpu time spent up to now is      196.7 secs

     Computing kpt #:   269  of   898
     total cpu time spent up to now is      197.3 secs

     Computing kpt #:   270  of   898
     total cpu time spent up to now is      198.0 secs

     Computing kpt #:   271  of   898
     total cpu time spent up to now is      198.7 secs

     Computing kpt #:   272  of   898
     total cpu time spent up to now is      199.4 secs

     Computing kpt #:   273  of   898
     total cpu time spent up to now is      200.1 secs

     Computing kpt #:   274  of   898
     total cpu time spent up to now is      200.8 secs

     Computing kpt #:   275  of   898
     total cpu time spent up to now is      201.6 secs

     Computing kpt #:   276  of   898
     total cpu time spent up to now is      202.3 secs

     Computing kpt #:   277  of   898
     total cpu time spent up to now is      203.0 secs

     Computing kpt #:   278  of   898
     total cpu time spent up to now is      203.7 secs

     Computing kpt #:   279  of   898
     total cpu time spent up to now is      204.5 secs

     Computing kpt #:   280  of   898
     total cpu time spent up to now is      205.2 secs

     Computing kpt #:   281  of   898
     total cpu time spent up to now is      205.9 secs

     Computing kpt #:   282  of   898
     total cpu time spent up to now is      206.5 secs

     Computing kpt #:   283  of   898
     total cpu time spent up to now is      207.2 secs

     Computing kpt #:   284  of   898
     total cpu time spent up to now is      207.8 secs

     Computing kpt #:   285  of   898
     total cpu time spent up to now is      208.5 secs

     Computing kpt #:   286  of   898
     total cpu time spent up to now is      209.2 secs

     Computing kpt #:   287  of   898
     total cpu time spent up to now is      209.9 secs

     Computing kpt #:   288  of   898
     total cpu time spent up to now is      210.5 secs

     Computing kpt #:   289  of   898
     total cpu time spent up to now is      211.1 secs

     Computing kpt #:   290  of   898
     total cpu time spent up to now is      211.8 secs

     Computing kpt #:   291  of   898
     c_bands:  1 eigenvalues not converged
     total cpu time spent up to now is      212.6 secs

     Computing kpt #:   292  of   898
     total cpu time spent up to now is      213.3 secs

     Computing kpt #:   293  of   898
     total cpu time spent up to now is      214.0 secs

     Computing kpt #:   294  of   898
     total cpu time spent up to now is      214.7 secs

     Computing kpt #:   295  of   898
     total cpu time spent up to now is      215.5 secs

     Computing kpt #:   296  of   898
     c_bands:  1 eigenvalues not converged
     total cpu time spent up to now is      216.3 secs

     Computing kpt #:   297  of   898
     c_bands:  1 eigenvalues not converged
     total cpu time spent up to now is      217.1 secs

     Computing kpt #:   298  of   898
     c_bands:  1 eigenvalues not converged
     total cpu time spent up to now is      217.8 secs

     Computing kpt #:   299  of   898
     c_bands:  1 eigenvalues not converged
     total cpu time spent up to now is      218.6 secs

     Computing kpt #:   300  of   898
     total cpu time spent up to now is      219.4 secs

     Computing kpt #:   301  of   898
     total cpu time spent up to now is      220.0 secs

     Computing kpt #:   302  of   898
     total cpu time spent up to now is      220.6 secs

     Computing kpt #:   303  of   898
     total cpu time spent up to now is      221.2 secs

     Computing kpt #:   304  of   898
     total cpu time spent up to now is      221.9 secs

     Computing kpt #:   305  of   898
     total cpu time spent up to now is      222.6 secs

     Computing kpt #:   306  of   898
     c_bands:  1 eigenvalues not converged
     total cpu time spent up to now is      223.4 secs

     Computing kpt #:   307  of   898
     c_bands:  1 eigenvalues not converged
     total cpu time spent up to now is      224.1 secs

     Computing kpt #:   308  of   898
     total cpu time spent up to now is      224.8 secs

     Computing kpt #:   309  of   898
     c_bands:  1 eigenvalues not converged
     total cpu time spent up to now is      225.6 secs

     Computing kpt #:   310  of   898
     c_bands:  1 eigenvalues not converged
     total cpu time spent up to now is      226.4 secs

     Computing kpt #:   311  of   898
     c_bands:  1 eigenvalues not converged
     total cpu time spent up to now is      227.2 secs

     Computing kpt #:   312  of   898
     c_bands:  1 eigenvalues not converged
     total cpu time spent up to now is      228.0 secs

     Computing kpt #:   313  of   898
     total cpu time spent up to now is      228.7 secs

     Computing kpt #:   314  of   898
     total cpu time spent up to now is      229.4 secs

     Computing kpt #:   315  of   898
     c_bands:  1 eigenvalues not converged
     total cpu time spent up to now is      230.1 secs

     Computing kpt #:   316  of   898
     c_bands:  1 eigenvalues not converged
     total cpu time spent up to now is      230.9 secs

     Computing kpt #:   317  of   898
     total cpu time spent up to now is      231.5 secs

     Computing kpt #:   318  of   898
     c_bands:  1 eigenvalues not converged
     total cpu time spent up to now is      232.3 secs

     Computing kpt #:   319  of   898
     c_bands:  2 eigenvalues not converged
     total cpu time spent up to now is      233.1 secs

     Computing kpt #:   320  of   898
     c_bands:  1 eigenvalues not converged
     total cpu time spent up to now is      233.9 secs

     Computing kpt #:   321  of   898
     c_bands:  1 eigenvalues not converged
     total cpu time spent up to now is      234.6 secs

     Computing kpt #:   322  of   898
     c_bands:  1 eigenvalues not converged
     total cpu time spent up to now is      235.4 secs

     Computing kpt #:   323  of   898
     total cpu time spent up to now is      236.1 secs

     Computing kpt #:   324  of   898
     c_bands:  1 eigenvalues not converged
     total cpu time spent up to now is      236.9 secs

     Computing kpt #:   325  of   898
     c_bands:  1 eigenvalues not converged
     total cpu time spent up to now is      237.7 secs

     Computing kpt #:   326  of   898
     total cpu time spent up to now is      238.3 secs

     Computing kpt #:   327  of   898
     total cpu time spent up to now is      239.1 secs

     Computing kpt #:   328  of   898
     c_bands:  1 eigenvalues not converged
     total cpu time spent up to now is      239.8 secs

     Computing kpt #:   329  of   898
     c_bands:  1 eigenvalues not converged
     total cpu time spent up to now is      240.6 secs

     Computing kpt #:   330  of   898
     total cpu time spent up to now is      241.3 secs

     Computing kpt #:   331  of   898
     total cpu time spent up to now is      242.0 secs

     Computing kpt #:   332  of   898
     c_bands:  1 eigenvalues not converged
     total cpu time spent up to now is      242.8 secs

     Computing kpt #:   333  of   898
     total cpu time spent up to now is      243.4 secs

     Computing kpt #:   334  of   898
     total cpu time spent up to now is      244.0 secs

     Computing kpt #:   335  of   898
     total cpu time spent up to now is      244.7 secs

     Computing kpt #:   336  of   898
     total cpu time spent up to now is      245.4 secs

     Computing kpt #:   337  of   898
     total cpu time spent up to now is      246.0 secs

     Computing kpt #:   338  of   898
     total cpu time spent up to now is      246.7 secs

     Computing kpt #:   339  of   898
     total cpu time spent up to now is      247.4 secs

     Computing kpt #:   340  of   898
     total cpu time spent up to now is      248.1 secs

     Computing kpt #:   341  of   898
     total cpu time spent up to now is      248.7 secs

     Computing kpt #:   342  of   898
     c_bands:  1 eigenvalues not converged
     total cpu time spent up to now is      249.5 secs

     Computing kpt #:   343  of   898
     c_bands:  1 eigenvalues not converged
     total cpu time spent up to now is      250.3 secs

     Computing kpt #:   344  of   898
     total cpu time spent up to now is      250.9 secs

     Computing kpt #:   345  of   898
     total cpu time spent up to now is      251.6 secs

     Computing kpt #:   346  of   898
     c_bands:  1 eigenvalues not converged
     total cpu time spent up to now is      252.3 secs

     Computing kpt #:   347  of   898
     c_bands:  1 eigenvalues not converged
     total cpu time spent up to now is      253.1 secs

     Computing kpt #:   348  of   898
     total cpu time spent up to now is      253.8 secs

     Computing kpt #:   349  of   898
     c_bands:  1 eigenvalues not converged
     total cpu time spent up to now is      254.6 secs

     Computing kpt #:   350  of   898
     total cpu time spent up to now is      255.4 secs

     Computing kpt #:   351  of   898
     total cpu time spent up to now is      256.1 secs

     Computing kpt #:   352  of   898
     c_bands:  1 eigenvalues not converged
     total cpu time spent up to now is      256.9 secs

     Computing kpt #:   353  of   898
     c_bands:  1 eigenvalues not converged
     total cpu time spent up to now is      257.7 secs

     Computing kpt #:   354  of   898
     c_bands:  1 eigenvalues not converged
     total cpu time spent up to now is      258.5 secs

     Computing kpt #:   355  of   898
     c_bands:  1 eigenvalues not converged
     total cpu time spent up to now is      259.3 secs

     Computing kpt #:   356  of   898
     c_bands:  1 eigenvalues not converged
     total cpu time spent up to now is      260.1 secs

     Computing kpt #:   357  of   898
     total cpu time spent up to now is      260.8 secs

     Computing kpt #:   358  of   898
     total cpu time spent up to now is      261.6 secs

     Computing kpt #:   359  of   898
     c_bands:  1 eigenvalues not converged
     total cpu time spent up to now is      262.4 secs

     Computing kpt #:   360  of   898
     total cpu time spent up to now is      262.9 secs

     Computing kpt #:   361  of   898
     total cpu time spent up to now is      263.6 secs

     Computing kpt #:   362  of   898
     total cpu time spent up to now is      264.3 secs

     Computing kpt #:   363  of   898
     total cpu time spent up to now is      264.9 secs

     Computing kpt #:   364  of   898
     total cpu time spent up to now is      265.5 secs

     Computing kpt #:   365  of   898
     total cpu time spent up to now is      266.2 secs

     Computing kpt #:   366  of   898
     total cpu time spent up to now is      266.7 secs

     Computing kpt #:   367  of   898
     total cpu time spent up to now is      267.4 secs

     Computing kpt #:   368  of   898
     total cpu time spent up to now is      268.0 secs

     Computing kpt #:   369  of   898
     total cpu time spent up to now is      268.7 secs

     Computing kpt #:   370  of   898
     c_bands:  1 eigenvalues not converged
     total cpu time spent up to now is      269.4 secs

     Computing kpt #:   371  of   898
     c_bands:  1 eigenvalues not converged
     total cpu time spent up to now is      270.2 secs

     Computing kpt #:   372  of   898
     total cpu time spent up to now is      270.8 secs

     Computing kpt #:   373  of   898
     total cpu time spent up to now is      271.5 secs

     Computing kpt #:   374  of   898
     total cpu time spent up to now is      272.3 secs

     Computing kpt #:   375  of   898
     total cpu time spent up to now is      272.9 secs

     Computing kpt #:   376  of   898
     total cpu time spent up to now is      273.7 secs

     Computing kpt #:   377  of   898
     c_bands:  1 eigenvalues not converged
     total cpu time spent up to now is      274.5 secs

     Computing kpt #:   378  of   898
     total cpu time spent up to now is      275.2 secs

     Computing kpt #:   379  of   898
     c_bands:  1 eigenvalues not converged
     total cpu time spent up to now is      276.0 secs

     Computing kpt #:   380  of   898
     c_bands:  1 eigenvalues not converged
     total cpu time spent up to now is      276.8 secs

     Computing kpt #:   381  of   898
     total cpu time spent up to now is      277.6 secs

     Computing kpt #:   382  of   898
     c_bands:  1 eigenvalues not converged

 %%%%%%%%%%%%%%%%%%%%%%%%%%%%%%%%%%%%%%%%%%%%%%%%%%%%%%%%%%%%%%%%%%%%%%%%%%%%%%
     Error in routine davcio (10):
     error writing file "../Na_s3_c9.9_d0.75/out/pw.wfc1"
 %%%%%%%%%%%%%%%%%%%%%%%%%%%%%%%%%%%%%%%%%%%%%%%%%%%%%%%%%%%%%%%%%%%%%%%%%%%%%%

     stopping ...
--------------------------------------------------------------------------
MPI_ABORT was invoked on rank 0 in communicator MPI_COMM_WORLD
with errorcode 1.

NOTE: invoking MPI_ABORT causes Open MPI to kill all MPI processes.
You may or may not see output from other processes, depending on
exactly when Open MPI kills them.
--------------------------------------------------------------------------
