
     Program PWSCF v.7.3.1 starts on 12Jul2026 at  7:13:15 

     This program is part of the open-source Quantum ESPRESSO suite
     for quantum simulation of materials; please cite
         "P. Giannozzi et al., J. Phys.:Condens. Matter 21 395502 (2009);
         "P. Giannozzi et al., J. Phys.:Condens. Matter 29 465901 (2017);
         "P. Giannozzi et al., J. Chem. Phys. 152 154105 (2020);
          URL http://www.quantum-espresso.org", 
     in publications or presentations arising from this work. More details at
     http://www.quantum-espresso.org/quote

     Parallel version (MPI & OpenMP), running on      14 processor cores
     Number of MPI processes:                 1
     Threads/MPI process:                    14

     MPI processes distributed on     1 nodes
     700072 MiB available memory on the printing compute node when the environment starts
 
     Reading input from pw.in

     Current dimensions of program PWSCF are:
     Max number of different atomic species (ntypx) = 10
     Max number of k-points (npk) =  40000
     Max angular momentum in pseudopotentials (lmaxx) =  4
     file Co.pbe-spn-kjpaw_psl.0.3.1.UPF: wavefunction(s)  3P 3D renormalized
     file O.pbe-n-kjpaw_psl.1.0.0.UPF: wavefunction(s)  2S 2P renormalized
     file Na.pbe-spn-kjpaw_psl.1.0.0.UPF: wavefunction(s)  2P renormalized
 
     Subspace diagonalization in iterative solution of the eigenvalue problem:
     a serial algorithm will be used

 
     G-vector sticks info
     --------------------
     sticks:   dense  smooth     PW     G-vecs:    dense   smooth      PW
     Sum        2941    1483    421               256907    90927   13645
 
     Using Slab Decomposition
 


     bravais-lattice index     =            4
     lattice parameter (alat)  =       9.4527  a.u.
     unit-cell volume          =    1447.6983 (a.u.)^3
     number of atoms/cell      =           10
     number of atomic types    =            3
     number of electrons       =        96.00
     number of Kohn-Sham states=           64
     kinetic-energy cutoff     =      60.0000  Ry
     charge density cutoff     =     480.0000  Ry
     scf convergence threshold =      1.0E-07
     mixing beta               =       0.3000
     number of iterations used =            8  local-TF  mixing
     Exchange-correlation= SLA  PW   PBX  PBC
                           (   1   4   3   4   0   0   0)

     GPU acceleration is ACTIVE.  1 visible GPUs per MPI rank
     GPU-aware MPI enabled


     GPU used by master process:

        Device Number: 0
        Device name: NVIDIA A100-SXM4-80GB
        Compute capability : 80
        Ratio of single to double precision performance  : 2
        Memory Clock Rate (KHz): 1593000
        Memory Bus Width (bits): 5120
        Peak Memory Bandwidth (GB/s): ******

     celldm(1)=   9.452718  celldm(2)=   0.000000  celldm(3)=   1.979144
     celldm(4)=   0.000000  celldm(5)=   0.000000  celldm(6)=   0.000000

     crystal axes: (cart. coord. in units of alat)
               a(1) = (   1.000000   0.000000   0.000000 )  
               a(2) = (  -0.500000   0.866025   0.000000 )  
               a(3) = (   0.000000   0.000000   1.979144 )  

     reciprocal axes: (cart. coord. in units 2 pi/alat)
               b(1) = (  1.000000  0.577350 -0.000000 )  
               b(2) = (  0.000000  1.154701  0.000000 )  
               b(3) = (  0.000000 -0.000000  0.505269 )  


     PseudoPot. # 1 for Co read from file:
     ../../pseudo/Co.pbe-spn-kjpaw_psl.0.3.1.UPF
     MD5 check sum: 3c0a43779828c046024e4f3be63f8e67
     Pseudo is Projector augmented-wave + core cor, Zval = 17.0
     Generated using &quot;atomic&quot; code by A. Dal Corso  v.6.2.2
     Shape of augmentation charge: PSQ
     Using radial grid of 1193 points,  6 beta functions with: 
                l(1) =   0
                l(2) =   0
                l(3) =   1
                l(4) =   1
                l(5) =   2
                l(6) =   2
     Q(r) pseudized with 0 coefficients 


     PseudoPot. # 2 for O  read from file:
     ../../pseudo/O.pbe-n-kjpaw_psl.1.0.0.UPF
     MD5 check sum: e99d9cef9b487d1ca56f5b95ecd0fd7a
     Pseudo is Projector augmented-wave + core cor, Zval =  6.0
     Generated using &quot;atomic&quot; code by A. Dal Corso  v.6.3
     Shape of augmentation charge: PSQ
     Using radial grid of 1095 points,  4 beta functions with: 
                l(1) =   0
                l(2) =   0
                l(3) =   1
                l(4) =   1
     Q(r) pseudized with 0 coefficients 


     PseudoPot. # 3 for Na read from file:
     ../../pseudo/Na.pbe-spn-kjpaw_psl.1.0.0.UPF
     MD5 check sum: 05b4deb74e3932c23ab016979dc8b5d4
     Pseudo is Projector augmented-wave + core cor, Zval =  9.0
     Generated using &quot;atomic&quot; code by A. Dal Corso  v.6.3
     Shape of augmentation charge: PSQ
     Using radial grid of 1121 points,  4 beta functions with: 
                l(1) =   0
                l(2) =   0
                l(3) =   1
                l(4) =   1
     Q(r) pseudized with 0 coefficients 


     atomic species   valence    mass     pseudopotential
     Co               17.00    58.93300     Co( 1.00)
     O                 6.00    15.99900     O ( 1.00)
     Na                9.00    22.98977     Na( 1.00)

     Starting magnetic structure 
     atomic species   magnetization
     Co              0.300
     O               0.000
     Na              0.000

      6 Sym. Ops. (no inversion) found


                                    s                        frac. trans.

      isym =  1     identity                                     

 cryst.   s( 1) = (     1          0          0      )
                  (     0          1          0      )
                  (     0          0          1      )

 cart.    s( 1) = (  1.0000000  0.0000000  0.0000000 )
                  (  0.0000000  1.0000000  0.0000000 )
                  (  0.0000000  0.0000000  1.0000000 )


      isym =  2     120 deg rotation - cryst. axis [0,0,1]       

 cryst.   s( 2) = (     0          1          0      )
                  (    -1         -1          0      )
                  (     0          0          1      )

 cart.    s( 2) = ( -0.5000000 -0.8660254  0.0000000 )
                  (  0.8660254 -0.5000000  0.0000000 )
                  (  0.0000000  0.0000000  1.0000000 )


      isym =  3     120 deg rotation - cryst. axis [0,0,-1]      

 cryst.   s( 3) = (    -1         -1          0      )
                  (     1          0          0      )
                  (     0          0          1      )

 cart.    s( 3) = ( -0.5000000  0.8660254  0.0000000 )
                  ( -0.8660254 -0.5000000  0.0000000 )
                  (  0.0000000  0.0000000  1.0000000 )


      isym =  4     inv. 180 deg rotation - cart. axis [0,1,0]   

 cryst.   s( 4) = (     1          0          0      )
                  (    -1         -1          0      )
                  (     0          0          1      )

 cart.    s( 4) = (  1.0000000  0.0000000  0.0000000 )
                  (  0.0000000 -1.0000000  0.0000000 )
                  (  0.0000000  0.0000000  1.0000000 )


      isym =  5     inv. 180 deg rotation - cryst. axis [1,-1,0] 

 cryst.   s( 5) = (     0          1          0      )
                  (     1          0          0      )
                  (     0          0          1      )

 cart.    s( 5) = ( -0.5000000  0.8660254  0.0000000 )
                  (  0.8660254  0.5000000  0.0000000 )
                  (  0.0000000  0.0000000  1.0000000 )


      isym =  6     inv. 180 deg rotation - cryst. axis [2,1,0]  

 cryst.   s( 6) = (    -1         -1          0      )
                  (     0          1          0      )
                  (     0          0          1      )

 cart.    s( 6) = ( -0.5000000 -0.8660254  0.0000000 )
                  ( -0.8660254  0.5000000  0.0000000 )
                  (  0.0000000  0.0000000  1.0000000 )


     point group C_3v (3m)  
     there are  3 classes
     the character table:

       E     2C3   3s_v 
A_1    1.00  1.00  1.00
A_2    1.00  1.00 -1.00
E      2.00 -1.00  0.00

     the symmetry operations in each class and the name of the first element:

     E        1
          identity                                               
     2C3      2    3
          120 deg rotation - cryst. axis [0,0,1]                 
     3s_v     4    6    5
          inv. 180 deg rotation - cart. axis [0,1,0]             

   Cartesian axes

     site n.     atom                  positions (alat units)
         1        Co     tau(   1) = (   0.0000000   0.0000000   0.0000000  )
         2        Co     tau(   2) = (  -0.0000000   0.5773503   0.0000000  )
         3        Co     tau(   3) = (   0.5000000   0.2886751   0.0000000  )
         4        O      tau(   4) = (   0.1666667   0.2886751   0.2039118  )
         5        O      tau(   5) = (   0.6666667   0.0000000   0.2039118  )
         6        O      tau(   6) = (  -0.3333333   0.5773503   0.2039118  )
         7        O      tau(   7) = (   0.3333333   0.0000000   1.7752321  )
         8        O      tau(   8) = (   0.3333333   0.5773503   1.7752321  )
         9        O      tau(   9) = (  -0.1666667   0.2886751   1.7752321  )
        10        Na     tau(  10) = (   0.0000000   0.0000000   1.0895287  )

   Crystallographic axes

     site n.     atom                  positions (cryst. coord.)
         1        Co     tau(   1) = (  0.0000000  0.0000000  0.0000000  )
         2        Co     tau(   2) = (  0.3333333  0.6666667  0.0000000  )
         3        Co     tau(   3) = (  0.6666667  0.3333333  0.0000000  )
         4        O      tau(   4) = (  0.3333333  0.3333333  0.1030303  )
         5        O      tau(   5) = (  0.6666667  0.0000000  0.1030303  )
         6        O      tau(   6) = (  0.0000000  0.6666667  0.1030303  )
         7        O      tau(   7) = (  0.3333333  0.0000000  0.8969697  )
         8        O      tau(   8) = (  0.6666667  0.6666667  0.8969697  )
         9        O      tau(   9) = ( -0.0000000  0.3333333  0.8969697  )
        10        Na     tau(  10) = (  0.0000000  0.0000000  0.5505051  )

     number of k points=    14  Marzari-Vanderbilt smearing, width (Ry)=  0.0200
                       cart. coord. in units 2pi/alat
        k(    1) = (   0.0000000   0.0000000   0.0000000), wk =   0.0138889
        k(    2) = (   0.0000000   0.0000000  -0.2526345), wk =   0.0138889
        k(    3) = (   0.0000000   0.1924501   0.0000000), wk =   0.0833333
        k(    4) = (   0.0000000   0.1924501  -0.2526345), wk =   0.0833333
        k(    5) = (   0.0000000   0.3849002   0.0000000), wk =   0.0833333
        k(    6) = (   0.0000000   0.3849002  -0.2526345), wk =   0.0833333
        k(    7) = (   0.0000000  -0.5773503   0.0000000), wk =   0.0416667
        k(    8) = (   0.0000000  -0.5773503  -0.2526345), wk =   0.0416667
        k(    9) = (   0.1666667   0.2886751   0.0000000), wk =   0.0833333
        k(   10) = (   0.1666667   0.2886751  -0.2526345), wk =   0.0833333
        k(   11) = (   0.1666667   0.4811252   0.0000000), wk =   0.1666667
        k(   12) = (   0.1666667   0.4811252  -0.2526345), wk =   0.1666667
        k(   13) = (   0.3333333   0.5773503   0.0000000), wk =   0.0277778
        k(   14) = (   0.3333333   0.5773503  -0.2526345), wk =   0.0277778

                       cryst. coord.
        k(    1) = (   0.0000000   0.0000000   0.0000000), wk =   0.0138889
        k(    2) = (   0.0000000   0.0000000  -0.5000000), wk =   0.0138889
        k(    3) = (   0.0000000   0.1666667   0.0000000), wk =   0.0833333
        k(    4) = (   0.0000000   0.1666667  -0.5000000), wk =   0.0833333
        k(    5) = (   0.0000000   0.3333333   0.0000000), wk =   0.0833333
        k(    6) = (   0.0000000   0.3333333  -0.5000000), wk =   0.0833333
        k(    7) = (   0.0000000  -0.5000000   0.0000000), wk =   0.0416667
        k(    8) = (   0.0000000  -0.5000000  -0.5000000), wk =   0.0416667
        k(    9) = (   0.1666667   0.1666667   0.0000000), wk =   0.0833333
        k(   10) = (   0.1666667   0.1666667  -0.5000000), wk =   0.0833333
        k(   11) = (   0.1666667   0.3333333   0.0000000), wk =   0.1666667
        k(   12) = (   0.1666667   0.3333333  -0.5000000), wk =   0.1666667
        k(   13) = (   0.3333333   0.3333333   0.0000000), wk =   0.0277778
        k(   14) = (   0.3333333   0.3333333  -0.5000000), wk =   0.0277778

     Dense  grid:   256907 G-vectors     FFT dimensions: (  72,  72, 135)

     Smooth grid:    90927 G-vectors     FFT dimensions: (  48,  48,  96)

     Dynamical RAM for                 wfc:      11.10 MB

     Dynamical RAM for     wfc (w. buffer):     321.78 MB

     Dynamical RAM for           str. fact:      11.76 MB

     Dynamical RAM for           local pot:       0.00 MB

     Dynamical RAM for          nlocal pot:      19.07 MB

     Dynamical RAM for                qrad:       5.27 MB

     Dynamical RAM for          rho,v,vnew:      55.56 MB

     Dynamical RAM for               rhoin:      18.52 MB

     Dynamical RAM for            rho*nmix:     125.44 MB

     Dynamical RAM for           G-vectors:      15.39 MB

     Dynamical RAM for          h,s,v(r/c):       0.75 MB

     Dynamical RAM for          <psi|beta>:       0.11 MB

     Dynamical RAM for                 psi:      22.19 MB

     Dynamical RAM for                hpsi:      22.19 MB

     Dynamical RAM for                spsi:      22.19 MB

     Dynamical RAM for      wfcinit/wfcrot:      22.29 MB

     Dynamical RAM for           addusdens:     756.58 MB

     Dynamical RAM for          addusforce:     795.83 MB

     Estimated static dynamical RAM per process >     495.07 MB

     Estimated max dynamical RAM per process >       1.38 GB

     Check: negative core charge=   -0.000006
     Generating pointlists ...
     new r_m :   0.1612 (alat units)  1.5237 (a.u.) for type    1
     new r_m :   0.1612 (alat units)  1.5237 (a.u.) for type    2
     new r_m :   0.3145 (alat units)  2.9729 (a.u.) for type    3

     Initial potential from superposition of free atoms

     starting charge      95.9928, renormalised to      96.0000
     Starting wfcs are   59 randomized atomic wfcs +    5 random wfcs
     Checking if some PAW data can be deallocated... 

     total cpu time spent up to now is        5.4 secs

     Self-consistent Calculation
[tb_dev] Currently allocated     9.94E-01 Mbytes, locked:    0 /   6
[tb_pin] Currently allocated     0.00E+00 Mbytes, locked:    0 /   0

     iteration #  1     ecut=    60.00 Ry     beta= 0.30
     Davidson diagonalization with overlap

---- Real-time Memory Report at c_bands before calling an iterative solver
          1075 MiB given to the printing process from OS
             0 MiB allocation reported by mallinfo(arena+hblkhd)
        699353 MiB available memory on the node where the printing process lives
     GPU memory used/free/total (MiB): 1998 / 79152 / 81151
------------------
     ethr =  1.00E-02,  avg # of iterations = 10.5

     total cpu time spent up to now is        9.0 secs

     total energy              =   -1488.22287745 Ry
     estimated scf accuracy    <       6.56578802 Ry

     total magnetization       =    14.00 Bohr mag/cell
     absolute magnetization    =    14.00 Bohr mag/cell
[tb_dev] Currently allocated     7.63E-05 Mbytes, locked:    0 /   2
[tb_pin] Currently allocated     0.00E+00 Mbytes, locked:    0 /   0

     iteration #  2     ecut=    60.00 Ry     beta= 0.30
     Davidson diagonalization with overlap

---- Real-time Memory Report at c_bands before calling an iterative solver
          1139 MiB given to the printing process from OS
             0 MiB allocation reported by mallinfo(arena+hblkhd)
        699337 MiB available memory on the node where the printing process lives
     GPU memory used/free/total (MiB): 2084 / 79066 / 81151
------------------
     ethr =  6.84E-03,  avg # of iterations =  1.9

     total cpu time spent up to now is       11.5 secs

     total energy              =   -1488.60614401 Ry
     estimated scf accuracy    <       1.07650073 Ry

     total magnetization       =    10.87 Bohr mag/cell
     absolute magnetization    =    10.87 Bohr mag/cell
[tb_dev] Currently allocated     7.63E-05 Mbytes, locked:    0 /   2
[tb_pin] Currently allocated     0.00E+00 Mbytes, locked:    0 /   0

     iteration #  3     ecut=    60.00 Ry     beta= 0.30
     Davidson diagonalization with overlap

---- Real-time Memory Report at c_bands before calling an iterative solver
          1147 MiB given to the printing process from OS
             0 MiB allocation reported by mallinfo(arena+hblkhd)
        699341 MiB available memory on the node where the printing process lives
     GPU memory used/free/total (MiB): 2084 / 79066 / 81151
------------------
     ethr =  1.12E-03,  avg # of iterations =  4.9

     total cpu time spent up to now is       14.5 secs

     total energy              =   -1488.96654086 Ry
     estimated scf accuracy    <       2.50774962 Ry

     total magnetization       =     4.53 Bohr mag/cell
     absolute magnetization    =     4.99 Bohr mag/cell
[tb_dev] Currently allocated     7.63E-05 Mbytes, locked:    0 /   2
[tb_pin] Currently allocated     0.00E+00 Mbytes, locked:    0 /   0

     iteration #  4     ecut=    60.00 Ry     beta= 0.30
     Davidson diagonalization with overlap

---- Real-time Memory Report at c_bands before calling an iterative solver
          1155 MiB given to the printing process from OS
             0 MiB allocation reported by mallinfo(arena+hblkhd)
        699335 MiB available memory on the node where the printing process lives
     GPU memory used/free/total (MiB): 2084 / 79066 / 81151
------------------
     ethr =  1.12E-03,  avg # of iterations =  1.8

     total cpu time spent up to now is       16.9 secs

     total energy              =   -1488.84360269 Ry
     estimated scf accuracy    <       2.67640732 Ry

     total magnetization       =     4.49 Bohr mag/cell
     absolute magnetization    =     4.96 Bohr mag/cell
[tb_dev] Currently allocated     7.63E-05 Mbytes, locked:    0 /   2
[tb_pin] Currently allocated     0.00E+00 Mbytes, locked:    0 /   0

     iteration #  5     ecut=    60.00 Ry     beta= 0.30
     Davidson diagonalization with overlap

---- Real-time Memory Report at c_bands before calling an iterative solver
          1163 MiB given to the printing process from OS
             0 MiB allocation reported by mallinfo(arena+hblkhd)
        699313 MiB available memory on the node where the printing process lives
     GPU memory used/free/total (MiB): 2084 / 79066 / 81151
------------------
     ethr =  1.12E-03,  avg # of iterations =  1.1

     total cpu time spent up to now is       19.3 secs

     total energy              =   -1488.82723755 Ry
     estimated scf accuracy    <       1.01435034 Ry

     total magnetization       =     7.39 Bohr mag/cell
     absolute magnetization    =     7.42 Bohr mag/cell
[tb_dev] Currently allocated     7.63E-05 Mbytes, locked:    0 /   2
[tb_pin] Currently allocated     0.00E+00 Mbytes, locked:    0 /   0

     iteration #  6     ecut=    60.00 Ry     beta= 0.30
     Davidson diagonalization with overlap

---- Real-time Memory Report at c_bands before calling an iterative solver
          1172 MiB given to the printing process from OS
             0 MiB allocation reported by mallinfo(arena+hblkhd)
        699298 MiB available memory on the node where the printing process lives
     GPU memory used/free/total (MiB): 2084 / 79066 / 81151
------------------
     ethr =  1.06E-03,  avg # of iterations =  1.9

     total cpu time spent up to now is       21.8 secs

     total energy              =   -1488.74606881 Ry
     estimated scf accuracy    <       1.36981975 Ry

     total magnetization       =    12.95 Bohr mag/cell
     absolute magnetization    =    12.95 Bohr mag/cell
[tb_dev] Currently allocated     7.63E-05 Mbytes, locked:    0 /   2
[tb_pin] Currently allocated     0.00E+00 Mbytes, locked:    0 /   0

     iteration #  7     ecut=    60.00 Ry     beta= 0.30
     Davidson diagonalization with overlap

---- Real-time Memory Report at c_bands before calling an iterative solver
          1180 MiB given to the printing process from OS
             0 MiB allocation reported by mallinfo(arena+hblkhd)
        700018 MiB available memory on the node where the printing process lives
     GPU memory used/free/total (MiB): 2084 / 79066 / 81151
------------------
     ethr =  1.06E-03,  avg # of iterations =  1.3

     negative rho (up, down):  0.000E+00 4.891E-04

     total cpu time spent up to now is       24.4 secs

     total energy              =   -1488.88938185 Ry
     estimated scf accuracy    <       1.29230904 Ry

     total magnetization       =     6.99 Bohr mag/cell
     absolute magnetization    =     7.10 Bohr mag/cell
[tb_dev] Currently allocated     7.63E-05 Mbytes, locked:    0 /   2
[tb_pin] Currently allocated     0.00E+00 Mbytes, locked:    0 /   0

     iteration #  8     ecut=    60.00 Ry     beta= 0.30
     Davidson diagonalization with overlap

---- Real-time Memory Report at c_bands before calling an iterative solver
          1188 MiB given to the printing process from OS
             0 MiB allocation reported by mallinfo(arena+hblkhd)
        699577 MiB available memory on the node where the printing process lives
     GPU memory used/free/total (MiB): 2084 / 79066 / 81151
------------------
     ethr =  1.06E-03,  avg # of iterations =  1.5

     negative rho (up, down):  0.000E+00 4.823E-03

     total cpu time spent up to now is       26.9 secs

     total energy              =   -1488.47416697 Ry
     estimated scf accuracy    <       1.84648839 Ry

     total magnetization       =     6.78 Bohr mag/cell
     absolute magnetization    =     7.01 Bohr mag/cell
[tb_dev] Currently allocated     7.63E-05 Mbytes, locked:    0 /   2
[tb_pin] Currently allocated     0.00E+00 Mbytes, locked:    0 /   0

     iteration #  9     ecut=    60.00 Ry     beta= 0.30
     Davidson diagonalization with overlap

---- Real-time Memory Report at c_bands before calling an iterative solver
          1196 MiB given to the printing process from OS
             0 MiB allocation reported by mallinfo(arena+hblkhd)
        700268 MiB available memory on the node where the printing process lives
     GPU memory used/free/total (MiB): 2084 / 79066 / 81151
------------------
     ethr =  1.06E-03,  avg # of iterations =  2.8

     negative rho (up, down):  2.841E-02 1.532E-01

     total cpu time spent up to now is       29.6 secs

     total energy              =   -1486.42221915 Ry
     estimated scf accuracy    <       1.43786990 Ry

     total magnetization       =    14.39 Bohr mag/cell
     absolute magnetization    =    14.50 Bohr mag/cell
[tb_dev] Currently allocated     7.63E-05 Mbytes, locked:    0 /   2
[tb_pin] Currently allocated     0.00E+00 Mbytes, locked:    0 /   0

     iteration # 10     ecut=    60.00 Ry     beta= 0.30
     Davidson diagonalization with overlap

---- Real-time Memory Report at c_bands before calling an iterative solver
          1206 MiB given to the printing process from OS
             0 MiB allocation reported by mallinfo(arena+hblkhd)
        699810 MiB available memory on the node where the printing process lives
     GPU memory used/free/total (MiB): 2084 / 79066 / 81151
------------------
     ethr =  1.06E-03,  avg # of iterations =  6.9

     negative rho (up, down):  3.128E-02 1.582E-01

     total cpu time spent up to now is       32.9 secs

     total energy              =   -1486.87382502 Ry
     estimated scf accuracy    <       9.15182580 Ry

     total magnetization       =    15.08 Bohr mag/cell
     absolute magnetization    =    15.86 Bohr mag/cell
[tb_dev] Currently allocated     7.63E-05 Mbytes, locked:    0 /   2
[tb_pin] Currently allocated     0.00E+00 Mbytes, locked:    0 /   0

     iteration # 11     ecut=    60.00 Ry     beta= 0.30
     Davidson diagonalization with overlap

---- Real-time Memory Report at c_bands before calling an iterative solver
          1206 MiB given to the printing process from OS
             0 MiB allocation reported by mallinfo(arena+hblkhd)
        699785 MiB available memory on the node where the printing process lives
     GPU memory used/free/total (MiB): 2084 / 79066 / 81151
------------------
     ethr =  1.06E-03,  avg # of iterations =  1.7

     negative rho (up, down):  1.356E-02 1.059E-01

     total cpu time spent up to now is       35.4 secs

     total energy              =   -1487.46516600 Ry
     estimated scf accuracy    <       8.54461448 Ry

     total magnetization       =    14.62 Bohr mag/cell
     absolute magnetization    =    15.57 Bohr mag/cell
[tb_dev] Currently allocated     7.63E-05 Mbytes, locked:    0 /   2
[tb_pin] Currently allocated     0.00E+00 Mbytes, locked:    0 /   0

     iteration # 12     ecut=    60.00 Ry     beta= 0.30
     Davidson diagonalization with overlap

---- Real-time Memory Report at c_bands before calling an iterative solver
          1206 MiB given to the printing process from OS
             0 MiB allocation reported by mallinfo(arena+hblkhd)
        700624 MiB available memory on the node where the printing process lives
     GPU memory used/free/total (MiB): 2084 / 79066 / 81151
------------------
     ethr =  1.06E-03,  avg # of iterations =  1.1

     total cpu time spent up to now is       37.9 secs

     total energy              =   -1488.13664916 Ry
     estimated scf accuracy    <       6.76708774 Ry

     total magnetization       =    14.33 Bohr mag/cell
     absolute magnetization    =    15.28 Bohr mag/cell
[tb_dev] Currently allocated     7.63E-05 Mbytes, locked:    0 /   2
[tb_pin] Currently allocated     0.00E+00 Mbytes, locked:    0 /   0

     iteration # 13     ecut=    60.00 Ry     beta= 0.30
     Davidson diagonalization with overlap

---- Real-time Memory Report at c_bands before calling an iterative solver
          1206 MiB given to the printing process from OS
             0 MiB allocation reported by mallinfo(arena+hblkhd)
        700626 MiB available memory on the node where the printing process lives
     GPU memory used/free/total (MiB): 2084 / 79066 / 81151
------------------
     ethr =  1.06E-03,  avg # of iterations =  4.2

     total cpu time spent up to now is       40.9 secs

     total energy              =   -1488.95530548 Ry
     estimated scf accuracy    <       1.31935481 Ry

     total magnetization       =     4.76 Bohr mag/cell
     absolute magnetization    =     5.43 Bohr mag/cell
[tb_dev] Currently allocated     7.63E-05 Mbytes, locked:    0 /   2
[tb_pin] Currently allocated     0.00E+00 Mbytes, locked:    0 /   0

     iteration # 14     ecut=    60.00 Ry     beta= 0.30
     Davidson diagonalization with overlap

---- Real-time Memory Report at c_bands before calling an iterative solver
          1206 MiB given to the printing process from OS
             0 MiB allocation reported by mallinfo(arena+hblkhd)
        700624 MiB available memory on the node where the printing process lives
     GPU memory used/free/total (MiB): 2084 / 79066 / 81151
------------------
     ethr =  1.06E-03,  avg # of iterations =  1.8

     total cpu time spent up to now is       43.4 secs

     total energy              =   -1488.94316282 Ry
     estimated scf accuracy    <       0.95047461 Ry

     total magnetization       =     3.78 Bohr mag/cell
     absolute magnetization    =     4.53 Bohr mag/cell
[tb_dev] Currently allocated     7.63E-05 Mbytes, locked:    0 /   2
[tb_pin] Currently allocated     0.00E+00 Mbytes, locked:    0 /   0

     iteration # 15     ecut=    60.00 Ry     beta= 0.30
     Davidson diagonalization with overlap

---- Real-time Memory Report at c_bands before calling an iterative solver
          1206 MiB given to the printing process from OS
             0 MiB allocation reported by mallinfo(arena+hblkhd)
        700623 MiB available memory on the node where the printing process lives
     GPU memory used/free/total (MiB): 2084 / 79066 / 81151
------------------
     ethr =  9.90E-04,  avg # of iterations =  1.1

     total cpu time spent up to now is       45.9 secs

     total energy              =   -1488.97684644 Ry
     estimated scf accuracy    <       0.75849641 Ry

     total magnetization       =     5.44 Bohr mag/cell
     absolute magnetization    =     5.84 Bohr mag/cell
[tb_dev] Currently allocated     7.63E-05 Mbytes, locked:    0 /   2
[tb_pin] Currently allocated     0.00E+00 Mbytes, locked:    0 /   0

     iteration # 16     ecut=    60.00 Ry     beta= 0.30
     Davidson diagonalization with overlap

---- Real-time Memory Report at c_bands before calling an iterative solver
          1206 MiB given to the printing process from OS
             0 MiB allocation reported by mallinfo(arena+hblkhd)
        700613 MiB available memory on the node where the printing process lives
     GPU memory used/free/total (MiB): 2084 / 79066 / 81151
------------------
     ethr =  7.90E-04,  avg # of iterations =  1.6

     total cpu time spent up to now is       48.5 secs

     total energy              =   -1489.08524278 Ry
     estimated scf accuracy    <       0.33114925 Ry

     total magnetization       =     2.00 Bohr mag/cell
     absolute magnetization    =     2.78 Bohr mag/cell
[tb_dev] Currently allocated     7.63E-05 Mbytes, locked:    0 /   2
[tb_pin] Currently allocated     0.00E+00 Mbytes, locked:    0 /   0

     iteration # 17     ecut=    60.00 Ry     beta= 0.30
     Davidson diagonalization with overlap

---- Real-time Memory Report at c_bands before calling an iterative solver
          1206 MiB given to the printing process from OS
             0 MiB allocation reported by mallinfo(arena+hblkhd)
        700611 MiB available memory on the node where the printing process lives
     GPU memory used/free/total (MiB): 2084 / 79066 / 81151
------------------
     ethr =  3.45E-04,  avg # of iterations =  3.1

     total cpu time spent up to now is       51.2 secs

     total energy              =   -1489.11293038 Ry
     estimated scf accuracy    <       0.29055232 Ry

     total magnetization       =     2.00 Bohr mag/cell
     absolute magnetization    =     2.56 Bohr mag/cell
[tb_dev] Currently allocated     7.63E-05 Mbytes, locked:    0 /   2
[tb_pin] Currently allocated     0.00E+00 Mbytes, locked:    0 /   0

     iteration # 18     ecut=    60.00 Ry     beta= 0.30
     Davidson diagonalization with overlap

---- Real-time Memory Report at c_bands before calling an iterative solver
          1206 MiB given to the printing process from OS
             0 MiB allocation reported by mallinfo(arena+hblkhd)
        700609 MiB available memory on the node where the printing process lives
     GPU memory used/free/total (MiB): 2084 / 79066 / 81151
------------------
     ethr =  3.03E-04,  avg # of iterations =  1.8

     total cpu time spent up to now is       53.8 secs

     total energy              =   -1489.07847309 Ry
     estimated scf accuracy    <       0.20296583 Ry

     total magnetization       =     2.01 Bohr mag/cell
     absolute magnetization    =     2.39 Bohr mag/cell
[tb_dev] Currently allocated     7.63E-05 Mbytes, locked:    0 /   2
[tb_pin] Currently allocated     0.00E+00 Mbytes, locked:    0 /   0

     iteration # 19     ecut=    60.00 Ry     beta= 0.30
     Davidson diagonalization with overlap

---- Real-time Memory Report at c_bands before calling an iterative solver
          1206 MiB given to the printing process from OS
             0 MiB allocation reported by mallinfo(arena+hblkhd)
        700610 MiB available memory on the node where the printing process lives
     GPU memory used/free/total (MiB): 2084 / 79066 / 81151
------------------
     ethr =  2.11E-04,  avg # of iterations =  2.7

     total cpu time spent up to now is       56.5 secs

     total energy              =   -1489.07693095 Ry
     estimated scf accuracy    <       0.38476029 Ry

     total magnetization       =     2.05 Bohr mag/cell
     absolute magnetization    =     2.58 Bohr mag/cell
[tb_dev] Currently allocated     7.63E-05 Mbytes, locked:    0 /   2
[tb_pin] Currently allocated     0.00E+00 Mbytes, locked:    0 /   0

     iteration # 20     ecut=    60.00 Ry     beta= 0.30
     Davidson diagonalization with overlap

---- Real-time Memory Report at c_bands before calling an iterative solver
          1206 MiB given to the printing process from OS
             0 MiB allocation reported by mallinfo(arena+hblkhd)
        700618 MiB available memory on the node where the printing process lives
     GPU memory used/free/total (MiB): 2084 / 79066 / 81151
------------------
     c_bands:  1 eigenvalues not converged
     ethr =  2.11E-04,  avg # of iterations =  6.4

     total cpu time spent up to now is       59.6 secs

     total energy              =   -1489.10739466 Ry
     estimated scf accuracy    <       0.09825825 Ry

     total magnetization       =     2.42 Bohr mag/cell
     absolute magnetization    =     2.62 Bohr mag/cell
[tb_dev] Currently allocated     7.63E-05 Mbytes, locked:    0 /   2
[tb_pin] Currently allocated     0.00E+00 Mbytes, locked:    0 /   0

     iteration # 21     ecut=    60.00 Ry     beta= 0.30
     Davidson diagonalization with overlap

---- Real-time Memory Report at c_bands before calling an iterative solver
          1206 MiB given to the printing process from OS
             0 MiB allocation reported by mallinfo(arena+hblkhd)
        700631 MiB available memory on the node where the printing process lives
     GPU memory used/free/total (MiB): 2084 / 79066 / 81151
------------------
     c_bands:  2 eigenvalues not converged
     ethr =  1.02E-04,  avg # of iterations =  6.6

     total cpu time spent up to now is       62.7 secs

     total energy              =   -1489.07017957 Ry
     estimated scf accuracy    <       0.14216132 Ry

     total magnetization       =     2.91 Bohr mag/cell
     absolute magnetization    =     3.07 Bohr mag/cell
[tb_dev] Currently allocated     7.63E-05 Mbytes, locked:    0 /   2
[tb_pin] Currently allocated     0.00E+00 Mbytes, locked:    0 /   0

     iteration # 22     ecut=    60.00 Ry     beta= 0.30
     Davidson diagonalization with overlap

---- Real-time Memory Report at c_bands before calling an iterative solver
          1206 MiB given to the printing process from OS
             0 MiB allocation reported by mallinfo(arena+hblkhd)
        700636 MiB available memory on the node where the printing process lives
     GPU memory used/free/total (MiB): 2084 / 79066 / 81151
------------------
     ethr =  1.02E-04,  avg # of iterations =  3.3

     total cpu time spent up to now is       65.5 secs

     total energy              =   -1489.08508470 Ry
     estimated scf accuracy    <       0.24167755 Ry

     total magnetization       =     2.00 Bohr mag/cell
     absolute magnetization    =     2.34 Bohr mag/cell
[tb_dev] Currently allocated     7.63E-05 Mbytes, locked:    0 /   2
[tb_pin] Currently allocated     0.00E+00 Mbytes, locked:    0 /   0

     iteration # 23     ecut=    60.00 Ry     beta= 0.30
     Davidson diagonalization with overlap

---- Real-time Memory Report at c_bands before calling an iterative solver
          1206 MiB given to the printing process from OS
             0 MiB allocation reported by mallinfo(arena+hblkhd)
        700691 MiB available memory on the node where the printing process lives
     GPU memory used/free/total (MiB): 2084 / 79066 / 81151
------------------
     c_bands:  2 eigenvalues not converged
     ethr =  1.02E-04,  avg # of iterations =  2.5

     total cpu time spent up to now is       68.1 secs

     total energy              =   -1489.10734661 Ry
     estimated scf accuracy    <       0.04968278 Ry

     total magnetization       =     2.57 Bohr mag/cell
     absolute magnetization    =     2.67 Bohr mag/cell
[tb_dev] Currently allocated     7.63E-05 Mbytes, locked:    0 /   2
[tb_pin] Currently allocated     0.00E+00 Mbytes, locked:    0 /   0

     iteration # 24     ecut=    60.00 Ry     beta= 0.30
     Davidson diagonalization with overlap

---- Real-time Memory Report at c_bands before calling an iterative solver
          1206 MiB given to the printing process from OS
             0 MiB allocation reported by mallinfo(arena+hblkhd)
        700681 MiB available memory on the node where the printing process lives
     GPU memory used/free/total (MiB): 2084 / 79066 / 81151
------------------
     ethr =  5.18E-05,  avg # of iterations =  2.1

     total cpu time spent up to now is       70.7 secs

     total energy              =   -1489.11524858 Ry
     estimated scf accuracy    <       0.07669123 Ry

     total magnetization       =     2.07 Bohr mag/cell
     absolute magnetization    =     2.22 Bohr mag/cell
[tb_dev] Currently allocated     7.63E-05 Mbytes, locked:    0 /   2
[tb_pin] Currently allocated     0.00E+00 Mbytes, locked:    0 /   0

     iteration # 25     ecut=    60.00 Ry     beta= 0.30
     Davidson diagonalization with overlap

---- Real-time Memory Report at c_bands before calling an iterative solver
          1206 MiB given to the printing process from OS
             0 MiB allocation reported by mallinfo(arena+hblkhd)
        700685 MiB available memory on the node where the printing process lives
     GPU memory used/free/total (MiB): 2084 / 79066 / 81151
------------------
     ethr =  5.18E-05,  avg # of iterations =  2.0

     total cpu time spent up to now is       73.3 secs

     total energy              =   -1489.11886116 Ry
     estimated scf accuracy    <       0.00135817 Ry

     total magnetization       =     2.41 Bohr mag/cell
     absolute magnetization    =     2.54 Bohr mag/cell
[tb_dev] Currently allocated     7.63E-05 Mbytes, locked:    0 /   2
[tb_pin] Currently allocated     0.00E+00 Mbytes, locked:    0 /   0

     iteration # 26     ecut=    60.00 Ry     beta= 0.30
     Davidson diagonalization with overlap

---- Real-time Memory Report at c_bands before calling an iterative solver
          1206 MiB given to the printing process from OS
             0 MiB allocation reported by mallinfo(arena+hblkhd)
        700689 MiB available memory on the node where the printing process lives
     GPU memory used/free/total (MiB): 2084 / 79066 / 81151
------------------
     c_bands:  1 eigenvalues not converged
     c_bands:  1 eigenvalues not converged
     c_bands:  1 eigenvalues not converged
     c_bands:  1 eigenvalues not converged
     c_bands:  1 eigenvalues not converged
     c_bands:  1 eigenvalues not converged
     c_bands:  1 eigenvalues not converged
     c_bands:  1 eigenvalues not converged
     ethr =  1.41E-06,  avg # of iterations = 15.1

     total cpu time spent up to now is       77.6 secs

     total energy              =   -1489.11978230 Ry
     estimated scf accuracy    <       0.00044681 Ry

     total magnetization       =     2.37 Bohr mag/cell
     absolute magnetization    =     2.50 Bohr mag/cell
[tb_dev] Currently allocated     7.63E-05 Mbytes, locked:    0 /   2
[tb_pin] Currently allocated     0.00E+00 Mbytes, locked:    0 /   0

     iteration # 27     ecut=    60.00 Ry     beta= 0.30
     Davidson diagonalization with overlap

---- Real-time Memory Report at c_bands before calling an iterative solver
          1209 MiB given to the printing process from OS
             0 MiB allocation reported by mallinfo(arena+hblkhd)
        700680 MiB available memory on the node where the printing process lives
     GPU memory used/free/total (MiB): 2084 / 79066 / 81151
------------------
     c_bands:  1 eigenvalues not converged
     c_bands:  1 eigenvalues not converged
     c_bands:  1 eigenvalues not converged
     c_bands:  1 eigenvalues not converged
     ethr =  4.65E-07,  avg # of iterations =  5.5

     total cpu time spent up to now is       80.7 secs

     total energy              =   -1489.11975526 Ry
     estimated scf accuracy    <       0.00044142 Ry

     total magnetization       =     2.38 Bohr mag/cell
     absolute magnetization    =     2.51 Bohr mag/cell
[tb_dev] Currently allocated     7.63E-05 Mbytes, locked:    0 /   2
[tb_pin] Currently allocated     0.00E+00 Mbytes, locked:    0 /   0

     iteration # 28     ecut=    60.00 Ry     beta= 0.30
     Davidson diagonalization with overlap

---- Real-time Memory Report at c_bands before calling an iterative solver
          1209 MiB given to the printing process from OS
             0 MiB allocation reported by mallinfo(arena+hblkhd)
        700677 MiB available memory on the node where the printing process lives
     GPU memory used/free/total (MiB): 2084 / 79066 / 81151
------------------
     ethr =  4.60E-07,  avg # of iterations =  2.5

     total cpu time spent up to now is       83.4 secs

     total energy              =   -1489.11979465 Ry
     estimated scf accuracy    <       0.00021072 Ry

     total magnetization       =     2.37 Bohr mag/cell
     absolute magnetization    =     2.53 Bohr mag/cell
[tb_dev] Currently allocated     7.63E-05 Mbytes, locked:    0 /   2
[tb_pin] Currently allocated     0.00E+00 Mbytes, locked:    0 /   0

     iteration # 29     ecut=    60.00 Ry     beta= 0.30
     Davidson diagonalization with overlap

---- Real-time Memory Report at c_bands before calling an iterative solver
          1209 MiB given to the printing process from OS
             0 MiB allocation reported by mallinfo(arena+hblkhd)
        700684 MiB available memory on the node where the printing process lives
     GPU memory used/free/total (MiB): 2084 / 79066 / 81151
------------------
     ethr =  2.19E-07,  avg # of iterations =  4.8

     total cpu time spent up to now is       86.3 secs

     total energy              =   -1489.11983303 Ry
     estimated scf accuracy    <       0.00023816 Ry

     total magnetization       =     2.41 Bohr mag/cell
     absolute magnetization    =     2.58 Bohr mag/cell
[tb_dev] Currently allocated     7.63E-05 Mbytes, locked:    0 /   2
[tb_pin] Currently allocated     0.00E+00 Mbytes, locked:    0 /   0

     iteration # 30     ecut=    60.00 Ry     beta= 0.30
     Davidson diagonalization with overlap

---- Real-time Memory Report at c_bands before calling an iterative solver
          1209 MiB given to the printing process from OS
             0 MiB allocation reported by mallinfo(arena+hblkhd)
        703139 MiB available memory on the node where the printing process lives
     GPU memory used/free/total (MiB): 2084 / 79066 / 81151
------------------
     ethr =  2.19E-07,  avg # of iterations =  1.5

     total cpu time spent up to now is       88.8 secs

     total energy              =   -1489.11982159 Ry
     estimated scf accuracy    <       0.00012511 Ry

     total magnetization       =     2.41 Bohr mag/cell
     absolute magnetization    =     2.58 Bohr mag/cell
[tb_dev] Currently allocated     7.63E-05 Mbytes, locked:    0 /   2
[tb_pin] Currently allocated     0.00E+00 Mbytes, locked:    0 /   0

     iteration # 31     ecut=    60.00 Ry     beta= 0.30
     Davidson diagonalization with overlap

---- Real-time Memory Report at c_bands before calling an iterative solver
          1209 MiB given to the printing process from OS
             0 MiB allocation reported by mallinfo(arena+hblkhd)
        703102 MiB available memory on the node where the printing process lives
     GPU memory used/free/total (MiB): 2084 / 79066 / 81151
------------------
     ethr =  1.30E-07,  avg # of iterations =  2.6

     total cpu time spent up to now is       91.4 secs

     total energy              =   -1489.11983489 Ry
     estimated scf accuracy    <       0.00002786 Ry

     total magnetization       =     2.38 Bohr mag/cell
     absolute magnetization    =     2.56 Bohr mag/cell
[tb_dev] Currently allocated     7.63E-05 Mbytes, locked:    0 /   2
[tb_pin] Currently allocated     0.00E+00 Mbytes, locked:    0 /   0

     iteration # 32     ecut=    60.00 Ry     beta= 0.30
     Davidson diagonalization with overlap

---- Real-time Memory Report at c_bands before calling an iterative solver
          1209 MiB given to the printing process from OS
             0 MiB allocation reported by mallinfo(arena+hblkhd)
        703182 MiB available memory on the node where the printing process lives
     GPU memory used/free/total (MiB): 2084 / 79066 / 81151
------------------
     ethr =  2.90E-08,  avg # of iterations =  7.4

     total cpu time spent up to now is       94.6 secs

     total energy              =   -1489.11984780 Ry
     estimated scf accuracy    <       0.00001781 Ry

     total magnetization       =     2.39 Bohr mag/cell
     absolute magnetization    =     2.57 Bohr mag/cell
[tb_dev] Currently allocated     7.63E-05 Mbytes, locked:    0 /   2
[tb_pin] Currently allocated     0.00E+00 Mbytes, locked:    0 /   0

     iteration # 33     ecut=    60.00 Ry     beta= 0.30
     Davidson diagonalization with overlap

---- Real-time Memory Report at c_bands before calling an iterative solver
          1209 MiB given to the printing process from OS
             0 MiB allocation reported by mallinfo(arena+hblkhd)
        703211 MiB available memory on the node where the printing process lives
     GPU memory used/free/total (MiB): 2084 / 79066 / 81151
------------------
     ethr =  1.86E-08,  avg # of iterations =  2.4

     total cpu time spent up to now is       97.3 secs

     total energy              =   -1489.11985054 Ry
     estimated scf accuracy    <       0.00000075 Ry

     total magnetization       =     2.38 Bohr mag/cell
     absolute magnetization    =     2.57 Bohr mag/cell
[tb_dev] Currently allocated     7.63E-05 Mbytes, locked:    0 /   2
[tb_pin] Currently allocated     0.00E+00 Mbytes, locked:    0 /   0

     iteration # 34     ecut=    60.00 Ry     beta= 0.30
     Davidson diagonalization with overlap

---- Real-time Memory Report at c_bands before calling an iterative solver
          1209 MiB given to the printing process from OS
             0 MiB allocation reported by mallinfo(arena+hblkhd)
        703235 MiB available memory on the node where the printing process lives
     GPU memory used/free/total (MiB): 2084 / 79066 / 81151
------------------
     ethr =  7.77E-10,  avg # of iterations =  8.8

     total cpu time spent up to now is      100.9 secs

     total energy              =   -1489.11985184 Ry
     estimated scf accuracy    <       0.00000019 Ry

     total magnetization       =     2.38 Bohr mag/cell
     absolute magnetization    =     2.57 Bohr mag/cell
[tb_dev] Currently allocated     7.63E-05 Mbytes, locked:    0 /   2
[tb_pin] Currently allocated     0.00E+00 Mbytes, locked:    0 /   0

     iteration # 35     ecut=    60.00 Ry     beta= 0.30
     Davidson diagonalization with overlap

---- Real-time Memory Report at c_bands before calling an iterative solver
          1209 MiB given to the printing process from OS
             0 MiB allocation reported by mallinfo(arena+hblkhd)
        703224 MiB available memory on the node where the printing process lives
     GPU memory used/free/total (MiB): 2084 / 79066 / 81151
------------------
     ethr =  2.02E-10,  avg # of iterations =  6.4
 
     Magnetic moment per site  (integrated on atomic sphere of radius R)
     atom   1 (R=0.161)  charge= 14.1608  magn=  0.6463
     atom   2 (R=0.161)  charge= 14.1599  magn=  0.6441
     atom   3 (R=0.161)  charge= 14.1599  magn=  0.6441
     atom   4 (R=0.161)  charge=  5.2508  magn=  0.0617
     atom   5 (R=0.161)  charge=  5.2508  magn=  0.0617
     atom   6 (R=0.161)  charge=  5.2508  magn=  0.0617
     atom   7 (R=0.161)  charge=  5.2597  magn=  0.0566
     atom   8 (R=0.161)  charge=  5.2597  magn=  0.0566
     atom   9 (R=0.161)  charge=  5.2597  magn=  0.0566
     atom  10 (R=0.315)  charge=  8.1196  magn= -0.0280

     total cpu time spent up to now is      104.0 secs

     End of self-consistent calculation

 ------ SPIN UP ------------


          k = 0.0000 0.0000 0.0000 ( 11393 PWs)   bands (ev):

   -93.4971 -93.4919 -93.4915 -56.7464 -56.7387 -56.7361 -56.7143 -56.7143
   -56.7135 -56.7135 -56.6771 -56.6771 -52.2853 -24.2029 -24.2029 -24.1569
   -16.5490 -15.0253 -15.0253 -14.9770 -14.9770 -14.9400  -2.9978  -2.7043
    -2.7043  -2.6605  -2.6605  -2.3229  -2.3229  -2.2618  -2.2502  -0.9413
    -0.9413  -0.8801  -0.8801  -0.5113  -0.4990   0.4519   0.7536   0.7536
     0.7891   0.7897   1.1432   1.1432   1.7431   1.7870   1.7870   1.8017
     1.8017   2.2606   3.8111   3.8111   3.8206   3.8206   4.4470   4.4470
     6.0841   8.4315   9.2143   9.2143  10.0704  10.0704  10.5221  10.9415

     occupation numbers 
     1.0000   1.0000   1.0000   1.0000   1.0000   1.0000   1.0000   1.0000
     1.0000   1.0000   1.0000   1.0000   1.0000   1.0000   1.0000   1.0000
     1.0000   1.0000   1.0000   1.0000   1.0000   1.0000   1.0000   1.0000
     1.0000   1.0000   1.0000   1.0000   1.0000   1.0000   1.0000   1.0000
     1.0000   1.0000   1.0000   1.0000   1.0000   1.0000   1.0000   1.0000
     1.0000   1.0000   1.0000   1.0000   1.0085   1.0144   1.0144   1.0170
     1.0170   0.8703   0.0000   0.0000   0.0000   0.0000   0.0000   0.0000
     0.0000   0.0000   0.0000   0.0000   0.0000   0.0000   0.0000   0.0000

          k = 0.0000 0.0000-0.2526 ( 11446 PWs)   bands (ev):

   -93.4971 -93.4920 -93.4915 -56.7466 -56.7388 -56.7362 -56.7144 -56.7144
   -56.7135 -56.7135 -56.6771 -56.6771 -52.2853 -24.2030 -24.2030 -24.1571
   -16.5490 -15.0253 -15.0253 -14.9770 -14.9770 -14.9401  -2.9953  -2.7043
    -2.7043  -2.6605  -2.6605  -2.3230  -2.3230  -2.2617  -2.2501  -0.9414
    -0.9414  -0.8801  -0.8801  -0.5115  -0.4991   0.4009   0.7536   0.7536
     0.7890   0.7896   1.1432   1.1432   1.7869   1.7869   1.8016   1.8016
     1.8348   2.2675   3.8115   3.8115   3.8209   3.8209   4.4469   4.4469
     5.8078   9.2044   9.2044   9.4560   9.9799  10.0598  10.0598  10.6902

     occupation numbers 
     1.0000   1.0000   1.0000   1.0000   1.0000   1.0000   1.0000   1.0000
     1.0000   1.0000   1.0000   1.0000   1.0000   1.0000   1.0000   1.0000
     1.0000   1.0000   1.0000   1.0000   1.0000   1.0000   1.0000   1.0000
     1.0000   1.0000   1.0000   1.0000   1.0000   1.0000   1.0000   1.0000
     1.0000   1.0000   1.0000   1.0000   1.0000   1.0000   1.0000   1.0000
     1.0000   1.0000   1.0000   1.0000   1.0144   1.0144   1.0170   1.0170
     1.0241   0.8548   0.0000   0.0000   0.0000   0.0000   0.0000   0.0000
     0.0000   0.0000   0.0000   0.0000   0.0000   0.0000   0.0000   0.0000

          k = 0.0000 0.1925 0.0000 ( 11360 PWs)   bands (ev):

   -93.4967 -93.4922 -93.4917 -56.7457 -56.7390 -56.7363 -56.7221 -56.7198
   -56.7044 -56.7034 -56.6817 -56.6783 -52.2853 -24.2030 -24.2029 -24.1568
   -16.4513 -15.1326 -15.0621 -14.9929 -14.9498 -14.9335  -3.0964  -2.8785
    -2.8649  -2.6784  -2.5854  -2.4428  -2.2618  -1.8846  -1.7079  -1.1745
    -1.1531  -1.0080  -0.9757  -0.2195  -0.1732   0.2320   0.3210   0.6759
     0.8610   0.9330   1.1889   1.4498   1.5518   1.5751   1.8513   1.8659
     1.9362   2.4681   3.7780   3.8652   3.8757   3.8833   4.1761   4.3836
     6.2906   7.5613   8.5460   8.7716   9.2687  10.9278  11.1506  11.6688

     occupation numbers 
     1.0000   1.0000   1.0000   1.0000   1.0000   1.0000   1.0000   1.0000
     1.0000   1.0000   1.0000   1.0000   1.0000   1.0000   1.0000   1.0000
     1.0000   1.0000   1.0000   1.0000   1.0000   1.0000   1.0000   1.0000
     1.0000   1.0000   1.0000   1.0000   1.0000   1.0000   1.0000   1.0000
     1.0000   1.0000   1.0000   1.0000   1.0000   1.0000   1.0000   1.0000
     1.0000   1.0000   1.0000   1.0001   1.0004   1.0007   1.0282   1.0322
     1.0550   0.3321   0.0000   0.0000   0.0000   0.0000   0.0000   0.0000
     0.0000   0.0000   0.0000   0.0000   0.0000   0.0000   0.0000   0.0000

          k = 0.0000 0.1925-0.2526 ( 11384 PWs)   bands (ev):

   -93.4967 -93.4922 -93.4917 -56.7458 -56.7390 -56.7364 -56.7221 -56.7198
   -56.7045 -56.7033 -56.6818 -56.6783 -52.2853 -24.2030 -24.2029 -24.1569
   -16.4513 -15.1326 -15.0621 -14.9929 -14.9498 -14.9335  -3.0964  -2.8765
    -2.8647  -2.6784  -2.5854  -2.4432  -2.2618  -1.8846  -1.7079  -1.1746
    -1.1532  -1.0079  -0.9757  -0.2195  -0.1733   0.2322   0.3186   0.6344
     0.8609   0.9330   1.1889   1.4489   1.5519   1.5752   1.8657   1.9269
     1.9360   2.4697   3.7793   3.8653   3.8762   3.8831   4.1922   4.3818
     6.0493   7.5513   8.5372   9.2258   9.7217  10.3782  11.0353  11.1419

     occupation numbers 
     1.0000   1.0000   1.0000   1.0000   1.0000   1.0000   1.0000   1.0000
     1.0000   1.0000   1.0000   1.0000   1.0000   1.0000   1.0000   1.0000
     1.0000   1.0000   1.0000   1.0000   1.0000   1.0000   1.0000   1.0000
     1.0000   1.0000   1.0000   1.0000   1.0000   1.0000   1.0000   1.0000
     1.0000   1.0000   1.0000   1.0000   1.0000   1.0000   1.0000   1.0000
     1.0000   1.0000   1.0000   1.0001   1.0004   1.0007   1.0322   1.0518
     1.0549   0.3285   0.0000   0.0000   0.0000   0.0000   0.0000   0.0000
     0.0000   0.0000   0.0000   0.0000   0.0000   0.0000   0.0000   0.0000

          k = 0.0000 0.3849 0.0000 ( 11350 PWs)   bands (ev):

   -93.4956 -93.4929 -93.4921 -56.7440 -56.7400 -56.7371 -56.7278 -56.7176
   -56.6953 -56.6940 -56.6932 -56.6818 -52.2852 -24.2032 -24.2030 -24.1567
   -16.1802 -15.4160 -15.1029 -15.0412 -14.9201 -14.9192  -3.5053  -2.7335
    -2.6978  -2.6533  -2.5452  -2.3485  -2.1259  -1.6870  -1.5582  -1.2978
    -1.2889  -1.1633  -0.6905  -0.6303  -0.2597   0.0599   0.3660   0.9176
     0.9789   1.2011   1.3003   1.3181   1.3566   1.7267   1.7453   1.9305
     1.9856   3.0537   3.7329   3.7962   3.8256   3.8882   4.1641   4.1970
     5.7055   6.8636   7.9623   8.5978   9.2397   9.6843  11.5829  11.7215

     occupation numbers 
     1.0000   1.0000   1.0000   1.0000   1.0000   1.0000   1.0000   1.0000
     1.0000   1.0000   1.0000   1.0000   1.0000   1.0000   1.0000   1.0000
     1.0000   1.0000   1.0000   1.0000   1.0000   1.0000   1.0000   1.0000
     1.0000   1.0000   1.0000   1.0000   1.0000   1.0000   1.0000   1.0000
     1.0000   1.0000   1.0000   1.0000   1.0000   1.0000   1.0000   1.0000
     1.0000   1.0000   1.0000   1.0000   1.0000   1.0069   1.0087   1.0530
     1.0713   0.0001   0.0000   0.0000   0.0000   0.0000   0.0000   0.0000
     0.0000   0.0000   0.0000   0.0000   0.0000   0.0000   0.0000   0.0000

          k = 0.0000 0.3849-0.2526 ( 11352 PWs)   bands (ev):

   -93.4956 -93.4929 -93.4921 -56.7441 -56.7400 -56.7371 -56.7277 -56.7175
   -56.6954 -56.6940 -56.6932 -56.6817 -52.2852 -24.2032 -24.2030 -24.1568
   -16.1802 -15.4160 -15.1029 -15.0412 -14.9201 -14.9192  -3.5052  -2.7336
    -2.6979  -2.6537  -2.5438  -2.3484  -2.1259  -1.6870  -1.5582  -1.2974
    -1.2888  -1.1634  -0.6899  -0.6303  -0.2597   0.0602   0.3658   0.9176
     0.9588   1.2012   1.3008   1.3182   1.3567   1.7266   1.7412   1.9557
     1.9843   3.0336   3.7985   3.8015   3.8210   3.8881   4.1644   4.1828
     5.7044   6.7105   7.9585   8.5824   9.2519  10.3052  11.3566  11.6066

     occupation numbers 
     1.0000   1.0000   1.0000   1.0000   1.0000   1.0000   1.0000   1.0000
     1.0000   1.0000   1.0000   1.0000   1.0000   1.0000   1.0000   1.0000
     1.0000   1.0000   1.0000   1.0000   1.0000   1.0000   1.0000   1.0000
     1.0000   1.0000   1.0000   1.0000   1.0000   1.0000   1.0000   1.0000
     1.0000   1.0000   1.0000   1.0000   1.0000   1.0000   1.0000   1.0000
     1.0000   1.0000   1.0000   1.0000   1.0000   1.0068   1.0083   1.0617
     1.0709   0.0001   0.0000   0.0000   0.0000   0.0000   0.0000   0.0000
     0.0000   0.0000   0.0000   0.0000   0.0000   0.0000   0.0000   0.0000

          k = 0.0000-0.5774 0.0000 ( 11352 PWs)   bands (ev):

   -93.4943 -93.4940 -93.4923 -56.7425 -56.7412 -56.7375 -56.7297 -56.7079
   -56.7071 -56.6899 -56.6880 -56.6871 -52.2852 -24.2034 -24.2031 -24.1567
   -15.8021 -15.8005 -15.1200 -15.0646 -14.9112 -14.9104  -3.6548  -2.7500
    -2.7411  -2.3321  -2.3320  -2.0974  -1.9828  -1.9826  -1.8487  -1.3172
    -1.3027  -1.3010  -0.8096  -0.8090  -0.1593   0.1607   0.8597   0.8708
     0.8747   1.1912   1.2149   1.2159   1.6017   1.7494   1.7564   1.9126
     1.9139   3.6194   3.6547   3.7864   3.8908   3.9108   4.0845   4.3483
     4.4732   7.5347   7.7616   8.1947   8.3858  10.7295  10.9832  11.3785

     occupation numbers 
     1.0000   1.0000   1.0000   1.0000   1.0000   1.0000   1.0000   1.0000
     1.0000   1.0000   1.0000   1.0000   1.0000   1.0000   1.0000   1.0000
     1.0000   1.0000   1.0000   1.0000   1.0000   1.0000   1.0000   1.0000
     1.0000   1.0000   1.0000   1.0000   1.0000   1.0000   1.0000   1.0000
     1.0000   1.0000   1.0000   1.0000   1.0000   1.0000   1.0000   1.0000
     1.0000   1.0000   1.0000   1.0000   1.0010   1.0092   1.0100   1.0469
     1.0473   0.0000   0.0000   0.0000   0.0000   0.0000   0.0000   0.0000
     0.0000   0.0000   0.0000   0.0000   0.0000   0.0000   0.0000   0.0000

          k = 0.0000-0.5774-0.2526 ( 11344 PWs)   bands (ev):

   -93.4943 -93.4940 -93.4923 -56.7425 -56.7412 -56.7375 -56.7296 -56.7080
   -56.7071 -56.6899 -56.6879 -56.6871 -52.2852 -24.2034 -24.2030 -24.1567
   -15.8021 -15.8005 -15.1200 -15.0645 -14.9112 -14.9104  -3.6548  -2.7506
    -2.7414  -2.3319  -2.3319  -2.0974  -1.9822  -1.9821  -1.8487  -1.3165
    -1.3026  -1.3005  -0.8096  -0.8091  -0.1591   0.1613   0.8596   0.8688
     0.8717   1.1912   1.2153   1.2162   1.6016   1.7544   1.7593   1.9068
     1.9106   3.5257   3.6214   3.8875   3.9322   3.9406   4.0543   4.3482
     4.4916   7.4772   7.7616   8.1245   8.3663  10.9900  11.3330  11.3780

     occupation numbers 
     1.0000   1.0000   1.0000   1.0000   1.0000   1.0000   1.0000   1.0000
     1.0000   1.0000   1.0000   1.0000   1.0000   1.0000   1.0000   1.0000
     1.0000   1.0000   1.0000   1.0000   1.0000   1.0000   1.0000   1.0000
     1.0000   1.0000   1.0000   1.0000   1.0000   1.0000   1.0000   1.0000
     1.0000   1.0000   1.0000   1.0000   1.0000   1.0000   1.0000   1.0000
     1.0000   1.0000   1.0000   1.0000   1.0010   1.0098   1.0104   1.0450
     1.0462   0.0000   0.0000   0.0000   0.0000   0.0000   0.0000   0.0000
     0.0000   0.0000   0.0000   0.0000   0.0000   0.0000   0.0000   0.0000

          k = 0.1667 0.2887 0.0000 ( 11373 PWs)   bands (ev):

   -93.4959 -93.4925 -93.4921 -56.7445 -56.7397 -56.7370 -56.7231 -56.7229
   -56.6967 -56.6966 -56.6902 -56.6803 -52.2853 -24.2032 -24.2031 -24.1568
   -16.2669 -15.2348 -15.2342 -14.9531 -14.9530 -14.9233  -3.1758  -3.1754
    -2.6771  -2.5822  -2.5180  -2.5112  -2.1492  -1.6176  -1.6124  -1.1978
    -1.1914  -1.0131  -1.0081  -0.5620   0.0601   0.0847   0.0858   0.8809
     1.0736   1.0752   1.2118   1.3770   1.3774   1.6544   1.8829   1.8844
     1.9353   2.8556   3.7792   3.8102   3.8181   3.9928   3.9946   4.3168
     6.5751   6.6979   6.9364   9.3660   9.9807  10.3433  10.5720  10.8650

     occupation numbers 
     1.0000   1.0000   1.0000   1.0000   1.0000   1.0000   1.0000   1.0000
     1.0000   1.0000   1.0000   1.0000   1.0000   1.0000   1.0000   1.0000
     1.0000   1.0000   1.0000   1.0000   1.0000   1.0000   1.0000   1.0000
     1.0000   1.0000   1.0000   1.0000   1.0000   1.0000   1.0000   1.0000
     1.0000   1.0000   1.0000   1.0000   1.0000   1.0000   1.0000   1.0000
     1.0000   1.0000   1.0000   1.0000   1.0000   1.0024   1.0373   1.0377
     1.0547   0.0035   0.0000   0.0000   0.0000   0.0000   0.0000   0.0000
     0.0000   0.0000   0.0000   0.0000   0.0000   0.0000   0.0000   0.0000

          k = 0.1667 0.2887-0.2526 ( 11348 PWs)   bands (ev):

   -93.4959 -93.4925 -93.4921 -56.7446 -56.7396 -56.7369 -56.7231 -56.7229
   -56.6966 -56.6965 -56.6902 -56.6802 -52.2852 -24.2031 -24.2029 -24.1568
   -16.2669 -15.2348 -15.2342 -14.9531 -14.9530 -14.9234  -3.1758  -3.1754
    -2.6759  -2.5822  -2.5180  -2.5112  -2.1492  -1.6176  -1.6125  -1.1975
    -1.1911  -1.0131  -1.0081  -0.5615   0.0601   0.0848   0.0860   0.8574
     1.0737   1.0753   1.2061   1.3771   1.3775   1.6545   1.8824   1.8841
     1.9718   2.8501   3.8105   3.8166   3.8184   3.9931   3.9948   4.3168
     6.4799   6.6045   6.9303   9.9051  10.1650  10.3392  10.6099  10.8588

     occupation numbers 
     1.0000   1.0000   1.0000   1.0000   1.0000   1.0000   1.0000   1.0000
     1.0000   1.0000   1.0000   1.0000   1.0000   1.0000   1.0000   1.0000
     1.0000   1.0000   1.0000   1.0000   1.0000   1.0000   1.0000   1.0000
     1.0000   1.0000   1.0000   1.0000   1.0000   1.0000   1.0000   1.0000
     1.0000   1.0000   1.0000   1.0000   1.0000   1.0000   1.0000   1.0000
     1.0000   1.0000   1.0000   1.0000   1.0000   1.0024   1.0371   1.0376
     1.0670   0.0038   0.0000   0.0000   0.0000   0.0000   0.0000   0.0000
     0.0000   0.0000   0.0000   0.0000   0.0000   0.0000   0.0000   0.0000

          k = 0.1667 0.4811 0.0000 ( 11356 PWs)   bands (ev):

   -93.4947 -93.4934 -93.4925 -56.7428 -56.7407 -56.7377 -56.7258 -56.7163
   -56.7038 -56.6900 -56.6897 -56.6841 -52.2852 -24.2033 -24.2031 -24.1568
   -15.9425 -15.5627 -15.3028 -14.9682 -14.9199 -14.9137  -3.4353  -2.9489
    -2.7822  -2.4299  -2.3087  -2.2818  -2.0094  -1.7941  -1.7899  -1.4504
    -1.3739  -1.2975  -0.7083  -0.3720  -0.3369   0.2108   0.5521   0.9133
     1.0269   1.2126   1.2329   1.3096   1.5175   1.6902   1.7449   1.8763
     1.8879   3.4303   3.6357   3.7433   3.7994   4.0796   4.2121   4.2742
     5.0829   6.3729   7.3822   8.6963   9.9201  10.1400  10.4224  11.6531

     occupation numbers 
     1.0000   1.0000   1.0000   1.0000   1.0000   1.0000   1.0000   1.0000
     1.0000   1.0000   1.0000   1.0000   1.0000   1.0000   1.0000   1.0000
     1.0000   1.0000   1.0000   1.0000   1.0000   1.0000   1.0000   1.0000
     1.0000   1.0000   1.0000   1.0000   1.0000   1.0000   1.0000   1.0000
     1.0000   1.0000   1.0000   1.0000   1.0000   1.0000   1.0000   1.0000
     1.0000   1.0000   1.0000   1.0000   1.0002   1.0041   1.0087   1.0353
     1.0388   0.0000   0.0000   0.0000   0.0000   0.0000   0.0000   0.0000
     0.0000   0.0000   0.0000   0.0000   0.0000   0.0000   0.0000   0.0000

          k = 0.1667 0.4811-0.2526 ( 11352 PWs)   bands (ev):

   -93.4947 -93.4934 -93.4925 -56.7428 -56.7408 -56.7377 -56.7258 -56.7164
   -56.7037 -56.6900 -56.6897 -56.6841 -52.2852 -24.2033 -24.2030 -24.1568
   -15.9425 -15.5627 -15.3028 -14.9682 -14.9199 -14.9138  -3.4353  -2.9490
    -2.7826  -2.4301  -2.3080  -2.2820  -2.0093  -1.7940  -1.7899  -1.4496
    -1.3731  -1.2972  -0.7083  -0.3720  -0.3368   0.2111   0.5518   0.9091
     1.0270   1.2129   1.2305   1.3096   1.5181   1.6900   1.7444   1.8750
     1.8935   3.3602   3.6297   3.7908   3.8493   4.0819   4.2062   4.2743
     5.0931   6.3713   7.2927   8.6719   9.9534  10.1325  10.8185  11.7842

     occupation numbers 
     1.0000   1.0000   1.0000   1.0000   1.0000   1.0000   1.0000   1.0000
     1.0000   1.0000   1.0000   1.0000   1.0000   1.0000   1.0000   1.0000
     1.0000   1.0000   1.0000   1.0000   1.0000   1.0000   1.0000   1.0000
     1.0000   1.0000   1.0000   1.0000   1.0000   1.0000   1.0000   1.0000
     1.0000   1.0000   1.0000   1.0000   1.0000   1.0000   1.0000   1.0000
     1.0000   1.0000   1.0000   1.0000   1.0002   1.0041   1.0086   1.0349
     1.0406   0.0000   0.0000   0.0000   0.0000   0.0000   0.0000   0.0000
     0.0000   0.0000   0.0000   0.0000   0.0000   0.0000   0.0000   0.0000

          k = 0.3333 0.5774 0.0000 ( 11370 PWs)   bands (ev):

   -93.4937 -93.4937 -93.4931 -56.7416 -56.7416 -56.7381 -56.7168 -56.7168
   -56.7161 -56.6869 -56.6869 -56.6863 -52.2853 -24.2033 -24.2033 -24.1568
   -15.6200 -15.6181 -15.6181 -14.9238 -14.9229 -14.9229  -3.0553  -3.0526
    -3.0526  -2.3042  -2.2954  -2.2954  -1.8805  -1.8805  -1.8784  -1.5517
    -1.5324  -1.5324  -0.3202  -0.3202  -0.3180   0.5677   0.5677   0.5758
     1.1571   1.1571   1.1575   1.5577   1.5577   1.5595   1.7610   1.7666
     1.7666   3.5337   3.5698   3.5698   4.2797   4.2797   4.2801   4.3949
     5.0673   5.0673   7.8659   8.7744   8.7744  11.1823  11.5344  11.5345

     occupation numbers 
     1.0000   1.0000   1.0000   1.0000   1.0000   1.0000   1.0000   1.0000
     1.0000   1.0000   1.0000   1.0000   1.0000   1.0000   1.0000   1.0000
     1.0000   1.0000   1.0000   1.0000   1.0000   1.0000   1.0000   1.0000
     1.0000   1.0000   1.0000   1.0000   1.0000   1.0000   1.0000   1.0000
     1.0000   1.0000   1.0000   1.0000   1.0000   1.0000   1.0000   1.0000
     1.0000   1.0000   1.0000   1.0005   1.0005   1.0005   1.0106   1.0114
     1.0114   0.0000   0.0000   0.0000   0.0000   0.0000   0.0000   0.0000
     0.0000   0.0000   0.0000   0.0000   0.0000   0.0000   0.0000   0.0000

          k = 0.3333 0.5774-0.2526 ( 11340 PWs)   bands (ev):

   -93.4937 -93.4937 -93.4931 -56.7415 -56.7415 -56.7380 -56.7168 -56.7168
   -56.7161 -56.6869 -56.6869 -56.6863 -52.2852 -24.2032 -24.2032 -24.1567
   -15.6200 -15.6181 -15.6181 -14.9238 -14.9229 -14.9229  -3.0555  -3.0527
    -3.0527  -2.3045  -2.2956  -2.2956  -1.8804  -1.8804  -1.8784  -1.5504
    -1.5317  -1.5317  -0.3201  -0.3201  -0.3179   0.5674   0.5674   0.5753
     1.1570   1.1570   1.1572   1.5577   1.5577   1.5596   1.7614   1.7669
     1.7669   3.5108   3.5612   3.5612   4.2798   4.2798   4.2802   4.4278
     5.0840   5.0840   7.8417   8.7396   8.7396  11.2861  11.7136  11.7137

     occupation numbers 
     1.0000   1.0000   1.0000   1.0000   1.0000   1.0000   1.0000   1.0000
     1.0000   1.0000   1.0000   1.0000   1.0000   1.0000   1.0000   1.0000
     1.0000   1.0000   1.0000   1.0000   1.0000   1.0000   1.0000   1.0000
     1.0000   1.0000   1.0000   1.0000   1.0000   1.0000   1.0000   1.0000
     1.0000   1.0000   1.0000   1.0000   1.0000   1.0000   1.0000   1.0000
     1.0000   1.0000   1.0000   1.0005   1.0005   1.0005   1.0107   1.0114
     1.0114   0.0000   0.0000   0.0000   0.0000   0.0000   0.0000   0.0000
     0.0000   0.0000   0.0000   0.0000   0.0000   0.0000   0.0000   0.0000

 ------ SPIN DOWN ----------


          k = 0.0000 0.0000 0.0000 ( 11393 PWs)   bands (ev):

   -92.7116 -92.7068 -92.7042 -55.9940 -55.9940 -55.9924 -55.9924 -55.9549
   -55.9549 -55.8917 -55.8835 -55.8803 -52.2910 -24.2106 -24.2106 -24.1629
   -16.4510 -14.9221 -14.9221 -14.8658 -14.8658 -14.8356  -2.6775  -2.5371
    -2.5371  -2.4937  -2.4937  -2.1563  -2.1446  -2.0595  -2.0595  -0.6764
    -0.6764  -0.5895  -0.5895  -0.4335  -0.4205   0.6019   1.2219   1.2219
     1.4072   1.4072   1.8411   1.8428   1.9546   2.4264   2.4264   2.4430
     2.4430   2.7932   4.1501   4.1501   4.1573   4.1573   4.7786   4.7786
     6.0934   8.4985   9.1439   9.1439   9.8906   9.8906  10.4001  10.6901

     occupation numbers 
     1.0000   1.0000   1.0000   1.0000   1.0000   1.0000   1.0000   1.0000
     1.0000   1.0000   1.0000   1.0000   1.0000   1.0000   1.0000   1.0000
     1.0000   1.0000   1.0000   1.0000   1.0000   1.0000   1.0000   1.0000
     1.0000   1.0000   1.0000   1.0000   1.0000   1.0000   1.0000   1.0000
     1.0000   1.0000   1.0000   1.0000   1.0000   1.0000   1.0000   1.0000
     1.0000   1.0000   1.0256   1.0260   1.0613   0.4345   0.4345   0.3924
     0.3924   0.0094   0.0000   0.0000   0.0000   0.0000   0.0000   0.0000
     0.0000   0.0000   0.0000   0.0000   0.0000   0.0000   0.0000   0.0000

          k = 0.0000 0.0000-0.2526 ( 11446 PWs)   bands (ev):

   -92.7117 -92.7068 -92.7042 -55.9940 -55.9940 -55.9925 -55.9925 -55.9550
   -55.9550 -55.8918 -55.8836 -55.8805 -52.2910 -24.2107 -24.2107 -24.1631
   -16.4510 -14.9221 -14.9221 -14.8658 -14.8658 -14.8357  -2.6742  -2.5371
    -2.5371  -2.4937  -2.4937  -2.1562  -2.1446  -2.0596  -2.0596  -0.6764
    -0.6764  -0.5895  -0.5895  -0.4338  -0.4206   0.5357   1.2218   1.2218
     1.4071   1.4071   1.8412   1.8428   2.1287   2.4263   2.4263   2.4429
     2.4429   2.7276   4.1506   4.1506   4.1577   4.1577   4.7786   4.7786
     5.8269   9.1341   9.1341   9.4944   9.8808   9.8808  10.0242  10.6374

     occupation numbers 
     1.0000   1.0000   1.0000   1.0000   1.0000   1.0000   1.0000   1.0000
     1.0000   1.0000   1.0000   1.0000   1.0000   1.0000   1.0000   1.0000
     1.0000   1.0000   1.0000   1.0000   1.0000   1.0000   1.0000   1.0000
     1.0000   1.0000   1.0000   1.0000   1.0000   1.0000   1.0000   1.0000
     1.0000   1.0000   1.0000   1.0000   1.0000   1.0000   1.0000   1.0000
     1.0000   1.0000   1.0256   1.0260   1.0611   0.4347   0.4347   0.3926
     0.3926   0.0240   0.0000   0.0000   0.0000   0.0000   0.0000   0.0000
     0.0000   0.0000   0.0000   0.0000   0.0000   0.0000   0.0000   0.0000

          k = 0.0000 0.1925 0.0000 ( 11360 PWs)   bands (ev):

   -92.7112 -92.7070 -92.7044 -56.0018 -55.9994 -55.9834 -55.9822 -55.9597
   -55.9562 -55.8909 -55.8838 -55.8806 -52.2909 -24.2107 -24.2106 -24.1627
   -16.3529 -15.0282 -14.9589 -14.8821 -14.8405 -14.8286  -2.9394  -2.7220
    -2.5581  -2.4956  -2.4312  -2.1906  -2.0043  -1.7572  -1.5621  -0.9852
    -0.9489  -0.7153  -0.6925  -0.0551  -0.0075   0.5090   0.6443   0.8586
     1.7115   1.8285   1.8786   1.9392   2.1603   2.2301   2.2509   2.4758
     2.5325   2.8542   4.1130   4.2014   4.2223   4.2273   4.5097   4.7110
     6.3039   7.4329   8.4376   8.8179   9.1151  10.9225  11.0270  11.5670

     occupation numbers 
     1.0000   1.0000   1.0000   1.0000   1.0000   1.0000   1.0000   1.0000
     1.0000   1.0000   1.0000   1.0000   1.0000   1.0000   1.0000   1.0000
     1.0000   1.0000   1.0000   1.0000   1.0000   1.0000   1.0000   1.0000
     1.0000   1.0000   1.0000   1.0000   1.0000   1.0000   1.0000   1.0000
     1.0000   1.0000   1.0000   1.0000   1.0000   1.0000   1.0000   1.0000
     1.0056   1.0226   1.0360   1.0560   1.0346   0.9330   0.8914   0.3144
     0.2021   0.0036   0.0000   0.0000   0.0000   0.0000   0.0000   0.0000
     0.0000   0.0000   0.0000   0.0000   0.0000   0.0000   0.0000   0.0000

          k = 0.0000 0.1925-0.2526 ( 11384 PWs)   bands (ev):

   -92.7112 -92.7070 -92.7044 -56.0018 -55.9994 -55.9834 -55.9822 -55.9598
   -55.9562 -55.8910 -55.8839 -55.8807 -52.2909 -24.2107 -24.2106 -24.1629
   -16.3529 -15.0282 -14.9589 -14.8821 -14.8405 -14.8286  -2.9394  -2.7219
    -2.5552  -2.4956  -2.4312  -2.1911  -2.0043  -1.7572  -1.5621  -0.9853
    -0.9491  -0.7151  -0.6925  -0.0551  -0.0076   0.5098   0.6285   0.8181
     1.7117   1.8248   1.8786   1.9391   2.2301   2.2508   2.3316   2.4757
     2.5322   2.7710   4.1147   4.2021   4.2226   4.2269   4.5283   4.7091
     6.0668   7.4235   8.4291   9.0427   9.7993  10.4433  10.9826  11.0640

     occupation numbers 
     1.0000   1.0000   1.0000   1.0000   1.0000   1.0000   1.0000   1.0000
     1.0000   1.0000   1.0000   1.0000   1.0000   1.0000   1.0000   1.0000
     1.0000   1.0000   1.0000   1.0000   1.0000   1.0000   1.0000   1.0000
     1.0000   1.0000   1.0000   1.0000   1.0000   1.0000   1.0000   1.0000
     1.0000   1.0000   1.0000   1.0000   1.0000   1.0000   1.0000   1.0000
     1.0056   1.0218   1.0360   1.0560   0.9329   0.8915   0.6931   0.3148
     0.2026   0.0131   0.0000   0.0000   0.0000   0.0000   0.0000   0.0000
     0.0000   0.0000   0.0000   0.0000   0.0000   0.0000   0.0000   0.0000

          k = 0.0000 0.3849 0.0000 ( 11350 PWs)   bands (ev):

   -92.7102 -92.7076 -92.7048 -56.0078 -55.9971 -55.9739 -55.9730 -55.9713
   -55.9598 -55.8892 -55.8849 -55.8814 -52.2909 -24.2109 -24.2107 -24.1627
   -16.0808 -15.3132 -15.0008 -14.9302 -14.8133 -14.8112  -3.3449  -2.5768
    -2.5066  -2.4214  -2.2372  -2.2129  -1.8873  -1.5101  -1.3769  -1.0020
    -0.9750  -0.9442  -0.5008  -0.4682   0.0315   0.2254   0.5497   1.1281
     1.8299   1.8496   2.0203   2.0457   2.1969   2.2529   2.3799   2.5338
     2.6331   3.0327   4.0747   4.1221   4.1721   4.2740   4.4727   4.5151
     5.5639   6.8784   7.8462   8.4138   9.2539   9.7599  11.5978  11.7497

     occupation numbers 
     1.0000   1.0000   1.0000   1.0000   1.0000   1.0000   1.0000   1.0000
     1.0000   1.0000   1.0000   1.0000   1.0000   1.0000   1.0000   1.0000
     1.0000   1.0000   1.0000   1.0000   1.0000   1.0000   1.0000   1.0000
     1.0000   1.0000   1.0000   1.0000   1.0000   1.0000   1.0000   1.0000
     1.0000   1.0000   1.0000   1.0000   1.0000   1.0000   1.0000   1.0000
     1.0229   1.0278   1.0799   1.0830   0.9888   0.8871   0.5599   0.1999
     0.0759   0.0001   0.0000   0.0000   0.0000   0.0000   0.0000   0.0000
     0.0000   0.0000   0.0000   0.0000   0.0000   0.0000   0.0000   0.0000

          k = 0.0000 0.3849-0.2526 ( 11352 PWs)   bands (ev):

   -92.7102 -92.7076 -92.7048 -56.0077 -55.9970 -55.9740 -55.9729 -55.9713
   -55.9598 -55.8892 -55.8849 -55.8814 -52.2909 -24.2108 -24.2107 -24.1628
   -16.0808 -15.3132 -15.0008 -14.9302 -14.8133 -14.8112  -3.3449  -2.5768
    -2.5068  -2.4221  -2.2353  -2.2128  -1.8873  -1.5101  -1.3770  -1.0015
    -0.9749  -0.9441  -0.5008  -0.4671   0.0314   0.2257   0.5495   1.1029
     1.8298   1.8496   2.0205   2.0457   2.1885   2.2532   2.3798   2.5319
     2.7546   2.9379   4.1290   4.1302   4.1634   4.2738   4.4732   4.5019
     5.5647   6.7242   7.8431   8.3998   9.2639  10.3874  11.4276  11.6189

     occupation numbers 
     1.0000   1.0000   1.0000   1.0000   1.0000   1.0000   1.0000   1.0000
     1.0000   1.0000   1.0000   1.0000   1.0000   1.0000   1.0000   1.0000
     1.0000   1.0000   1.0000   1.0000   1.0000   1.0000   1.0000   1.0000
     1.0000   1.0000   1.0000   1.0000   1.0000   1.0000   1.0000   1.0000
     1.0000   1.0000   1.0000   1.0000   1.0000   1.0000   1.0000   1.0000
     1.0229   1.0278   1.0799   1.0831   1.0008   0.8865   0.5602   0.2031
     0.0165   0.0008   0.0000   0.0000   0.0000   0.0000   0.0000   0.0000
     0.0000   0.0000   0.0000   0.0000   0.0000   0.0000   0.0000   0.0000

          k = 0.0000-0.5774 0.0000 ( 11352 PWs)   bands (ev):

   -92.7092 -92.7083 -92.7050 -56.0098 -55.9874 -55.9858 -55.9682 -55.9666
   -55.9650 -55.8875 -55.8861 -55.8818 -52.2909 -24.2111 -24.2108 -24.1627
   -15.7012 -15.6996 -15.0183 -14.9535 -14.8036 -14.8028  -3.4927  -2.5372
    -2.5267  -2.1420  -2.1418  -2.0109  -1.7100  -1.7082  -1.6241  -1.0751
    -1.0579  -0.9618  -0.5690  -0.5672  -0.0821   0.3057   1.0329   1.0372
     1.6883   1.9160   1.9177   1.9569   2.3412   2.4183   2.4231   2.5882
     2.5966   3.7340   3.9852   4.0077   4.1287   4.2895   4.3203   4.4086
     4.6489   7.5435   7.6440   8.2039   8.2129  10.7989  11.0606  11.3949

     occupation numbers 
     1.0000   1.0000   1.0000   1.0000   1.0000   1.0000   1.0000   1.0000
     1.0000   1.0000   1.0000   1.0000   1.0000   1.0000   1.0000   1.0000
     1.0000   1.0000   1.0000   1.0000   1.0000   1.0000   1.0000   1.0000
     1.0000   1.0000   1.0000   1.0000   1.0000   1.0000   1.0000   1.0000
     1.0000   1.0000   1.0000   1.0000   1.0000   1.0000   1.0000   1.0000
     1.0040   1.0481   1.0486   1.0621   0.6668   0.4559   0.4432   0.1212
     0.1115   0.0000   0.0000   0.0000   0.0000   0.0000   0.0000   0.0000
     0.0000   0.0000   0.0000   0.0000   0.0000   0.0000   0.0000   0.0000

          k = 0.0000-0.5774-0.2526 ( 11344 PWs)   bands (ev):

   -92.7093 -92.7083 -92.7050 -56.0097 -55.9874 -55.9859 -55.9682 -55.9666
   -55.9650 -55.8876 -55.8861 -55.8817 -52.2909 -24.2111 -24.2107 -24.1627
   -15.7012 -15.6995 -15.0183 -14.9535 -14.8036 -14.8028  -3.4926  -2.5378
    -2.5271  -2.1419  -2.1417  -2.0109  -1.7095  -1.7074  -1.6241  -1.0736
    -1.0570  -0.9618  -0.5690  -0.5672  -0.0819   0.3063   1.0301   1.0330
     1.6882   1.9161   1.9179   1.9569   2.3411   2.4103   2.4187   2.5975
     2.6016   3.6536   3.8975   4.1607   4.2548   4.2671   4.2896   4.3857
     4.6489   7.4826   7.6450   8.1409   8.1856  11.0597  11.3920  11.4164

     occupation numbers 
     1.0000   1.0000   1.0000   1.0000   1.0000   1.0000   1.0000   1.0000
     1.0000   1.0000   1.0000   1.0000   1.0000   1.0000   1.0000   1.0000
     1.0000   1.0000   1.0000   1.0000   1.0000   1.0000   1.0000   1.0000
     1.0000   1.0000   1.0000   1.0000   1.0000   1.0000   1.0000   1.0000
     1.0000   1.0000   1.0000   1.0000   1.0000   1.0000   1.0000   1.0000
     1.0040   1.0481   1.0487   1.0621   0.6670   0.4771   0.4546   0.1104
     0.1060   0.0000   0.0000   0.0000   0.0000   0.0000   0.0000   0.0000
     0.0000   0.0000   0.0000   0.0000   0.0000   0.0000   0.0000   0.0000

          k = 0.1667 0.2887 0.0000 ( 11373 PWs)   bands (ev):

   -92.7105 -92.7074 -92.7047 -56.0029 -56.0026 -55.9754 -55.9752 -55.9685
   -55.9582 -55.8897 -55.8845 -55.8812 -52.2909 -24.2109 -24.2107 -24.1628
   -16.1679 -15.1309 -15.1303 -14.8442 -14.8441 -14.8176  -3.0126  -3.0125
    -2.3973  -2.3618  -2.3549  -2.3133  -1.9022  -1.4346  -1.4294  -0.9352
    -0.9305  -0.8068  -0.7995  -0.3328   0.2658   0.2679   0.3776   1.0432
     1.7891   1.9872   1.9875   2.1004   2.1006   2.1103   2.4796   2.4810
     2.5200   2.9463   4.1263   4.1723   4.1818   4.3145   4.3174   4.6340
     6.4704   6.7033   6.7642   9.4328   9.9895  10.2156  10.5891  10.7163

     occupation numbers 
     1.0000   1.0000   1.0000   1.0000   1.0000   1.0000   1.0000   1.0000
     1.0000   1.0000   1.0000   1.0000   1.0000   1.0000   1.0000   1.0000
     1.0000   1.0000   1.0000   1.0000   1.0000   1.0000   1.0000   1.0000
     1.0000   1.0000   1.0000   1.0000   1.0000   1.0000   1.0000   1.0000
     1.0000   1.0000   1.0000   1.0000   1.0000   1.0000   1.0000   1.0000
     1.0148   1.0718   1.0719   1.0755   1.0754   1.0714   0.3062   0.3029
     0.2243   0.0007   0.0000   0.0000   0.0000   0.0000   0.0000   0.0000
     0.0000   0.0000   0.0000   0.0000   0.0000   0.0000   0.0000   0.0000

          k = 0.1667 0.2887-0.2526 ( 11348 PWs)   bands (ev):

   -92.7105 -92.7074 -92.7047 -56.0029 -56.0026 -55.9753 -55.9751 -55.9685
   -55.9582 -55.8898 -55.8845 -55.8812 -52.2909 -24.2108 -24.2106 -24.1628
   -16.1679 -15.1309 -15.1303 -14.8442 -14.8441 -14.8176  -3.0126  -3.0125
    -2.3971  -2.3618  -2.3550  -2.3118  -1.9022  -1.4347  -1.4294  -0.9349
    -0.9303  -0.8067  -0.7994  -0.3318   0.2660   0.2681   0.3776   1.0102
     1.7828   1.9873   1.9875   2.1004   2.1007   2.1103   2.4791   2.4807
     2.6910   2.8196   4.1606   4.1736   4.1825   4.3144   4.3170   4.6340
     6.4441   6.5413   6.7589   9.9337  10.1910  10.2107  10.6275  10.7535

     occupation numbers 
     1.0000   1.0000   1.0000   1.0000   1.0000   1.0000   1.0000   1.0000
     1.0000   1.0000   1.0000   1.0000   1.0000   1.0000   1.0000   1.0000
     1.0000   1.0000   1.0000   1.0000   1.0000   1.0000   1.0000   1.0000
     1.0000   1.0000   1.0000   1.0000   1.0000   1.0000   1.0000   1.0000
     1.0000   1.0000   1.0000   1.0000   1.0000   1.0000   1.0000   1.0000
     1.0138   1.0718   1.0719   1.0755   1.0754   1.0714   0.3073   0.3038
     0.0385   0.0062   0.0000   0.0000   0.0000   0.0000   0.0000   0.0000
     0.0000   0.0000   0.0000   0.0000   0.0000   0.0000   0.0000   0.0000

          k = 0.1667 0.4811 0.0000 ( 11356 PWs)   bands (ev):

   -92.7094 -92.7081 -92.7051 -56.0057 -55.9958 -55.9827 -55.9685 -55.9679
   -55.9622 -55.8879 -55.8857 -55.8819 -52.2909 -24.2110 -24.2108 -24.1628
   -15.8421 -15.4606 -15.1992 -14.8598 -14.8117 -14.8067  -3.2663  -2.7545
    -2.5597  -2.2761  -2.1549  -2.0591  -1.7718  -1.5793  -1.5764  -1.1435
    -1.1277  -0.9682  -0.5038  -0.2363  -0.0697   0.3853   0.7307   1.0934
     1.7975   1.8559   1.9175   2.0462   2.2765   2.2785   2.4083   2.5207
     2.6782   3.5049   3.9289   4.0091   4.1884   4.3817   4.5154   4.5756
     4.9428   6.2185   7.3952   8.7112   9.9224  10.0151  10.4893  11.7193

     occupation numbers 
     1.0000   1.0000   1.0000   1.0000   1.0000   1.0000   1.0000   1.0000
     1.0000   1.0000   1.0000   1.0000   1.0000   1.0000   1.0000   1.0000
     1.0000   1.0000   1.0000   1.0000   1.0000   1.0000   1.0000   1.0000
     1.0000   1.0000   1.0000   1.0000   1.0000   1.0000   1.0000   1.0000
     1.0000   1.0000   1.0000   1.0000   1.0000   1.0000   1.0000   1.0000
     1.0163   1.0294   1.0486   1.0831   0.8340   0.8292   0.4824   0.2230
     0.0450   0.0000   0.0000   0.0000   0.0000   0.0000   0.0000   0.0000
     0.0000   0.0000   0.0000   0.0000   0.0000   0.0000   0.0000   0.0000

          k = 0.1667 0.4811-0.2526 ( 11352 PWs)   bands (ev):

   -92.7094 -92.7081 -92.7051 -56.0057 -55.9959 -55.9827 -55.9685 -55.9679
   -55.9621 -55.8879 -55.8857 -55.8819 -52.2909 -24.2110 -24.2107 -24.1628
   -15.8421 -15.4606 -15.1992 -14.8598 -14.8117 -14.8067  -3.2663  -2.7547
    -2.5602  -2.2762  -2.1551  -2.0583  -1.7716  -1.5793  -1.5763  -1.1421
    -1.1268  -0.9679  -0.5038  -0.2363  -0.0697   0.3856   0.7301   1.0861
     1.7974   1.8537   1.9175   2.0462   2.2745   2.2781   2.4081   2.5202
     2.6947   3.4433   3.9845   4.0248   4.1863   4.3865   4.5111   4.5758
     4.9585   6.2184   7.3025   8.6848   9.9614   9.9964  10.8933  11.8447

     occupation numbers 
     1.0000   1.0000   1.0000   1.0000   1.0000   1.0000   1.0000   1.0000
     1.0000   1.0000   1.0000   1.0000   1.0000   1.0000   1.0000   1.0000
     1.0000   1.0000   1.0000   1.0000   1.0000   1.0000   1.0000   1.0000
     1.0000   1.0000   1.0000   1.0000   1.0000   1.0000   1.0000   1.0000
     1.0000   1.0000   1.0000   1.0000   1.0000   1.0000   1.0000   1.0000
     1.0162   1.0288   1.0486   1.0831   0.8387   0.8303   0.4829   0.2238
     0.0367   0.0000   0.0000   0.0000   0.0000   0.0000   0.0000   0.0000
     0.0000   0.0000   0.0000   0.0000   0.0000   0.0000   0.0000   0.0000

          k = 0.3333 0.5774 0.0000 ( 11370 PWs)   bands (ev):

   -92.7086 -92.7086 -92.7053 -55.9968 -55.9957 -55.9957 -55.9658 -55.9645
   -55.9645 -55.8866 -55.8866 -55.8824 -52.2909 -24.2110 -24.2110 -24.1628
   -15.5182 -15.5162 -15.5162 -14.8158 -14.8149 -14.8149  -2.8578  -2.8542
    -2.8542  -2.1633  -2.1535  -2.1535  -1.6586  -1.6586  -1.6566  -1.2250
    -1.2033  -1.2033  -0.1071  -0.1071  -0.1049   0.7508   0.7508   0.7596
     1.8152   1.8180   1.8180   2.1826   2.1828   2.1828   2.5479   2.5552
     2.5552   3.8926   3.9571   3.9571   4.3585   4.5779   4.5779   4.5779
     4.8917   4.8917   7.8734   8.7928   8.7928  11.2242  11.6121  11.6123

     occupation numbers 
     1.0000   1.0000   1.0000   1.0000   1.0000   1.0000   1.0000   1.0000
     1.0000   1.0000   1.0000   1.0000   1.0000   1.0000   1.0000   1.0000
     1.0000   1.0000   1.0000   1.0000   1.0000   1.0000   1.0000   1.0000
     1.0000   1.0000   1.0000   1.0000   1.0000   1.0000   1.0000   1.0000
     1.0000   1.0000   1.0000   1.0000   1.0000   1.0000   1.0000   1.0000
     1.0197   1.0203   1.0203   1.0086   1.0083   1.0083   0.1768   0.1656
     0.1656   0.0000   0.0000   0.0000   0.0000   0.0000   0.0000   0.0000
     0.0000   0.0000   0.0000   0.0000   0.0000   0.0000   0.0000   0.0000

          k = 0.3333 0.5774-0.2526 ( 11340 PWs)   bands (ev):

   -92.7086 -92.7086 -92.7053 -55.9968 -55.9957 -55.9957 -55.9657 -55.9645
   -55.9645 -55.8865 -55.8865 -55.8823 -52.2909 -24.2109 -24.2109 -24.1627
   -15.5182 -15.5162 -15.5162 -14.8158 -14.8149 -14.8149  -2.8581  -2.8543
    -2.8543  -2.1637  -2.1537  -2.1537  -1.6586  -1.6586  -1.6566  -1.2232
    -1.2023  -1.2023  -0.1070  -0.1070  -0.1049   0.7502   0.7502   0.7585
     1.8143   1.8175   1.8175   2.1826   2.1828   2.1828   2.5490   2.5559
     2.5559   3.8456   3.9404   3.9404   4.4182   4.5779   4.5779   4.5780
     4.9176   4.9176   7.8453   8.7556   8.7556  11.3195  11.7807  11.7815

     occupation numbers 
     1.0000   1.0000   1.0000   1.0000   1.0000   1.0000   1.0000   1.0000
     1.0000   1.0000   1.0000   1.0000   1.0000   1.0000   1.0000   1.0000
     1.0000   1.0000   1.0000   1.0000   1.0000   1.0000   1.0000   1.0000
     1.0000   1.0000   1.0000   1.0000   1.0000   1.0000   1.0000   1.0000
     1.0000   1.0000   1.0000   1.0000   1.0000   1.0000   1.0000   1.0000
     1.0195   1.0202   1.0202   1.0086   1.0083   1.0083   0.1751   0.1646
     0.1646   0.0000   0.0000   0.0000   0.0000   0.0000   0.0000   0.0000
     0.0000   0.0000   0.0000   0.0000   0.0000   0.0000   0.0000   0.0000

     the Fermi energy is     2.4397 ev

!    total energy              =   -1489.11985232 Ry
     total all-electron energy =     -9588.354660 Ry
     estimated scf accuracy    <       0.00000005 Ry
     smearing contrib. (-TS)   =       0.00556007 Ry
     internal energy E=F+TS    =   -1489.12541239 Ry

     The total energy is F=E-TS. E is the sum of the following terms:
     one-electron contribution =   -2381.56370845 Ry
     hartree contribution      =    1217.55817460 Ry
     xc contribution           =    -150.15297290 Ry
     ewald contribution        =     160.55356818 Ry
     one-center paw contrib.   =    -335.52047381 Ry
      -> PAW hartree energy AE =     880.71826633 Ry
      -> PAW hartree energy PS =    -878.44663554 Ry
      -> PAW xc energy AE      =    -479.84715648 Ry
      -> PAW xc energy PS      =     142.05505187 Ry
      -> total E_H with PAW    =    1219.82980539 Ry
      -> total E_XC with PAW   =    -487.94507751 Ry

     total magnetization       =     2.38 Bohr mag/cell
     absolute magnetization    =     2.57 Bohr mag/cell

     convergence has been achieved in  35 iterations

     Forces acting on atoms (cartesian axes, Ry/au):

     atom    1 type  1   force =     0.00000000   -0.00000000    0.00652769
     atom    2 type  1   force =     0.00000000    0.00000000    0.00488381
     atom    3 type  1   force =     0.00000000    0.00000000    0.00488381
     atom    4 type  2   force =    -0.00005879   -0.00010182   -0.06119748
     atom    5 type  2   force =     0.00011757   -0.00000000   -0.06119748
     atom    6 type  2   force =    -0.00005879    0.00010182   -0.06119748
     atom    7 type  2   force =    -0.00153658   -0.00000000    0.05063810
     atom    8 type  2   force =     0.00076829    0.00133071    0.05063810
     atom    9 type  2   force =     0.00076829   -0.00133071    0.05063810
     atom   10 type  3   force =     0.00000000    0.00000000    0.01538283
     The non-local contrib.  to forces
     atom    1 type  1   force =     0.00000000    0.00000000   -0.00015182
     atom    2 type  1   force =     0.00000000   -0.00000000    0.00671964
     atom    3 type  1   force =     0.00000000    0.00000000    0.00671964
     atom    4 type  2   force =    -0.00099363   -0.00172102   -1.26294680
     atom    5 type  2   force =     0.00198726   -0.00000000   -1.26294680
     atom    6 type  2   force =    -0.00099363    0.00172102   -1.26294680
     atom    7 type  2   force =    -0.01263401   -0.00000000    1.17630714
     atom    8 type  2   force =     0.00631701    0.01094138    1.17630714
     atom    9 type  2   force =     0.00631701   -0.01094138    1.17630714
     atom   10 type  3   force =     0.00000000    0.00000000   -0.08133232
     The ionic contribution  to forces
     atom    1 type  1   force =    -0.00000000   -0.00000000    2.69156703
     atom    2 type  1   force =     0.00000002   -0.00000001    2.42163867
     atom    3 type  1   force =    -0.00000002    0.00000001    2.42163867
     atom    4 type  2   force =     0.02598763    0.04501190   39.48744700
     atom    5 type  2   force =    -0.05197526   -0.00000000   39.48744701
     atom    6 type  2   force =     0.02598763   -0.04501190   39.48744701
     atom    7 type  2   force =     0.18269875    0.00000000  -37.72027910
     atom    8 type  2   force =    -0.09134938   -0.15822177  -37.72027909
     atom    9 type  2   force =    -0.09134937    0.15822176  -37.72027910
     atom   10 type  3   force =    -0.00000000   -0.00000000  -12.83634809
     The local contribution  to forces
     atom    1 type  1   force =     0.00000000    0.00000000   -2.68458866
     atom    2 type  1   force =     0.00000021   -0.00000012   -2.42311995
     atom    3 type  1   force =    -0.00000021    0.00000012   -2.42311995
     atom    4 type  2   force =    -0.02507110   -0.04342441  -38.29715951
     atom    5 type  2   force =     0.05014219    0.00000000  -38.29715951
     atom    6 type  2   force =    -0.02507110    0.04342441  -38.29715951
     atom    7 type  2   force =    -0.17173369   -0.00000000   36.60537349
     atom    8 type  2   force =     0.08586685    0.14872574   36.60537349
     atom    9 type  2   force =     0.08586685   -0.14872574   36.60537349
     atom   10 type  3   force =     0.00000000    0.00000000   12.93297722
     The core correction contribution to forces
     atom    1 type  1   force =     0.00000000    0.00000000    0.00001073
     atom    2 type  1   force =     0.00000000   -0.00000000   -0.00003840
     atom    3 type  1   force =    -0.00000000    0.00000000   -0.00003840
     atom    4 type  2   force =     0.00000967    0.00001675    0.01141914
     atom    5 type  2   force =    -0.00001934    0.00000000    0.01141914
     atom    6 type  2   force =     0.00000967   -0.00001675    0.01141914
     atom    7 type  2   force =     0.00011662    0.00000000   -0.01056086
     atom    8 type  2   force =    -0.00005831   -0.00010100   -0.01056086
     atom    9 type  2   force =    -0.00005831    0.00010100   -0.01056086
     atom   10 type  3   force =    -0.00000000   -0.00000000    0.00003035
     The Hubbard contrib.    to forces
     atom    1 type  1   force =     0.00000000    0.00000000    0.00000000
     atom    2 type  1   force =     0.00000000    0.00000000    0.00000000
     atom    3 type  1   force =     0.00000000    0.00000000    0.00000000
     atom    4 type  2   force =     0.00000000    0.00000000    0.00000000
     atom    5 type  2   force =     0.00000000    0.00000000    0.00000000
     atom    6 type  2   force =     0.00000000    0.00000000    0.00000000
     atom    7 type  2   force =     0.00000000    0.00000000    0.00000000
     atom    8 type  2   force =     0.00000000    0.00000000    0.00000000
     atom    9 type  2   force =     0.00000000    0.00000000    0.00000000
     atom   10 type  3   force =     0.00000000    0.00000000    0.00000000
     The SCF correction term to forces
     atom    1 type  1   force =     0.00000000    0.00000000   -0.00031899
     atom    2 type  1   force =    -0.00000000    0.00000000   -0.00032555
     atom    3 type  1   force =     0.00000000   -0.00000000   -0.00032555
     atom    4 type  2   force =     0.00000864    0.00001497    0.00003330
     atom    5 type  2   force =    -0.00001728    0.00000000    0.00003330
     atom    6 type  2   force =     0.00000864   -0.00001497    0.00003330
     atom    7 type  2   force =     0.00001575   -0.00000000   -0.00021195
     atom    8 type  2   force =    -0.00000788   -0.00001364   -0.00021195
     atom    9 type  2   force =    -0.00000788    0.00001364   -0.00021195
     atom   10 type  3   force =     0.00000000    0.00000000    0.00004629

     Total force =     0.138788     Total SCF correction =     0.000675

     Writing all to output data dir ./out/pw.save/ :
     XML data file, charge density, pseudopotentials, collected wavefunctions
 
     init_run     :     22.66s CPU      4.96s WALL (       1 calls)
     electrons    :    458.71s CPU     98.58s WALL (       1 calls)
     forces       :      1.08s CPU      0.77s WALL (       1 calls)

     Called by init_run:
     wfcinit      :      0.49s CPU      0.60s WALL (       1 calls)
     wfcinit:atom :      0.05s CPU      0.05s WALL (      28 calls)
     wfcinit:wfcr :      0.30s CPU      0.33s WALL (      28 calls)
     potinit      :     21.46s CPU      3.57s WALL (       1 calls)
     hinit0       :      0.56s CPU      0.54s WALL (       1 calls)

     Called by electrons:
     c_bands      :     35.61s CPU     35.48s WALL (      35 calls)
     sum_band     :      7.36s CPU      7.29s WALL (      35 calls)
     v_of_rho     :      0.95s CPU      0.57s WALL (      36 calls)
     v_h          :      0.56s CPU      0.15s WALL (      36 calls)
     v_xc         :      0.40s CPU      0.43s WALL (      37 calls)
     newd         :      0.87s CPU      0.77s WALL (      36 calls)
                                        0.77s GPU  (      36 calls)
     PAW_pot      :    420.34s CPU     53.09s WALL (      36 calls)
     mix_rho      :      2.13s CPU      2.02s WALL (      35 calls)

     Called by c_bands:
     init_us_2    :      1.32s CPU      1.26s WALL (    2016 calls)
     cegterg      :     27.65s CPU     27.65s WALL (     980 calls)

     Called by sum_band:
     sum_band:wei :      0.06s CPU      0.06s WALL (      35 calls)
                                        0.06s GPU  (      35 calls)
     sum_band:loo :      5.08s CPU      4.98s WALL (      35 calls)
                                        4.98s GPU  (      35 calls)
     sum_band:buf :      1.65s CPU      1.69s WALL (     980 calls)
                                        1.67s GPU  (     980 calls)
     sum_band:ini :      0.65s CPU      0.64s WALL (     980 calls)
                                        0.63s GPU  (     980 calls)
     sum_band:cal :      0.15s CPU      0.19s WALL (     980 calls)
                                        0.14s GPU  (     980 calls)
     sum_band:bec :      0.50s CPU      0.51s WALL (     980 calls)
                                        0.50s GPU  (     980 calls)
     addusdens    :      1.43s CPU      1.45s WALL (      35 calls)
                                        1.45s GPU  (      35 calls)
     addusd:skk   :      0.01s CPU      0.02s WALL (     105 calls)
                                        0.01s GPU  (     105 calls)

     Called by *egterg:
     cdiaghg      :     10.38s CPU     10.50s WALL (    4710 calls)
                                       10.45s GPU  (    4710 calls)
     cegterg:over :      1.47s CPU      1.49s WALL (    3730 calls)
     cegterg:upda :      1.33s CPU      1.34s WALL (    3730 calls)
     cegterg:last :      0.27s CPU      0.27s WALL (    1790 calls)
     h_psi        :     11.50s CPU     11.52s WALL (    4738 calls)
                                       11.46s GPU  (    4738 calls)
     s_psi        :      1.49s CPU      1.53s WALL (    4738 calls)
     g_psi        :      0.02s CPU      0.17s WALL (    3730 calls)
                                        0.12s GPU  (    3730 calls)

     Called by h_psi:
     h_psi:calbec :      0.23s CPU      0.48s WALL (    4738 calls)
                                        0.42s GPU  (    4738 calls)
     vloc_psi     :      9.07s CPU      8.98s WALL (    4738 calls)
                                        8.92s GPU  (    4738 calls)
     add_vuspsi   :      1.43s CPU      1.69s WALL (    4738 calls)
                                        1.63s GPU  (    4738 calls)

     General routines
     calbec       :      0.30s CPU      0.33s WALL (    5830 calls)
     fft          :      8.14s CPU      1.33s WALL (     913 calls)
                                        0.06s GPU  (     841 calls)
     ffts         :      3.61s CPU      0.97s WALL (    1740 calls)
                                        0.06s GPU  (    1668 calls)
     fftw         :      0.46s CPU      5.90s WALL (   26152 calls)
                                        5.61s GPU  (   26152 calls)
     interpolate  :     12.26s CPU      2.34s WALL (      72 calls)
 
     Parallel routines

     PAW routines
     PAW_pot      :    420.34s CPU     53.09s WALL (      36 calls)
     PAW_symme    :      0.05s CPU      0.02s WALL (      71 calls)
 
     PWSCF        :   8m 3.29s CPU   1m45.01s WALL

 
   This run was terminated on:   7:15: 0  12Jul2026            

=------------------------------------------------------------------------------=
   JOB DONE.
=------------------------------------------------------------------------------=
Warning: ieee_divide_by_zero is signaling
Warning: ieee_inexact is signaling
FORTRAN STOP
