
     Program PWSCF v.7.3.1 starts on 12Jul2026 at  3:17:11 

     This program is part of the open-source Quantum ESPRESSO suite
     for quantum simulation of materials; please cite
         "P. Giannozzi et al., J. Phys.:Condens. Matter 21 395502 (2009);
         "P. Giannozzi et al., J. Phys.:Condens. Matter 29 465901 (2017);
         "P. Giannozzi et al., J. Chem. Phys. 152 154105 (2020);
          URL http://www.quantum-espresso.org", 
     in publications or presentations arising from this work. More details at
     http://www.quantum-espresso.org/quote

     Parallel version (MPI & OpenMP), running on      14 processor cores
     Number of MPI processes:                 1
     Threads/MPI process:                    14

     MPI processes distributed on     1 nodes
     849242 MiB available memory on the printing compute node when the environment starts
 
     Reading input from pw.in

     Current dimensions of program PWSCF are:
     Max number of different atomic species (ntypx) = 10
     Max number of k-points (npk) =  40000
     Max angular momentum in pseudopotentials (lmaxx) =  4
     file Co.pbe-spn-kjpaw_psl.0.3.1.UPF: wavefunction(s)  3P 3D renormalized
     file O.pbe-n-kjpaw_psl.1.0.0.UPF: wavefunction(s)  2S 2P renormalized
     file Na.pbe-spn-kjpaw_psl.1.0.0.UPF: wavefunction(s)  2P renormalized
 
     Subspace diagonalization in iterative solution of the eigenvalue problem:
     a serial algorithm will be used

 
     G-vector sticks info
     --------------------
     sticks:   dense  smooth     PW     G-vecs:    dense   smooth      PW
     Sum         979     499    151                72573    25753    4225
 
     Using Slab Decomposition
 


     bravais-lattice index     =            4
     lattice parameter (alat)  =       5.4575  a.u.
     unit-cell volume          =     409.4500 (a.u.)^3
     number of atoms/cell      =            4
     number of atomic types    =            3
     number of electrons       =        38.00
     number of Kohn-Sham states=           27
     kinetic-energy cutoff     =      60.0000  Ry
     charge density cutoff     =     480.0000  Ry
     scf convergence threshold =      1.0E-07
     mixing beta               =       0.3000
     number of iterations used =            8  local-TF  mixing
     Exchange-correlation= SLA  PW   PBX  PBC
                           (   1   4   3   4   0   0   0)

     GPU acceleration is ACTIVE.  1 visible GPUs per MPI rank
     GPU-aware MPI enabled


     GPU used by master process:

        Device Number: 0
        Device name: NVIDIA A100-SXM4-80GB
        Compute capability : 80
        Ratio of single to double precision performance  : 2
        Memory Clock Rate (KHz): 1593000
        Memory Bus Width (bits): 5120
        Peak Memory Bandwidth (GB/s): ******

     celldm(1)=   5.457529  celldm(2)=   0.000000  celldm(3)=   2.908587
     celldm(4)=   0.000000  celldm(5)=   0.000000  celldm(6)=   0.000000

     crystal axes: (cart. coord. in units of alat)
               a(1) = (   1.000000   0.000000   0.000000 )  
               a(2) = (  -0.500000   0.866025   0.000000 )  
               a(3) = (   0.000000   0.000000   2.908587 )  

     reciprocal axes: (cart. coord. in units 2 pi/alat)
               b(1) = (  1.000000  0.577350 -0.000000 )  
               b(2) = (  0.000000  1.154701  0.000000 )  
               b(3) = (  0.000000 -0.000000  0.343810 )  


     PseudoPot. # 1 for Co read from file:
     ../../pseudo/Co.pbe-spn-kjpaw_psl.0.3.1.UPF
     MD5 check sum: 3c0a43779828c046024e4f3be63f8e67
     Pseudo is Projector augmented-wave + core cor, Zval = 17.0
     Generated using &quot;atomic&quot; code by A. Dal Corso  v.6.2.2
     Shape of augmentation charge: PSQ
     Using radial grid of 1193 points,  6 beta functions with: 
                l(1) =   0
                l(2) =   0
                l(3) =   1
                l(4) =   1
                l(5) =   2
                l(6) =   2
     Q(r) pseudized with 0 coefficients 


     PseudoPot. # 2 for O  read from file:
     ../../pseudo/O.pbe-n-kjpaw_psl.1.0.0.UPF
     MD5 check sum: e99d9cef9b487d1ca56f5b95ecd0fd7a
     Pseudo is Projector augmented-wave + core cor, Zval =  6.0
     Generated using &quot;atomic&quot; code by A. Dal Corso  v.6.3
     Shape of augmentation charge: PSQ
     Using radial grid of 1095 points,  4 beta functions with: 
                l(1) =   0
                l(2) =   0
                l(3) =   1
                l(4) =   1
     Q(r) pseudized with 0 coefficients 


     PseudoPot. # 3 for Na read from file:
     ../../pseudo/Na.pbe-spn-kjpaw_psl.1.0.0.UPF
     MD5 check sum: 05b4deb74e3932c23ab016979dc8b5d4
     Pseudo is Projector augmented-wave + core cor, Zval =  9.0
     Generated using &quot;atomic&quot; code by A. Dal Corso  v.6.3
     Shape of augmentation charge: PSQ
     Using radial grid of 1121 points,  4 beta functions with: 
                l(1) =   0
                l(2) =   0
                l(3) =   1
                l(4) =   1
     Q(r) pseudized with 0 coefficients 


     atomic species   valence    mass     pseudopotential
     Co               17.00    58.93300     Co( 1.00)
     O                 6.00    15.99900     O ( 1.00)
     Na                9.00    22.98977     Na( 1.00)

     Starting magnetic structure 
     atomic species   magnetization
     Co              0.300
     O               0.000
     Na              0.000

     12 Sym. Ops., with inversion, found


                                    s                        frac. trans.

      isym =  1     identity                                     

 cryst.   s( 1) = (     1          0          0      )
                  (     0          1          0      )
                  (     0          0          1      )

 cart.    s( 1) = (  1.0000000  0.0000000  0.0000000 )
                  (  0.0000000  1.0000000  0.0000000 )
                  (  0.0000000  0.0000000  1.0000000 )


      isym =  2     180 deg rotation - cart. axis [1,0,0]        

 cryst.   s( 2) = (     1          0          0      )
                  (    -1         -1          0      )
                  (     0          0         -1      )

 cart.    s( 2) = (  1.0000000  0.0000000  0.0000000 )
                  (  0.0000000 -1.0000000  0.0000000 )
                  (  0.0000000  0.0000000 -1.0000000 )


      isym =  3     120 deg rotation - cryst. axis [0,0,1]       

 cryst.   s( 3) = (     0          1          0      )
                  (    -1         -1          0      )
                  (     0          0          1      )

 cart.    s( 3) = ( -0.5000000 -0.8660254  0.0000000 )
                  (  0.8660254 -0.5000000  0.0000000 )
                  (  0.0000000  0.0000000  1.0000000 )


      isym =  4     120 deg rotation - cryst. axis [0,0,-1]      

 cryst.   s( 4) = (    -1         -1          0      )
                  (     1          0          0      )
                  (     0          0          1      )

 cart.    s( 4) = ( -0.5000000  0.8660254  0.0000000 )
                  ( -0.8660254 -0.5000000  0.0000000 )
                  (  0.0000000  0.0000000  1.0000000 )


      isym =  5     180 deg rotation - cryst. axis [0,1,0]       

 cryst.   s( 5) = (    -1         -1          0      )
                  (     0          1          0      )
                  (     0          0         -1      )

 cart.    s( 5) = ( -0.5000000 -0.8660254  0.0000000 )
                  ( -0.8660254  0.5000000  0.0000000 )
                  (  0.0000000  0.0000000 -1.0000000 )


      isym =  6     180 deg rotation - cryst. axis [1,1,0]       

 cryst.   s( 6) = (     0          1          0      )
                  (     1          0          0      )
                  (     0          0         -1      )

 cart.    s( 6) = ( -0.5000000  0.8660254  0.0000000 )
                  (  0.8660254  0.5000000  0.0000000 )
                  (  0.0000000  0.0000000 -1.0000000 )


      isym =  7     inversion                                    

 cryst.   s( 7) = (    -1          0          0      )
                  (     0         -1          0      )
                  (     0          0         -1      )

 cart.    s( 7) = ( -1.0000000  0.0000000  0.0000000 )
                  (  0.0000000 -1.0000000  0.0000000 )
                  (  0.0000000  0.0000000 -1.0000000 )


      isym =  8     inv. 180 deg rotation - cart. axis [1,0,0]   

 cryst.   s( 8) = (    -1          0          0      )
                  (     1          1          0      )
                  (     0          0          1      )

 cart.    s( 8) = ( -1.0000000  0.0000000  0.0000000 )
                  (  0.0000000  1.0000000  0.0000000 )
                  (  0.0000000  0.0000000  1.0000000 )


      isym =  9     inv. 120 deg rotation - cryst. axis [0,0,1]  

 cryst.   s( 9) = (     0         -1          0      )
                  (     1          1          0      )
                  (     0          0         -1      )

 cart.    s( 9) = (  0.5000000  0.8660254  0.0000000 )
                  ( -0.8660254  0.5000000  0.0000000 )
                  (  0.0000000  0.0000000 -1.0000000 )


      isym = 10     inv. 120 deg rotation - cryst. axis [0,0,-1] 

 cryst.   s(10) = (     1          1          0      )
                  (    -1          0          0      )
                  (     0          0         -1      )

 cart.    s(10) = (  0.5000000 -0.8660254  0.0000000 )
                  (  0.8660254  0.5000000  0.0000000 )
                  (  0.0000000  0.0000000 -1.0000000 )


      isym = 11     inv. 180 deg rotation - cryst. axis [0,1,0]  

 cryst.   s(11) = (     1          1          0      )
                  (     0         -1          0      )
                  (     0          0          1      )

 cart.    s(11) = (  0.5000000  0.8660254  0.0000000 )
                  (  0.8660254 -0.5000000  0.0000000 )
                  (  0.0000000  0.0000000  1.0000000 )


      isym = 12     inv. 180 deg rotation - cryst. axis [1,1,0]  

 cryst.   s(12) = (     0         -1          0      )
                  (    -1          0          0      )
                  (     0          0          1      )

 cart.    s(12) = (  0.5000000 -0.8660254  0.0000000 )
                  ( -0.8660254 -0.5000000  0.0000000 )
                  (  0.0000000  0.0000000  1.0000000 )


     point group D_3d (-3m) 
     there are  6 classes
     the character table:

       E     2C3   3C2'  i     2S6   3s_d 
A_1g   1.00  1.00  1.00  1.00  1.00  1.00
A_2g   1.00  1.00 -1.00  1.00  1.00 -1.00
E_g    2.00 -1.00  0.00  2.00 -1.00  0.00
A_1u   1.00  1.00  1.00 -1.00 -1.00 -1.00
A_2u   1.00  1.00 -1.00 -1.00 -1.00  1.00
E_u    2.00 -1.00  0.00 -2.00  1.00  0.00

     the symmetry operations in each class and the name of the first element:

     E        1
          identity                                               
     2C3      3    4
          120 deg rotation - cryst. axis [0,0,1]                 
     3C2'     2    5    6
          180 deg rotation - cart. axis [1,0,0]                  
     i        7
          inversion                                              
     2S6      9   10
          inv. 120 deg rotation - cryst. axis [0,0,1]            
     3s_d     8   11   12
          inv. 180 deg rotation - cart. axis [1,0,0]             

   Cartesian axes

     site n.     atom                  positions (alat units)
         1        Co     tau(   1) = (   0.0000000   0.0000000   0.0000000  )
         2        O      tau(   2) = (  -0.0000000   0.5773503   0.3324100  )
         3        O      tau(   3) = (   0.5000000   0.2886751   2.5761773  )
         4        Na     tau(   4) = (   0.0000000   0.0000000   1.4542936  )

   Crystallographic axes

     site n.     atom                  positions (cryst. coord.)
         1        Co     tau(   1) = (  0.0000000  0.0000000  0.0000000  )
         2        O      tau(   2) = (  0.3333333  0.6666667  0.1142857  )
         3        O      tau(   3) = (  0.6666667  0.3333333  0.8857143  )
         4        Na     tau(   4) = (  0.0000000  0.0000000  0.5000000  )

     number of k points=    25  Marzari-Vanderbilt smearing, width (Ry)=  0.0200
                       cart. coord. in units 2pi/alat
        k(    1) = (   0.0000000   0.0000000   0.0000000), wk =   0.0052083
        k(    2) = (   0.0000000   0.0000000   0.1146032), wk =   0.0104167
        k(    3) = (   0.0000000   0.1443376   0.0000000), wk =   0.0312500
        k(    4) = (   0.0000000   0.1443376   0.1146032), wk =   0.0312500
        k(    5) = (   0.0000000   0.2886751   0.0000000), wk =   0.0312500
        k(    6) = (   0.0000000   0.2886751   0.1146032), wk =   0.0312500
        k(    7) = (   0.0000000   0.4330127   0.0000000), wk =   0.0312500
        k(    8) = (   0.0000000   0.4330127   0.1146032), wk =   0.0312500
        k(    9) = (   0.0000000  -0.5773503   0.0000000), wk =   0.0156250
        k(   10) = (   0.0000000  -0.5773503   0.1146032), wk =   0.0312500
        k(   11) = (   0.1250000   0.2165064   0.0000000), wk =   0.0312500
        k(   12) = (   0.1250000   0.2165064   0.1146032), wk =   0.0625000
        k(   13) = (   0.1250000   0.3608439   0.0000000), wk =   0.0625000
        k(   14) = (   0.1250000   0.3608439   0.1146032), wk =   0.0625000
        k(   15) = (   0.1250000   0.5051815   0.0000000), wk =   0.0625000
        k(   16) = (   0.1250000   0.5051815   0.1146032), wk =   0.0625000
        k(   17) = (   0.2500000   0.4330127   0.0000000), wk =   0.0312500
        k(   18) = (   0.2500000   0.4330127   0.1146032), wk =   0.0625000
        k(   19) = (   0.2500000   0.5773503   0.0000000), wk =   0.0312500
        k(   20) = (   0.2500000   0.5773503   0.1146032), wk =   0.0625000
        k(   21) = (   0.0000000   0.1443376  -0.1146032), wk =   0.0312500
        k(   22) = (   0.0000000   0.2886751  -0.1146032), wk =   0.0312500
        k(   23) = (   0.0000000   0.4330127  -0.1146032), wk =   0.0312500
        k(   24) = (  -0.1250000   0.3608439  -0.1146032), wk =   0.0625000
        k(   25) = (  -0.1250000   0.5051815  -0.1146032), wk =   0.0625000

                       cryst. coord.
        k(    1) = (   0.0000000   0.0000000   0.0000000), wk =   0.0052083
        k(    2) = (   0.0000000   0.0000000   0.3333333), wk =   0.0104167
        k(    3) = (   0.0000000   0.1250000   0.0000000), wk =   0.0312500
        k(    4) = (   0.0000000   0.1250000   0.3333333), wk =   0.0312500
        k(    5) = (   0.0000000   0.2500000   0.0000000), wk =   0.0312500
        k(    6) = (   0.0000000   0.2500000   0.3333333), wk =   0.0312500
        k(    7) = (   0.0000000   0.3750000   0.0000000), wk =   0.0312500
        k(    8) = (   0.0000000   0.3750000   0.3333333), wk =   0.0312500
        k(    9) = (   0.0000000  -0.5000000   0.0000000), wk =   0.0156250
        k(   10) = (   0.0000000  -0.5000000   0.3333333), wk =   0.0312500
        k(   11) = (   0.1250000   0.1250000   0.0000000), wk =   0.0312500
        k(   12) = (   0.1250000   0.1250000   0.3333333), wk =   0.0625000
        k(   13) = (   0.1250000   0.2500000   0.0000000), wk =   0.0625000
        k(   14) = (   0.1250000   0.2500000   0.3333333), wk =   0.0625000
        k(   15) = (   0.1250000   0.3750000   0.0000000), wk =   0.0625000
        k(   16) = (   0.1250000   0.3750000   0.3333333), wk =   0.0625000
        k(   17) = (   0.2500000   0.2500000   0.0000000), wk =   0.0312500
        k(   18) = (   0.2500000   0.2500000   0.3333333), wk =   0.0625000
        k(   19) = (   0.2500000   0.3750000   0.0000000), wk =   0.0312500
        k(   20) = (   0.2500000   0.3750000   0.3333333), wk =   0.0625000
        k(   21) = (   0.0000000   0.1250000  -0.3333333), wk =   0.0312500
        k(   22) = (   0.0000000   0.2500000  -0.3333333), wk =   0.0312500
        k(   23) = (   0.0000000   0.3750000  -0.3333333), wk =   0.0312500
        k(   24) = (  -0.1250000   0.3750000  -0.3333333), wk =   0.0625000
        k(   25) = (  -0.1250000   0.5000000  -0.3333333), wk =   0.0625000

     Dense  grid:    72573 G-vectors     FFT dimensions: (  40,  40, 120)

     Smooth grid:    25753 G-vectors     FFT dimensions: (  27,  27,  80)

     Dynamical RAM for                 wfc:       1.32 MB

     Dynamical RAM for     wfc (w. buffer):      67.51 MB

     Dynamical RAM for           str. fact:       3.32 MB

     Dynamical RAM for           local pot:       0.00 MB

     Dynamical RAM for          nlocal pot:       2.06 MB

     Dynamical RAM for                qrad:       5.27 MB

     Dynamical RAM for          rho,v,vnew:      15.43 MB

     Dynamical RAM for               rhoin:       5.14 MB

     Dynamical RAM for            rho*nmix:      35.44 MB

     Dynamical RAM for           G-vectors:       4.35 MB

     Dynamical RAM for          h,s,v(r/c):       0.13 MB

     Dynamical RAM for          <psi|beta>:       0.02 MB

     Dynamical RAM for                 psi:       2.65 MB

     Dynamical RAM for                hpsi:       2.65 MB

     Dynamical RAM for                spsi:       2.65 MB

     Dynamical RAM for      wfcinit/wfcrot:       2.66 MB

     Dynamical RAM for           addusdens:     209.29 MB

     Dynamical RAM for          addusforce:     211.52 MB

     Estimated static dynamical RAM per process >     116.31 MB

     Estimated max dynamical RAM per process >     363.27 MB

     Check: negative core charge=   -0.000007
     Generating pointlists ...
     new r_m :   0.2748 (alat units)  1.4998 (a.u.) for type    1
     new r_m :   0.2748 (alat units)  1.4998 (a.u.) for type    2
     new r_m :   0.4125 (alat units)  2.2512 (a.u.) for type    3

     Initial potential from superposition of free atoms

     starting charge      37.9934, renormalised to      38.0000
     Starting wfcs are   23 randomized atomic wfcs +    4 random wfcs
     Checking if some PAW data can be deallocated... 

     total cpu time spent up to now is        3.8 secs

     Self-consistent Calculation
[tb_dev] Currently allocated     6.54E-01 Mbytes, locked:    0 /   6
[tb_pin] Currently allocated     0.00E+00 Mbytes, locked:    0 /   0

     iteration #  1     ecut=    60.00 Ry     beta= 0.30
     Davidson diagonalization with overlap

---- Real-time Memory Report at c_bands before calling an iterative solver
           708 MiB given to the printing process from OS
             0 MiB allocation reported by mallinfo(arena+hblkhd)
        848903 MiB available memory on the node where the printing process lives
     GPU memory used/free/total (MiB): 1056 / 80094 / 81151
------------------
     ethr =  1.00E-02,  avg # of iterations =  9.6

     total cpu time spent up to now is        5.9 secs

     total energy              =    -568.98867310 Ry
     estimated scf accuracy    <       1.79221290 Ry

     total magnetization       =     4.23 Bohr mag/cell
     absolute magnetization    =     4.23 Bohr mag/cell
[tb_dev] Currently allocated     3.05E-05 Mbytes, locked:    0 /   2
[tb_pin] Currently allocated     0.00E+00 Mbytes, locked:    0 /   0

     iteration #  2     ecut=    60.00 Ry     beta= 0.30
     Davidson diagonalization with overlap

---- Real-time Memory Report at c_bands before calling an iterative solver
           753 MiB given to the printing process from OS
             0 MiB allocation reported by mallinfo(arena+hblkhd)
        849473 MiB available memory on the node where the printing process lives
     GPU memory used/free/total (MiB): 1074 / 80076 / 81151
------------------
     ethr =  4.72E-03,  avg # of iterations =  1.9

     total cpu time spent up to now is        7.0 secs

     total energy              =    -569.03389027 Ry
     estimated scf accuracy    <       0.83885516 Ry

     total magnetization       =     3.70 Bohr mag/cell
     absolute magnetization    =     3.70 Bohr mag/cell
[tb_dev] Currently allocated     3.05E-05 Mbytes, locked:    0 /   2
[tb_pin] Currently allocated     0.00E+00 Mbytes, locked:    0 /   0

     iteration #  3     ecut=    60.00 Ry     beta= 0.30
     Davidson diagonalization with overlap

---- Real-time Memory Report at c_bands before calling an iterative solver
           756 MiB given to the printing process from OS
             0 MiB allocation reported by mallinfo(arena+hblkhd)
        849648 MiB available memory on the node where the printing process lives
     GPU memory used/free/total (MiB): 1074 / 80076 / 81151
------------------
     ethr =  2.21E-03,  avg # of iterations =  2.0

     total cpu time spent up to now is        8.2 secs

     total energy              =    -569.09591855 Ry
     estimated scf accuracy    <       0.70668100 Ry

     total magnetization       =     2.16 Bohr mag/cell
     absolute magnetization    =     2.18 Bohr mag/cell
[tb_dev] Currently allocated     3.05E-05 Mbytes, locked:    0 /   2
[tb_pin] Currently allocated     0.00E+00 Mbytes, locked:    0 /   0

     iteration #  4     ecut=    60.00 Ry     beta= 0.30
     Davidson diagonalization with overlap

---- Real-time Memory Report at c_bands before calling an iterative solver
           760 MiB given to the printing process from OS
             0 MiB allocation reported by mallinfo(arena+hblkhd)
        849438 MiB available memory on the node where the printing process lives
     GPU memory used/free/total (MiB): 1074 / 80076 / 81151
------------------
     ethr =  1.86E-03,  avg # of iterations =  1.5

     total cpu time spent up to now is        9.2 secs

     total energy              =    -569.08918848 Ry
     estimated scf accuracy    <       0.53745039 Ry

     total magnetization       =     3.19 Bohr mag/cell
     absolute magnetization    =     3.23 Bohr mag/cell
[tb_dev] Currently allocated     3.05E-05 Mbytes, locked:    0 /   2
[tb_pin] Currently allocated     0.00E+00 Mbytes, locked:    0 /   0

     iteration #  5     ecut=    60.00 Ry     beta= 0.30
     Davidson diagonalization with overlap

---- Real-time Memory Report at c_bands before calling an iterative solver
           761 MiB given to the printing process from OS
             0 MiB allocation reported by mallinfo(arena+hblkhd)
        849181 MiB available memory on the node where the printing process lives
     GPU memory used/free/total (MiB): 1074 / 80076 / 81151
------------------
     ethr =  1.41E-03,  avg # of iterations =  2.2

     total cpu time spent up to now is       10.3 secs

     total energy              =    -569.18169703 Ry
     estimated scf accuracy    <       0.08818120 Ry

     total magnetization       =     0.86 Bohr mag/cell
     absolute magnetization    =     1.25 Bohr mag/cell
[tb_dev] Currently allocated     3.05E-05 Mbytes, locked:    0 /   2
[tb_pin] Currently allocated     0.00E+00 Mbytes, locked:    0 /   0

     iteration #  6     ecut=    60.00 Ry     beta= 0.30
     Davidson diagonalization with overlap

---- Real-time Memory Report at c_bands before calling an iterative solver
           763 MiB given to the printing process from OS
             0 MiB allocation reported by mallinfo(arena+hblkhd)
        848933 MiB available memory on the node where the printing process lives
     GPU memory used/free/total (MiB): 1074 / 80076 / 81151
------------------
     ethr =  2.32E-04,  avg # of iterations =  8.4

     total cpu time spent up to now is       12.3 secs

     total energy              =    -569.17851535 Ry
     estimated scf accuracy    <       0.14476502 Ry

     total magnetization       =     0.59 Bohr mag/cell
     absolute magnetization    =     0.84 Bohr mag/cell
[tb_dev] Currently allocated     3.05E-05 Mbytes, locked:    0 /   2
[tb_pin] Currently allocated     0.00E+00 Mbytes, locked:    0 /   0

     iteration #  7     ecut=    60.00 Ry     beta= 0.30
     Davidson diagonalization with overlap

---- Real-time Memory Report at c_bands before calling an iterative solver
           765 MiB given to the printing process from OS
             0 MiB allocation reported by mallinfo(arena+hblkhd)
        848632 MiB available memory on the node where the printing process lives
     GPU memory used/free/total (MiB): 1074 / 80076 / 81151
------------------
     ethr =  2.32E-04,  avg # of iterations =  1.4

     total cpu time spent up to now is       13.3 secs

     total energy              =    -569.20224029 Ry
     estimated scf accuracy    <       0.03778042 Ry

     total magnetization       =     0.63 Bohr mag/cell
     absolute magnetization    =     0.85 Bohr mag/cell
[tb_dev] Currently allocated     3.05E-05 Mbytes, locked:    0 /   2
[tb_pin] Currently allocated     0.00E+00 Mbytes, locked:    0 /   0

     iteration #  8     ecut=    60.00 Ry     beta= 0.30
     Davidson diagonalization with overlap

---- Real-time Memory Report at c_bands before calling an iterative solver
           767 MiB given to the printing process from OS
             0 MiB allocation reported by mallinfo(arena+hblkhd)
        848605 MiB available memory on the node where the printing process lives
     GPU memory used/free/total (MiB): 1074 / 80076 / 81151
------------------
     ethr =  9.94E-05,  avg # of iterations =  2.6

     total cpu time spent up to now is       14.5 secs

     total energy              =    -569.20516451 Ry
     estimated scf accuracy    <       0.03102368 Ry

     total magnetization       =     0.65 Bohr mag/cell
     absolute magnetization    =     0.71 Bohr mag/cell
[tb_dev] Currently allocated     3.05E-05 Mbytes, locked:    0 /   2
[tb_pin] Currently allocated     0.00E+00 Mbytes, locked:    0 /   0

     iteration #  9     ecut=    60.00 Ry     beta= 0.30
     Davidson diagonalization with overlap

---- Real-time Memory Report at c_bands before calling an iterative solver
           771 MiB given to the printing process from OS
             0 MiB allocation reported by mallinfo(arena+hblkhd)
        848581 MiB available memory on the node where the printing process lives
     GPU memory used/free/total (MiB): 1074 / 80076 / 81151
------------------
     ethr =  8.16E-05,  avg # of iterations =  1.5

     total cpu time spent up to now is       15.6 secs

     total energy              =    -569.20220021 Ry
     estimated scf accuracy    <       0.01553523 Ry

     total magnetization       =     0.65 Bohr mag/cell
     absolute magnetization    =     0.69 Bohr mag/cell
[tb_dev] Currently allocated     3.05E-05 Mbytes, locked:    0 /   2
[tb_pin] Currently allocated     0.00E+00 Mbytes, locked:    0 /   0

     iteration # 10     ecut=    60.00 Ry     beta= 0.30
     Davidson diagonalization with overlap

---- Real-time Memory Report at c_bands before calling an iterative solver
           773 MiB given to the printing process from OS
             0 MiB allocation reported by mallinfo(arena+hblkhd)
        848576 MiB available memory on the node where the printing process lives
     GPU memory used/free/total (MiB): 1074 / 80076 / 81151
------------------
     ethr =  4.09E-05,  avg # of iterations =  2.7

     total cpu time spent up to now is       16.9 secs

     total energy              =    -569.20503875 Ry
     estimated scf accuracy    <       0.00265776 Ry

     total magnetization       =     0.66 Bohr mag/cell
     absolute magnetization    =     0.69 Bohr mag/cell
[tb_dev] Currently allocated     3.05E-05 Mbytes, locked:    0 /   2
[tb_pin] Currently allocated     0.00E+00 Mbytes, locked:    0 /   0

     iteration # 11     ecut=    60.00 Ry     beta= 0.30
     Davidson diagonalization with overlap

---- Real-time Memory Report at c_bands before calling an iterative solver
           773 MiB given to the printing process from OS
             0 MiB allocation reported by mallinfo(arena+hblkhd)
        848611 MiB available memory on the node where the printing process lives
     GPU memory used/free/total (MiB): 1074 / 80076 / 81151
------------------
     c_bands:  1 eigenvalues not converged
     ethr =  6.99E-06,  avg # of iterations =  6.7

     total cpu time spent up to now is       18.6 secs

     total energy              =    -569.20562925 Ry
     estimated scf accuracy    <       0.00038506 Ry

     total magnetization       =     0.67 Bohr mag/cell
     absolute magnetization    =     0.69 Bohr mag/cell
[tb_dev] Currently allocated     3.05E-05 Mbytes, locked:    0 /   2
[tb_pin] Currently allocated     0.00E+00 Mbytes, locked:    0 /   0

     iteration # 12     ecut=    60.00 Ry     beta= 0.30
     Davidson diagonalization with overlap

---- Real-time Memory Report at c_bands before calling an iterative solver
           773 MiB given to the printing process from OS
             0 MiB allocation reported by mallinfo(arena+hblkhd)
        848620 MiB available memory on the node where the printing process lives
     GPU memory used/free/total (MiB): 1074 / 80076 / 81151
------------------
     ethr =  1.01E-06,  avg # of iterations =  6.2

     total cpu time spent up to now is       20.3 secs

     total energy              =    -569.20567969 Ry
     estimated scf accuracy    <       0.00112062 Ry

     total magnetization       =     0.67 Bohr mag/cell
     absolute magnetization    =     0.68 Bohr mag/cell
[tb_dev] Currently allocated     3.05E-05 Mbytes, locked:    0 /   2
[tb_pin] Currently allocated     0.00E+00 Mbytes, locked:    0 /   0

     iteration # 13     ecut=    60.00 Ry     beta= 0.30
     Davidson diagonalization with overlap

---- Real-time Memory Report at c_bands before calling an iterative solver
           773 MiB given to the printing process from OS
             0 MiB allocation reported by mallinfo(arena+hblkhd)
        848619 MiB available memory on the node where the printing process lives
     GPU memory used/free/total (MiB): 1074 / 80076 / 81151
------------------
     ethr =  1.01E-06,  avg # of iterations =  2.2

     total cpu time spent up to now is       21.5 secs

     total energy              =    -569.20574538 Ry
     estimated scf accuracy    <       0.00016927 Ry

     total magnetization       =     0.67 Bohr mag/cell
     absolute magnetization    =     0.69 Bohr mag/cell
[tb_dev] Currently allocated     3.05E-05 Mbytes, locked:    0 /   2
[tb_pin] Currently allocated     0.00E+00 Mbytes, locked:    0 /   0

     iteration # 14     ecut=    60.00 Ry     beta= 0.30
     Davidson diagonalization with overlap

---- Real-time Memory Report at c_bands before calling an iterative solver
           773 MiB given to the printing process from OS
             0 MiB allocation reported by mallinfo(arena+hblkhd)
        848632 MiB available memory on the node where the printing process lives
     GPU memory used/free/total (MiB): 1074 / 80076 / 81151
------------------
     ethr =  4.45E-07,  avg # of iterations =  3.4

     total cpu time spent up to now is       22.8 secs

     total energy              =    -569.20578346 Ry
     estimated scf accuracy    <       0.00002085 Ry

     total magnetization       =     0.67 Bohr mag/cell
     absolute magnetization    =     0.70 Bohr mag/cell
[tb_dev] Currently allocated     3.05E-05 Mbytes, locked:    0 /   2
[tb_pin] Currently allocated     0.00E+00 Mbytes, locked:    0 /   0

     iteration # 15     ecut=    60.00 Ry     beta= 0.30
     Davidson diagonalization with overlap

---- Real-time Memory Report at c_bands before calling an iterative solver
           774 MiB given to the printing process from OS
             0 MiB allocation reported by mallinfo(arena+hblkhd)
        848641 MiB available memory on the node where the printing process lives
     GPU memory used/free/total (MiB): 1074 / 80076 / 81151
------------------
     ethr =  5.49E-08,  avg # of iterations =  5.1

     total cpu time spent up to now is       24.4 secs

     total energy              =    -569.20579536 Ry
     estimated scf accuracy    <       0.00001866 Ry

     total magnetization       =     0.67 Bohr mag/cell
     absolute magnetization    =     0.70 Bohr mag/cell
[tb_dev] Currently allocated     3.05E-05 Mbytes, locked:    0 /   2
[tb_pin] Currently allocated     0.00E+00 Mbytes, locked:    0 /   0

     iteration # 16     ecut=    60.00 Ry     beta= 0.30
     Davidson diagonalization with overlap

---- Real-time Memory Report at c_bands before calling an iterative solver
           774 MiB given to the printing process from OS
             0 MiB allocation reported by mallinfo(arena+hblkhd)
        848638 MiB available memory on the node where the printing process lives
     GPU memory used/free/total (MiB): 1074 / 80076 / 81151
------------------
     ethr =  4.91E-08,  avg # of iterations =  1.3

     total cpu time spent up to now is       25.5 secs

     total energy              =    -569.20579166 Ry
     estimated scf accuracy    <       0.00001432 Ry

     total magnetization       =     0.68 Bohr mag/cell
     absolute magnetization    =     0.70 Bohr mag/cell
[tb_dev] Currently allocated     3.05E-05 Mbytes, locked:    0 /   2
[tb_pin] Currently allocated     0.00E+00 Mbytes, locked:    0 /   0

     iteration # 17     ecut=    60.00 Ry     beta= 0.30
     Davidson diagonalization with overlap

---- Real-time Memory Report at c_bands before calling an iterative solver
           775 MiB given to the printing process from OS
             0 MiB allocation reported by mallinfo(arena+hblkhd)
        848654 MiB available memory on the node where the printing process lives
     GPU memory used/free/total (MiB): 1074 / 80076 / 81151
------------------
     ethr =  3.77E-08,  avg # of iterations =  2.0

     total cpu time spent up to now is       26.6 secs

     total energy              =    -569.20579480 Ry
     estimated scf accuracy    <       0.00000026 Ry

     total magnetization       =     0.68 Bohr mag/cell
     absolute magnetization    =     0.70 Bohr mag/cell
[tb_dev] Currently allocated     3.05E-05 Mbytes, locked:    0 /   2
[tb_pin] Currently allocated     0.00E+00 Mbytes, locked:    0 /   0

     iteration # 18     ecut=    60.00 Ry     beta= 0.30
     Davidson diagonalization with overlap

---- Real-time Memory Report at c_bands before calling an iterative solver
           775 MiB given to the printing process from OS
             0 MiB allocation reported by mallinfo(arena+hblkhd)
        848667 MiB available memory on the node where the printing process lives
     GPU memory used/free/total (MiB): 1074 / 80076 / 81151
------------------
     ethr =  6.92E-10,  avg # of iterations = 10.0

     total cpu time spent up to now is       28.9 secs

     total energy              =    -569.20579560 Ry
     estimated scf accuracy    <       0.00000048 Ry

     total magnetization       =     0.68 Bohr mag/cell
     absolute magnetization    =     0.70 Bohr mag/cell
[tb_dev] Currently allocated     3.05E-05 Mbytes, locked:    0 /   2
[tb_pin] Currently allocated     0.00E+00 Mbytes, locked:    0 /   0

     iteration # 19     ecut=    60.00 Ry     beta= 0.30
     Davidson diagonalization with overlap

---- Real-time Memory Report at c_bands before calling an iterative solver
           775 MiB given to the printing process from OS
             0 MiB allocation reported by mallinfo(arena+hblkhd)
        848718 MiB available memory on the node where the printing process lives
     GPU memory used/free/total (MiB): 1074 / 80076 / 81151
------------------
     ethr =  6.92E-10,  avg # of iterations =  1.9

     total cpu time spent up to now is       30.0 secs

     total energy              =    -569.20579566 Ry
     estimated scf accuracy    <       0.00000017 Ry

     total magnetization       =     0.68 Bohr mag/cell
     absolute magnetization    =     0.70 Bohr mag/cell
[tb_dev] Currently allocated     3.05E-05 Mbytes, locked:    0 /   2
[tb_pin] Currently allocated     0.00E+00 Mbytes, locked:    0 /   0

     iteration # 20     ecut=    60.00 Ry     beta= 0.30
     Davidson diagonalization with overlap

---- Real-time Memory Report at c_bands before calling an iterative solver
           775 MiB given to the printing process from OS
             0 MiB allocation reported by mallinfo(arena+hblkhd)
        848713 MiB available memory on the node where the printing process lives
     GPU memory used/free/total (MiB): 1074 / 80076 / 81151
------------------
     ethr =  4.35E-10,  avg # of iterations =  2.3
 
     Magnetic moment per site  (integrated on atomic sphere of radius R)
     atom   1 (R=0.275)  charge= 14.1006  magn=  0.5305
     atom   2 (R=0.275)  charge=  5.2226  magn=  0.0525
     atom   3 (R=0.275)  charge=  5.2226  magn=  0.0525
     atom   4 (R=0.413)  charge=  8.2274  magn= -0.0030

     total cpu time spent up to now is       31.2 secs

     End of self-consistent calculation

 ------ SPIN UP ------------


          k = 0.0000 0.0000 0.0000 (  3231 PWs)   bands (ev):

   -90.3525 -53.5802 -53.5585 -53.5585 -48.2697 -20.1248 -20.0779 -20.0779
   -13.9405 -12.0494  -0.2912   0.2876   0.2876   3.0922   3.1059   3.8444
     3.8444   3.9378   3.9378   5.1660   7.7036   7.7036   8.4126  11.8148
    15.1769  16.1884  21.2739

     occupation numbers 
     1.0000   1.0000   1.0000   1.0000   1.0000   1.0000   1.0000   1.0000
     1.0000   1.0000   1.0000   1.0000   1.0000   1.0000   1.0000   1.0000
     1.0000   1.0000   1.0000   1.0328   0.0000   0.0000   0.0000   0.0000
     0.0000   0.0000   0.0000

          k = 0.0000 0.0000 0.1146 (  3237 PWs)   bands (ev):

   -90.3525 -53.5803 -53.5585 -53.5585 -48.2697 -20.1249 -20.0779 -20.0779
   -13.9404 -12.0498  -0.2552   0.2876   0.2876   2.4357   3.8444   3.8444
     3.9376   3.9376   3.9390   5.0652   7.7037   7.7037   8.0540  12.6062
    14.3284  16.3729  21.3273

     occupation numbers 
     1.0000   1.0000   1.0000   1.0000   1.0000   1.0000   1.0000   1.0000
     1.0000   1.0000   1.0000   1.0000   1.0000   1.0000   1.0000   1.0000
     1.0000   1.0000   1.0000   1.0832   0.0000   0.0000   0.0000   0.0000
     0.0000   0.0000   0.0000

          k = 0.0000 0.1443 0.0000 (  3229 PWs)   bands (ev):

   -90.3518 -53.5790 -53.5666 -53.5604 -48.2645 -20.1221 -20.1178 -20.0874
   -13.7690 -12.0534  -0.0821   0.1006   0.4003   2.7341   3.1611   3.4573
     3.4998   4.2590   4.5161   5.2509   7.1929   7.6052   8.7460  12.3927
    15.7970  16.5077  19.1187

     occupation numbers 
     1.0000   1.0000   1.0000   1.0000   1.0000   1.0000   1.0000   1.0000
     1.0000   1.0000   1.0000   1.0000   1.0000   1.0000   1.0000   1.0000
     1.0000   1.0000   1.0002   0.8998   0.0000   0.0000   0.0000   0.0000
     0.0000   0.0000   0.0000

          k = 0.0000 0.1443 0.1146 (  3219 PWs)   bands (ev):

   -90.3517 -53.5790 -53.5666 -53.5604 -48.2645 -20.1220 -20.1176 -20.0873
   -13.7689 -12.0537  -0.0544   0.0962   0.4003   2.7457   2.8976   3.1611
     4.1145   4.3613   4.5161   5.1222   7.2694   7.6052   8.4100  13.0839
    14.8291  16.9533  19.0971

     occupation numbers 
     1.0000   1.0000   1.0000   1.0000   1.0000   1.0000   1.0000   1.0000
     1.0000   1.0000   1.0000   1.0000   1.0000   1.0000   1.0000   1.0000
     1.0000   1.0000   1.0002   1.0674   0.0000   0.0000   0.0000   0.0000
     0.0000   0.0000   0.0000

          k = 0.0000 0.2887 0.0000 (  3212 PWs)   bands (ev):

   -90.3500 -53.5863 -53.5761 -53.5651 -48.2519 -20.2274 -20.1100 -20.1009
   -13.3186 -12.0770  -0.1661   0.4111   0.6684   1.4030   2.5964   3.7657
     4.3647   4.4990   4.7323   5.2236   6.6015   7.4868   9.5325  13.6700
    15.3196  16.9780  17.3597

     occupation numbers 
     1.0000   1.0000   1.0000   1.0000   1.0000   1.0000   1.0000   1.0000
     1.0000   1.0000   1.0000   1.0000   1.0000   1.0000   1.0000   1.0000
     1.0000   1.0001   1.0070   0.9519   0.0000   0.0000   0.0000   0.0000
     0.0000   0.0000   0.0000

          k = 0.0000 0.2887 0.1146 (  3212 PWs)   bands (ev):

   -90.3500 -53.5862 -53.5761 -53.5651 -48.2519 -20.2273 -20.1101 -20.1009
   -13.3185 -12.0771  -0.1738   0.4255   0.6684   1.4140   2.5964   3.6660
     4.2520   4.7322   4.8583   4.9931   6.7770   7.4868   9.3146  14.0877
    15.3418  15.9693  18.2878

     occupation numbers 
     1.0000   1.0000   1.0000   1.0000   1.0000   1.0000   1.0000   1.0000
     1.0000   1.0000   1.0000   1.0000   1.0000   1.0000   1.0000   1.0000
     1.0000   1.0070   1.0290   1.0723   0.0000   0.0000   0.0000   0.0000
     0.0000   0.0000   0.0000

          k = 0.0000 0.4330 0.0000 (  3198 PWs)   bands (ev):

   -90.3482 -53.6059 -53.5732 -53.5698 -48.2392 -20.3307 -20.1327 -20.0837
   -12.7743 -12.1541  -0.6197   0.4398   0.8797   1.4354   2.4119   3.2771
     4.2453   4.4913   4.7440   6.3601   6.9159   7.5257  10.8388  11.9181
    15.3390  15.6757  17.9383

     occupation numbers 
     1.0000   1.0000   1.0000   1.0000   1.0000   1.0000   1.0000   1.0000
     1.0000   1.0000   1.0000   1.0000   1.0000   1.0000   1.0000   1.0000
     1.0000   1.0001   1.0082   0.0000   0.0000   0.0000   0.0000   0.0000
     0.0000   0.0000   0.0000

          k = 0.0000 0.4330 0.1146 (  3216 PWs)   bands (ev):

   -90.3482 -53.6059 -53.5732 -53.5699 -48.2393 -20.3308 -20.1330 -20.0838
   -12.7742 -12.1542  -0.6207   0.4372   0.8797   1.4435   2.4119   3.2831
     4.2419   4.4913   4.7495   6.1767   7.1290   7.5256  10.7709  11.8795
    15.3752  16.0636  17.0251

     occupation numbers 
     1.0000   1.0000   1.0000   1.0000   1.0000   1.0000   1.0000   1.0000
     1.0000   1.0000   1.0000   1.0000   1.0000   1.0000   1.0000   1.0000
     1.0000   1.0001   1.0088   0.0000   0.0000   0.0000   0.0000   0.0000
     0.0000   0.0000   0.0000

          k = 0.0000-0.5774 0.0000 (  3214 PWs)   bands (ev):

   -90.3475 -53.6141 -53.5720 -53.5718 -48.2341 -20.3731 -20.1424 -20.0768
   -12.3908 -12.3288  -1.0020   0.6224   0.9233   1.6191   2.4695   3.0063
     4.0038   4.2745   4.6837   6.9565   7.5746   8.3073   9.6172  12.6115
    13.2530  16.7808  16.8696

     occupation numbers 
     1.0000   1.0000   1.0000   1.0000   1.0000   1.0000   1.0000   1.0000
     1.0000   1.0000   1.0000   1.0000   1.0000   1.0000   1.0000   1.0000
     1.0000   1.0000   1.0036   0.0000   0.0000   0.0000   0.0000   0.0000
     0.0000   0.0000   0.0000

          k = 0.0000-0.5774 0.1146 (  3216 PWs)   bands (ev):

   -90.3475 -53.6142 -53.5720 -53.5718 -48.2341 -20.3733 -20.1423 -20.0767
   -12.3909 -12.3288  -1.0021   0.6202   0.9233   1.6206   2.4695   3.0133
     4.0027   4.2745   4.6818   6.9430   7.5746   8.3259   9.5731  12.6099
    13.4361  16.1500  17.2365

     occupation numbers 
     1.0000   1.0000   1.0000   1.0000   1.0000   1.0000   1.0000   1.0000
     1.0000   1.0000   1.0000   1.0000   1.0000   1.0000   1.0000   1.0000
     1.0000   1.0000   1.0035   0.0000   0.0000   0.0000   0.0000   0.0000
     0.0000   0.0000   0.0000

          k = 0.1250 0.2165 0.0000 (  3225 PWs)   bands (ev):

   -90.3505 -53.5796 -53.5770 -53.5647 -48.2556 -20.1919 -20.1086 -20.1058
   -13.4580 -12.0663  -0.0694   0.2780   0.5524   1.8794   2.4563   3.8329
     4.1695   4.3245   4.8154   5.2280   6.7764   7.3677   9.2833  13.3299
    16.4048  16.8881  17.0363

     occupation numbers 
     1.0000   1.0000   1.0000   1.0000   1.0000   1.0000   1.0000   1.0000
     1.0000   1.0000   1.0000   1.0000   1.0000   1.0000   1.0000   1.0000
     1.0000   1.0000   1.0189   0.9441   0.0000   0.0000   0.0000   0.0000
     0.0000   0.0000   0.0000

          k = 0.1250 0.2165 0.1146 (  3212 PWs)   bands (ev):

   -90.3505 -53.5796 -53.5770 -53.5646 -48.2556 -20.1918 -20.1084 -20.1057
   -13.4578 -12.0665  -0.0774   0.2972   0.5530   1.8899   2.4562   3.5467
     4.3122   4.4852   4.8933   5.1243   6.8776   7.3257   9.1059  13.7552
    15.7156  16.5274  17.9451

     occupation numbers 
     1.0000   1.0000   1.0000   1.0000   1.0000   1.0000   1.0000   1.0000
     1.0000   1.0000   1.0000   1.0000   1.0000   1.0000   1.0000   1.0000
     1.0000   1.0001   1.0393   1.0663   0.0000   0.0000   0.0000   0.0000
     0.0000   0.0000   0.0000

          k = 0.1250 0.3608 0.0000 (  3216 PWs)   bands (ev):

   -90.3487 -53.5973 -53.5742 -53.5713 -48.2430 -20.2850 -20.1422 -20.0889
   -12.9616 -12.1089  -0.2095   0.2971   0.8853   1.3364   2.0264   3.5833
     4.3450   4.6126   4.9587   5.7821   6.7588   7.2712  10.3204  13.4710
    14.7278  17.1508  17.6372

     occupation numbers 
     1.0000   1.0000   1.0000   1.0000   1.0000   1.0000   1.0000   1.0000
     1.0000   1.0000   1.0000   1.0000   1.0000   1.0000   1.0000   1.0000
     1.0000   1.0012   1.0614   0.0118   0.0000   0.0000   0.0000   0.0000
     0.0000   0.0000   0.0000

          k = 0.1250 0.3608 0.1146 (  3205 PWs)   bands (ev):

   -90.3487 -53.5972 -53.5742 -53.5712 -48.2430 -20.2848 -20.1422 -20.0888
   -12.9615 -12.1089  -0.2133   0.2967   0.8880   1.3470   2.0266   3.5764
     4.3443   4.6281   4.9275   5.7062   6.9473   7.2090  10.2510  13.4676
    14.8508  16.7941  17.7557

     occupation numbers 
     1.0000   1.0000   1.0000   1.0000   1.0000   1.0000   1.0000   1.0000
     1.0000   1.0000   1.0000   1.0000   1.0000   1.0000   1.0000   1.0000
     1.0000   1.0015   1.0506   0.0334   0.0000   0.0000   0.0000   0.0000
     0.0000   0.0000   0.0000

          k = 0.1250 0.5052 0.0000 (  3220 PWs)   bands (ev):

   -90.3475 -53.6097 -53.5762 -53.5721 -48.2341 -20.3495 -20.1666 -20.0769
   -12.5007 -12.2195  -0.7130   0.3002   1.1585   1.6094   1.9868   2.9893
     4.1003   4.4059   4.8785   6.8895   7.2741   7.8744  10.6538  12.0175
    14.5371  15.7019  17.2778

     occupation numbers 
     1.0000   1.0000   1.0000   1.0000   1.0000   1.0000   1.0000   1.0000
     1.0000   1.0000   1.0000   1.0000   1.0000   1.0000   1.0000   1.0000
     1.0000   1.0000   1.0347   0.0000   0.0000   0.0000   0.0000   0.0000
     0.0000   0.0000   0.0000

          k = 0.1250 0.5052 0.1146 (  3217 PWs)   bands (ev):

   -90.3475 -53.6097 -53.5762 -53.5721 -48.2341 -20.3494 -20.1666 -20.0769
   -12.5007 -12.2195  -0.7131   0.2990   1.1574   1.6123   1.9866   2.9941
     4.0998   4.4068   4.8751   6.8495   7.3102   7.8782  10.6292  12.0152
    14.6711  15.6320  17.3636

     occupation numbers 
     1.0000   1.0000   1.0000   1.0000   1.0000   1.0000   1.0000   1.0000
     1.0000   1.0000   1.0000   1.0000   1.0000   1.0000   1.0000   1.0000
     1.0000   1.0000   1.0337   0.0000   0.0000   0.0000   0.0000   0.0000
     0.0000   0.0000   0.0000

          k = 0.2500 0.4330 0.0000 (  3215 PWs)   bands (ev):

   -90.3475 -53.6035 -53.5823 -53.5721 -48.2341 -20.3161 -20.2002 -20.0770
   -12.5567 -12.1641  -0.1428  -0.0322   0.9351   1.6602   1.6825   3.0183
     4.1618   4.5073   5.0644   6.8087   6.9771   7.6496  11.6555  11.9247
    14.4517  16.6544  16.7451

     occupation numbers 
     1.0000   1.0000   1.0000   1.0000   1.0000   1.0000   1.0000   1.0000
     1.0000   1.0000   1.0000   1.0000   1.0000   1.0000   1.0000   1.0000
     1.0000   1.0002   1.0832   0.0000   0.0000   0.0000   0.0000   0.0000
     0.0000   0.0000   0.0000

          k = 0.2500 0.4330 0.1146 (  3206 PWs)   bands (ev):

   -90.3475 -53.6035 -53.5823 -53.5720 -48.2340 -20.3161 -20.2001 -20.0769
   -12.5567 -12.1641  -0.1427  -0.0338   0.9353   1.6586   1.6884   3.0180
     4.1625   4.5092   5.0536   6.8667   6.9586   7.5939  11.7204  11.9096
    14.3990  16.6060  16.8563

     occupation numbers 
     1.0000   1.0000   1.0000   1.0000   1.0000   1.0000   1.0000   1.0000
     1.0000   1.0000   1.0000   1.0000   1.0000   1.0000   1.0000   1.0000
     1.0000   1.0002   1.0832   0.0000   0.0000   0.0000   0.0000   0.0000
     0.0000   0.0000   0.0000

          k = 0.2500 0.5774 0.0000 (  3210 PWs)   bands (ev):

   -90.3470 -53.6039 -53.5890 -53.5712 -48.2304 -20.3173 -20.2358 -20.0719
   -12.3163 -12.2509  -0.3043   0.0703   0.7650   1.7638   1.9631   2.5655
     3.8920   4.7089   4.9663   6.9602   6.9761   9.1969  10.1899  13.6467
    13.8188  14.1867  16.4783

     occupation numbers 
     1.0000   1.0000   1.0000   1.0000   1.0000   1.0000   1.0000   1.0000
     1.0000   1.0000   1.0000   1.0000   1.0000   1.0000   1.0000   1.0000
     1.0000   1.0051   1.0639   0.0000   0.0000   0.0000   0.0000   0.0000
     0.0000   0.0000   0.0000

          k = 0.2500 0.5774 0.1146 (  3215 PWs)   bands (ev):

   -90.3470 -53.6040 -53.5890 -53.5713 -48.2304 -20.3174 -20.2358 -20.0720
   -12.3163 -12.2509  -0.3044   0.0699   0.7654   1.7634   1.9633   2.5659
     3.8920   4.7093   4.9639   6.9656   6.9904   9.1597  10.1616  13.7116
    13.8033  14.2725  16.5077

     occupation numbers 
     1.0000   1.0000   1.0000   1.0000   1.0000   1.0000   1.0000   1.0000
     1.0000   1.0000   1.0000   1.0000   1.0000   1.0000   1.0000   1.0000
     1.0000   1.0051   1.0631   0.0000   0.0000   0.0000   0.0000   0.0000
     0.0000   0.0000   0.0000

          k = 0.0000 0.1443-0.1146 (  3219 PWs)   bands (ev):

   -90.3518 -53.5790 -53.5666 -53.5604 -48.2645 -20.1220 -20.1177 -20.0873
   -13.7689 -12.0537  -0.0508   0.0926   0.4002   2.6959   2.9572   3.1610
     4.1023   4.3574   4.5161   5.1423   7.2046   7.6053   8.4774  13.0310
    14.8674  16.9671  19.0855

     occupation numbers 
     1.0000   1.0000   1.0000   1.0000   1.0000   1.0000   1.0000   1.0000
     1.0000   1.0000   1.0000   1.0000   1.0000   1.0000   1.0000   1.0000
     1.0000   1.0000   1.0002   1.0543   0.0000   0.0000   0.0000   0.0000
     0.0000   0.0000   0.0000

          k = 0.0000 0.2887-0.1146 (  3212 PWs)   bands (ev):

   -90.3500 -53.5862 -53.5761 -53.5651 -48.2519 -20.2273 -20.1101 -20.1009
   -13.3185 -12.0771  -0.1710   0.4203   0.6684   1.4169   2.5963   3.6376
     4.2884   4.7126   4.7322   5.2340   6.5902   7.4868   9.4623  13.8482
    15.3919  16.1743  18.3129

     occupation numbers 
     1.0000   1.0000   1.0000   1.0000   1.0000   1.0000   1.0000   1.0000
     1.0000   1.0000   1.0000   1.0000   1.0000   1.0000   1.0000   1.0000
     1.0000   1.0054   1.0070   0.9331   0.0000   0.0000   0.0000   0.0000
     0.0000   0.0000   0.0000

          k = 0.0000 0.4330-0.1146 (  3216 PWs)   bands (ev):

   -90.3482 -53.6059 -53.5732 -53.5699 -48.2393 -20.3308 -20.1330 -20.0838
   -12.7743 -12.1542  -0.6210   0.4368   0.8797   1.4465   2.4118   3.2731
     4.2479   4.4913   4.7299   6.4035   6.8594   7.5256  10.9319  11.8853
    15.1460  15.8173  17.3914

     occupation numbers 
     1.0000   1.0000   1.0000   1.0000   1.0000   1.0000   1.0000   1.0000
     1.0000   1.0000   1.0000   1.0000   1.0000   1.0000   1.0000   1.0000
     1.0000   1.0001   1.0068   0.0000   0.0000   0.0000   0.0000   0.0000
     0.0000   0.0000   0.0000

          k =-0.1250 0.3608-0.1146 (  3205 PWs)   bands (ev):

   -90.3487 -53.5972 -53.5742 -53.5712 -48.2430 -20.2848 -20.1422 -20.0888
   -12.9615 -12.1089  -0.2129   0.2959   0.8863   1.3509   2.0259   3.5668
     4.3507   4.6341   4.8880   5.8438   6.7586   7.2579  10.3359  13.4415
    14.7455  17.0620  17.7093

     occupation numbers 
     1.0000   1.0000   1.0000   1.0000   1.0000   1.0000   1.0000   1.0000
     1.0000   1.0000   1.0000   1.0000   1.0000   1.0000   1.0000   1.0000
     1.0000   1.0017   1.0376   0.0045   0.0000   0.0000   0.0000   0.0000
     0.0000   0.0000   0.0000

          k =-0.1250 0.5052-0.1146 (  3217 PWs)   bands (ev):

   -90.3475 -53.6097 -53.5762 -53.5721 -48.2341 -20.3494 -20.1666 -20.0769
   -12.5007 -12.2195  -0.7134   0.2992   1.1576   1.6128   1.9872   2.9912
     4.1008   4.4067   4.8721   6.9153   7.2832   7.8147  10.6377  12.1218
    14.6093  15.4641  17.5474

     occupation numbers 
     1.0000   1.0000   1.0000   1.0000   1.0000   1.0000   1.0000   1.0000
     1.0000   1.0000   1.0000   1.0000   1.0000   1.0000   1.0000   1.0000
     1.0000   1.0000   1.0329   0.0000   0.0000   0.0000   0.0000   0.0000
     0.0000   0.0000   0.0000

 ------ SPIN DOWN ----------


          k = 0.0000 0.0000 0.0000 (  3231 PWs)   bands (ev):

   -89.7037 -52.9744 -52.9744 -52.8507 -48.2711 -20.1256 -20.0797 -20.0797
   -13.8546 -11.9567  -0.0329   0.4893   0.4893   3.1388   3.2212   3.9999
     3.9999   4.3785   4.3785   5.9005   7.9846   7.9846   8.4359  11.8720
    15.2588  16.2785  21.2995

     occupation numbers 
     1.0000   1.0000   1.0000   1.0000   1.0000   1.0000   1.0000   1.0000
     1.0000   1.0000   1.0000   1.0000   1.0000   1.0000   1.0000   1.0000
     1.0000   1.0000   1.0000   0.0017   0.0000   0.0000   0.0000   0.0000
     0.0000   0.0000   0.0000

          k = 0.0000 0.0000 0.1146 (  3237 PWs)   bands (ev):

   -89.7037 -52.9744 -52.9744 -52.8508 -48.2711 -20.1257 -20.0797 -20.0797
   -13.8544 -11.9570   0.0120   0.4893   0.4893   2.4821   3.9997   3.9997
     4.0353   4.3784   4.3784   5.8070   7.9846   7.9846   8.0775  12.6661
    14.4187  16.4422  21.3939

     occupation numbers 
     1.0000   1.0000   1.0000   1.0000   1.0000   1.0000   1.0000   1.0000
     1.0000   1.0000   1.0000   1.0000   1.0000   1.0000   1.0000   1.0000
     1.0000   1.0000   1.0000   0.0081   0.0000   0.0000   0.0000   0.0000
     0.0000   0.0000   0.0000

          k = 0.0000 0.1443 0.0000 (  3229 PWs)   bands (ev):

   -89.7029 -52.9828 -52.9764 -52.8495 -48.2659 -20.1240 -20.1186 -20.0892
   -13.6826 -11.9600   0.1772   0.2893   0.5956   2.8979   3.3928   3.5377
     3.6129   4.7163   4.8987   5.9362   7.4597   7.8787   8.7900  12.4442
    15.8774  16.6011  19.0992

     occupation numbers 
     1.0000   1.0000   1.0000   1.0000   1.0000   1.0000   1.0000   1.0000
     1.0000   1.0000   1.0000   1.0000   1.0000   1.0000   1.0000   1.0000
     1.0000   1.0056   1.0410   0.0009   0.0000   0.0000   0.0000   0.0000
     0.0000   0.0000   0.0000

          k = 0.0000 0.1443 0.1146 (  3219 PWs)   bands (ev):

   -89.7029 -52.9828 -52.9764 -52.8494 -48.2659 -20.1239 -20.1184 -20.0892
   -13.6824 -11.9603   0.2087   0.2871   0.5956   2.9116   2.9615   3.3929
     4.2858   4.7453   4.8987   5.8278   7.5563   7.8787   8.4324  13.1390
    14.9180  17.0280  19.0776

     occupation numbers 
     1.0000   1.0000   1.0000   1.0000   1.0000   1.0000   1.0000   1.0000
     1.0000   1.0000   1.0000   1.0000   1.0000   1.0000   1.0000   1.0000
     1.0000   1.0083   1.0410   0.0058   0.0000   0.0000   0.0000   0.0000
     0.0000   0.0000   0.0000

          k = 0.0000 0.2887 0.0000 (  3212 PWs)   bands (ev):

   -89.7011 -53.0031 -52.9812 -52.8465 -48.2533 -20.2294 -20.1119 -20.1016
   -13.2306 -11.9823   0.0063   0.6337   0.8486   1.5775   2.7928   3.9236
     4.6212   4.8695   5.1937   5.7969   6.9041   7.7431   9.5651  13.7080
    15.3072  17.0442  17.4624

     occupation numbers 
     1.0000   1.0000   1.0000   1.0000   1.0000   1.0000   1.0000   1.0000
     1.0000   1.0000   1.0000   1.0000   1.0000   1.0000   1.0000   1.0000
     1.0013   1.0321   0.9991   0.0094   0.0000   0.0000   0.0000   0.0000
     0.0000   0.0000   0.0000

          k = 0.0000 0.2887 0.1146 (  3212 PWs)   bands (ev):

   -89.7010 -53.0030 -52.9812 -52.8465 -48.2533 -20.2293 -20.1120 -20.1016
   -13.2305 -11.9825  -0.0022   0.6490   0.8486   1.5944   2.7928   3.7786
     4.6275   5.0377   5.1937   5.6866   7.0882   7.7430   9.3256  14.1251
    15.3360  16.0476  18.3680

     occupation numbers 
     1.0000   1.0000   1.0000   1.0000   1.0000   1.0000   1.0000   1.0000
     1.0000   1.0000   1.0000   1.0000   1.0000   1.0000   1.0000   1.0000
     1.0015   1.0820   0.9991   0.0427   0.0000   0.0000   0.0000   0.0000
     0.0000   0.0000   0.0000

          k = 0.0000 0.4330 0.0000 (  3198 PWs)   bands (ev):

   -89.6992 -53.0233 -52.9860 -52.8434 -48.2406 -20.3328 -20.1346 -20.0845
   -12.6838 -12.0588  -0.4761   0.5475   1.0548   1.7057   2.5351   3.4347
     4.8610   5.0479   5.3763   6.4177   7.1861   7.7768  10.8497  11.9022
    15.3744  15.6807  18.0045

     occupation numbers 
     1.0000   1.0000   1.0000   1.0000   1.0000   1.0000   1.0000   1.0000
     1.0000   1.0000   1.0000   1.0000   1.0000   1.0000   1.0000   1.0000
     1.0297   1.0829   0.5810   0.0000   0.0000   0.0000   0.0000   0.0000
     0.0000   0.0000   0.0000

          k = 0.0000 0.4330 0.1146 (  3216 PWs)   bands (ev):

   -89.6992 -53.0234 -52.9862 -52.8434 -48.2407 -20.3329 -20.1349 -20.0846
   -12.6837 -12.0589  -0.4771   0.5448   1.0547   1.7154   2.5350   3.4410
     4.8518   5.0479   5.3879   6.2571   7.3819   7.7767  10.7737  11.8630
    15.3932  16.0861  17.0945

     occupation numbers 
     1.0000   1.0000   1.0000   1.0000   1.0000   1.0000   1.0000   1.0000
     1.0000   1.0000   1.0000   1.0000   1.0000   1.0000   1.0000   1.0000
     1.0273   1.0829   0.5489   0.0000   0.0000   0.0000   0.0000   0.0000
     0.0000   0.0000   0.0000

          k = 0.0000-0.5774 0.0000 (  3214 PWs)   bands (ev):

   -89.6985 -53.0318 -52.9881 -52.8421 -48.2354 -20.3752 -20.1442 -20.0776
   -12.2994 -12.2330  -0.8723   0.7000   1.1030   1.9022   2.5306   3.1385
     4.7421   4.8915   5.2580   7.3000   7.8278   8.2886   9.6069  12.6123
    13.2551  16.8041  16.9123

     occupation numbers 
     1.0000   1.0000   1.0000   1.0000   1.0000   1.0000   1.0000   1.0000
     1.0000   1.0000   1.0000   1.0000   1.0000   1.0000   1.0000   1.0000
     1.0080   1.0387   0.8847   0.0000   0.0000   0.0000   0.0000   0.0000
     0.0000   0.0000   0.0000

          k = 0.0000-0.5774 0.1146 (  3216 PWs)   bands (ev):

   -89.6985 -53.0319 -52.9881 -52.8421 -48.2354 -20.3755 -20.1442 -20.0774
   -12.2995 -12.2330  -0.8724   0.6978   1.1030   1.9036   2.5306   3.1461
     4.7401   4.8914   5.2567   7.2747   7.8278   8.3224   9.5595  12.6081
    13.4410  16.1731  17.3196

     occupation numbers 
     1.0000   1.0000   1.0000   1.0000   1.0000   1.0000   1.0000   1.0000
     1.0000   1.0000   1.0000   1.0000   1.0000   1.0000   1.0000   1.0000
     1.0078   1.0387   0.8876   0.0000   0.0000   0.0000   0.0000   0.0000
     0.0000   0.0000   0.0000

          k = 0.1250 0.2165 0.0000 (  3225 PWs)   bands (ev):

   -89.7016 -52.9962 -52.9808 -52.8473 -48.2570 -20.1938 -20.1104 -20.1066
   -13.3704 -11.9720   0.1057   0.5265   0.7366   2.0333   2.6626   3.9637
     4.2718   4.8559   5.2214   5.8626   7.0488   7.6366   9.3213  13.3737
    16.4060  16.9394  17.1338

     occupation numbers 
     1.0000   1.0000   1.0000   1.0000   1.0000   1.0000   1.0000   1.0000
     1.0000   1.0000   1.0000   1.0000   1.0000   1.0000   1.0000   1.0000
     1.0000   1.0284   0.9558   0.0033   0.0000   0.0000   0.0000   0.0000
     0.0000   0.0000   0.0000

          k = 0.1250 0.2165 0.1146 (  3212 PWs)   bands (ev):

   -89.7016 -52.9962 -52.9807 -52.8473 -48.2570 -20.1938 -20.1103 -20.1065
   -13.3703 -11.9722   0.0966   0.5484   0.7383   2.0490   2.6623   3.6267
     4.6170   4.8559   5.2882   5.7725   7.1619   7.5893   9.1319  13.7997
    15.8060  16.5076  18.0221

     occupation numbers 
     1.0000   1.0000   1.0000   1.0000   1.0000   1.0000   1.0000   1.0000
     1.0000   1.0000   1.0000   1.0000   1.0000   1.0000   1.0000   1.0000
     1.0013   1.0284   0.8157   0.0136   0.0000   0.0000   0.0000   0.0000
     0.0000   0.0000   0.0000

          k = 0.1250 0.3608 0.0000 (  3216 PWs)   bands (ev):

   -89.6998 -53.0145 -52.9877 -52.8443 -48.2444 -20.2871 -20.1441 -20.0896
   -12.8721 -12.0135  -0.0505   0.4310   1.0646   1.5715   2.1895   3.7356
     4.9209   5.2934   5.4231   5.8366   7.0517   7.5290  10.3391  13.4534
    14.7565  17.1902  17.6767

     occupation numbers 
     1.0000   1.0000   1.0000   1.0000   1.0000   1.0000   1.0000   1.0000
     1.0000   1.0000   1.0000   1.0000   1.0000   1.0000   1.0000   1.0000
     1.0484   0.8028   0.4537   0.0051   0.0000   0.0000   0.0000   0.0000
     0.0000   0.0000   0.0000

          k = 0.1250 0.3608 0.1146 (  3205 PWs)   bands (ev):

   -89.6998 -53.0144 -52.9876 -52.8443 -48.2443 -20.2869 -20.1441 -20.0895
   -12.8720 -12.0136  -0.0545   0.4304   1.0665   1.5865   2.1897   3.7247
     4.9155   5.2447   5.4650   5.7741   7.2303   7.4673  10.2603  13.4499
    14.8765  16.8734  17.7630

     occupation numbers 
     1.0000   1.0000   1.0000   1.0000   1.0000   1.0000   1.0000   1.0000
     1.0000   1.0000   1.0000   1.0000   1.0000   1.0000   1.0000   1.0000
     1.0465   0.9124   0.3486   0.0132   0.0000   0.0000   0.0000   0.0000
     0.0000   0.0000   0.0000

          k = 0.1250 0.5052 0.0000 (  3220 PWs)   bands (ev):

   -89.6985 -53.0273 -52.9927 -52.8422 -48.2355 -20.3516 -20.1685 -20.0776
   -12.4087 -12.1243  -0.5826   0.4169   1.3118   1.8295   2.1337   3.1395
     4.8891   4.9946   5.3860   7.1886   7.5108   7.9101  10.6378  12.0203
    14.5380  15.7115  17.3134

     occupation numbers 
     1.0000   1.0000   1.0000   1.0000   1.0000   1.0000   1.0000   1.0000
     1.0000   1.0000   1.0000   1.0000   1.0000   1.0000   1.0000   1.0000
     1.0380   1.0728   0.5543   0.0000   0.0000   0.0000   0.0000   0.0000
     0.0000   0.0000   0.0000

          k = 0.1250 0.5052 0.1146 (  3217 PWs)   bands (ev):

   -89.6985 -53.0272 -52.9927 -52.8422 -48.2355 -20.3515 -20.1685 -20.0776
   -12.4087 -12.1243  -0.5826   0.4156   1.3107   1.8322   2.1339   3.1451
     4.8875   4.9957   5.3824   7.1259   7.5707   7.9147  10.6127  12.0173
    14.6709  15.6383  17.4355

     occupation numbers 
     1.0000   1.0000   1.0000   1.0000   1.0000   1.0000   1.0000   1.0000
     1.0000   1.0000   1.0000   1.0000   1.0000   1.0000   1.0000   1.0000
     1.0375   1.0731   0.5640   0.0000   0.0000   0.0000   0.0000   0.0000
     0.0000   0.0000   0.0000

          k = 0.2500 0.4330 0.0000 (  3215 PWs)   bands (ev):

   -89.6985 -53.0209 -52.9990 -52.8422 -48.2355 -20.3182 -20.2021 -20.0777
   -12.4650 -12.0685  -0.0259   0.1182   1.0422   1.8176   1.9395   3.1731
     4.9843   5.0762   5.5447   7.0122   7.2691   7.7131  11.6483  11.9145
    14.4542  16.6541  16.7515

     occupation numbers 
     1.0000   1.0000   1.0000   1.0000   1.0000   1.0000   1.0000   1.0000
     1.0000   1.0000   1.0000   1.0000   1.0000   1.0000   1.0000   1.0000
     1.0697   1.0823   0.1884   0.0000   0.0000   0.0000   0.0000   0.0000
     0.0000   0.0000   0.0000

          k = 0.2500 0.4330 0.1146 (  3206 PWs)   bands (ev):

   -89.6985 -53.0208 -52.9989 -52.8421 -48.2354 -20.3182 -20.2021 -20.0776
   -12.4650 -12.0685  -0.0258   0.1164   1.0425   1.8160   1.9465   3.1725
     4.9845   5.0786   5.5302   7.0846   7.2417   7.6550  11.7117  11.9013
    14.3989  16.6065  16.8690

     occupation numbers 
     1.0000   1.0000   1.0000   1.0000   1.0000   1.0000   1.0000   1.0000
     1.0000   1.0000   1.0000   1.0000   1.0000   1.0000   1.0000   1.0000
     1.0698   1.0820   0.2130   0.0000   0.0000   0.0000   0.0000   0.0000
     0.0000   0.0000   0.0000

          k = 0.2500 0.5774 0.0000 (  3210 PWs)   bands (ev):

   -89.6980 -53.0213 -53.0059 -52.8412 -48.2317 -20.3194 -20.2378 -20.0726
   -12.2230 -12.1558  -0.1800   0.1962   0.8641   1.9325   2.2036   2.6932
     4.7689   5.2587   5.4769   7.2487   7.2561   9.1832  10.1742  13.6428
    13.8181  14.1868  16.4794

     occupation numbers 
     1.0000   1.0000   1.0000   1.0000   1.0000   1.0000   1.0000   1.0000
     1.0000   1.0000   1.0000   1.0000   1.0000   1.0000   1.0000   1.0000
     1.0111   0.8832   0.3211   0.0000   0.0000   0.0000   0.0000   0.0000
     0.0000   0.0000   0.0000

          k = 0.2500 0.5774 0.1146 (  3215 PWs)   bands (ev):

   -89.6980 -53.0214 -53.0059 -52.8413 -48.2318 -20.3195 -20.2378 -20.0727
   -12.2230 -12.1558  -0.1801   0.1959   0.8646   1.9320   2.2039   2.6941
     4.7690   5.2592   5.4741   7.2604   7.2684   9.1424  10.1436  13.7094
    13.7989  14.2767  16.5141

     occupation numbers 
     1.0000   1.0000   1.0000   1.0000   1.0000   1.0000   1.0000   1.0000
     1.0000   1.0000   1.0000   1.0000   1.0000   1.0000   1.0000   1.0000
     1.0111   0.8823   0.3275   0.0000   0.0000   0.0000   0.0000   0.0000
     0.0000   0.0000   0.0000

          k = 0.0000 0.1443-0.1146 (  3219 PWs)   bands (ev):

   -89.7029 -52.9828 -52.9764 -52.8495 -48.2659 -20.1239 -20.1184 -20.0892
   -13.6824 -11.9603   0.2162   0.2797   0.5956   2.8173   3.0708   3.3928
     4.2545   4.7651   4.8987   5.8390   7.4742   7.8788   8.5167  13.0846
    14.9587  17.0412  19.0659

     occupation numbers 
     1.0000   1.0000   1.0000   1.0000   1.0000   1.0000   1.0000   1.0000
     1.0000   1.0000   1.0000   1.0000   1.0000   1.0000   1.0000   1.0000
     1.0000   1.0106   1.0410   0.0049   0.0000   0.0000   0.0000   0.0000
     0.0000   0.0000   0.0000

          k = 0.0000 0.2887-0.1146 (  3212 PWs)   bands (ev):

   -89.7011 -53.0030 -52.9812 -52.8465 -48.2533 -20.2293 -20.1120 -20.1016
   -13.2305 -11.9825   0.0002   0.6441   0.8486   1.5975   2.7927   3.7516
     4.6479   5.0545   5.1937   5.7742   6.8931   7.7431   9.4878  13.8825
    15.3798  16.2712  18.3898

     occupation numbers 
     1.0000   1.0000   1.0000   1.0000   1.0000   1.0000   1.0000   1.0000
     1.0000   1.0000   1.0000   1.0000   1.0000   1.0000   1.0000   1.0000
     1.0021   1.0833   0.9991   0.0132   0.0000   0.0000   0.0000   0.0000
     0.0000   0.0000   0.0000

          k = 0.0000 0.4330-0.1146 (  3216 PWs)   bands (ev):

   -89.6992 -53.0234 -52.9862 -52.8434 -48.2407 -20.3329 -20.1349 -20.0846
   -12.6838 -12.0589  -0.4776   0.5444   1.0548   1.7197   2.5350   3.4283
     4.8554   5.0479   5.3623   6.4512   7.1488   7.7768  10.9411  11.8684
    15.1715  15.8249  17.5069

     occupation numbers 
     1.0000   1.0000   1.0000   1.0000   1.0000   1.0000   1.0000   1.0000
     1.0000   1.0000   1.0000   1.0000   1.0000   1.0000   1.0000   1.0000
     1.0282   1.0829   0.6197   0.0000   0.0000   0.0000   0.0000   0.0000
     0.0000   0.0000   0.0000

          k =-0.1250 0.3608-0.1146 (  3205 PWs)   bands (ev):

   -89.6998 -53.0144 -52.9876 -52.8443 -48.2443 -20.2869 -20.1441 -20.0895
   -12.8720 -12.0136  -0.0543   0.4298   1.0650   1.5908   2.1890   3.7129
     4.9234   5.2735   5.3680   5.9297   7.0544   7.5161  10.3499  13.4247
    14.7685  17.1622  17.7180

     occupation numbers 
     1.0000   1.0000   1.0000   1.0000   1.0000   1.0000   1.0000   1.0000
     1.0000   1.0000   1.0000   1.0000   1.0000   1.0000   1.0000   1.0000
     1.0492   0.8504   0.6038   0.0010   0.0000   0.0000   0.0000   0.0000
     0.0000   0.0000   0.0000

          k =-0.1250 0.5052-0.1146 (  3217 PWs)   bands (ev):

   -89.6985 -53.0273 -52.9927 -52.8422 -48.2355 -20.3515 -20.1685 -20.0776
   -12.4087 -12.1243  -0.5829   0.4157   1.3108   1.8326   2.1354   3.1413
     4.8890   4.9952   5.3787   7.2291   7.5152   7.8421  10.6203  12.1245
    14.6129  15.4724  17.5942

     occupation numbers 
     1.0000   1.0000   1.0000   1.0000   1.0000   1.0000   1.0000   1.0000
     1.0000   1.0000   1.0000   1.0000   1.0000   1.0000   1.0000   1.0000
     1.0379   1.0729   0.5743   0.0000   0.0000   0.0000   0.0000   0.0000
     0.0000   0.0000   0.0000

     the Fermi energy is     5.4437 ev

!    total energy              =    -569.20579570 Ry
     total all-electron energy =     -3412.696351 Ry
     estimated scf accuracy    <       0.00000006 Ry
     smearing contrib. (-TS)   =       0.00314372 Ry
     internal energy E=F+TS    =    -569.20893942 Ry

     The total energy is F=E-TS. E is the sum of the following terms:
     one-electron contribution =    -542.40276558 Ry
     hartree contribution      =     285.82962551 Ry
     xc contribution           =     -60.01036251 Ry
     ewald contribution        =    -130.67344782 Ry
     one-center paw contrib.   =    -121.95198901 Ry
      -> PAW hartree energy AE =     342.70253027 Ry
      -> PAW hartree energy PS =    -342.70313113 Ry
      -> PAW xc energy AE      =    -178.92793903 Ry
      -> PAW xc energy PS      =      56.97655087 Ry
      -> total E_H with PAW    =     285.82902465 Ry
      -> total E_XC with PAW   =    -181.96175067 Ry

     total magnetization       =     0.68 Bohr mag/cell
     absolute magnetization    =     0.70 Bohr mag/cell

     convergence has been achieved in  20 iterations

     Forces acting on atoms (cartesian axes, Ry/au):

     atom    1 type  1   force =     0.00000000    0.00000000    0.00000000
     atom    2 type  2   force =     0.00000000    0.00000000   -0.00936045
     atom    3 type  2   force =     0.00000000    0.00000000    0.00936045
     atom    4 type  3   force =    -0.00000000   -0.00000000    0.00000000
     The non-local contrib.  to forces
     atom    1 type  1   force =     0.00000000    0.00000000    0.00000000
     atom    2 type  2   force =     0.00000000    0.00000000   -1.04316420
     atom    3 type  2   force =     0.00000000    0.00000000    1.04316420
     atom    4 type  3   force =     0.00000000    0.00000000    0.00000000
     The ionic contribution  to forces
     atom    1 type  1   force =    -0.00000000   -0.00000000   -0.00000000
     atom    2 type  2   force =     0.00000000   -0.00000000   31.19247147
     atom    3 type  2   force =    -0.00000000    0.00000000  -31.19247147
     atom    4 type  3   force =     0.00000000    0.00000000    0.00000000
     The local contribution  to forces
     atom    1 type  1   force =    -0.00000000   -0.00000000    0.00000000
     atom    2 type  2   force =     0.00000001   -0.00000001  -30.16767293
     atom    3 type  2   force =    -0.00000001    0.00000001   30.16767293
     atom    4 type  3   force =    -0.00000000   -0.00000000   -0.00000000
     The core correction contribution to forces
     atom    1 type  1   force =    -0.00000000   -0.00000000    0.00000000
     atom    2 type  2   force =    -0.00000000    0.00000000    0.00907041
     atom    3 type  2   force =     0.00000000   -0.00000000   -0.00907041
     atom    4 type  3   force =    -0.00000000   -0.00000000   -0.00000000
     The Hubbard contrib.    to forces
     atom    1 type  1   force =     0.00000000    0.00000000    0.00000000
     atom    2 type  2   force =     0.00000000    0.00000000    0.00000000
     atom    3 type  2   force =     0.00000000    0.00000000    0.00000000
     atom    4 type  3   force =     0.00000000    0.00000000    0.00000000
     The SCF correction term to forces
     atom    1 type  1   force =     0.00000000   -0.00000000   -0.00000000
     atom    2 type  2   force =    -0.00000000    0.00000000   -0.00006519
     atom    3 type  2   force =     0.00000000   -0.00000000    0.00006519
     atom    4 type  3   force =     0.00000000    0.00000000    0.00000000

     Total force =     0.013238     Total SCF correction =     0.000092

     Writing all to output data dir ./out/pw.save/ :
     XML data file, charge density, pseudopotentials, collected wavefunctions
 
     init_run     :     12.78s CPU      3.30s WALL (       1 calls)
     electrons    :    100.49s CPU     27.43s WALL (       1 calls)
     forces       :      0.58s CPU      0.55s WALL (       1 calls)

     Called by init_run:
     wfcinit      :      0.30s CPU      0.35s WALL (       1 calls)
     wfcinit:atom :      0.04s CPU      0.04s WALL (      50 calls)
     wfcinit:wfcr :      0.20s CPU      0.23s WALL (      50 calls)
     potinit      :     11.90s CPU      2.32s WALL (       1 calls)
     hinit0       :      0.48s CPU      0.49s WALL (       1 calls)

     Called by electrons:
     c_bands      :     13.48s CPU     13.43s WALL (      20 calls)
     sum_band     :      2.20s CPU      2.17s WALL (      20 calls)
     v_of_rho     :      0.35s CPU      0.18s WALL (      21 calls)
     v_h          :      0.24s CPU      0.04s WALL (      21 calls)
     v_xc         :      0.11s CPU      0.14s WALL (      22 calls)
     newd         :      0.50s CPU      0.39s WALL (      21 calls)
                                        0.39s GPU  (      21 calls)
     PAW_pot      :     86.86s CPU     11.09s WALL (      21 calls)
     mix_rho      :      0.61s CPU      0.66s WALL (      20 calls)

     Called by c_bands:
     init_us_2    :      0.85s CPU      0.80s WALL (    2100 calls)
     cegterg      :     11.80s CPU     11.83s WALL (    1000 calls)

     Called by sum_band:
     sum_band:wei :      0.03s CPU      0.03s WALL (      20 calls)
                                        0.03s GPU  (      20 calls)
     sum_band:loo :      1.40s CPU      1.36s WALL (      20 calls)
                                        1.36s GPU  (      20 calls)
     sum_band:buf :      0.18s CPU      0.20s WALL (    1000 calls)
                                        0.19s GPU  (    1000 calls)
     sum_band:ini :      0.39s CPU      0.39s WALL (    1000 calls)
                                        0.38s GPU  (    1000 calls)
     sum_band:cal :      0.04s CPU      0.06s WALL (    1000 calls)
                                        0.05s GPU  (    1000 calls)
     sum_band:bec :      0.21s CPU      0.23s WALL (    1000 calls)
                                        0.21s GPU  (    1000 calls)
     addusdens    :      0.65s CPU      0.66s WALL (      20 calls)
                                        0.66s GPU  (      20 calls)
     addusd:skk   :      0.00s CPU      0.00s WALL (      60 calls)
                                        0.00s GPU  (      60 calls)

     Called by *egterg:
     cdiaghg      :      4.12s CPU      4.26s WALL (    4740 calls)
                                        4.21s GPU  (    4740 calls)
     cegterg:over :      0.98s CPU      1.02s WALL (    3740 calls)
     cegterg:upda :      0.71s CPU      0.71s WALL (    3740 calls)
     cegterg:last :      0.14s CPU      0.13s WALL (    2030 calls)
     h_psi        :      4.28s CPU      4.29s WALL (    4790 calls)
                                        4.23s GPU  (    4790 calls)
     s_psi        :      0.72s CPU      0.75s WALL (    4790 calls)
     g_psi        :      0.02s CPU      0.09s WALL (    3740 calls)
                                        0.04s GPU  (    3740 calls)

     Called by h_psi:
     h_psi:calbec :      0.15s CPU      0.27s WALL (    4790 calls)
                                        0.21s GPU  (    4790 calls)
     vloc_psi     :      2.99s CPU      2.92s WALL (    4790 calls)
                                        2.86s GPU  (    4790 calls)
     add_vuspsi   :      0.65s CPU      0.77s WALL (    4790 calls)
                                        0.71s GPU  (    4790 calls)

     General routines
     calbec       :      0.16s CPU      0.19s WALL (    5990 calls)
     fft          :      3.66s CPU      1.01s WALL (     538 calls)
                                        0.07s GPU  (     496 calls)
     ffts         :      4.53s CPU      0.82s WALL (     739 calls)
                                        0.02s GPU  (     697 calls)
     fftw         :      0.31s CPU      1.03s WALL (   15694 calls)
                                        0.85s GPU  (   15694 calls)
     interpolate  :      8.27s CPU      1.75s WALL (      42 calls)
 
     Parallel routines

     PAW routines
     PAW_pot      :     86.86s CPU     11.09s WALL (      21 calls)
     PAW_symme    :      0.03s CPU      0.01s WALL (      41 calls)
 
     PWSCF        :   1m54.72s CPU     31.80s WALL

 
   This run was terminated on:   3:17:43  12Jul2026            

=------------------------------------------------------------------------------=
   JOB DONE.
=------------------------------------------------------------------------------=
Warning: ieee_divide_by_zero is signaling
Warning: ieee_inexact is signaling
FORTRAN STOP
