
     Program PWSCF v.7.3.1 starts on 12Jul2026 at  3:15:40 

     This program is part of the open-source Quantum ESPRESSO suite
     for quantum simulation of materials; please cite
         "P. Giannozzi et al., J. Phys.:Condens. Matter 21 395502 (2009);
         "P. Giannozzi et al., J. Phys.:Condens. Matter 29 465901 (2017);
         "P. Giannozzi et al., J. Chem. Phys. 152 154105 (2020);
          URL http://www.quantum-espresso.org", 
     in publications or presentations arising from this work. More details at
     http://www.quantum-espresso.org/quote

     Parallel version (MPI & OpenMP), running on      14 processor cores
     Number of MPI processes:                 1
     Threads/MPI process:                    14

     MPI processes distributed on     1 nodes
     851024 MiB available memory on the printing compute node when the environment starts
 
     Reading input from pw.in

     Current dimensions of program PWSCF are:
     Max number of different atomic species (ntypx) = 10
     Max number of k-points (npk) =  40000
     Max angular momentum in pseudopotentials (lmaxx) =  4
     file Co.pbe-spn-kjpaw_psl.0.3.1.UPF: wavefunction(s)  3P 3D renormalized
     file O.pbe-n-kjpaw_psl.1.0.0.UPF: wavefunction(s)  2S 2P renormalized
     file Na.pbe-spn-kjpaw_psl.1.0.0.UPF: wavefunction(s)  2P renormalized
 
     Subspace diagonalization in iterative solution of the eigenvalue problem:
     a serial algorithm will be used

 
     G-vector sticks info
     --------------------
     sticks:   dense  smooth     PW     G-vecs:    dense   smooth      PW
     Sum         979     499    151                47419    16845    2747
 
     Using Slab Decomposition
 


     bravais-lattice index     =            4
     lattice parameter (alat)  =       5.4575  a.u.
     unit-cell volume          =     268.0923 (a.u.)^3
     number of atoms/cell      =            4
     number of atomic types    =            3
     number of electrons       =        38.00
     number of Kohn-Sham states=           27
     kinetic-energy cutoff     =      60.0000  Ry
     charge density cutoff     =     480.0000  Ry
     scf convergence threshold =      1.0E-07
     mixing beta               =       0.3000
     number of iterations used =            8  local-TF  mixing
     Exchange-correlation= SLA  PW   PBX  PBC
                           (   1   4   3   4   0   0   0)

     GPU acceleration is ACTIVE.  1 visible GPUs per MPI rank
     GPU-aware MPI enabled


     GPU used by master process:

        Device Number: 0
        Device name: NVIDIA A100-SXM4-80GB
        Compute capability : 80
        Ratio of single to double precision performance  : 2
        Memory Clock Rate (KHz): 1593000
        Memory Bus Width (bits): 5120
        Peak Memory Bandwidth (GB/s): ******

     celldm(1)=   5.457529  celldm(2)=   0.000000  celldm(3)=   1.904432
     celldm(4)=   0.000000  celldm(5)=   0.000000  celldm(6)=   0.000000

     crystal axes: (cart. coord. in units of alat)
               a(1) = (   1.000000   0.000000   0.000000 )  
               a(2) = (  -0.500000   0.866025   0.000000 )  
               a(3) = (   0.000000   0.000000   1.904432 )  

     reciprocal axes: (cart. coord. in units 2 pi/alat)
               b(1) = (  1.000000  0.577350 -0.000000 )  
               b(2) = (  0.000000  1.154701  0.000000 )  
               b(3) = (  0.000000 -0.000000  0.525091 )  


     PseudoPot. # 1 for Co read from file:
     ../../pseudo/Co.pbe-spn-kjpaw_psl.0.3.1.UPF
     MD5 check sum: 3c0a43779828c046024e4f3be63f8e67
     Pseudo is Projector augmented-wave + core cor, Zval = 17.0
     Generated using &quot;atomic&quot; code by A. Dal Corso  v.6.2.2
     Shape of augmentation charge: PSQ
     Using radial grid of 1193 points,  6 beta functions with: 
                l(1) =   0
                l(2) =   0
                l(3) =   1
                l(4) =   1
                l(5) =   2
                l(6) =   2
     Q(r) pseudized with 0 coefficients 


     PseudoPot. # 2 for O  read from file:
     ../../pseudo/O.pbe-n-kjpaw_psl.1.0.0.UPF
     MD5 check sum: e99d9cef9b487d1ca56f5b95ecd0fd7a
     Pseudo is Projector augmented-wave + core cor, Zval =  6.0
     Generated using &quot;atomic&quot; code by A. Dal Corso  v.6.3
     Shape of augmentation charge: PSQ
     Using radial grid of 1095 points,  4 beta functions with: 
                l(1) =   0
                l(2) =   0
                l(3) =   1
                l(4) =   1
     Q(r) pseudized with 0 coefficients 


     PseudoPot. # 3 for Na read from file:
     ../../pseudo/Na.pbe-spn-kjpaw_psl.1.0.0.UPF
     MD5 check sum: 05b4deb74e3932c23ab016979dc8b5d4
     Pseudo is Projector augmented-wave + core cor, Zval =  9.0
     Generated using &quot;atomic&quot; code by A. Dal Corso  v.6.3
     Shape of augmentation charge: PSQ
     Using radial grid of 1121 points,  4 beta functions with: 
                l(1) =   0
                l(2) =   0
                l(3) =   1
                l(4) =   1
     Q(r) pseudized with 0 coefficients 


     atomic species   valence    mass     pseudopotential
     Co               17.00    58.93300     Co( 1.00)
     O                 6.00    15.99900     O ( 1.00)
     Na                9.00    22.98977     Na( 1.00)

     Starting magnetic structure 
     atomic species   magnetization
     Co              0.300
     O               0.000
     Na              0.000

     12 Sym. Ops., with inversion, found


                                    s                        frac. trans.

      isym =  1     identity                                     

 cryst.   s( 1) = (     1          0          0      )
                  (     0          1          0      )
                  (     0          0          1      )

 cart.    s( 1) = (  1.0000000  0.0000000  0.0000000 )
                  (  0.0000000  1.0000000  0.0000000 )
                  (  0.0000000  0.0000000  1.0000000 )


      isym =  2     180 deg rotation - cart. axis [1,0,0]        

 cryst.   s( 2) = (     1          0          0      )
                  (    -1         -1          0      )
                  (     0          0         -1      )

 cart.    s( 2) = (  1.0000000  0.0000000  0.0000000 )
                  (  0.0000000 -1.0000000  0.0000000 )
                  (  0.0000000  0.0000000 -1.0000000 )


      isym =  3     120 deg rotation - cryst. axis [0,0,1]       

 cryst.   s( 3) = (     0          1          0      )
                  (    -1         -1          0      )
                  (     0          0          1      )

 cart.    s( 3) = ( -0.5000000 -0.8660254  0.0000000 )
                  (  0.8660254 -0.5000000  0.0000000 )
                  (  0.0000000  0.0000000  1.0000000 )


      isym =  4     120 deg rotation - cryst. axis [0,0,-1]      

 cryst.   s( 4) = (    -1         -1          0      )
                  (     1          0          0      )
                  (     0          0          1      )

 cart.    s( 4) = ( -0.5000000  0.8660254  0.0000000 )
                  ( -0.8660254 -0.5000000  0.0000000 )
                  (  0.0000000  0.0000000  1.0000000 )


      isym =  5     180 deg rotation - cryst. axis [0,1,0]       

 cryst.   s( 5) = (    -1         -1          0      )
                  (     0          1          0      )
                  (     0          0         -1      )

 cart.    s( 5) = ( -0.5000000 -0.8660254  0.0000000 )
                  ( -0.8660254  0.5000000  0.0000000 )
                  (  0.0000000  0.0000000 -1.0000000 )


      isym =  6     180 deg rotation - cryst. axis [1,1,0]       

 cryst.   s( 6) = (     0          1          0      )
                  (     1          0          0      )
                  (     0          0         -1      )

 cart.    s( 6) = ( -0.5000000  0.8660254  0.0000000 )
                  (  0.8660254  0.5000000  0.0000000 )
                  (  0.0000000  0.0000000 -1.0000000 )


      isym =  7     inversion                                    

 cryst.   s( 7) = (    -1          0          0      )
                  (     0         -1          0      )
                  (     0          0         -1      )

 cart.    s( 7) = ( -1.0000000  0.0000000  0.0000000 )
                  (  0.0000000 -1.0000000  0.0000000 )
                  (  0.0000000  0.0000000 -1.0000000 )


      isym =  8     inv. 180 deg rotation - cart. axis [1,0,0]   

 cryst.   s( 8) = (    -1          0          0      )
                  (     1          1          0      )
                  (     0          0          1      )

 cart.    s( 8) = ( -1.0000000  0.0000000  0.0000000 )
                  (  0.0000000  1.0000000  0.0000000 )
                  (  0.0000000  0.0000000  1.0000000 )


      isym =  9     inv. 120 deg rotation - cryst. axis [0,0,1]  

 cryst.   s( 9) = (     0         -1          0      )
                  (     1          1          0      )
                  (     0          0         -1      )

 cart.    s( 9) = (  0.5000000  0.8660254  0.0000000 )
                  ( -0.8660254  0.5000000  0.0000000 )
                  (  0.0000000  0.0000000 -1.0000000 )


      isym = 10     inv. 120 deg rotation - cryst. axis [0,0,-1] 

 cryst.   s(10) = (     1          1          0      )
                  (    -1          0          0      )
                  (     0          0         -1      )

 cart.    s(10) = (  0.5000000 -0.8660254  0.0000000 )
                  (  0.8660254  0.5000000  0.0000000 )
                  (  0.0000000  0.0000000 -1.0000000 )


      isym = 11     inv. 180 deg rotation - cryst. axis [0,1,0]  

 cryst.   s(11) = (     1          1          0      )
                  (     0         -1          0      )
                  (     0          0          1      )

 cart.    s(11) = (  0.5000000  0.8660254  0.0000000 )
                  (  0.8660254 -0.5000000  0.0000000 )
                  (  0.0000000  0.0000000  1.0000000 )


      isym = 12     inv. 180 deg rotation - cryst. axis [1,1,0]  

 cryst.   s(12) = (     0         -1          0      )
                  (    -1          0          0      )
                  (     0          0          1      )

 cart.    s(12) = (  0.5000000 -0.8660254  0.0000000 )
                  ( -0.8660254 -0.5000000  0.0000000 )
                  (  0.0000000  0.0000000  1.0000000 )


     point group D_3d (-3m) 
     there are  6 classes
     the character table:

       E     2C3   3C2'  i     2S6   3s_d 
A_1g   1.00  1.00  1.00  1.00  1.00  1.00
A_2g   1.00  1.00 -1.00  1.00  1.00 -1.00
E_g    2.00 -1.00  0.00  2.00 -1.00  0.00
A_1u   1.00  1.00  1.00 -1.00 -1.00 -1.00
A_2u   1.00  1.00 -1.00 -1.00 -1.00  1.00
E_u    2.00 -1.00  0.00 -2.00  1.00  0.00

     the symmetry operations in each class and the name of the first element:

     E        1
          identity                                               
     2C3      3    4
          120 deg rotation - cryst. axis [0,0,1]                 
     3C2'     2    5    6
          180 deg rotation - cart. axis [1,0,0]                  
     i        7
          inversion                                              
     2S6      9   10
          inv. 120 deg rotation - cryst. axis [0,0,1]            
     3s_d     8   11   12
          inv. 180 deg rotation - cart. axis [1,0,0]             

   Cartesian axes

     site n.     atom                  positions (alat units)
         1        Co     tau(   1) = (   0.0000000   0.0000000   0.0000000  )
         2        O      tau(   2) = (  -0.0000000   0.5773503   0.3324100  )
         3        O      tau(   3) = (   0.5000000   0.2886751   1.5720222  )
         4        Na     tau(   4) = (   0.0000000   0.0000000   0.9522161  )

   Crystallographic axes

     site n.     atom                  positions (cryst. coord.)
         1        Co     tau(   1) = (  0.0000000  0.0000000  0.0000000  )
         2        O      tau(   2) = (  0.3333333  0.6666667  0.1745455  )
         3        O      tau(   3) = (  0.6666667  0.3333333  0.8254545  )
         4        Na     tau(   4) = (  0.0000000  0.0000000  0.5000000  )

     number of k points=    25  Marzari-Vanderbilt smearing, width (Ry)=  0.0200
                       cart. coord. in units 2pi/alat
        k(    1) = (   0.0000000   0.0000000   0.0000000), wk =   0.0052083
        k(    2) = (   0.0000000   0.0000000   0.1750303), wk =   0.0104167
        k(    3) = (   0.0000000   0.1443376   0.0000000), wk =   0.0312500
        k(    4) = (   0.0000000   0.1443376   0.1750303), wk =   0.0312500
        k(    5) = (   0.0000000   0.2886751   0.0000000), wk =   0.0312500
        k(    6) = (   0.0000000   0.2886751   0.1750303), wk =   0.0312500
        k(    7) = (   0.0000000   0.4330127   0.0000000), wk =   0.0312500
        k(    8) = (   0.0000000   0.4330127   0.1750303), wk =   0.0312500
        k(    9) = (   0.0000000  -0.5773503   0.0000000), wk =   0.0156250
        k(   10) = (   0.0000000  -0.5773503   0.1750303), wk =   0.0312500
        k(   11) = (   0.1250000   0.2165064   0.0000000), wk =   0.0312500
        k(   12) = (   0.1250000   0.2165064   0.1750303), wk =   0.0625000
        k(   13) = (   0.1250000   0.3608439   0.0000000), wk =   0.0625000
        k(   14) = (   0.1250000   0.3608439   0.1750303), wk =   0.0625000
        k(   15) = (   0.1250000   0.5051815   0.0000000), wk =   0.0625000
        k(   16) = (   0.1250000   0.5051815   0.1750303), wk =   0.0625000
        k(   17) = (   0.2500000   0.4330127   0.0000000), wk =   0.0312500
        k(   18) = (   0.2500000   0.4330127   0.1750303), wk =   0.0625000
        k(   19) = (   0.2500000   0.5773503   0.0000000), wk =   0.0312500
        k(   20) = (   0.2500000   0.5773503   0.1750303), wk =   0.0625000
        k(   21) = (   0.0000000   0.1443376  -0.1750303), wk =   0.0312500
        k(   22) = (   0.0000000   0.2886751  -0.1750303), wk =   0.0312500
        k(   23) = (   0.0000000   0.4330127  -0.1750303), wk =   0.0312500
        k(   24) = (  -0.1250000   0.3608439  -0.1750303), wk =   0.0625000
        k(   25) = (  -0.1250000   0.5051815  -0.1750303), wk =   0.0625000

                       cryst. coord.
        k(    1) = (   0.0000000   0.0000000   0.0000000), wk =   0.0052083
        k(    2) = (   0.0000000   0.0000000   0.3333333), wk =   0.0104167
        k(    3) = (   0.0000000   0.1250000   0.0000000), wk =   0.0312500
        k(    4) = (   0.0000000   0.1250000   0.3333333), wk =   0.0312500
        k(    5) = (   0.0000000   0.2500000   0.0000000), wk =   0.0312500
        k(    6) = (   0.0000000   0.2500000   0.3333333), wk =   0.0312500
        k(    7) = (   0.0000000   0.3750000   0.0000000), wk =   0.0312500
        k(    8) = (   0.0000000   0.3750000   0.3333333), wk =   0.0312500
        k(    9) = (   0.0000000  -0.5000000   0.0000000), wk =   0.0156250
        k(   10) = (   0.0000000  -0.5000000   0.3333333), wk =   0.0312500
        k(   11) = (   0.1250000   0.1250000   0.0000000), wk =   0.0312500
        k(   12) = (   0.1250000   0.1250000   0.3333333), wk =   0.0625000
        k(   13) = (   0.1250000   0.2500000   0.0000000), wk =   0.0625000
        k(   14) = (   0.1250000   0.2500000   0.3333333), wk =   0.0625000
        k(   15) = (   0.1250000   0.3750000   0.0000000), wk =   0.0625000
        k(   16) = (   0.1250000   0.3750000   0.3333333), wk =   0.0625000
        k(   17) = (   0.2500000   0.2500000   0.0000000), wk =   0.0312500
        k(   18) = (   0.2500000   0.2500000   0.3333333), wk =   0.0625000
        k(   19) = (   0.2500000   0.3750000   0.0000000), wk =   0.0312500
        k(   20) = (   0.2500000   0.3750000   0.3333333), wk =   0.0625000
        k(   21) = (   0.0000000   0.1250000  -0.3333333), wk =   0.0312500
        k(   22) = (   0.0000000   0.2500000  -0.3333333), wk =   0.0312500
        k(   23) = (   0.0000000   0.3750000  -0.3333333), wk =   0.0312500
        k(   24) = (  -0.1250000   0.3750000  -0.3333333), wk =   0.0625000
        k(   25) = (  -0.1250000   0.5000000  -0.3333333), wk =   0.0625000

     Dense  grid:    47419 G-vectors     FFT dimensions: (  40,  40,  75)

     Smooth grid:    16845 G-vectors     FFT dimensions: (  27,  27,  54)

     Dynamical RAM for                 wfc:       0.87 MB

     Dynamical RAM for     wfc (w. buffer):      44.21 MB

     Dynamical RAM for           str. fact:       2.17 MB

     Dynamical RAM for           local pot:       0.00 MB

     Dynamical RAM for          nlocal pot:       1.35 MB

     Dynamical RAM for                qrad:       5.27 MB

     Dynamical RAM for          rho,v,vnew:       9.83 MB

     Dynamical RAM for               rhoin:       3.28 MB

     Dynamical RAM for            rho*nmix:      23.15 MB

     Dynamical RAM for           G-vectors:       2.84 MB

     Dynamical RAM for          h,s,v(r/c):       0.13 MB

     Dynamical RAM for          <psi|beta>:       0.02 MB

     Dynamical RAM for                 psi:       1.73 MB

     Dynamical RAM for                hpsi:       1.73 MB

     Dynamical RAM for                spsi:       1.73 MB

     Dynamical RAM for      wfcinit/wfcrot:       1.75 MB

     Dynamical RAM for           addusdens:     136.75 MB

     Dynamical RAM for          addusforce:     138.21 MB

     Estimated static dynamical RAM per process >      77.34 MB

     Estimated max dynamical RAM per process >     238.71 MB

     Check: negative core charge=   -0.000009
     Generating pointlists ...
     new r_m :   0.2748 (alat units)  1.4998 (a.u.) for type    1
     new r_m :   0.2748 (alat units)  1.4998 (a.u.) for type    2
     new r_m :   0.3494 (alat units)  1.9069 (a.u.) for type    3

     Initial potential from superposition of free atoms

     starting charge      37.9934, renormalised to      38.0000
     Starting wfcs are   23 randomized atomic wfcs +    4 random wfcs
     Checking if some PAW data can be deallocated... 

     total cpu time spent up to now is        2.9 secs

     Self-consistent Calculation
[tb_dev] Currently allocated     6.54E-01 Mbytes, locked:    0 /   6
[tb_pin] Currently allocated     0.00E+00 Mbytes, locked:    0 /   0

     iteration #  1     ecut=    60.00 Ry     beta= 0.30
     Davidson diagonalization with overlap

---- Real-time Memory Report at c_bands before calling an iterative solver
           667 MiB given to the printing process from OS
             0 MiB allocation reported by mallinfo(arena+hblkhd)
        849911 MiB available memory on the node where the printing process lives
     GPU memory used/free/total (MiB): 924 / 80226 / 81151
------------------
     ethr =  1.00E-02,  avg # of iterations =  9.4

     total cpu time spent up to now is        4.9 secs

     total energy              =    -569.16621708 Ry
     estimated scf accuracy    <       1.35050723 Ry

     total magnetization       =     4.00 Bohr mag/cell
     absolute magnetization    =     4.00 Bohr mag/cell
[tb_dev] Currently allocated     3.05E-05 Mbytes, locked:    0 /   2
[tb_pin] Currently allocated     0.00E+00 Mbytes, locked:    0 /   0

     iteration #  2     ecut=    60.00 Ry     beta= 0.30
     Davidson diagonalization with overlap

---- Real-time Memory Report at c_bands before calling an iterative solver
           710 MiB given to the printing process from OS
             0 MiB allocation reported by mallinfo(arena+hblkhd)
        849771 MiB available memory on the node where the printing process lives
     GPU memory used/free/total (MiB): 936 / 80214 / 81151
------------------
     ethr =  3.55E-03,  avg # of iterations =  1.9

     total cpu time spent up to now is        5.9 secs

     total energy              =    -569.12062683 Ry
     estimated scf accuracy    <       0.43482564 Ry

     total magnetization       =     4.05 Bohr mag/cell
     absolute magnetization    =     4.05 Bohr mag/cell
[tb_dev] Currently allocated     3.05E-05 Mbytes, locked:    0 /   2
[tb_pin] Currently allocated     0.00E+00 Mbytes, locked:    0 /   0

     iteration #  3     ecut=    60.00 Ry     beta= 0.30
     Davidson diagonalization with overlap

---- Real-time Memory Report at c_bands before calling an iterative solver
           712 MiB given to the printing process from OS
             0 MiB allocation reported by mallinfo(arena+hblkhd)
        849769 MiB available memory on the node where the printing process lives
     GPU memory used/free/total (MiB): 936 / 80214 / 81151
------------------
     ethr =  1.14E-03,  avg # of iterations =  4.0

     total cpu time spent up to now is        7.2 secs

     total energy              =    -569.31897334 Ry
     estimated scf accuracy    <       0.83563807 Ry

     total magnetization       =     1.67 Bohr mag/cell
     absolute magnetization    =     1.73 Bohr mag/cell
[tb_dev] Currently allocated     3.05E-05 Mbytes, locked:    0 /   2
[tb_pin] Currently allocated     0.00E+00 Mbytes, locked:    0 /   0

     iteration #  4     ecut=    60.00 Ry     beta= 0.30
     Davidson diagonalization with overlap

---- Real-time Memory Report at c_bands before calling an iterative solver
           714 MiB given to the printing process from OS
             0 MiB allocation reported by mallinfo(arena+hblkhd)
        849772 MiB available memory on the node where the printing process lives
     GPU memory used/free/total (MiB): 936 / 80214 / 81151
------------------
     ethr =  1.14E-03,  avg # of iterations =  1.2

     total cpu time spent up to now is        8.3 secs

     total energy              =    -569.37392988 Ry
     estimated scf accuracy    <       1.16796264 Ry

     total magnetization       =     1.44 Bohr mag/cell
     absolute magnetization    =     1.55 Bohr mag/cell
[tb_dev] Currently allocated     3.05E-05 Mbytes, locked:    0 /   2
[tb_pin] Currently allocated     0.00E+00 Mbytes, locked:    0 /   0

     iteration #  5     ecut=    60.00 Ry     beta= 0.30
     Davidson diagonalization with overlap

---- Real-time Memory Report at c_bands before calling an iterative solver
           715 MiB given to the printing process from OS
             0 MiB allocation reported by mallinfo(arena+hblkhd)
        849771 MiB available memory on the node where the printing process lives
     GPU memory used/free/total (MiB): 936 / 80214 / 81151
------------------
     ethr =  1.14E-03,  avg # of iterations =  1.2

     total cpu time spent up to now is        9.3 secs

     total energy              =    -569.31939301 Ry
     estimated scf accuracy    <       1.39149564 Ry

     total magnetization       =     0.82 Bohr mag/cell
     absolute magnetization    =     1.19 Bohr mag/cell
[tb_dev] Currently allocated     3.05E-05 Mbytes, locked:    0 /   2
[tb_pin] Currently allocated     0.00E+00 Mbytes, locked:    0 /   0

     iteration #  6     ecut=    60.00 Ry     beta= 0.30
     Davidson diagonalization with overlap

---- Real-time Memory Report at c_bands before calling an iterative solver
           717 MiB given to the printing process from OS
             0 MiB allocation reported by mallinfo(arena+hblkhd)
        849740 MiB available memory on the node where the printing process lives
     GPU memory used/free/total (MiB): 936 / 80214 / 81151
------------------
     ethr =  1.14E-03,  avg # of iterations =  1.5

     total cpu time spent up to now is       10.3 secs

     total energy              =    -569.35898462 Ry
     estimated scf accuracy    <       0.49937405 Ry

     total magnetization       =     0.31 Bohr mag/cell
     absolute magnetization    =     0.84 Bohr mag/cell
[tb_dev] Currently allocated     3.05E-05 Mbytes, locked:    0 /   2
[tb_pin] Currently allocated     0.00E+00 Mbytes, locked:    0 /   0

     iteration #  7     ecut=    60.00 Ry     beta= 0.30
     Davidson diagonalization with overlap

---- Real-time Memory Report at c_bands before calling an iterative solver
           719 MiB given to the printing process from OS
             0 MiB allocation reported by mallinfo(arena+hblkhd)
        849733 MiB available memory on the node where the printing process lives
     GPU memory used/free/total (MiB): 936 / 80214 / 81151
------------------
     ethr =  1.14E-03,  avg # of iterations =  1.0

     total cpu time spent up to now is       11.4 secs

     total energy              =    -569.37603525 Ry
     estimated scf accuracy    <       0.66711031 Ry

     total magnetization       =     0.45 Bohr mag/cell
     absolute magnetization    =     0.94 Bohr mag/cell
[tb_dev] Currently allocated     3.05E-05 Mbytes, locked:    0 /   2
[tb_pin] Currently allocated     0.00E+00 Mbytes, locked:    0 /   0

     iteration #  8     ecut=    60.00 Ry     beta= 0.30
     Davidson diagonalization with overlap

---- Real-time Memory Report at c_bands before calling an iterative solver
           721 MiB given to the printing process from OS
             0 MiB allocation reported by mallinfo(arena+hblkhd)
        849724 MiB available memory on the node where the printing process lives
     GPU memory used/free/total (MiB): 936 / 80214 / 81151
------------------
     ethr =  1.14E-03,  avg # of iterations =  1.2

     total cpu time spent up to now is       12.4 secs

     total energy              =    -569.26143614 Ry
     estimated scf accuracy    <       0.46266431 Ry

     total magnetization       =     0.03 Bohr mag/cell
     absolute magnetization    =     0.60 Bohr mag/cell
[tb_dev] Currently allocated     3.05E-05 Mbytes, locked:    0 /   2
[tb_pin] Currently allocated     0.00E+00 Mbytes, locked:    0 /   0

     iteration #  9     ecut=    60.00 Ry     beta= 0.30
     Davidson diagonalization with overlap

---- Real-time Memory Report at c_bands before calling an iterative solver
           723 MiB given to the printing process from OS
             0 MiB allocation reported by mallinfo(arena+hblkhd)
        849724 MiB available memory on the node where the printing process lives
     GPU memory used/free/total (MiB): 936 / 80214 / 81151
------------------
     ethr =  1.14E-03,  avg # of iterations =  1.5
     Minimization algorithm failed to find Fermi energy: reverting to bisection
     Possible cause: smearing is larger than the electronic band-gap.

     total cpu time spent up to now is       13.4 secs

     total energy              =    -569.35557253 Ry
     estimated scf accuracy    <       0.04822578 Ry

     total magnetization       =    -0.01 Bohr mag/cell
     absolute magnetization    =     0.09 Bohr mag/cell
[tb_dev] Currently allocated     3.05E-05 Mbytes, locked:    0 /   2
[tb_pin] Currently allocated     0.00E+00 Mbytes, locked:    0 /   0

     iteration # 10     ecut=    60.00 Ry     beta= 0.30
     Davidson diagonalization with overlap

---- Real-time Memory Report at c_bands before calling an iterative solver
           725 MiB given to the printing process from OS
             0 MiB allocation reported by mallinfo(arena+hblkhd)
        849718 MiB available memory on the node where the printing process lives
     GPU memory used/free/total (MiB): 936 / 80214 / 81151
------------------
     ethr =  1.27E-04,  avg # of iterations =  5.2
     Minimization algorithm failed to find Fermi energy: reverting to bisection
     Possible cause: smearing is larger than the electronic band-gap.

     total cpu time spent up to now is       14.9 secs

     total energy              =    -569.35958307 Ry
     estimated scf accuracy    <       0.05240738 Ry

     total magnetization       =    -0.01 Bohr mag/cell
     absolute magnetization    =     0.09 Bohr mag/cell
[tb_dev] Currently allocated     3.05E-05 Mbytes, locked:    0 /   2
[tb_pin] Currently allocated     0.00E+00 Mbytes, locked:    0 /   0

     iteration # 11     ecut=    60.00 Ry     beta= 0.30
     Davidson diagonalization with overlap

---- Real-time Memory Report at c_bands before calling an iterative solver
           725 MiB given to the printing process from OS
             0 MiB allocation reported by mallinfo(arena+hblkhd)
        849718 MiB available memory on the node where the printing process lives
     GPU memory used/free/total (MiB): 936 / 80214 / 81151
------------------
     ethr =  1.27E-04,  avg # of iterations =  1.2

     total cpu time spent up to now is       15.9 secs

     total energy              =    -569.35921763 Ry
     estimated scf accuracy    <       0.00723584 Ry

     total magnetization       =    -0.00 Bohr mag/cell
     absolute magnetization    =     0.06 Bohr mag/cell
[tb_dev] Currently allocated     3.05E-05 Mbytes, locked:    0 /   2
[tb_pin] Currently allocated     0.00E+00 Mbytes, locked:    0 /   0

     iteration # 12     ecut=    60.00 Ry     beta= 0.30
     Davidson diagonalization with overlap

---- Real-time Memory Report at c_bands before calling an iterative solver
           725 MiB given to the printing process from OS
             0 MiB allocation reported by mallinfo(arena+hblkhd)
        849718 MiB available memory on the node where the printing process lives
     GPU memory used/free/total (MiB): 936 / 80214 / 81151
------------------
     ethr =  1.90E-05,  avg # of iterations =  6.7
     Minimization algorithm failed to find Fermi energy: reverting to bisection
     Possible cause: smearing is larger than the electronic band-gap.

     total cpu time spent up to now is       17.6 secs

     total energy              =    -569.36613462 Ry
     estimated scf accuracy    <       0.02365247 Ry

     total magnetization       =     0.12 Bohr mag/cell
     absolute magnetization    =     0.19 Bohr mag/cell
[tb_dev] Currently allocated     3.05E-05 Mbytes, locked:    0 /   2
[tb_pin] Currently allocated     0.00E+00 Mbytes, locked:    0 /   0

     iteration # 13     ecut=    60.00 Ry     beta= 0.30
     Davidson diagonalization with overlap

---- Real-time Memory Report at c_bands before calling an iterative solver
           726 MiB given to the printing process from OS
             0 MiB allocation reported by mallinfo(arena+hblkhd)
        849704 MiB available memory on the node where the printing process lives
     GPU memory used/free/total (MiB): 936 / 80214 / 81151
------------------
     ethr =  1.90E-05,  avg # of iterations =  1.5

     total cpu time spent up to now is       18.7 secs

     total energy              =    -569.36622441 Ry
     estimated scf accuracy    <       0.00675130 Ry

     total magnetization       =     0.00 Bohr mag/cell
     absolute magnetization    =     0.03 Bohr mag/cell
[tb_dev] Currently allocated     3.05E-05 Mbytes, locked:    0 /   2
[tb_pin] Currently allocated     0.00E+00 Mbytes, locked:    0 /   0

     iteration # 14     ecut=    60.00 Ry     beta= 0.30
     Davidson diagonalization with overlap

---- Real-time Memory Report at c_bands before calling an iterative solver
           726 MiB given to the printing process from OS
             0 MiB allocation reported by mallinfo(arena+hblkhd)
        849702 MiB available memory on the node where the printing process lives
     GPU memory used/free/total (MiB): 936 / 80214 / 81151
------------------
     ethr =  1.78E-05,  avg # of iterations =  1.0

     total cpu time spent up to now is       19.7 secs

     total energy              =    -569.36514493 Ry
     estimated scf accuracy    <       0.00528594 Ry

     total magnetization       =     0.00 Bohr mag/cell
     absolute magnetization    =     0.03 Bohr mag/cell
[tb_dev] Currently allocated     3.05E-05 Mbytes, locked:    0 /   2
[tb_pin] Currently allocated     0.00E+00 Mbytes, locked:    0 /   0

     iteration # 15     ecut=    60.00 Ry     beta= 0.30
     Davidson diagonalization with overlap

---- Real-time Memory Report at c_bands before calling an iterative solver
           726 MiB given to the printing process from OS
             0 MiB allocation reported by mallinfo(arena+hblkhd)
        849699 MiB available memory on the node where the printing process lives
     GPU memory used/free/total (MiB): 936 / 80214 / 81151
------------------
     ethr =  1.39E-05,  avg # of iterations =  1.4

     total cpu time spent up to now is       20.8 secs

     total energy              =    -569.36586916 Ry
     estimated scf accuracy    <       0.00083992 Ry

     total magnetization       =     0.00 Bohr mag/cell
     absolute magnetization    =     0.01 Bohr mag/cell
[tb_dev] Currently allocated     3.05E-05 Mbytes, locked:    0 /   2
[tb_pin] Currently allocated     0.00E+00 Mbytes, locked:    0 /   0

     iteration # 16     ecut=    60.00 Ry     beta= 0.30
     Davidson diagonalization with overlap

---- Real-time Memory Report at c_bands before calling an iterative solver
           726 MiB given to the printing process from OS
             0 MiB allocation reported by mallinfo(arena+hblkhd)
        849677 MiB available memory on the node where the printing process lives
     GPU memory used/free/total (MiB): 936 / 80214 / 81151
------------------
     ethr =  2.21E-06,  avg # of iterations =  5.2

     total cpu time spent up to now is       22.2 secs

     total energy              =    -569.36573925 Ry
     estimated scf accuracy    <       0.00115164 Ry

     total magnetization       =     0.00 Bohr mag/cell
     absolute magnetization    =     0.02 Bohr mag/cell
[tb_dev] Currently allocated     3.05E-05 Mbytes, locked:    0 /   2
[tb_pin] Currently allocated     0.00E+00 Mbytes, locked:    0 /   0

     iteration # 17     ecut=    60.00 Ry     beta= 0.30
     Davidson diagonalization with overlap

---- Real-time Memory Report at c_bands before calling an iterative solver
           726 MiB given to the printing process from OS
             0 MiB allocation reported by mallinfo(arena+hblkhd)
        849657 MiB available memory on the node where the printing process lives
     GPU memory used/free/total (MiB): 936 / 80214 / 81151
------------------
     ethr =  2.21E-06,  avg # of iterations =  2.1

     total cpu time spent up to now is       23.3 secs

     total energy              =    -569.36592068 Ry
     estimated scf accuracy    <       0.00007064 Ry

     total magnetization       =     0.00 Bohr mag/cell
     absolute magnetization    =     0.01 Bohr mag/cell
[tb_dev] Currently allocated     3.05E-05 Mbytes, locked:    0 /   2
[tb_pin] Currently allocated     0.00E+00 Mbytes, locked:    0 /   0

     iteration # 18     ecut=    60.00 Ry     beta= 0.30
     Davidson diagonalization with overlap

---- Real-time Memory Report at c_bands before calling an iterative solver
           726 MiB given to the printing process from OS
             0 MiB allocation reported by mallinfo(arena+hblkhd)
        849673 MiB available memory on the node where the printing process lives
     GPU memory used/free/total (MiB): 936 / 80214 / 81151
------------------
     ethr =  1.86E-07,  avg # of iterations =  4.9

     total cpu time spent up to now is       24.8 secs

     total energy              =    -569.36593902 Ry
     estimated scf accuracy    <       0.00002098 Ry

     total magnetization       =     0.00 Bohr mag/cell
     absolute magnetization    =     0.01 Bohr mag/cell
[tb_dev] Currently allocated     3.05E-05 Mbytes, locked:    0 /   2
[tb_pin] Currently allocated     0.00E+00 Mbytes, locked:    0 /   0

     iteration # 19     ecut=    60.00 Ry     beta= 0.30
     Davidson diagonalization with overlap

---- Real-time Memory Report at c_bands before calling an iterative solver
           726 MiB given to the printing process from OS
             0 MiB allocation reported by mallinfo(arena+hblkhd)
        849636 MiB available memory on the node where the printing process lives
     GPU memory used/free/total (MiB): 936 / 80214 / 81151
------------------
     ethr =  5.52E-08,  avg # of iterations =  4.5

     total cpu time spent up to now is       26.2 secs

     total energy              =    -569.36594926 Ry
     estimated scf accuracy    <       0.00000547 Ry

     total magnetization       =     0.00 Bohr mag/cell
     absolute magnetization    =     0.00 Bohr mag/cell
[tb_dev] Currently allocated     3.05E-05 Mbytes, locked:    0 /   2
[tb_pin] Currently allocated     0.00E+00 Mbytes, locked:    0 /   0

     iteration # 20     ecut=    60.00 Ry     beta= 0.30
     Davidson diagonalization with overlap

---- Real-time Memory Report at c_bands before calling an iterative solver
           726 MiB given to the printing process from OS
             0 MiB allocation reported by mallinfo(arena+hblkhd)
        849639 MiB available memory on the node where the printing process lives
     GPU memory used/free/total (MiB): 936 / 80214 / 81151
------------------
     ethr =  1.44E-08,  avg # of iterations =  4.8

     total cpu time spent up to now is       27.6 secs

     total energy              =    -569.36594582 Ry
     estimated scf accuracy    <       0.00000054 Ry

     total magnetization       =    -0.00 Bohr mag/cell
     absolute magnetization    =     0.00 Bohr mag/cell
[tb_dev] Currently allocated     3.05E-05 Mbytes, locked:    0 /   2
[tb_pin] Currently allocated     0.00E+00 Mbytes, locked:    0 /   0

     iteration # 21     ecut=    60.00 Ry     beta= 0.30
     Davidson diagonalization with overlap

---- Real-time Memory Report at c_bands before calling an iterative solver
           726 MiB given to the printing process from OS
             0 MiB allocation reported by mallinfo(arena+hblkhd)
        849644 MiB available memory on the node where the printing process lives
     GPU memory used/free/total (MiB): 936 / 80214 / 81151
------------------
     ethr =  1.43E-09,  avg # of iterations =  5.9

     total cpu time spent up to now is       29.2 secs

     total energy              =    -569.36594438 Ry
     estimated scf accuracy    <       0.00000022 Ry

     total magnetization       =    -0.00 Bohr mag/cell
     absolute magnetization    =     0.00 Bohr mag/cell
[tb_dev] Currently allocated     3.05E-05 Mbytes, locked:    0 /   2
[tb_pin] Currently allocated     0.00E+00 Mbytes, locked:    0 /   0

     iteration # 22     ecut=    60.00 Ry     beta= 0.30
     Davidson diagonalization with overlap

---- Real-time Memory Report at c_bands before calling an iterative solver
           726 MiB given to the printing process from OS
             0 MiB allocation reported by mallinfo(arena+hblkhd)
        849958 MiB available memory on the node where the printing process lives
     GPU memory used/free/total (MiB): 936 / 80214 / 81151
------------------
     ethr =  5.77E-10,  avg # of iterations =  2.1
 
     Magnetic moment per site  (integrated on atomic sphere of radius R)
     atom   1 (R=0.275)  charge= 14.1705  magn= -0.0000
     atom   2 (R=0.275)  charge=  5.3019  magn= -0.0000
     atom   3 (R=0.275)  charge=  5.3019  magn= -0.0000
     atom   4 (R=0.349)  charge=  8.0410  magn= -0.0000

     total cpu time spent up to now is       30.3 secs

     End of self-consistent calculation

 ------ SPIN UP ------------


          k = 0.0000 0.0000 0.0000 (  2113 PWs)   bands (ev):

   -84.8243 -48.1198 -48.1198 -47.9910 -42.0060 -13.9138 -13.8215 -13.8215
    -9.7499  -7.8676   3.5353   4.9038   4.9038   7.5466   8.0826   8.0826
     9.1070   9.1070   9.9698  12.4746  12.4746  12.9096  18.1735  19.4783
    25.5845  27.7650  27.7651

     occupation numbers 
     1.0000   1.0000   1.0000   1.0000   1.0000   1.0000   1.0000   1.0000
     1.0000   1.0000   1.0000   1.0000   1.0000   1.0000   1.0000   1.0000
     1.0000   1.0000   1.0001   0.0000   0.0000   0.0000   0.0000   0.0000
     0.0000   0.0000   0.0000

          k = 0.0000 0.0000 0.1750 (  2114 PWs)   bands (ev):

   -84.8243 -48.1200 -48.1200 -47.9908 -42.0059 -13.9249 -13.8217 -13.8217
    -9.6553  -7.9794   3.9415   4.9108   4.9108   6.7059   8.0628   8.0628
     9.1083   9.1083  10.1681  12.4922  12.4922  13.8243  17.3172  19.2978
    25.6401  27.1386  27.1386

     occupation numbers 
     1.0000   1.0000   1.0000   1.0000   1.0000   1.0000   1.0000   1.0000
     1.0000   1.0000   1.0000   1.0000   1.0000   1.0000   1.0000   1.0000
     1.0000   1.0000   1.0026   0.0000   0.0000   0.0000   0.0000   0.0000
     0.0000   0.0000   0.0000

          k = 0.0000 0.1443 0.0000 (  2123 PWs)   bands (ev):

   -84.8235 -48.1285 -48.1220 -47.9897 -42.0008 -13.8999 -13.8696 -13.8313
    -9.5719  -7.8706   3.7742   4.6444   4.9987   7.0533   7.6176   7.8157
     9.3340   9.4825  10.0180  12.0239  12.3809  13.4839  18.7728  19.9193
    25.7241  25.9351  26.5777

     occupation numbers 
     1.0000   1.0000   1.0000   1.0000   1.0000   1.0000   1.0000   1.0000
     1.0000   1.0000   1.0000   1.0000   1.0000   1.0000   1.0000   1.0000
     1.0000   1.0000   1.0002   0.0000   0.0000   0.0000   0.0000   0.0000
     0.0000   0.0000   0.0000

          k = 0.0000 0.1443 0.1750 (  2102 PWs)   bands (ev):

   -84.8235 -48.1285 -48.1219 -47.9895 -42.0006 -13.9091 -13.8691 -13.8312
    -9.4912  -7.9638   4.1006   4.5805   5.0054   7.0864   7.2053   7.6054
     9.3123   9.4814  10.2326  11.8988  12.3879  14.3312  17.8897  19.9544
    24.5824  26.4520  26.5945

     occupation numbers 
     1.0000   1.0000   1.0000   1.0000   1.0000   1.0000   1.0000   1.0000
     1.0000   1.0000   1.0000   1.0000   1.0000   1.0000   1.0000   1.0000
     1.0000   1.0000   1.0065   0.0000   0.0000   0.0000   0.0000   0.0000
     0.0000   0.0000   0.0000

          k = 0.0000 0.2887 0.0000 (  2112 PWs)   bands (ev):

   -84.8217 -48.1493 -48.1270 -47.9864 -41.9881 -13.9824 -13.8658 -13.8544
    -9.1073  -7.8893   4.2020   4.4082   5.2233   5.5263   7.0036   7.8627
     9.4104   9.7915  10.0689  11.5110  12.2714  14.6624  19.6710  20.9166
    22.9344  24.8831  26.0353

     occupation numbers 
     1.0000   1.0000   1.0000   1.0000   1.0000   1.0000   1.0000   1.0000
     1.0000   1.0000   1.0000   1.0000   1.0000   1.0000   1.0000   1.0000
     1.0000   1.0000   1.0005   0.0002   0.0000   0.0000   0.0000   0.0000
     0.0000   0.0000   0.0000

          k = 0.0000 0.2887 0.1750 (  2100 PWs)   bands (ev):

   -84.8216 -48.1492 -48.1269 -47.9864 -41.9880 -13.9820 -13.8712 -13.8542
    -9.0567  -7.9432   4.0137   4.6402   5.2290   5.6466   6.9973   7.7046
     9.3648   9.7917  10.2046  11.2163  12.2667  15.2572  19.0903  21.1234
    22.1427  24.4835  26.2186

     occupation numbers 
     1.0000   1.0000   1.0000   1.0000   1.0000   1.0000   1.0000   1.0000
     1.0000   1.0000   1.0000   1.0000   1.0000   1.0000   1.0000   1.0000
     1.0000   1.0000   1.0044   0.0316   0.0000   0.0000   0.0000   0.0000
     0.0000   0.0000   0.0000

          k = 0.0000 0.4330 0.0000 (  2098 PWs)   bands (ev):

   -84.8198 -48.1700 -48.1319 -47.9831 -41.9754 -14.0913 -13.8771 -13.8320
    -8.5520  -7.9547   3.5752   4.5884   5.4063   5.4184   6.6738   7.1971
     9.3186   9.7269   9.9838  11.6876  12.3195  16.0017  19.3210  21.2295
    21.5654  24.4441  25.4384

     occupation numbers 
     1.0000   1.0000   1.0000   1.0000   1.0000   1.0000   1.0000   1.0000
     1.0000   1.0000   1.0000   1.0000   1.0000   1.0000   1.0000   1.0000
     1.0000   1.0000   1.0001   0.0000   0.0000   0.0000   0.0000   0.0000
     0.0000   0.0000   0.0000

          k = 0.0000 0.4330 0.1750 (  2109 PWs)   bands (ev):

   -84.8198 -48.1701 -48.1319 -47.9833 -41.9754 -14.0912 -13.8771 -13.8351
    -8.5272  -7.9784   3.5517   4.4376   5.4110   5.6282   6.6698   7.2966
     9.2988   9.7274   9.9967  11.5017  12.3116  16.2788  19.3657  20.0547
    22.1319  24.0974  25.8560

     occupation numbers 
     1.0000   1.0000   1.0000   1.0000   1.0000   1.0000   1.0000   1.0000
     1.0000   1.0000   1.0000   1.0000   1.0000   1.0000   1.0000   1.0000
     1.0000   1.0000   1.0001   0.0003   0.0000   0.0000   0.0000   0.0000
     0.0000   0.0000   0.0000

          k = 0.0000-0.5774 0.0000 (  2102 PWs)   bands (ev):

   -84.8190 -48.1787 -48.1339 -47.9818 -41.9702 -14.1357 -13.8864 -13.8181
    -8.1561  -8.1308   3.1370   4.6619   5.4480   5.8021   6.6173   6.7283
     9.2082   9.6268   9.9141  11.8863  12.3732  17.1355  18.0932  21.2554
    21.3234  24.5818  25.2731

     occupation numbers 
     1.0000   1.0000   1.0000   1.0000   1.0000   1.0000   1.0000   1.0000
     1.0000   1.0000   1.0000   1.0000   1.0000   1.0000   1.0000   1.0000
     1.0000   1.0000   1.0000   0.0000   0.0000   0.0000   0.0000   0.0000
     0.0000   0.0000   0.0000

          k = 0.0000-0.5774 0.1750 (  2116 PWs)   bands (ev):

   -84.8190 -48.1786 -48.1341 -47.9820 -41.9701 -14.1354 -13.8869 -13.8204
    -8.1850  -8.0997   3.1485   4.4988   5.4524   5.8965   6.6131   6.8825
     9.2003   9.6270   9.9032  11.8985  12.3676  17.0393  18.0232  20.3336
    22.3820  24.2314  25.3276

     occupation numbers 
     1.0000   1.0000   1.0000   1.0000   1.0000   1.0000   1.0000   1.0000
     1.0000   1.0000   1.0000   1.0000   1.0000   1.0000   1.0000   1.0000
     1.0000   1.0000   1.0000   0.0000   0.0000   0.0000   0.0000   0.0000
     0.0000   0.0000   0.0000

          k = 0.1250 0.2165 0.0000 (  2101 PWs)   bands (ev):

   -84.8222 -48.1422 -48.1264 -47.9873 -41.9918 -13.9443 -13.8763 -13.8523
    -9.2505  -7.8806   4.1995   4.3759   5.1001   6.0387   6.9260   7.9707
     9.4617   9.7886  10.0519  11.7544  12.0236  14.3760  19.5219  20.6723
    24.0498  24.7850  26.0548

     occupation numbers 
     1.0000   1.0000   1.0000   1.0000   1.0000   1.0000   1.0000   1.0000
     1.0000   1.0000   1.0000   1.0000   1.0000   1.0000   1.0000   1.0000
     1.0000   1.0000   1.0004   0.0000   0.0000   0.0000   0.0000   0.0000
     0.0000   0.0000   0.0000

          k = 0.1250 0.2165 0.1750 (  2101 PWs)   bands (ev):

   -84.8222 -48.1422 -48.1264 -47.9873 -41.9917 -13.9438 -13.8827 -13.8524
    -9.1942  -7.9420   4.1474   4.5275   5.1111   6.1287   6.9173   7.6776
     9.4681   9.7257  10.1931  11.5361  12.1270  14.8746  18.8859  20.9022
    23.0733  25.1007  25.9391

     occupation numbers 
     1.0000   1.0000   1.0000   1.0000   1.0000   1.0000   1.0000   1.0000
     1.0000   1.0000   1.0000   1.0000   1.0000   1.0000   1.0000   1.0000
     1.0000   1.0000   1.0038   0.0001   0.0000   0.0000   0.0000   0.0000
     0.0000   0.0000   0.0000

          k = 0.1250 0.3608 0.0000 (  2106 PWs)   bands (ev):

   -84.8203 -48.1608 -48.1335 -47.9842 -41.9791 -14.0428 -13.8879 -13.8419
    -8.7413  -7.9146   4.0685   4.5094   5.1618   5.4121   6.3961   7.5667
     9.4768   9.8625  10.0275  11.6265  11.9908  15.6191  19.8443  21.6191
    22.0984  23.9464  25.6427

     occupation numbers 
     1.0000   1.0000   1.0000   1.0000   1.0000   1.0000   1.0000   1.0000
     1.0000   1.0000   1.0000   1.0000   1.0000   1.0000   1.0000   1.0000
     1.0000   1.0000   1.0002   0.0000   0.0000   0.0000   0.0000   0.0000
     0.0000   0.0000   0.0000

          k = 0.1250 0.3608 0.1750 (  2102 PWs)   bands (ev):

   -84.8203 -48.1608 -48.1335 -47.9842 -41.9790 -14.0424 -13.8879 -13.8454
    -8.7133  -7.9421   3.9434   4.4602   5.3194   5.5334   6.3925   7.5690
     9.4734   9.8408  10.0348  11.4347  12.0375  15.8339  19.9214  20.8414
    22.0032  24.0395  25.3270

     occupation numbers 
     1.0000   1.0000   1.0000   1.0000   1.0000   1.0000   1.0000   1.0000
     1.0000   1.0000   1.0000   1.0000   1.0000   1.0000   1.0000   1.0000
     1.0000   1.0000   1.0003   0.0010   0.0000   0.0000   0.0000   0.0000
     0.0000   0.0000   0.0000

          k = 0.1250 0.5052 0.0000 (  2104 PWs)   bands (ev):

   -84.8190 -48.1739 -48.1387 -47.9818 -41.9702 -14.1099 -13.9129 -13.8184
    -8.2754  -8.0125   3.4363   4.4872   5.5054   5.6886   6.2114   6.8750
     9.3569   9.6957   9.9945  11.8058  12.0939  16.9801  18.7485  21.5132
    21.8149  24.2888  24.8966

     occupation numbers 
     1.0000   1.0000   1.0000   1.0000   1.0000   1.0000   1.0000   1.0000
     1.0000   1.0000   1.0000   1.0000   1.0000   1.0000   1.0000   1.0000
     1.0000   1.0000   1.0001   0.0000   0.0000   0.0000   0.0000   0.0000
     0.0000   0.0000   0.0000

          k = 0.1250 0.5052 0.1750 (  2107 PWs)   bands (ev):

   -84.8190 -48.1739 -48.1386 -47.9820 -41.9701 -14.1097 -13.9127 -13.8207
    -8.2654  -8.0213   3.4485   4.3702   5.4715   5.8087   6.2156   6.9833
     9.3470   9.7002   9.9737  11.7775  12.1247  16.9699  18.5980  20.6997
    22.4557  23.9102  25.1163

     occupation numbers 
     1.0000   1.0000   1.0000   1.0000   1.0000   1.0000   1.0000   1.0000
     1.0000   1.0000   1.0000   1.0000   1.0000   1.0000   1.0000   1.0000
     1.0000   1.0000   1.0001   0.0000   0.0000   0.0000   0.0000   0.0000
     0.0000   0.0000   0.0000

          k = 0.2500 0.4330 0.0000 (  2095 PWs)   bands (ev):

   -84.8190 -48.1674 -48.1450 -47.9818 -41.9701 -14.0742 -13.9488 -13.8186
    -8.3298  -7.9589   4.0157   4.1975   5.1341   5.7092   5.9847   7.0253
     9.4637   9.7426  10.1109  11.6462  11.8857  16.9142  19.3648  21.9665
    22.4341  23.2792  24.8438

     occupation numbers 
     1.0000   1.0000   1.0000   1.0000   1.0000   1.0000   1.0000   1.0000
     1.0000   1.0000   1.0000   1.0000   1.0000   1.0000   1.0000   1.0000
     1.0000   1.0000   1.0010   0.0000   0.0000   0.0000   0.0000   0.0000
     0.0000   0.0000   0.0000

          k = 0.2500 0.4330 0.1750 (  2101 PWs)   bands (ev):

   -84.8190 -48.1674 -48.1450 -47.9820 -41.9701 -14.0738 -13.9488 -13.8210
    -8.3275  -7.9601   4.0169   4.1005   5.1757   5.8449   5.9540   7.0314
     9.4759   9.7482  10.0504  11.7402  11.8840  16.7048  19.4274  21.6093
    21.9501  23.6772  24.7664

     occupation numbers 
     1.0000   1.0000   1.0000   1.0000   1.0000   1.0000   1.0000   1.0000
     1.0000   1.0000   1.0000   1.0000   1.0000   1.0000   1.0000   1.0000
     1.0000   1.0000   1.0004   0.0000   0.0000   0.0000   0.0000   0.0000
     0.0000   0.0000   0.0000

          k = 0.2500 0.5774 0.0000 (  2102 PWs)   bands (ev):

   -84.8185 -48.1679 -48.1521 -47.9810 -41.9665 -14.0745 -13.9865 -13.8093
    -8.0894  -8.0377   3.8423   4.2950   4.8538   5.9441   6.1697   6.5547
     9.2977   9.8804  10.0625  11.7436  11.7821  18.0098  18.5844  21.5767
    22.6850  23.7976  24.6133

     occupation numbers 
     1.0000   1.0000   1.0000   1.0000   1.0000   1.0000   1.0000   1.0000
     1.0000   1.0000   1.0000   1.0000   1.0000   1.0000   1.0000   1.0000
     1.0000   1.0000   1.0004   0.0000   0.0000   0.0000   0.0000   0.0000
     0.0000   0.0000   0.0000

          k = 0.2500 0.5774 0.1750 (  2105 PWs)   bands (ev):

   -84.8185 -48.1679 -48.1521 -47.9811 -41.9664 -14.0743 -13.9866 -13.8109
    -8.0978  -8.0295   3.8500   4.2541   4.9007   5.9150   6.2091   6.5456
     9.3100   9.8799  10.0303  11.8158  11.8699  17.7527  18.4327  21.1473
    22.9848  23.3291  24.5137

     occupation numbers 
     1.0000   1.0000   1.0000   1.0000   1.0000   1.0000   1.0000   1.0000
     1.0000   1.0000   1.0000   1.0000   1.0000   1.0000   1.0000   1.0000
     1.0000   1.0000   1.0002   0.0000   0.0000   0.0000   0.0000   0.0000
     0.0000   0.0000   0.0000

          k = 0.0000 0.1443-0.1750 (  2102 PWs)   bands (ev):

   -84.8235 -48.1285 -48.1219 -47.9895 -42.0006 -13.9089 -13.8692 -13.8312
    -9.4922  -7.9625   4.1129   4.5676   5.0052   6.9594   7.3382   7.6048
     9.3099   9.4778  10.2114  11.9824  12.3986  14.2124  17.9455  19.9484
    24.6637  26.2976  27.3969

     occupation numbers 
     1.0000   1.0000   1.0000   1.0000   1.0000   1.0000   1.0000   1.0000
     1.0000   1.0000   1.0000   1.0000   1.0000   1.0000   1.0000   1.0000
     1.0000   1.0000   1.0049   0.0000   0.0000   0.0000   0.0000   0.0000
     0.0000   0.0000   0.0000

          k = 0.0000 0.2887-0.1750 (  2100 PWs)   bands (ev):

   -84.8216 -48.1492 -48.1269 -47.9864 -41.9880 -13.9816 -13.8713 -13.8542
    -9.0646  -7.9336   4.0528   4.5482   5.2288   5.7095   6.9960   7.6505
     9.3786   9.7880  10.1123  11.5004  12.2795  14.9047  19.2997  21.0938
    22.5119  25.1571  25.6397

     occupation numbers 
     1.0000   1.0000   1.0000   1.0000   1.0000   1.0000   1.0000   1.0000
     1.0000   1.0000   1.0000   1.0000   1.0000   1.0000   1.0000   1.0000
     1.0000   1.0000   1.0011   0.0003   0.0000   0.0000   0.0000   0.0000
     0.0000   0.0000   0.0000

          k = 0.0000 0.4330-0.1750 (  2109 PWs)   bands (ev):

   -84.8198 -48.1701 -48.1319 -47.9833 -41.9754 -14.0909 -13.8771 -13.8352
    -8.5492  -7.9540   3.5173   4.4495   5.4107   5.7064   6.6691   7.1765
     9.3138   9.7262   9.9536  11.7455  12.3187  15.8210  19.5992  20.4542
    22.2454  24.5073  24.8372

     occupation numbers 
     1.0000   1.0000   1.0000   1.0000   1.0000   1.0000   1.0000   1.0000
     1.0000   1.0000   1.0000   1.0000   1.0000   1.0000   1.0000   1.0000
     1.0000   1.0000   1.0001   0.0000   0.0000   0.0000   0.0000   0.0000
     0.0000   0.0000   0.0000

          k =-0.1250 0.3608-0.1750 (  2102 PWs)   bands (ev):

   -84.8203 -48.1608 -48.1334 -47.9842 -41.9790 -14.0421 -13.8879 -13.8454
    -8.7222  -7.9318   3.9314   4.4471   5.2944   5.6164   6.3799   7.5068
     9.4962   9.8592   9.9627  11.6509  11.9849  15.6058  20.0462  20.9595
    22.3272  24.1685  24.6675

     occupation numbers 
     1.0000   1.0000   1.0000   1.0000   1.0000   1.0000   1.0000   1.0000
     1.0000   1.0000   1.0000   1.0000   1.0000   1.0000   1.0000   1.0000
     1.0000   1.0000   1.0001   0.0000   0.0000   0.0000   0.0000   0.0000
     0.0000   0.0000   0.0000

          k =-0.1250 0.5052-0.1750 (  2107 PWs)   bands (ev):

   -84.8190 -48.1739 -48.1386 -47.9820 -41.9701 -14.1096 -13.9127 -13.8207
    -8.2866  -7.9990   3.4254   4.3893   5.5004   5.8025   6.2360   6.9160
     9.3614   9.6971   9.9567  11.8947  12.0983  16.6881  18.8138  20.9181
    22.5293  23.7345  24.9921

     occupation numbers 
     1.0000   1.0000   1.0000   1.0000   1.0000   1.0000   1.0000   1.0000
     1.0000   1.0000   1.0000   1.0000   1.0000   1.0000   1.0000   1.0000
     1.0000   1.0000   1.0001   0.0000   0.0000   0.0000   0.0000   0.0000
     0.0000   0.0000   0.0000

 ------ SPIN DOWN ----------


          k = 0.0000 0.0000 0.0000 (  2113 PWs)   bands (ev):

   -84.8238 -48.1195 -48.1195 -47.9904 -42.0059 -13.9138 -13.8215 -13.8215
    -9.7496  -7.8673   3.5356   4.9040   4.9040   7.5466   8.0830   8.0830
     9.1077   9.1077   9.9705  12.4747  12.4747  12.9098  18.1739  19.4786
    25.5850  27.7656  27.7656

     occupation numbers 
     1.0000   1.0000   1.0000   1.0000   1.0000   1.0000   1.0000   1.0000
     1.0000   1.0000   1.0000   1.0000   1.0000   1.0000   1.0000   1.0000
     1.0000   1.0000   1.0001   0.0000   0.0000   0.0000   0.0000   0.0000
     0.0000   0.0000   0.0000

          k = 0.0000 0.0000 0.1750 (  2114 PWs)   bands (ev):

   -84.8238 -48.1196 -48.1196 -47.9902 -42.0059 -13.9249 -13.8217 -13.8217
    -9.6551  -7.9792   3.9418   4.9111   4.9111   6.7060   8.0631   8.0631
     9.1090   9.1090  10.1688  12.4922  12.4922  13.8244  17.3175  19.2984
    25.6403  27.1391  27.1391

     occupation numbers 
     1.0000   1.0000   1.0000   1.0000   1.0000   1.0000   1.0000   1.0000
     1.0000   1.0000   1.0000   1.0000   1.0000   1.0000   1.0000   1.0000
     1.0000   1.0000   1.0026   0.0000   0.0000   0.0000   0.0000   0.0000
     0.0000   0.0000   0.0000

          k = 0.0000 0.1443 0.0000 (  2123 PWs)   bands (ev):

   -84.8231 -48.1281 -48.1217 -47.9891 -42.0008 -13.8999 -13.8696 -13.8313
    -9.5716  -7.8704   3.7745   4.6447   4.9989   7.0536   7.6180   7.8157
     9.3346   9.4831  10.0186  12.0240  12.3810  13.4842  18.7732  19.9197
    25.7246  25.9355  26.5783

     occupation numbers 
     1.0000   1.0000   1.0000   1.0000   1.0000   1.0000   1.0000   1.0000
     1.0000   1.0000   1.0000   1.0000   1.0000   1.0000   1.0000   1.0000
     1.0000   1.0000   1.0002   0.0000   0.0000   0.0000   0.0000   0.0000
     0.0000   0.0000   0.0000

          k = 0.0000 0.1443 0.1750 (  2102 PWs)   bands (ev):

   -84.8230 -48.1281 -48.1216 -47.9889 -42.0006 -13.9090 -13.8691 -13.8312
    -9.4909  -7.9636   4.1009   4.5808   5.0057   7.0868   7.2054   7.6058
     9.3130   9.4821  10.2332  11.8988  12.3880  14.3314  17.8901  19.9549
    24.5827  26.4524  26.5949

     occupation numbers 
     1.0000   1.0000   1.0000   1.0000   1.0000   1.0000   1.0000   1.0000
     1.0000   1.0000   1.0000   1.0000   1.0000   1.0000   1.0000   1.0000
     1.0000   1.0000   1.0066   0.0000   0.0000   0.0000   0.0000   0.0000
     0.0000   0.0000   0.0000

          k = 0.0000 0.2887 0.0000 (  2112 PWs)   bands (ev):

   -84.8212 -48.1489 -48.1266 -47.9858 -41.9881 -13.9824 -13.8658 -13.8543
    -9.1070  -7.8890   4.2023   4.4085   5.2236   5.5267   7.0040   7.8628
     9.4110   9.7921  10.0695  11.5110  12.2714  14.6626  19.6713  20.9170
    22.9347  24.8836  26.0362

     occupation numbers 
     1.0000   1.0000   1.0000   1.0000   1.0000   1.0000   1.0000   1.0000
     1.0000   1.0000   1.0000   1.0000   1.0000   1.0000   1.0000   1.0000
     1.0000   1.0000   1.0005   0.0002   0.0000   0.0000   0.0000   0.0000
     0.0000   0.0000   0.0000

          k = 0.0000 0.2887 0.1750 (  2100 PWs)   bands (ev):

   -84.8212 -48.1489 -48.1265 -47.9858 -41.9880 -13.9820 -13.8712 -13.8542
    -9.0564  -7.9429   4.0140   4.6405   5.2293   5.6470   6.9977   7.7047
     9.3655   9.7923  10.2052  11.2163  12.2667  15.2573  19.0907  21.1239
    22.1430  24.4840  26.2185

     occupation numbers 
     1.0000   1.0000   1.0000   1.0000   1.0000   1.0000   1.0000   1.0000
     1.0000   1.0000   1.0000   1.0000   1.0000   1.0000   1.0000   1.0000
     1.0000   1.0000   1.0045   0.0315   0.0000   0.0000   0.0000   0.0000
     0.0000   0.0000   0.0000

          k = 0.0000 0.4330 0.0000 (  2098 PWs)   bands (ev):

   -84.8193 -48.1696 -48.1315 -47.9825 -41.9754 -14.0913 -13.8771 -13.8320
    -8.5517  -7.9545   3.5757   4.5887   5.4065   5.4186   6.6742   7.1973
     9.3193   9.7275   9.9845  11.6876  12.3196  16.0019  19.3212  21.2299
    21.5658  24.4445  25.4388

     occupation numbers 
     1.0000   1.0000   1.0000   1.0000   1.0000   1.0000   1.0000   1.0000
     1.0000   1.0000   1.0000   1.0000   1.0000   1.0000   1.0000   1.0000
     1.0000   1.0000   1.0001   0.0000   0.0000   0.0000   0.0000   0.0000
     0.0000   0.0000   0.0000

          k = 0.0000 0.4330 0.1750 (  2109 PWs)   bands (ev):

   -84.8193 -48.1697 -48.1315 -47.9827 -41.9753 -14.0912 -13.8771 -13.8351
    -8.5270  -7.9781   3.5522   4.4380   5.4113   5.6284   6.6702   7.2967
     9.2994   9.7280   9.9973  11.5017  12.3118  16.2790  19.3659  20.0552
    22.1324  24.0979  25.8560

     occupation numbers 
     1.0000   1.0000   1.0000   1.0000   1.0000   1.0000   1.0000   1.0000
     1.0000   1.0000   1.0000   1.0000   1.0000   1.0000   1.0000   1.0000
     1.0000   1.0000   1.0001   0.0003   0.0000   0.0000   0.0000   0.0000
     0.0000   0.0000   0.0000

          k = 0.0000-0.5774 0.0000 (  2102 PWs)   bands (ev):

   -84.8186 -48.1783 -48.1335 -47.9812 -41.9701 -14.1356 -13.8864 -13.8181
    -8.1559  -8.1306   3.1375   4.6623   5.4483   5.8023   6.6177   6.7285
     9.2088   9.6274   9.9148  11.8862  12.3733  17.1357  18.0934  21.2559
    21.3238  24.5821  25.2731

     occupation numbers 
     1.0000   1.0000   1.0000   1.0000   1.0000   1.0000   1.0000   1.0000
     1.0000   1.0000   1.0000   1.0000   1.0000   1.0000   1.0000   1.0000
     1.0000   1.0000   1.0000   0.0000   0.0000   0.0000   0.0000   0.0000
     0.0000   0.0000   0.0000

          k = 0.0000-0.5774 0.1750 (  2116 PWs)   bands (ev):

   -84.8186 -48.1783 -48.1337 -47.9814 -41.9701 -14.1354 -13.8869 -13.8204
    -8.1847  -8.0995   3.1489   4.4991   5.4527   5.8967   6.6135   6.8827
     9.2010   9.6276   9.9039  11.8985  12.3677  17.0395  18.0234  20.3341
    22.3825  24.2319  25.3287

     occupation numbers 
     1.0000   1.0000   1.0000   1.0000   1.0000   1.0000   1.0000   1.0000
     1.0000   1.0000   1.0000   1.0000   1.0000   1.0000   1.0000   1.0000
     1.0000   1.0000   1.0000   0.0000   0.0000   0.0000   0.0000   0.0000
     0.0000   0.0000   0.0000

          k = 0.1250 0.2165 0.0000 (  2101 PWs)   bands (ev):

   -84.8217 -48.1418 -48.1260 -47.9867 -41.9918 -13.9443 -13.8762 -13.8522
    -9.2502  -7.8804   4.1998   4.3763   5.1003   6.0392   6.9264   7.9707
     9.4624   9.7892  10.0525  11.7544  12.0237  14.3761  19.5222  20.6727
    24.0501  24.7855  26.0554

     occupation numbers 
     1.0000   1.0000   1.0000   1.0000   1.0000   1.0000   1.0000   1.0000
     1.0000   1.0000   1.0000   1.0000   1.0000   1.0000   1.0000   1.0000
     1.0000   1.0000   1.0004   0.0000   0.0000   0.0000   0.0000   0.0000
     0.0000   0.0000   0.0000

          k = 0.1250 0.2165 0.1750 (  2101 PWs)   bands (ev):

   -84.8217 -48.1419 -48.1260 -47.9867 -41.9917 -13.9438 -13.8827 -13.8524
    -9.1939  -7.9418   4.1477   4.5278   5.1114   6.1291   6.9177   7.6777
     9.4688   9.7263  10.1937  11.5362  12.1270  14.8747  18.8862  20.9027
    23.0736  25.1012  25.9395

     occupation numbers 
     1.0000   1.0000   1.0000   1.0000   1.0000   1.0000   1.0000   1.0000
     1.0000   1.0000   1.0000   1.0000   1.0000   1.0000   1.0000   1.0000
     1.0000   1.0000   1.0038   0.0001   0.0000   0.0000   0.0000   0.0000
     0.0000   0.0000   0.0000

          k = 0.1250 0.3608 0.0000 (  2106 PWs)   bands (ev):

   -84.8199 -48.1605 -48.1332 -47.9836 -41.9791 -14.0428 -13.8879 -13.8419
    -8.7411  -7.9144   4.0689   4.5097   5.1620   5.4124   6.3965   7.5669
     9.4774   9.8632  10.0281  11.6265  11.9909  15.6193  19.8445  21.6196
    22.0987  23.9468  25.6444

     occupation numbers 
     1.0000   1.0000   1.0000   1.0000   1.0000   1.0000   1.0000   1.0000
     1.0000   1.0000   1.0000   1.0000   1.0000   1.0000   1.0000   1.0000
     1.0000   1.0000   1.0002   0.0000   0.0000   0.0000   0.0000   0.0000
     0.0000   0.0000   0.0000

          k = 0.1250 0.3608 0.1750 (  2102 PWs)   bands (ev):

   -84.8199 -48.1605 -48.1331 -47.9836 -41.9790 -14.0424 -13.8879 -13.8454
    -8.7131  -7.9419   3.9438   4.4605   5.3197   5.5337   6.3928   7.5692
     9.4740   9.8414  10.0354  11.4347  12.0376  15.8340  19.9217  20.8417
    22.0037  24.0400  25.3264

     occupation numbers 
     1.0000   1.0000   1.0000   1.0000   1.0000   1.0000   1.0000   1.0000
     1.0000   1.0000   1.0000   1.0000   1.0000   1.0000   1.0000   1.0000
     1.0000   1.0000   1.0003   0.0010   0.0000   0.0000   0.0000   0.0000
     0.0000   0.0000   0.0000

          k = 0.1250 0.5052 0.0000 (  2104 PWs)   bands (ev):

   -84.8186 -48.1736 -48.1383 -47.9812 -41.9702 -14.1099 -13.9128 -13.8184
    -8.2752  -8.0122   3.4368   4.4876   5.5057   5.6888   6.2117   6.8752
     9.3576   9.6963   9.9951  11.8058  12.0940  16.9803  18.7487  21.5136
    21.8154  24.2893  24.8984

     occupation numbers 
     1.0000   1.0000   1.0000   1.0000   1.0000   1.0000   1.0000   1.0000
     1.0000   1.0000   1.0000   1.0000   1.0000   1.0000   1.0000   1.0000
     1.0000   1.0000   1.0001   0.0000   0.0000   0.0000   0.0000   0.0000
     0.0000   0.0000   0.0000

          k = 0.1250 0.5052 0.1750 (  2107 PWs)   bands (ev):

   -84.8186 -48.1736 -48.1382 -47.9814 -41.9701 -14.1097 -13.9127 -13.8207
    -8.2652  -8.0211   3.4490   4.3706   5.4718   5.8090   6.2160   6.9835
     9.3476   9.7008   9.9743  11.7775  12.1248  16.9701  18.5982  20.7001
    22.4561  23.9106  25.1156

     occupation numbers 
     1.0000   1.0000   1.0000   1.0000   1.0000   1.0000   1.0000   1.0000
     1.0000   1.0000   1.0000   1.0000   1.0000   1.0000   1.0000   1.0000
     1.0000   1.0000   1.0001   0.0000   0.0000   0.0000   0.0000   0.0000
     0.0000   0.0000   0.0000

          k = 0.2500 0.4330 0.0000 (  2095 PWs)   bands (ev):

   -84.8186 -48.1670 -48.1447 -47.9812 -41.9701 -14.0741 -13.9488 -13.8186
    -8.3296  -7.9587   4.0162   4.1979   5.1344   5.7094   5.9850   7.0255
     9.4644   9.7432  10.1114  11.6463  11.8857  16.9144  19.3649  21.9669
    22.4345  23.2796  24.8444

     occupation numbers 
     1.0000   1.0000   1.0000   1.0000   1.0000   1.0000   1.0000   1.0000
     1.0000   1.0000   1.0000   1.0000   1.0000   1.0000   1.0000   1.0000
     1.0000   1.0000   1.0010   0.0000   0.0000   0.0000   0.0000   0.0000
     0.0000   0.0000   0.0000

          k = 0.2500 0.4330 0.1750 (  2101 PWs)   bands (ev):

   -84.8186 -48.1670 -48.1446 -47.9814 -41.9701 -14.0738 -13.9487 -13.8210
    -8.3272  -7.9599   4.0173   4.1009   5.1761   5.8451   5.9543   7.0316
     9.4766   9.7488  10.0510  11.7402  11.8840  16.7050  19.4276  21.6096
    21.9506  23.6777  24.7667

     occupation numbers 
     1.0000   1.0000   1.0000   1.0000   1.0000   1.0000   1.0000   1.0000
     1.0000   1.0000   1.0000   1.0000   1.0000   1.0000   1.0000   1.0000
     1.0000   1.0000   1.0004   0.0000   0.0000   0.0000   0.0000   0.0000
     0.0000   0.0000   0.0000

          k = 0.2500 0.5774 0.0000 (  2102 PWs)   bands (ev):

   -84.8180 -48.1676 -48.1517 -47.9804 -41.9664 -14.0745 -13.9865 -13.8093
    -8.0892  -8.0375   3.8427   4.2954   4.8542   5.9443   6.1698   6.5550
     9.2984   9.8810  10.0630  11.7437  11.7821  18.0100  18.5845  21.5770
    22.6854  23.7980  24.6129

     occupation numbers 
     1.0000   1.0000   1.0000   1.0000   1.0000   1.0000   1.0000   1.0000
     1.0000   1.0000   1.0000   1.0000   1.0000   1.0000   1.0000   1.0000
     1.0000   1.0000   1.0004   0.0000   0.0000   0.0000   0.0000   0.0000
     0.0000   0.0000   0.0000

          k = 0.2500 0.5774 0.1750 (  2105 PWs)   bands (ev):

   -84.8180 -48.1675 -48.1518 -47.9805 -41.9664 -14.0742 -13.9866 -13.8109
    -8.0976  -8.0293   3.8505   4.2545   4.9012   5.9152   6.2092   6.5459
     9.3107   9.8805  10.0309  11.8159  11.8699  17.7529  18.4329  21.1476
    22.9854  23.3296  24.5142

     occupation numbers 
     1.0000   1.0000   1.0000   1.0000   1.0000   1.0000   1.0000   1.0000
     1.0000   1.0000   1.0000   1.0000   1.0000   1.0000   1.0000   1.0000
     1.0000   1.0000   1.0002   0.0000   0.0000   0.0000   0.0000   0.0000
     0.0000   0.0000   0.0000

          k = 0.0000 0.1443-0.1750 (  2102 PWs)   bands (ev):

   -84.8230 -48.1281 -48.1216 -47.9889 -42.0006 -13.9089 -13.8692 -13.8312
    -9.4919  -7.9623   4.1132   4.5678   5.0055   6.9597   7.3384   7.6051
     9.3106   9.4785  10.2120  11.9825  12.3987  14.2125  17.9459  19.9489
    24.6640  26.2980  27.3972

     occupation numbers 
     1.0000   1.0000   1.0000   1.0000   1.0000   1.0000   1.0000   1.0000
     1.0000   1.0000   1.0000   1.0000   1.0000   1.0000   1.0000   1.0000
     1.0000   1.0000   1.0049   0.0000   0.0000   0.0000   0.0000   0.0000
     0.0000   0.0000   0.0000

          k = 0.0000 0.2887-0.1750 (  2100 PWs)   bands (ev):

   -84.8212 -48.1489 -48.1265 -47.9858 -41.9880 -13.9816 -13.8713 -13.8542
    -9.0644  -7.9334   4.0531   4.5486   5.2290   5.7098   6.9965   7.6507
     9.3792   9.7886  10.1129  11.5004  12.2796  14.9048  19.3000  21.0943
    22.5123  25.1576  25.6402

     occupation numbers 
     1.0000   1.0000   1.0000   1.0000   1.0000   1.0000   1.0000   1.0000
     1.0000   1.0000   1.0000   1.0000   1.0000   1.0000   1.0000   1.0000
     1.0000   1.0000   1.0011   0.0003   0.0000   0.0000   0.0000   0.0000
     0.0000   0.0000   0.0000

          k = 0.0000 0.4330-0.1750 (  2109 PWs)   bands (ev):

   -84.8193 -48.1697 -48.1315 -47.9827 -41.9753 -14.0909 -13.8771 -13.8351
    -8.5490  -7.9537   3.5177   4.4499   5.4110   5.7067   6.6695   7.1766
     9.3144   9.7268   9.9542  11.7455  12.3188  15.8212  19.5994  20.4546
    22.2459  24.5078  24.8378

     occupation numbers 
     1.0000   1.0000   1.0000   1.0000   1.0000   1.0000   1.0000   1.0000
     1.0000   1.0000   1.0000   1.0000   1.0000   1.0000   1.0000   1.0000
     1.0000   1.0000   1.0001   0.0000   0.0000   0.0000   0.0000   0.0000
     0.0000   0.0000   0.0000

          k =-0.1250 0.3608-0.1750 (  2102 PWs)   bands (ev):

   -84.8199 -48.1605 -48.1331 -47.9836 -41.9790 -14.0421 -13.8879 -13.8454
    -8.7220  -7.9316   3.9318   4.4475   5.2946   5.6167   6.3802   7.5070
     9.4969   9.8598   9.9633  11.6509  11.9850  15.6059  20.0464  20.9599
    22.3276  24.1689  24.6682

     occupation numbers 
     1.0000   1.0000   1.0000   1.0000   1.0000   1.0000   1.0000   1.0000
     1.0000   1.0000   1.0000   1.0000   1.0000   1.0000   1.0000   1.0000
     1.0000   1.0000   1.0001   0.0000   0.0000   0.0000   0.0000   0.0000
     0.0000   0.0000   0.0000

          k =-0.1250 0.5052-0.1750 (  2107 PWs)   bands (ev):

   -84.8186 -48.1736 -48.1382 -47.9814 -41.9701 -14.1096 -13.9127 -13.8207
    -8.2864  -7.9987   3.4259   4.3897   5.5007   5.8028   6.2363   6.9162
     9.3620   9.6977   9.9573  11.8946  12.0984  16.6883  18.8140  20.9185
    22.5297  23.7349  24.9925

     occupation numbers 
     1.0000   1.0000   1.0000   1.0000   1.0000   1.0000   1.0000   1.0000
     1.0000   1.0000   1.0000   1.0000   1.0000   1.0000   1.0000   1.0000
     1.0000   1.0000   1.0001   0.0000   0.0000   0.0000   0.0000   0.0000
     0.0000   0.0000   0.0000

     the Fermi energy is    10.9493 ev

     WARNING: integrated charge=    38.00411251, expected=    38.00000000

!    total energy              =    -569.36594513 Ry
     total all-electron energy =     -3412.856500 Ry
     estimated scf accuracy    <       0.00000003 Ry
     smearing contrib. (-TS)   =       0.00006222 Ry
     internal energy E=F+TS    =    -569.36600735 Ry

     The total energy is F=E-TS. E is the sum of the following terms:
     one-electron contribution =    -309.48401985 Ry
     hartree contribution      =     176.50659715 Ry
     xc contribution           =     -60.41978596 Ry
     ewald contribution        =    -254.05010091 Ry
     one-center paw contrib.   =    -121.91869779 Ry
      -> PAW hartree energy AE =     346.51600307 Ry
      -> PAW hartree energy PS =    -346.49007004 Ry
      -> PAW xc energy AE      =    -179.33532042 Ry
      -> PAW xc energy PS      =      57.39068961 Ry
      -> total E_H with PAW    =     176.53253018 Ry
      -> total E_XC with PAW   =    -182.36441677 Ry

     total magnetization       =    -0.00 Bohr mag/cell
     absolute magnetization    =     0.00 Bohr mag/cell

     convergence has been achieved in  22 iterations

     Forces acting on atoms (cartesian axes, Ry/au):

     atom    1 type  1   force =     0.00000000    0.00000000    0.00000000
     atom    2 type  2   force =     0.00000000    0.00000000    0.03591912
     atom    3 type  2   force =     0.00000000    0.00000000   -0.03591912
     atom    4 type  3   force =    -0.00000000   -0.00000000    0.00000000
     The non-local contrib.  to forces
     atom    1 type  1   force =     0.00000000    0.00000000    0.00000000
     atom    2 type  2   force =     0.00000000    0.00000000   -0.56942118
     atom    3 type  2   force =    -0.00000000   -0.00000000    0.56942118
     atom    4 type  3   force =     0.00000000   -0.00000000    0.00000000
     The ionic contribution  to forces
     atom    1 type  1   force =    -0.00000000   -0.00000000   -0.00000000
     atom    2 type  2   force =     0.00000000   -0.00000000   18.60875347
     atom    3 type  2   force =    -0.00000000    0.00000000  -18.60875347
     atom    4 type  3   force =    -0.00000000   -0.00000000    0.00000000
     The local contribution  to forces
     atom    1 type  1   force =    -0.00000000   -0.00000000   -0.00000000
     atom    2 type  2   force =     0.00000001   -0.00000001  -18.00830516
     atom    3 type  2   force =    -0.00000001    0.00000001   18.00830516
     atom    4 type  3   force =    -0.00000000   -0.00000000   -0.00000000
     The core correction contribution to forces
     atom    1 type  1   force =    -0.00000000   -0.00000000    0.00000000
     atom    2 type  2   force =    -0.00000000    0.00000000    0.00486891
     atom    3 type  2   force =     0.00000000   -0.00000000   -0.00486891
     atom    4 type  3   force =    -0.00000000   -0.00000000   -0.00000000
     The Hubbard contrib.    to forces
     atom    1 type  1   force =     0.00000000    0.00000000    0.00000000
     atom    2 type  2   force =     0.00000000    0.00000000    0.00000000
     atom    3 type  2   force =     0.00000000    0.00000000    0.00000000
     atom    4 type  3   force =     0.00000000    0.00000000    0.00000000
     The SCF correction term to forces
     atom    1 type  1   force =    -0.00000000    0.00000000   -0.00000000
     atom    2 type  2   force =    -0.00000000    0.00000000    0.00002308
     atom    3 type  2   force =     0.00000000   -0.00000000   -0.00002308
     atom    4 type  3   force =     0.00000000   -0.00000000    0.00000000

     Total force =     0.050797     Total SCF correction =     0.000033

     Writing all to output data dir ./out/pw.save/ :
     XML data file, charge density, pseudopotentials, collected wavefunctions
 
     init_run     :      9.74s CPU      2.45s WALL (       1 calls)
     electrons    :    107.88s CPU     27.42s WALL (       1 calls)
     forces       :      0.57s CPU      0.53s WALL (       1 calls)

     Called by init_run:
     wfcinit      :      0.33s CPU      0.38s WALL (       1 calls)
     wfcinit:atom :      0.04s CPU      0.04s WALL (      50 calls)
     wfcinit:wfcr :      0.24s CPU      0.27s WALL (      50 calls)
     potinit      :      8.88s CPU      1.52s WALL (       1 calls)
     hinit0       :      0.44s CPU      0.43s WALL (       1 calls)

     Called by electrons:
     c_bands      :     12.63s CPU     12.45s WALL (      22 calls)
     sum_band     :      2.32s CPU      2.25s WALL (      22 calls)
     v_of_rho     :      0.35s CPU      0.16s WALL (      23 calls)
     v_h          :      0.25s CPU      0.03s WALL (      23 calls)
     v_xc         :      0.10s CPU      0.14s WALL (      24 calls)
     newd         :      0.50s CPU      0.40s WALL (      23 calls)
                                        0.40s GPU  (      23 calls)
     PAW_pot      :     95.29s CPU     12.14s WALL (      23 calls)
     mix_rho      :      0.59s CPU      0.57s WALL (      22 calls)

     Called by c_bands:
     init_us_2    :      0.92s CPU      0.88s WALL (    2300 calls)
     cegterg      :     11.06s CPU     10.94s WALL (    1100 calls)

     Called by sum_band:
     sum_band:wei :      0.04s CPU      0.04s WALL (      22 calls)
                                        0.04s GPU  (      22 calls)
     sum_band:loo :      1.47s CPU      1.40s WALL (      22 calls)
                                        1.40s GPU  (      22 calls)
     sum_band:buf :      0.13s CPU      0.15s WALL (    1100 calls)
                                        0.14s GPU  (    1100 calls)
     sum_band:ini :      0.44s CPU      0.43s WALL (    1100 calls)
                                        0.42s GPU  (    1100 calls)
     sum_band:cal :      0.04s CPU      0.06s WALL (    1100 calls)
                                        0.05s GPU  (    1100 calls)
     sum_band:bec :      0.24s CPU      0.26s WALL (    1100 calls)
                                        0.24s GPU  (    1100 calls)
     addusdens    :      0.71s CPU      0.71s WALL (      22 calls)
                                        0.71s GPU  (      22 calls)
     addusd:skk   :      0.00s CPU      0.00s WALL (      66 calls)
                                        0.00s GPU  (      66 calls)

     Called by *egterg:
     cdiaghg      :      3.95s CPU      4.08s WALL (    4577 calls)
                                        4.03s GPU  (    4577 calls)
     cegterg:over :      0.64s CPU      0.66s WALL (    3477 calls)
     cegterg:upda :      0.65s CPU      0.65s WALL (    3477 calls)
     cegterg:last :      0.11s CPU      0.10s WALL (    1899 calls)
     h_psi        :      4.05s CPU      3.94s WALL (    4627 calls)
                                        3.88s GPU  (    4627 calls)
     s_psi        :      0.70s CPU      0.73s WALL (    4627 calls)
     g_psi        :      0.02s CPU      0.08s WALL (    3477 calls)
                                        0.04s GPU  (    3477 calls)

     Called by h_psi:
     h_psi:calbec :      0.13s CPU      0.24s WALL (    4627 calls)
                                        0.18s GPU  (    4627 calls)
     vloc_psi     :      2.82s CPU      2.65s WALL (    4627 calls)
                                        2.59s GPU  (    4627 calls)
     add_vuspsi   :      0.63s CPU      0.74s WALL (    4627 calls)
                                        0.68s GPU  (    4627 calls)

     General routines
     calbec       :      0.15s CPU      0.17s WALL (    5927 calls)
     fft          :      2.94s CPU      0.59s WALL (     588 calls)
                                        0.02s GPU  (     542 calls)
     ffts         :      1.94s CPU      0.36s WALL (     753 calls)
                                        0.02s GPU  (     707 calls)
     fftw         :      0.33s CPU      0.93s WALL (   15954 calls)
                                        0.75s GPU  (   15954 calls)
     interpolate  :      4.97s CPU      0.92s WALL (      46 calls)
 
     Parallel routines

     PAW routines
     PAW_pot      :     95.29s CPU     12.14s WALL (      23 calls)
     PAW_symme    :      0.03s CPU      0.01s WALL (      45 calls)
 
     PWSCF        :   1m59.03s CPU     30.91s WALL

 
   This run was terminated on:   3:16:11  12Jul2026            

=------------------------------------------------------------------------------=
   JOB DONE.
=------------------------------------------------------------------------------=
Warning: ieee_divide_by_zero is signaling
Warning: ieee_inexact is signaling
FORTRAN STOP
