
     Program PWSCF v.7.3.1 starts on 12Jul2026 at  5:35:47 

     This program is part of the open-source Quantum ESPRESSO suite
     for quantum simulation of materials; please cite
         "P. Giannozzi et al., J. Phys.:Condens. Matter 21 395502 (2009);
         "P. Giannozzi et al., J. Phys.:Condens. Matter 29 465901 (2017);
         "P. Giannozzi et al., J. Chem. Phys. 152 154105 (2020);
          URL http://www.quantum-espresso.org", 
     in publications or presentations arising from this work. More details at
     http://www.quantum-espresso.org/quote

     Parallel version (MPI & OpenMP), running on      14 processor cores
     Number of MPI processes:                 1
     Threads/MPI process:                    14

     MPI processes distributed on     1 nodes
     1358838 MiB available memory on the printing compute node when the environment starts
 
     Reading input from pw.in

     Current dimensions of program PWSCF are:
     Max number of different atomic species (ntypx) = 10
     Max number of k-points (npk) =  40000
     Max angular momentum in pseudopotentials (lmaxx) =  4
     file Co.pbe-spn-kjpaw_psl.0.3.1.UPF: wavefunction(s)  3P 3D renormalized
     file O.pbe-n-kjpaw_psl.1.0.0.UPF: wavefunction(s)  2S 2P renormalized
     file K.pbe-spn-kjpaw_psl.1.0.0.UPF: wavefunction(s)  3S renormalized
 
     Subspace diagonalization in iterative solution of the eigenvalue problem:
     a serial algorithm will be used

 
     G-vector sticks info
     --------------------
     sticks:   dense  smooth     PW     G-vecs:    dense   smooth      PW
     Sum        1003     499    151                47935    16953    2771
 
     Using Slab Decomposition
 


     bravais-lattice index     =            4
     lattice parameter (alat)  =       5.4802  a.u.
     unit-cell volume          =     270.3248 (a.u.)^3
     number of atoms/cell      =            4
     number of atomic types    =            3
     number of electrons       =        38.00
     number of Kohn-Sham states=           27
     kinetic-energy cutoff     =      60.0000  Ry
     charge density cutoff     =     480.0000  Ry
     scf convergence threshold =      1.0E-07
     mixing beta               =       0.3000
     number of iterations used =            8  local-TF  mixing
     Exchange-correlation= SLA  PW   PBX  PBC
                           (   1   4   3   4   0   0   0)

     GPU acceleration is ACTIVE.  1 visible GPUs per MPI rank
     GPU-aware MPI enabled


     GPU used by master process:

        Device Number: 0
        Device name: NVIDIA A100-SXM4-80GB
        Compute capability : 80
        Ratio of single to double precision performance  : 2
        Memory Clock Rate (KHz): 1593000
        Memory Bus Width (bits): 5120
        Peak Memory Bandwidth (GB/s): ******

     celldm(1)=   5.480206  celldm(2)=   0.000000  celldm(3)=   1.896552
     celldm(4)=   0.000000  celldm(5)=   0.000000  celldm(6)=   0.000000

     crystal axes: (cart. coord. in units of alat)
               a(1) = (   1.000000   0.000000   0.000000 )  
               a(2) = (  -0.500000   0.866025   0.000000 )  
               a(3) = (   0.000000   0.000000   1.896552 )  

     reciprocal axes: (cart. coord. in units 2 pi/alat)
               b(1) = (  1.000000  0.577350 -0.000000 )  
               b(2) = (  0.000000  1.154701  0.000000 )  
               b(3) = (  0.000000 -0.000000  0.527273 )  


     PseudoPot. # 1 for Co read from file:
     ../../pseudo/Co.pbe-spn-kjpaw_psl.0.3.1.UPF
     MD5 check sum: 3c0a43779828c046024e4f3be63f8e67
     Pseudo is Projector augmented-wave + core cor, Zval = 17.0
     Generated using &quot;atomic&quot; code by A. Dal Corso  v.6.2.2
     Shape of augmentation charge: PSQ
     Using radial grid of 1193 points,  6 beta functions with: 
                l(1) =   0
                l(2) =   0
                l(3) =   1
                l(4) =   1
                l(5) =   2
                l(6) =   2
     Q(r) pseudized with 0 coefficients 


     PseudoPot. # 2 for O  read from file:
     ../../pseudo/O.pbe-n-kjpaw_psl.1.0.0.UPF
     MD5 check sum: e99d9cef9b487d1ca56f5b95ecd0fd7a
     Pseudo is Projector augmented-wave + core cor, Zval =  6.0
     Generated using &quot;atomic&quot; code by A. Dal Corso  v.6.3
     Shape of augmentation charge: PSQ
     Using radial grid of 1095 points,  4 beta functions with: 
                l(1) =   0
                l(2) =   0
                l(3) =   1
                l(4) =   1
     Q(r) pseudized with 0 coefficients 


     PseudoPot. # 3 for K  read from file:
     ../../pseudo/K.pbe-spn-kjpaw_psl.1.0.0.UPF
     MD5 check sum: 34cc42130a09071ebe376fd42eb21491
     Pseudo is Projector augmented-wave + core cor, Zval =  9.0
     Generated using &quot;atomic&quot; code by A. Dal Corso  v.6.2.2
     Shape of augmentation charge: PSQ
     Using radial grid of 1165 points,  6 beta functions with: 
                l(1) =   0
                l(2) =   0
                l(3) =   1
                l(4) =   1
                l(5) =   2
                l(6) =   2
     Q(r) pseudized with 0 coefficients 


     atomic species   valence    mass     pseudopotential
     Co               17.00    58.93300     Co( 1.00)
     O                 6.00    15.99900     O ( 1.00)
     K                 9.00    39.09830     K ( 1.00)

     Starting magnetic structure 
     atomic species   magnetization
     Co              0.300
     O               0.000
     K               0.000

      6 Sym. Ops. (no inversion) found


                                    s                        frac. trans.

      isym =  1     identity                                     

 cryst.   s( 1) = (     1          0          0      )
                  (     0          1          0      )
                  (     0          0          1      )

 cart.    s( 1) = (  1.0000000  0.0000000  0.0000000 )
                  (  0.0000000  1.0000000  0.0000000 )
                  (  0.0000000  0.0000000  1.0000000 )


      isym =  2     120 deg rotation - cryst. axis [0,0,1]       

 cryst.   s( 2) = (     0          1          0      )
                  (    -1         -1          0      )
                  (     0          0          1      )

 cart.    s( 2) = ( -0.5000000 -0.8660254  0.0000000 )
                  (  0.8660254 -0.5000000  0.0000000 )
                  (  0.0000000  0.0000000  1.0000000 )


      isym =  3     120 deg rotation - cryst. axis [0,0,-1]      

 cryst.   s( 3) = (    -1         -1          0      )
                  (     1          0          0      )
                  (     0          0          1      )

 cart.    s( 3) = ( -0.5000000  0.8660254  0.0000000 )
                  ( -0.8660254 -0.5000000  0.0000000 )
                  (  0.0000000  0.0000000  1.0000000 )


      isym =  4     inv. 180 deg rotation - cart. axis [1,0,0]   

 cryst.   s( 4) = (    -1          0          0      )
                  (     1          1          0      )
                  (     0          0          1      )

 cart.    s( 4) = ( -1.0000000  0.0000000  0.0000000 )
                  (  0.0000000  1.0000000  0.0000000 )
                  (  0.0000000  0.0000000  1.0000000 )


      isym =  5     inv. 180 deg rotation - cryst. axis [0,1,0]  

 cryst.   s( 5) = (     1          1          0      )
                  (     0         -1          0      )
                  (     0          0          1      )

 cart.    s( 5) = (  0.5000000  0.8660254  0.0000000 )
                  (  0.8660254 -0.5000000  0.0000000 )
                  (  0.0000000  0.0000000  1.0000000 )


      isym =  6     inv. 180 deg rotation - cryst. axis [1,1,0]  

 cryst.   s( 6) = (     0         -1          0      )
                  (    -1          0          0      )
                  (     0          0          1      )

 cart.    s( 6) = (  0.5000000 -0.8660254  0.0000000 )
                  ( -0.8660254 -0.5000000  0.0000000 )
                  (  0.0000000  0.0000000  1.0000000 )


     point group C_3v (3m)  
     there are  3 classes
     the character table:

       E     2C3   3s_v 
A_1    1.00  1.00  1.00
A_2    1.00  1.00 -1.00
E      2.00 -1.00  0.00

     the symmetry operations in each class and the name of the first element:

     E        1
          identity                                               
     2C3      2    3
          120 deg rotation - cryst. axis [0,0,1]                 
     3s_v     4    5    6
          inv. 180 deg rotation - cart. axis [1,0,0]             

   Cartesian axes

     site n.     atom                  positions (alat units)
         1        Co     tau(   1) = (   0.0000000   0.0000000   0.0000000  )
         2        O      tau(   2) = (  -0.0000000   0.5773503   0.3310345  )
         3        O      tau(   3) = (   0.5000000   0.2886751   1.5655172  )
         4        K      tau(   4) = (   0.0000000   0.0000000   1.0517241  )

   Crystallographic axes

     site n.     atom                  positions (cryst. coord.)
         1        Co     tau(   1) = (  0.0000000  0.0000000  0.0000000  )
         2        O      tau(   2) = (  0.3333333  0.6666667  0.1745455  )
         3        O      tau(   3) = (  0.6666667  0.3333333  0.8254545  )
         4        K      tau(   4) = (  0.0000000  0.0000000  0.5545455  )

     number of k points=    25  Marzari-Vanderbilt smearing, width (Ry)=  0.0200
                       cart. coord. in units 2pi/alat
        k(    1) = (   0.0000000   0.0000000   0.0000000), wk =   0.0052083
        k(    2) = (   0.0000000   0.0000000   0.1757576), wk =   0.0104167
        k(    3) = (   0.0000000   0.1443376   0.0000000), wk =   0.0312500
        k(    4) = (   0.0000000   0.1443376   0.1757576), wk =   0.0312500
        k(    5) = (   0.0000000   0.2886751   0.0000000), wk =   0.0312500
        k(    6) = (   0.0000000   0.2886751   0.1757576), wk =   0.0312500
        k(    7) = (   0.0000000   0.4330127   0.0000000), wk =   0.0312500
        k(    8) = (   0.0000000   0.4330127   0.1757576), wk =   0.0312500
        k(    9) = (   0.0000000  -0.5773503   0.0000000), wk =   0.0156250
        k(   10) = (   0.0000000  -0.5773503   0.1757576), wk =   0.0312500
        k(   11) = (   0.1250000   0.2165064   0.0000000), wk =   0.0312500
        k(   12) = (   0.1250000   0.2165064   0.1757576), wk =   0.0625000
        k(   13) = (   0.1250000   0.3608439   0.0000000), wk =   0.0625000
        k(   14) = (   0.1250000   0.3608439   0.1757576), wk =   0.0625000
        k(   15) = (   0.1250000   0.5051815   0.0000000), wk =   0.0625000
        k(   16) = (   0.1250000   0.5051815   0.1757576), wk =   0.0625000
        k(   17) = (   0.2500000   0.4330127   0.0000000), wk =   0.0312500
        k(   18) = (   0.2500000   0.4330127   0.1757576), wk =   0.0625000
        k(   19) = (   0.2500000   0.5773503   0.0000000), wk =   0.0312500
        k(   20) = (   0.2500000   0.5773503   0.1757576), wk =   0.0625000
        k(   21) = (   0.0000000  -0.1443376   0.1757576), wk =   0.0312500
        k(   22) = (   0.0000000  -0.2886751   0.1757576), wk =   0.0312500
        k(   23) = (   0.0000000  -0.4330127   0.1757576), wk =   0.0312500
        k(   24) = (  -0.1250000  -0.3608439   0.1757576), wk =   0.0625000
        k(   25) = (  -0.1250000  -0.5051815   0.1757576), wk =   0.0625000

                       cryst. coord.
        k(    1) = (   0.0000000   0.0000000   0.0000000), wk =   0.0052083
        k(    2) = (   0.0000000   0.0000000   0.3333333), wk =   0.0104167
        k(    3) = (   0.0000000   0.1250000   0.0000000), wk =   0.0312500
        k(    4) = (   0.0000000   0.1250000   0.3333333), wk =   0.0312500
        k(    5) = (   0.0000000   0.2500000   0.0000000), wk =   0.0312500
        k(    6) = (   0.0000000   0.2500000   0.3333333), wk =   0.0312500
        k(    7) = (   0.0000000   0.3750000   0.0000000), wk =   0.0312500
        k(    8) = (   0.0000000   0.3750000   0.3333333), wk =   0.0312500
        k(    9) = (   0.0000000  -0.5000000   0.0000000), wk =   0.0156250
        k(   10) = (   0.0000000  -0.5000000   0.3333333), wk =   0.0312500
        k(   11) = (   0.1250000   0.1250000   0.0000000), wk =   0.0312500
        k(   12) = (   0.1250000   0.1250000   0.3333333), wk =   0.0625000
        k(   13) = (   0.1250000   0.2500000   0.0000000), wk =   0.0625000
        k(   14) = (   0.1250000   0.2500000   0.3333333), wk =   0.0625000
        k(   15) = (   0.1250000   0.3750000   0.0000000), wk =   0.0625000
        k(   16) = (   0.1250000   0.3750000   0.3333333), wk =   0.0625000
        k(   17) = (   0.2500000   0.2500000   0.0000000), wk =   0.0312500
        k(   18) = (   0.2500000   0.2500000   0.3333333), wk =   0.0625000
        k(   19) = (   0.2500000   0.3750000   0.0000000), wk =   0.0312500
        k(   20) = (   0.2500000   0.3750000   0.3333333), wk =   0.0625000
        k(   21) = (   0.0000000  -0.1250000   0.3333333), wk =   0.0312500
        k(   22) = (   0.0000000  -0.2500000   0.3333333), wk =   0.0312500
        k(   23) = (   0.0000000  -0.3750000   0.3333333), wk =   0.0312500
        k(   24) = (  -0.1250000  -0.2500000   0.3333333), wk =   0.0625000
        k(   25) = (  -0.1250000  -0.3750000   0.3333333), wk =   0.0625000

     Dense  grid:    47935 G-vectors     FFT dimensions: (  40,  40,  75)

     Smooth grid:    16953 G-vectors     FFT dimensions: (  27,  27,  54)

     Dynamical RAM for                 wfc:       0.87 MB

     Dynamical RAM for     wfc (w. buffer):      44.59 MB

     Dynamical RAM for           str. fact:       2.19 MB

     Dynamical RAM for           local pot:       0.00 MB

     Dynamical RAM for          nlocal pot:       1.68 MB

     Dynamical RAM for                qrad:       5.27 MB

     Dynamical RAM for          rho,v,vnew:       9.88 MB

     Dynamical RAM for               rhoin:       3.29 MB

     Dynamical RAM for            rho*nmix:      23.41 MB

     Dynamical RAM for           G-vectors:       2.87 MB

     Dynamical RAM for          h,s,v(r/c):       0.13 MB

     Dynamical RAM for          <psi|beta>:       0.02 MB

     Dynamical RAM for                 psi:       1.75 MB

     Dynamical RAM for                hpsi:       1.75 MB

     Dynamical RAM for                spsi:       1.75 MB

     Dynamical RAM for      wfcinit/wfcrot:       1.77 MB

     Dynamical RAM for           addusdens:     138.24 MB

     Dynamical RAM for          addusforce:     139.72 MB

     Estimated static dynamical RAM per process >      78.20 MB

     Estimated max dynamical RAM per process >     241.33 MB

     Check: negative core charge=   -0.000009
     Generating pointlists ...
     new r_m :   0.2745 (alat units)  1.5045 (a.u.) for type    1
     new r_m :   0.2745 (alat units)  1.5045 (a.u.) for type    2
     new r_m :   0.3188 (alat units)  1.7471 (a.u.) for type    3

     Initial potential from superposition of free atoms

     starting charge      37.9809, renormalised to      38.0000
     Starting wfcs are   26 randomized atomic wfcs +    1 random wfcs
     Checking if some PAW data can be deallocated... 

     total cpu time spent up to now is        3.4 secs

     Self-consistent Calculation
[tb_dev] Currently allocated     6.58E-01 Mbytes, locked:    0 /   6
[tb_pin] Currently allocated     0.00E+00 Mbytes, locked:    0 /   0

     iteration #  1     ecut=    60.00 Ry     beta= 0.30
     Davidson diagonalization with overlap

---- Real-time Memory Report at c_bands before calling an iterative solver
           668 MiB given to the printing process from OS
             0 MiB allocation reported by mallinfo(arena+hblkhd)
       1354078 MiB available memory on the node where the printing process lives
     GPU memory used/free/total (MiB): 926 / 80224 / 81151
------------------
     ethr =  1.00E-02,  avg # of iterations = 10.1

     total cpu time spent up to now is        5.7 secs

     total energy              =    -572.79608254 Ry
     estimated scf accuracy    <       1.53945286 Ry

     total magnetization       =     4.00 Bohr mag/cell
     absolute magnetization    =     4.00 Bohr mag/cell
[tb_dev] Currently allocated     3.05E-05 Mbytes, locked:    0 /   2
[tb_pin] Currently allocated     0.00E+00 Mbytes, locked:    0 /   0

     iteration #  2     ecut=    60.00 Ry     beta= 0.30
     Davidson diagonalization with overlap

---- Real-time Memory Report at c_bands before calling an iterative solver
           711 MiB given to the printing process from OS
             0 MiB allocation reported by mallinfo(arena+hblkhd)
       1350939 MiB available memory on the node where the printing process lives
     GPU memory used/free/total (MiB): 938 / 80212 / 81151
------------------
     ethr =  4.05E-03,  avg # of iterations =  1.8

     total cpu time spent up to now is        7.0 secs

     total energy              =    -572.72160064 Ry
     estimated scf accuracy    <       0.51327618 Ry

     total magnetization       =     4.06 Bohr mag/cell
     absolute magnetization    =     4.06 Bohr mag/cell
[tb_dev] Currently allocated     3.05E-05 Mbytes, locked:    0 /   2
[tb_pin] Currently allocated     0.00E+00 Mbytes, locked:    0 /   0

     iteration #  3     ecut=    60.00 Ry     beta= 0.30
     Davidson diagonalization with overlap

---- Real-time Memory Report at c_bands before calling an iterative solver
           712 MiB given to the printing process from OS
             0 MiB allocation reported by mallinfo(arena+hblkhd)
       1349067 MiB available memory on the node where the printing process lives
     GPU memory used/free/total (MiB): 938 / 80212 / 81151
------------------
     ethr =  1.35E-03,  avg # of iterations =  2.6

     total cpu time spent up to now is        8.4 secs

     total energy              =    -572.95787210 Ry
     estimated scf accuracy    <       1.14020170 Ry

     total magnetization       =     1.34 Bohr mag/cell
     absolute magnetization    =     1.54 Bohr mag/cell
[tb_dev] Currently allocated     3.05E-05 Mbytes, locked:    0 /   2
[tb_pin] Currently allocated     0.00E+00 Mbytes, locked:    0 /   0

     iteration #  4     ecut=    60.00 Ry     beta= 0.30
     Davidson diagonalization with overlap

---- Real-time Memory Report at c_bands before calling an iterative solver
           713 MiB given to the printing process from OS
             0 MiB allocation reported by mallinfo(arena+hblkhd)
       1346622 MiB available memory on the node where the printing process lives
     GPU memory used/free/total (MiB): 938 / 80212 / 81151
------------------
     ethr =  1.35E-03,  avg # of iterations =  1.2

     total cpu time spent up to now is        9.6 secs

     total energy              =    -573.07528625 Ry
     estimated scf accuracy    <       1.45050321 Ry

     total magnetization       =     1.18 Bohr mag/cell
     absolute magnetization    =     1.44 Bohr mag/cell
[tb_dev] Currently allocated     3.05E-05 Mbytes, locked:    0 /   2
[tb_pin] Currently allocated     0.00E+00 Mbytes, locked:    0 /   0

     iteration #  5     ecut=    60.00 Ry     beta= 0.30
     Davidson diagonalization with overlap

---- Real-time Memory Report at c_bands before calling an iterative solver
           714 MiB given to the printing process from OS
             0 MiB allocation reported by mallinfo(arena+hblkhd)
       1344816 MiB available memory on the node where the printing process lives
     GPU memory used/free/total (MiB): 938 / 80212 / 81151
------------------
     ethr =  1.35E-03,  avg # of iterations =  1.7

     total cpu time spent up to now is       10.9 secs

     total energy              =    -573.05556724 Ry
     estimated scf accuracy    <       2.25774705 Ry

     total magnetization       =     0.39 Bohr mag/cell
     absolute magnetization    =     1.07 Bohr mag/cell
[tb_dev] Currently allocated     3.05E-05 Mbytes, locked:    0 /   2
[tb_pin] Currently allocated     0.00E+00 Mbytes, locked:    0 /   0

     iteration #  6     ecut=    60.00 Ry     beta= 0.30
     Davidson diagonalization with overlap

---- Real-time Memory Report at c_bands before calling an iterative solver
           715 MiB given to the printing process from OS
             0 MiB allocation reported by mallinfo(arena+hblkhd)
       1342621 MiB available memory on the node where the printing process lives
     GPU memory used/free/total (MiB): 938 / 80212 / 81151
------------------
     ethr =  1.35E-03,  avg # of iterations =  1.1

     total cpu time spent up to now is       12.1 secs

     total energy              =    -573.03612882 Ry
     estimated scf accuracy    <       1.63938030 Ry

     total magnetization       =     0.32 Bohr mag/cell
     absolute magnetization    =     1.05 Bohr mag/cell
[tb_dev] Currently allocated     3.05E-05 Mbytes, locked:    0 /   2
[tb_pin] Currently allocated     0.00E+00 Mbytes, locked:    0 /   0

     iteration #  7     ecut=    60.00 Ry     beta= 0.30
     Davidson diagonalization with overlap

---- Real-time Memory Report at c_bands before calling an iterative solver
           717 MiB given to the printing process from OS
             0 MiB allocation reported by mallinfo(arena+hblkhd)
       1360654 MiB available memory on the node where the printing process lives
     GPU memory used/free/total (MiB): 938 / 80212 / 81151
------------------
     ethr =  1.35E-03,  avg # of iterations =  1.4

     total cpu time spent up to now is       13.4 secs

     total energy              =    -573.02502754 Ry
     estimated scf accuracy    <       1.29328659 Ry

     total magnetization       =     0.28 Bohr mag/cell
     absolute magnetization    =     1.02 Bohr mag/cell
[tb_dev] Currently allocated     3.05E-05 Mbytes, locked:    0 /   2
[tb_pin] Currently allocated     0.00E+00 Mbytes, locked:    0 /   0

     iteration #  8     ecut=    60.00 Ry     beta= 0.30
     Davidson diagonalization with overlap

---- Real-time Memory Report at c_bands before calling an iterative solver
           718 MiB given to the printing process from OS
             0 MiB allocation reported by mallinfo(arena+hblkhd)
       1360235 MiB available memory on the node where the printing process lives
     GPU memory used/free/total (MiB): 938 / 80212 / 81151
------------------
     ethr =  1.35E-03,  avg # of iterations =  1.4

     total cpu time spent up to now is       14.6 secs

     total energy              =    -572.89395724 Ry
     estimated scf accuracy    <       1.23146317 Ry

     total magnetization       =     0.52 Bohr mag/cell
     absolute magnetization    =     1.06 Bohr mag/cell
[tb_dev] Currently allocated     3.05E-05 Mbytes, locked:    0 /   2
[tb_pin] Currently allocated     0.00E+00 Mbytes, locked:    0 /   0

     iteration #  9     ecut=    60.00 Ry     beta= 0.30
     Davidson diagonalization with overlap

---- Real-time Memory Report at c_bands before calling an iterative solver
           720 MiB given to the printing process from OS
             0 MiB allocation reported by mallinfo(arena+hblkhd)
       1359198 MiB available memory on the node where the printing process lives
     GPU memory used/free/total (MiB): 938 / 80212 / 81151
------------------
     ethr =  1.35E-03,  avg # of iterations =  1.7

     total cpu time spent up to now is       15.9 secs

     total energy              =    -572.98977061 Ry
     estimated scf accuracy    <       0.09855016 Ry

     total magnetization       =     0.00 Bohr mag/cell
     absolute magnetization    =     0.27 Bohr mag/cell
[tb_dev] Currently allocated     3.05E-05 Mbytes, locked:    0 /   2
[tb_pin] Currently allocated     0.00E+00 Mbytes, locked:    0 /   0

     iteration # 10     ecut=    60.00 Ry     beta= 0.30
     Davidson diagonalization with overlap

---- Real-time Memory Report at c_bands before calling an iterative solver
           721 MiB given to the printing process from OS
             0 MiB allocation reported by mallinfo(arena+hblkhd)
       1358128 MiB available memory on the node where the printing process lives
     GPU memory used/free/total (MiB): 938 / 80212 / 81151
------------------
     ethr =  2.59E-04,  avg # of iterations =  5.7

     total cpu time spent up to now is       17.7 secs

     total energy              =    -573.00466837 Ry
     estimated scf accuracy    <       0.01206054 Ry

     total magnetization       =     0.00 Bohr mag/cell
     absolute magnetization    =     0.20 Bohr mag/cell
[tb_dev] Currently allocated     3.05E-05 Mbytes, locked:    0 /   2
[tb_pin] Currently allocated     0.00E+00 Mbytes, locked:    0 /   0

     iteration # 11     ecut=    60.00 Ry     beta= 0.30
     Davidson diagonalization with overlap

---- Real-time Memory Report at c_bands before calling an iterative solver
           721 MiB given to the printing process from OS
             0 MiB allocation reported by mallinfo(arena+hblkhd)
       1356364 MiB available memory on the node where the printing process lives
     GPU memory used/free/total (MiB): 938 / 80212 / 81151
------------------
     ethr =  3.17E-05,  avg # of iterations =  7.5

     total cpu time spent up to now is       19.6 secs

     total energy              =    -573.00738416 Ry
     estimated scf accuracy    <       0.00628832 Ry

     total magnetization       =     0.00 Bohr mag/cell
     absolute magnetization    =     0.17 Bohr mag/cell
[tb_dev] Currently allocated     3.05E-05 Mbytes, locked:    0 /   2
[tb_pin] Currently allocated     0.00E+00 Mbytes, locked:    0 /   0

     iteration # 12     ecut=    60.00 Ry     beta= 0.30
     Davidson diagonalization with overlap

---- Real-time Memory Report at c_bands before calling an iterative solver
           721 MiB given to the printing process from OS
             0 MiB allocation reported by mallinfo(arena+hblkhd)
       1354613 MiB available memory on the node where the printing process lives
     GPU memory used/free/total (MiB): 938 / 80212 / 81151
------------------
     ethr =  1.65E-05,  avg # of iterations =  1.7

     total cpu time spent up to now is       20.9 secs

     total energy              =    -573.00403210 Ry
     estimated scf accuracy    <       0.00771354 Ry

     total magnetization       =     0.00 Bohr mag/cell
     absolute magnetization    =     0.23 Bohr mag/cell
[tb_dev] Currently allocated     3.05E-05 Mbytes, locked:    0 /   2
[tb_pin] Currently allocated     0.00E+00 Mbytes, locked:    0 /   0

     iteration # 13     ecut=    60.00 Ry     beta= 0.30
     Davidson diagonalization with overlap

---- Real-time Memory Report at c_bands before calling an iterative solver
           721 MiB given to the printing process from OS
             0 MiB allocation reported by mallinfo(arena+hblkhd)
       1353045 MiB available memory on the node where the printing process lives
     GPU memory used/free/total (MiB): 938 / 80212 / 81151
------------------
     ethr =  1.65E-05,  avg # of iterations =  3.1

     total cpu time spent up to now is       22.4 secs

     total energy              =    -573.01125082 Ry
     estimated scf accuracy    <       0.01679771 Ry

     total magnetization       =     0.00 Bohr mag/cell
     absolute magnetization    =     0.15 Bohr mag/cell
[tb_dev] Currently allocated     3.05E-05 Mbytes, locked:    0 /   2
[tb_pin] Currently allocated     0.00E+00 Mbytes, locked:    0 /   0

     iteration # 14     ecut=    60.00 Ry     beta= 0.30
     Davidson diagonalization with overlap

---- Real-time Memory Report at c_bands before calling an iterative solver
           722 MiB given to the printing process from OS
             0 MiB allocation reported by mallinfo(arena+hblkhd)
       1351291 MiB available memory on the node where the printing process lives
     GPU memory used/free/total (MiB): 938 / 80212 / 81151
------------------
     ethr =  1.65E-05,  avg # of iterations =  4.7

     total cpu time spent up to now is       24.1 secs

     total energy              =    -573.00887396 Ry
     estimated scf accuracy    <       0.04048281 Ry

     total magnetization       =     0.00 Bohr mag/cell
     absolute magnetization    =     0.10 Bohr mag/cell
[tb_dev] Currently allocated     3.05E-05 Mbytes, locked:    0 /   2
[tb_pin] Currently allocated     0.00E+00 Mbytes, locked:    0 /   0

     iteration # 15     ecut=    60.00 Ry     beta= 0.30
     Davidson diagonalization with overlap

---- Real-time Memory Report at c_bands before calling an iterative solver
           722 MiB given to the printing process from OS
             0 MiB allocation reported by mallinfo(arena+hblkhd)
       1348533 MiB available memory on the node where the printing process lives
     GPU memory used/free/total (MiB): 938 / 80212 / 81151
------------------
     ethr =  1.65E-05,  avg # of iterations =  4.2

     total cpu time spent up to now is       25.7 secs

     total energy              =    -573.00708747 Ry
     estimated scf accuracy    <       0.01108609 Ry

     total magnetization       =     0.00 Bohr mag/cell
     absolute magnetization    =     0.07 Bohr mag/cell
[tb_dev] Currently allocated     3.05E-05 Mbytes, locked:    0 /   2
[tb_pin] Currently allocated     0.00E+00 Mbytes, locked:    0 /   0

     iteration # 16     ecut=    60.00 Ry     beta= 0.30
     Davidson diagonalization with overlap

---- Real-time Memory Report at c_bands before calling an iterative solver
           722 MiB given to the printing process from OS
             0 MiB allocation reported by mallinfo(arena+hblkhd)
       1345668 MiB available memory on the node where the printing process lives
     GPU memory used/free/total (MiB): 938 / 80212 / 81151
------------------
     ethr =  1.65E-05,  avg # of iterations =  3.6

     total cpu time spent up to now is       27.2 secs

     total energy              =    -573.00886657 Ry
     estimated scf accuracy    <       0.00101638 Ry

     total magnetization       =     0.00 Bohr mag/cell
     absolute magnetization    =     0.04 Bohr mag/cell
[tb_dev] Currently allocated     3.05E-05 Mbytes, locked:    0 /   2
[tb_pin] Currently allocated     0.00E+00 Mbytes, locked:    0 /   0

     iteration # 17     ecut=    60.00 Ry     beta= 0.30
     Davidson diagonalization with overlap

---- Real-time Memory Report at c_bands before calling an iterative solver
           722 MiB given to the printing process from OS
             0 MiB allocation reported by mallinfo(arena+hblkhd)
       1342993 MiB available memory on the node where the printing process lives
     GPU memory used/free/total (MiB): 938 / 80212 / 81151
------------------
     ethr =  2.67E-06,  avg # of iterations =  4.1

     total cpu time spent up to now is       28.7 secs

     total energy              =    -573.00877317 Ry
     estimated scf accuracy    <       0.00175793 Ry

     total magnetization       =     0.00 Bohr mag/cell
     absolute magnetization    =     0.05 Bohr mag/cell
[tb_dev] Currently allocated     3.05E-05 Mbytes, locked:    0 /   2
[tb_pin] Currently allocated     0.00E+00 Mbytes, locked:    0 /   0

     iteration # 18     ecut=    60.00 Ry     beta= 0.30
     Davidson diagonalization with overlap

---- Real-time Memory Report at c_bands before calling an iterative solver
           722 MiB given to the printing process from OS
             0 MiB allocation reported by mallinfo(arena+hblkhd)
       1360286 MiB available memory on the node where the printing process lives
     GPU memory used/free/total (MiB): 938 / 80212 / 81151
------------------
     ethr =  2.67E-06,  avg # of iterations =  2.7

     total cpu time spent up to now is       30.2 secs

     total energy              =    -573.00900921 Ry
     estimated scf accuracy    <       0.00012892 Ry

     total magnetization       =     0.00 Bohr mag/cell
     absolute magnetization    =     0.02 Bohr mag/cell
[tb_dev] Currently allocated     3.05E-05 Mbytes, locked:    0 /   2
[tb_pin] Currently allocated     0.00E+00 Mbytes, locked:    0 /   0

     iteration # 19     ecut=    60.00 Ry     beta= 0.30
     Davidson diagonalization with overlap

---- Real-time Memory Report at c_bands before calling an iterative solver
           722 MiB given to the printing process from OS
             0 MiB allocation reported by mallinfo(arena+hblkhd)
       1359183 MiB available memory on the node where the printing process lives
     GPU memory used/free/total (MiB): 938 / 80212 / 81151
------------------
     c_bands:  1 eigenvalues not converged
     ethr =  3.39E-07,  avg # of iterations =  5.0

     total cpu time spent up to now is       31.9 secs

     total energy              =    -573.00911075 Ry
     estimated scf accuracy    <       0.00007664 Ry

     total magnetization       =     0.00 Bohr mag/cell
     absolute magnetization    =     0.00 Bohr mag/cell
[tb_dev] Currently allocated     3.05E-05 Mbytes, locked:    0 /   2
[tb_pin] Currently allocated     0.00E+00 Mbytes, locked:    0 /   0

     iteration # 20     ecut=    60.00 Ry     beta= 0.30
     Davidson diagonalization with overlap

---- Real-time Memory Report at c_bands before calling an iterative solver
           722 MiB given to the printing process from OS
             0 MiB allocation reported by mallinfo(arena+hblkhd)
       1357724 MiB available memory on the node where the printing process lives
     GPU memory used/free/total (MiB): 938 / 80212 / 81151
------------------
     ethr =  2.02E-07,  avg # of iterations =  2.0

     total cpu time spent up to now is       33.2 secs

     total energy              =    -573.00911760 Ry
     estimated scf accuracy    <       0.00000891 Ry

     total magnetization       =     0.00 Bohr mag/cell
     absolute magnetization    =     0.00 Bohr mag/cell
[tb_dev] Currently allocated     3.05E-05 Mbytes, locked:    0 /   2
[tb_pin] Currently allocated     0.00E+00 Mbytes, locked:    0 /   0

     iteration # 21     ecut=    60.00 Ry     beta= 0.30
     Davidson diagonalization with overlap

---- Real-time Memory Report at c_bands before calling an iterative solver
           722 MiB given to the printing process from OS
             0 MiB allocation reported by mallinfo(arena+hblkhd)
       1356839 MiB available memory on the node where the printing process lives
     GPU memory used/free/total (MiB): 938 / 80212 / 81151
------------------
     ethr =  2.34E-08,  avg # of iterations =  4.6

     total cpu time spent up to now is       34.9 secs

     total energy              =    -573.00912317 Ry
     estimated scf accuracy    <       0.00000397 Ry

     total magnetization       =    -0.00 Bohr mag/cell
     absolute magnetization    =     0.00 Bohr mag/cell
[tb_dev] Currently allocated     3.05E-05 Mbytes, locked:    0 /   2
[tb_pin] Currently allocated     0.00E+00 Mbytes, locked:    0 /   0

     iteration # 22     ecut=    60.00 Ry     beta= 0.30
     Davidson diagonalization with overlap

---- Real-time Memory Report at c_bands before calling an iterative solver
           722 MiB given to the printing process from OS
             0 MiB allocation reported by mallinfo(arena+hblkhd)
       1355591 MiB available memory on the node where the printing process lives
     GPU memory used/free/total (MiB): 938 / 80212 / 81151
------------------
     ethr =  1.05E-08,  avg # of iterations =  3.2

     total cpu time spent up to now is       36.3 secs

     total energy              =    -573.00912350 Ry
     estimated scf accuracy    <       0.00000032 Ry

     total magnetization       =    -0.00 Bohr mag/cell
     absolute magnetization    =     0.00 Bohr mag/cell
[tb_dev] Currently allocated     3.05E-05 Mbytes, locked:    0 /   2
[tb_pin] Currently allocated     0.00E+00 Mbytes, locked:    0 /   0

     iteration # 23     ecut=    60.00 Ry     beta= 0.30
     Davidson diagonalization with overlap

---- Real-time Memory Report at c_bands before calling an iterative solver
           722 MiB given to the printing process from OS
             0 MiB allocation reported by mallinfo(arena+hblkhd)
       1354606 MiB available memory on the node where the printing process lives
     GPU memory used/free/total (MiB): 938 / 80212 / 81151
------------------
     ethr =  8.30E-10,  avg # of iterations =  7.2

     total cpu time spent up to now is       38.2 secs

     total energy              =    -573.00912371 Ry
     estimated scf accuracy    <       0.00000041 Ry

     total magnetization       =    -0.00 Bohr mag/cell
     absolute magnetization    =     0.00 Bohr mag/cell
[tb_dev] Currently allocated     3.05E-05 Mbytes, locked:    0 /   2
[tb_pin] Currently allocated     0.00E+00 Mbytes, locked:    0 /   0

     iteration # 24     ecut=    60.00 Ry     beta= 0.30
     Davidson diagonalization with overlap

---- Real-time Memory Report at c_bands before calling an iterative solver
           722 MiB given to the printing process from OS
             0 MiB allocation reported by mallinfo(arena+hblkhd)
       1353781 MiB available memory on the node where the printing process lives
     GPU memory used/free/total (MiB): 938 / 80212 / 81151
------------------
     ethr =  8.30E-10,  avg # of iterations =  4.0

     total cpu time spent up to now is       39.8 secs

     total energy              =    -573.00912396 Ry
     estimated scf accuracy    <       0.00000014 Ry

     total magnetization       =    -0.00 Bohr mag/cell
     absolute magnetization    =     0.00 Bohr mag/cell
[tb_dev] Currently allocated     3.05E-05 Mbytes, locked:    0 /   2
[tb_pin] Currently allocated     0.00E+00 Mbytes, locked:    0 /   0

     iteration # 25     ecut=    60.00 Ry     beta= 0.30
     Davidson diagonalization with overlap

---- Real-time Memory Report at c_bands before calling an iterative solver
           722 MiB given to the printing process from OS
             0 MiB allocation reported by mallinfo(arena+hblkhd)
       1352249 MiB available memory on the node where the printing process lives
     GPU memory used/free/total (MiB): 938 / 80212 / 81151
------------------
     ethr =  3.71E-10,  avg # of iterations =  1.4
 
     Magnetic moment per site  (integrated on atomic sphere of radius R)
     atom   1 (R=0.275)  charge= 14.1993  magn= -0.0000
     atom   2 (R=0.275)  charge=  5.3011  magn=  0.0000
     atom   3 (R=0.275)  charge=  5.4047  magn=  0.0000
     atom   4 (R=0.319)  charge=  6.8366  magn=  0.0000

     total cpu time spent up to now is       41.0 secs

     End of self-consistent calculation

 ------ SPIN UP ------------


          k = 0.0000 0.0000 0.0000 (  2125 PWs)   bands (ev):

   -82.1842 -45.4876 -45.4876 -45.3497 -17.5580  -7.0765  -5.7121   0.0512
     0.5728   0.5728   6.8835   7.4666   7.4666  10.6667  10.6667  10.7705
    11.6958  11.6958  12.5267  14.9452  14.9452  17.8062  19.4837  21.2064
    21.2064  21.8259  24.0801

     occupation numbers 
     1.0000   1.0000   1.0000   1.0000   1.0000   1.0000   1.0000   1.0000
     1.0000   1.0000   1.0000   1.0000   1.0000   1.0000   1.0000   1.0000
     1.0000   1.0000   1.0000   0.0000   0.0000   0.0000   0.0000   0.0000
     0.0000   0.0000   0.0000

          k = 0.0000 0.0000 0.1758 (  2120 PWs)   bands (ev):

   -82.1842 -45.4877 -45.4877 -45.3494 -17.5540  -7.3421  -5.2858  -0.2814
     0.5705   0.5705   7.4333   7.5070   7.5070  10.2794  10.5673  10.5673
    11.7119  11.7119  12.5866  15.0276  15.0276  17.8524  19.7635  21.1244
    21.1244  21.4329  24.0197

     occupation numbers 
     1.0000   1.0000   1.0000   1.0000   1.0000   1.0000   1.0000   1.0000
     1.0000   1.0000   1.0000   1.0000   1.0000   1.0000   1.0000   1.0000
     1.0000   1.0000   1.0000   0.0000   0.0000   0.0000   0.0000   0.0000
     0.0000   0.0000   0.0000

          k = 0.0000 0.1443 0.0000 (  2127 PWs)   bands (ev):

   -82.1835 -45.4958 -45.4897 -45.3483 -17.4579  -6.9525  -5.6402  -0.1679
     0.2404   0.4672   7.1088   7.5057   7.5667   9.6209  10.2196  10.7781
    11.9574  12.0756  12.6203  14.6963  14.8791  18.3469  19.9616  20.4732
    21.6817  22.7112  23.7096

     occupation numbers 
     1.0000   1.0000   1.0000   1.0000   1.0000   1.0000   1.0000   1.0000
     1.0000   1.0000   1.0000   1.0000   1.0000   1.0000   1.0000   1.0000
     1.0000   1.0000   1.0000   0.0000   0.0000   0.0000   0.0000   0.0000
     0.0000   0.0000   0.0000

          k = 0.0000 0.1443 0.1758 (  2112 PWs)   bands (ev):

   -82.1834 -45.4958 -45.4896 -45.3481 -17.4542  -7.1836  -5.2889  -0.3553
     0.2016   0.4645   7.1840   7.6199   7.6663   9.7644  10.1306  10.5401
    11.9459  12.0685  12.6916  14.6249  14.9375  18.2962  20.1922  20.5022
    21.6684  21.8842  23.8892

     occupation numbers 
     1.0000   1.0000   1.0000   1.0000   1.0000   1.0000   1.0000   1.0000
     1.0000   1.0000   1.0000   1.0000   1.0000   1.0000   1.0000   1.0000
     1.0000   1.0000   1.0000   0.0000   0.0000   0.0000   0.0000   0.0000
     0.0000   0.0000   0.0000

          k = 0.0000 0.2887 0.0000 (  2124 PWs)   bands (ev):

   -82.1817 -45.5157 -45.4944 -45.3452 -17.2044  -6.6601  -5.4679  -0.9337
    -0.1504   0.2239   7.2256   7.6067   7.7905   8.5028   9.6539  10.4229
    11.9882  12.4006  12.7316  14.4171  14.7969  18.3393  20.4737  21.2648
    22.8430  22.9963  24.0877

     occupation numbers 
     1.0000   1.0000   1.0000   1.0000   1.0000   1.0000   1.0000   1.0000
     1.0000   1.0000   1.0000   1.0000   1.0000   1.0000   1.0000   1.0000
     1.0000   1.0000   1.0001   0.0000   0.0000   0.0000   0.0000   0.0000
     0.0000   0.0000   0.0000

          k = 0.0000 0.2887 0.1758 (  2109 PWs)   bands (ev):

   -82.1817 -45.5156 -45.4943 -45.3452 -17.2015  -6.7953  -5.2942  -0.9031
    -0.2479   0.2213   7.0560   7.5514   7.8644   8.9145   9.5558  10.4082
    12.0742  12.3796  12.7469  14.2041  14.8526  18.2706  20.3719  21.4334
    22.4775  23.0356  24.0676

     occupation numbers 
     1.0000   1.0000   1.0000   1.0000   1.0000   1.0000   1.0000   1.0000
     1.0000   1.0000   1.0000   1.0000   1.0000   1.0000   1.0000   1.0000
     1.0000   1.0000   1.0002   0.0006   0.0000   0.0000   0.0000   0.0000
     0.0000   0.0000   0.0000

          k = 0.0000 0.4330 0.0000 (  2116 PWs)   bands (ev):

   -82.1800 -45.5354 -45.4992 -45.3420 -16.9316  -6.4012  -5.3013  -1.5945
    -0.4294  -0.0049   6.3090   7.7808   7.9440   8.5639   9.4039  10.1284
    11.8456  12.3391  12.6191  14.3543  14.8406  17.4738  21.0526  22.4418
    23.3988  23.7648  25.1624

     occupation numbers 
     1.0000   1.0000   1.0000   1.0000   1.0000   1.0000   1.0000   1.0000
     1.0000   1.0000   1.0000   1.0000   1.0000   1.0000   1.0000   1.0000
     1.0000   1.0000   1.0000   0.0000   0.0000   0.0000   0.0000   0.0000
     0.0000   0.0000   0.0000

          k = 0.0000 0.4330 0.1758 (  2127 PWs)   bands (ev):

   -82.1800 -45.5355 -45.4992 -45.3422 -16.9295  -6.4389  -5.2621  -1.6164
    -0.4472  -0.0073   6.7260   7.3160   8.0554   8.9277   9.2535   9.7577
    12.0159  12.3317  12.6009  14.3487  14.9230  17.5000  21.0033  22.0005
    23.5032  23.6781  25.1488

     occupation numbers 
     1.0000   1.0000   1.0000   1.0000   1.0000   1.0000   1.0000   1.0000
     1.0000   1.0000   1.0000   1.0000   1.0000   1.0000   1.0000   1.0000
     1.0000   1.0000   1.0000   0.0000   0.0000   0.0000   0.0000   0.0000
     0.0000   0.0000   0.0000

          k = 0.0000-0.5774 0.0000 (  2126 PWs)   bands (ev):

   -82.1793 -45.5438 -45.5011 -45.3408 -16.8120  -6.3165  -5.2350  -1.7960
    -0.5482  -0.0959   5.8404   7.9297   7.9669   8.5274   9.3910  10.1778
    11.7262  12.2322  12.5047  14.3552  14.8880  17.1461  21.0288  22.9364
    23.7002  23.7812  26.7364

     occupation numbers 
     1.0000   1.0000   1.0000   1.0000   1.0000   1.0000   1.0000   1.0000
     1.0000   1.0000   1.0000   1.0000   1.0000   1.0000   1.0000   1.0000
     1.0000   1.0000   1.0000   0.0000   0.0000   0.0000   0.0000   0.0000
     0.0000   0.0000   0.0000

          k = 0.0000-0.5774 0.1758 (  2130 PWs)   bands (ev):

   -82.1793 -45.5437 -45.5012 -45.3410 -16.8102  -6.3087  -5.2519  -1.8429
    -0.5342  -0.0979   6.2536   7.4278   8.0697   9.0097   9.2457   9.5964
    11.9241  12.2353  12.5247  14.5448  14.9778  17.1673  20.8752  22.0714
    23.6247  24.0025  25.9293

     occupation numbers 
     1.0000   1.0000   1.0000   1.0000   1.0000   1.0000   1.0000   1.0000
     1.0000   1.0000   1.0000   1.0000   1.0000   1.0000   1.0000   1.0000
     1.0000   1.0000   1.0000   0.0000   0.0000   0.0000   0.0000   0.0000
     0.0000   0.0000   0.0000

          k = 0.1250 0.2165 0.0000 (  2125 PWs)   bands (ev):

   -82.1822 -45.5090 -45.4939 -45.3461 -17.2806  -6.7436  -5.5174  -0.6522
    -0.1013   0.2672   7.2914   7.5891   7.7542   8.7810   9.5375  10.6016
    12.0513  12.4277  12.6731  14.5390  14.7090  19.0570  19.5869  20.9060
    22.4848  23.1978  23.9041

     occupation numbers 
     1.0000   1.0000   1.0000   1.0000   1.0000   1.0000   1.0000   1.0000
     1.0000   1.0000   1.0000   1.0000   1.0000   1.0000   1.0000   1.0000
     1.0000   1.0000   1.0000   0.0000   0.0000   0.0000   0.0000   0.0000
     0.0000   0.0000   0.0000

          k = 0.1250 0.2165 0.1758 (  2124 PWs)   bands (ev):

   -82.1822 -45.5090 -45.4939 -45.3461 -17.2775  -6.9032  -5.3061  -0.6411
    -0.1635   0.2423   7.0565   7.5423   7.7280   9.2496   9.5512  10.6833
    12.0608  12.3863  12.7155  14.3647  14.7083  18.9554  19.6235  20.8808
    22.1922  22.9797  23.8470

     occupation numbers 
     1.0000   1.0000   1.0000   1.0000   1.0000   1.0000   1.0000   1.0000
     1.0000   1.0000   1.0000   1.0000   1.0000   1.0000   1.0000   1.0000
     1.0000   1.0000   1.0001   0.0000   0.0000   0.0000   0.0000   0.0000
     0.0000   0.0000   0.0000

          k = 0.1250 0.3608 0.0000 (  2112 PWs)   bands (ev):

   -82.1805 -45.5267 -45.5006 -45.3430 -17.0146  -6.4665  -5.3454  -1.3014
    -0.4225  -0.0394   6.8774   7.4002   8.0776   8.5646   9.1493  10.1940
    12.0559  12.4440  12.6666  14.4375  14.6749  18.4066  20.4368  21.8657
    22.7051  23.5331  25.0346

     occupation numbers 
     1.0000   1.0000   1.0000   1.0000   1.0000   1.0000   1.0000   1.0000
     1.0000   1.0000   1.0000   1.0000   1.0000   1.0000   1.0000   1.0000
     1.0000   1.0000   1.0000   0.0000   0.0000   0.0000   0.0000   0.0000
     0.0000   0.0000   0.0000

          k = 0.1250 0.3608 0.1758 (  2117 PWs)   bands (ev):

   -82.1805 -45.5267 -45.5006 -45.3431 -17.0123  -6.5239  -5.2903  -1.2750
    -0.4369  -0.0680   7.0474   7.2407   7.9163   8.7804   9.2074  10.2082
    12.1122  12.4651  12.6478  14.3039  14.6334  18.4250  20.4176  21.6487
    22.6462  23.5819  24.7797

     occupation numbers 
     1.0000   1.0000   1.0000   1.0000   1.0000   1.0000   1.0000   1.0000
     1.0000   1.0000   1.0000   1.0000   1.0000   1.0000   1.0000   1.0000
     1.0000   1.0000   1.0000   0.0001   0.0000   0.0000   0.0000   0.0000
     0.0000   0.0000   0.0000

          k = 0.1250 0.5052 0.0000 (  2125 PWs)   bands (ev):

   -82.1793 -45.5392 -45.5056 -45.3409 -16.8139  -6.3001  -5.2292  -1.6747
    -0.5610  -0.2978   6.1331   7.3091   8.3526   8.6736   9.0608  10.0629
    11.8922  12.3187  12.5847  14.4179  14.7381  17.8039  21.0268  22.5015
    23.1708  23.6848  25.7469

     occupation numbers 
     1.0000   1.0000   1.0000   1.0000   1.0000   1.0000   1.0000   1.0000
     1.0000   1.0000   1.0000   1.0000   1.0000   1.0000   1.0000   1.0000
     1.0000   1.0000   1.0000   0.0000   0.0000   0.0000   0.0000   0.0000
     0.0000   0.0000   0.0000

          k = 0.1250 0.5052 0.1758 (  2124 PWs)   bands (ev):

   -82.1793 -45.5392 -45.5055 -45.3410 -16.8121  -6.3054  -5.2242  -1.7182
    -0.5646  -0.3115   6.5823   7.2448   8.1415   8.8718   9.0663   9.5997
    12.0429  12.3051  12.6075  14.4556  14.7077  17.8522  21.0933  22.0528
    22.8827  23.9926  25.2901

     occupation numbers 
     1.0000   1.0000   1.0000   1.0000   1.0000   1.0000   1.0000   1.0000
     1.0000   1.0000   1.0000   1.0000   1.0000   1.0000   1.0000   1.0000
     1.0000   1.0000   1.0000   0.0000   0.0000   0.0000   0.0000   0.0000
     0.0000   0.0000   0.0000

          k = 0.2500 0.4330 0.0000 (  2117 PWs)   bands (ev):

   -82.1792 -45.5330 -45.5117 -45.3409 -16.8158  -6.2842  -5.2229  -1.4783
    -0.7581  -0.3873   6.6299   6.9656   7.9294   8.9110   9.0237   9.9427
    12.0325  12.3662  12.6799  14.4793  14.5864  19.0174  20.3889  21.8108
    22.9593  23.3870  26.2796

     occupation numbers 
     1.0000   1.0000   1.0000   1.0000   1.0000   1.0000   1.0000   1.0000
     1.0000   1.0000   1.0000   1.0000   1.0000   1.0000   1.0000   1.0000
     1.0000   1.0000   1.0000   0.0000   0.0000   0.0000   0.0000   0.0000
     0.0000   0.0000   0.0000

          k = 0.2500 0.4330 0.1758 (  2126 PWs)   bands (ev):

   -82.1793 -45.5331 -45.5117 -45.3410 -16.8140  -6.2798  -5.2397  -1.4686
    -0.7826  -0.4116   6.8118   7.1331   8.0036   8.6572   8.9845   9.9066
    12.0931  12.3506  12.7452  14.3068  14.5090  19.0937  20.3631  21.8281
    22.5017  23.7138  25.7269

     occupation numbers 
     1.0000   1.0000   1.0000   1.0000   1.0000   1.0000   1.0000   1.0000
     1.0000   1.0000   1.0000   1.0000   1.0000   1.0000   1.0000   1.0000
     1.0000   1.0000   1.0001   0.0001   0.0000   0.0000   0.0000   0.0000
     0.0000   0.0000   0.0000

          k = 0.2500 0.5774 0.0000 (  2121 PWs)   bands (ev):

   -82.1787 -45.5336 -45.5184 -45.3400 -16.7306  -6.2102  -5.1758  -1.5374
    -0.8568  -0.5631   6.4533   6.9058   7.6729   9.0031   9.1701   9.8681
    11.8802  12.4997  12.6223  14.4956  14.5515  19.1432  20.7684  21.7433
    22.8321  23.6279  26.5313

     occupation numbers 
     1.0000   1.0000   1.0000   1.0000   1.0000   1.0000   1.0000   1.0000
     1.0000   1.0000   1.0000   1.0000   1.0000   1.0000   1.0000   1.0000
     1.0000   1.0000   1.0000   0.0000   0.0000   0.0000   0.0000   0.0000
     0.0000   0.0000   0.0000

          k = 0.2500 0.5774 0.1758 (  2132 PWs)   bands (ev):

   -82.1788 -45.5336 -45.5185 -45.3401 -16.7290  -6.2050  -5.1753  -1.5667
    -0.8839  -0.6016   6.7374   7.1127   7.9796   8.7338   9.0332   9.4919
    11.9907  12.4921  12.6930  14.3294  14.4469  19.1831  20.8335  21.9184
    22.3816  23.8589  25.9835

     occupation numbers 
     1.0000   1.0000   1.0000   1.0000   1.0000   1.0000   1.0000   1.0000
     1.0000   1.0000   1.0000   1.0000   1.0000   1.0000   1.0000   1.0000
     1.0000   1.0000   1.0001   0.0000   0.0000   0.0000   0.0000   0.0000
     0.0000   0.0000   0.0000

          k = 0.0000-0.1443 0.1758 (  2112 PWs)   bands (ev):

   -82.1834 -45.4958 -45.4896 -45.3481 -17.4542  -7.1817  -5.2940  -0.3580
     0.2179   0.4656   7.1668   7.5875   7.6287   9.7238  10.1973  10.6585
    11.9237  12.0459  12.6816  14.6431  14.9397  18.3192  20.1489  20.4584
    21.5967  21.9222  23.9746

     occupation numbers 
     1.0000   1.0000   1.0000   1.0000   1.0000   1.0000   1.0000   1.0000
     1.0000   1.0000   1.0000   1.0000   1.0000   1.0000   1.0000   1.0000
     1.0000   1.0000   1.0000   0.0000   0.0000   0.0000   0.0000   0.0000
     0.0000   0.0000   0.0000

          k = 0.0000-0.2887 0.1758 (  2109 PWs)   bands (ev):

   -82.1817 -45.5156 -45.4943 -45.3452 -17.2015  -6.7773  -5.3351  -0.8755
    -0.2018   0.2227   6.8657   7.3413   7.7985   9.0969   9.6599  10.7484
    11.9872  12.3635  12.7194  14.2709  14.8363  18.4099  20.2210  20.9027
    22.6931  22.9634  24.0218

     occupation numbers 
     1.0000   1.0000   1.0000   1.0000   1.0000   1.0000   1.0000   1.0000
     1.0000   1.0000   1.0000   1.0000   1.0000   1.0000   1.0000   1.0000
     1.0000   1.0000   1.0001   0.0001   0.0000   0.0000   0.0000   0.0000
     0.0000   0.0000   0.0000

          k = 0.0000-0.4330 0.1758 (  2127 PWs)   bands (ev):

   -82.1800 -45.5355 -45.4992 -45.3422 -16.9295  -6.3939  -5.3494  -1.5474
    -0.4117  -0.0064   6.3462   7.3250   7.9870   8.9325   9.3504  10.2380
    11.9251  12.3188  12.6105  14.4216  14.9058  17.5372  20.6353  21.7625
    23.6465  23.6604  25.2592

     occupation numbers 
     1.0000   1.0000   1.0000   1.0000   1.0000   1.0000   1.0000   1.0000
     1.0000   1.0000   1.0000   1.0000   1.0000   1.0000   1.0000   1.0000
     1.0000   1.0000   1.0000   0.0000   0.0000   0.0000   0.0000   0.0000
     0.0000   0.0000   0.0000

          k =-0.1250-0.3608 0.1758 (  2117 PWs)   bands (ev):

   -82.1805 -45.5267 -45.5006 -45.3431 -17.0123  -6.5025  -5.3335  -1.2343
    -0.4229  -0.0645   6.7320   7.2912   7.8804   9.0429   9.0919  10.4523
    12.0526  12.4429  12.6754  14.3222  14.6377  18.4828  20.2988  21.3582
    22.6400  23.6649  25.0761

     occupation numbers 
     1.0000   1.0000   1.0000   1.0000   1.0000   1.0000   1.0000   1.0000
     1.0000   1.0000   1.0000   1.0000   1.0000   1.0000   1.0000   1.0000
     1.0000   1.0000   1.0000   0.0000   0.0000   0.0000   0.0000   0.0000
     0.0000   0.0000   0.0000

          k =-0.1250-0.5052 0.1758 (  2124 PWs)   bands (ev):

   -82.1793 -45.5392 -45.5055 -45.3410 -16.8121  -6.2818  -5.2692  -1.6778
    -0.5660  -0.3028   6.3822   7.2855   8.1839   8.8319   9.0102   9.8640
    11.9991  12.3040  12.6303  14.4343  14.7485  17.8439  20.9445  21.9749
    22.8746  24.0144  25.4696

     occupation numbers 
     1.0000   1.0000   1.0000   1.0000   1.0000   1.0000   1.0000   1.0000
     1.0000   1.0000   1.0000   1.0000   1.0000   1.0000   1.0000   1.0000
     1.0000   1.0000   1.0000   0.0000   0.0000   0.0000   0.0000   0.0000
     0.0000   0.0000   0.0000

 ------ SPIN DOWN ----------


          k = 0.0000 0.0000 0.0000 (  2125 PWs)   bands (ev):

   -82.1843 -45.4877 -45.4877 -45.3497 -17.5580  -7.0766  -5.7121   0.0512
     0.5728   0.5728   6.8834   7.4665   7.4665  10.6667  10.6667  10.7704
    11.6959  11.6959  12.5267  14.9450  14.9450  17.8062  19.4836  21.2064
    21.2064  21.8257  24.0800

     occupation numbers 
     1.0000   1.0000   1.0000   1.0000   1.0000   1.0000   1.0000   1.0000
     1.0000   1.0000   1.0000   1.0000   1.0000   1.0000   1.0000   1.0000
     1.0000   1.0000   1.0000   0.0000   0.0000   0.0000   0.0000   0.0000
     0.0000   0.0000   0.0000

          k = 0.0000 0.0000 0.1758 (  2120 PWs)   bands (ev):

   -82.1843 -45.4878 -45.4878 -45.3494 -17.5540  -7.3422  -5.2858  -0.2814
     0.5705   0.5705   7.4332   7.5069   7.5069  10.2792  10.5673  10.5673
    11.7119  11.7119  12.5866  15.0274  15.0274  17.8524  19.7634  21.1243
    21.1243  21.4328  24.0197

     occupation numbers 
     1.0000   1.0000   1.0000   1.0000   1.0000   1.0000   1.0000   1.0000
     1.0000   1.0000   1.0000   1.0000   1.0000   1.0000   1.0000   1.0000
     1.0000   1.0000   1.0000   0.0000   0.0000   0.0000   0.0000   0.0000
     0.0000   0.0000   0.0000

          k = 0.0000 0.1443 0.0000 (  2127 PWs)   bands (ev):

   -82.1836 -45.4960 -45.4898 -45.3483 -17.4579  -6.9526  -5.6403  -0.1679
     0.2404   0.4672   7.1087   7.5056   7.5666   9.6209  10.2196  10.7780
    11.9574  12.0757  12.6203  14.6961  14.8789  18.3468  19.9615  20.4731
    21.6815  22.7110  23.7092

     occupation numbers 
     1.0000   1.0000   1.0000   1.0000   1.0000   1.0000   1.0000   1.0000
     1.0000   1.0000   1.0000   1.0000   1.0000   1.0000   1.0000   1.0000
     1.0000   1.0000   1.0000   0.0000   0.0000   0.0000   0.0000   0.0000
     0.0000   0.0000   0.0000

          k = 0.0000 0.1443 0.1758 (  2112 PWs)   bands (ev):

   -82.1835 -45.4960 -45.4898 -45.3481 -17.4542  -7.1836  -5.2889  -0.3554
     0.2016   0.4645   7.1839   7.6197   7.6662   9.7644  10.1306  10.5401
    11.9459  12.0685  12.6916  14.6246  14.9373  18.2961  20.1921  20.5022
    21.6684  21.8841  23.8891

     occupation numbers 
     1.0000   1.0000   1.0000   1.0000   1.0000   1.0000   1.0000   1.0000
     1.0000   1.0000   1.0000   1.0000   1.0000   1.0000   1.0000   1.0000
     1.0000   1.0000   1.0000   0.0000   0.0000   0.0000   0.0000   0.0000
     0.0000   0.0000   0.0000

          k = 0.0000 0.2887 0.0000 (  2124 PWs)   bands (ev):

   -82.1818 -45.5158 -45.4946 -45.3452 -17.2044  -6.6602  -5.4680  -0.9338
    -0.1504   0.2239   7.2255   7.6066   7.7904   8.5027   9.6539  10.4228
    11.9882  12.4006  12.7316  14.4169  14.7967  18.3393  20.4737  21.2647
    22.8429  22.9963  24.0876

     occupation numbers 
     1.0000   1.0000   1.0000   1.0000   1.0000   1.0000   1.0000   1.0000
     1.0000   1.0000   1.0000   1.0000   1.0000   1.0000   1.0000   1.0000
     1.0000   1.0000   1.0001   0.0000   0.0000   0.0000   0.0000   0.0000
     0.0000   0.0000   0.0000

          k = 0.0000 0.2887 0.1758 (  2109 PWs)   bands (ev):

   -82.1818 -45.5158 -45.4945 -45.3451 -17.2015  -6.7954  -5.2942  -0.9031
    -0.2479   0.2213   7.0559   7.5513   7.8643   8.9144   9.5558  10.4081
    12.0741  12.3796  12.7468  14.2039  14.8524  18.2706  20.3719  21.4333
    22.4774  23.0355  24.0675

     occupation numbers 
     1.0000   1.0000   1.0000   1.0000   1.0000   1.0000   1.0000   1.0000
     1.0000   1.0000   1.0000   1.0000   1.0000   1.0000   1.0000   1.0000
     1.0000   1.0000   1.0002   0.0006   0.0000   0.0000   0.0000   0.0000
     0.0000   0.0000   0.0000

          k = 0.0000 0.4330 0.0000 (  2116 PWs)   bands (ev):

   -82.1801 -45.5356 -45.4994 -45.3420 -16.9316  -6.4013  -5.3014  -1.5945
    -0.4295  -0.0049   6.3090   7.7807   7.9439   8.5637   9.4039  10.1283
    11.8455  12.3391  12.6191  14.3540  14.8404  17.4738  21.0525  22.4418
    23.3987  23.7648  25.1624

     occupation numbers 
     1.0000   1.0000   1.0000   1.0000   1.0000   1.0000   1.0000   1.0000
     1.0000   1.0000   1.0000   1.0000   1.0000   1.0000   1.0000   1.0000
     1.0000   1.0000   1.0000   0.0000   0.0000   0.0000   0.0000   0.0000
     0.0000   0.0000   0.0000

          k = 0.0000 0.4330 0.1758 (  2127 PWs)   bands (ev):

   -82.1801 -45.5357 -45.4994 -45.3422 -16.9295  -6.4390  -5.2621  -1.6164
    -0.4473  -0.0073   6.7259   7.3159   8.0553   8.9276   9.2535   9.7575
    12.0159  12.3317  12.6009  14.3485  14.9228  17.5000  21.0032  22.0005
    23.5031  23.6780  25.1485

     occupation numbers 
     1.0000   1.0000   1.0000   1.0000   1.0000   1.0000   1.0000   1.0000
     1.0000   1.0000   1.0000   1.0000   1.0000   1.0000   1.0000   1.0000
     1.0000   1.0000   1.0000   0.0000   0.0000   0.0000   0.0000   0.0000
     0.0000   0.0000   0.0000

          k = 0.0000-0.5774 0.0000 (  2126 PWs)   bands (ev):

   -82.1794 -45.5440 -45.5013 -45.3407 -16.8120  -6.3166  -5.2350  -1.7960
    -0.5482  -0.0959   5.8403   7.9296   7.9668   8.5272   9.3910  10.1777
    11.7261  12.2321  12.5047  14.3550  14.8879  17.1460  21.0287  22.9363
    23.7001  23.7811  26.7358

     occupation numbers 
     1.0000   1.0000   1.0000   1.0000   1.0000   1.0000   1.0000   1.0000
     1.0000   1.0000   1.0000   1.0000   1.0000   1.0000   1.0000   1.0000
     1.0000   1.0000   1.0000   0.0000   0.0000   0.0000   0.0000   0.0000
     0.0000   0.0000   0.0000

          k = 0.0000-0.5774 0.1758 (  2130 PWs)   bands (ev):

   -82.1794 -45.5439 -45.5013 -45.3409 -16.8103  -6.3088  -5.2519  -1.8429
    -0.5342  -0.0979   6.2535   7.4278   8.0696   9.0095   9.2457   9.5963
    11.9240  12.2352  12.5247  14.5446  14.9777  17.1673  20.8751  22.0713
    23.6247  24.0024  25.9291

     occupation numbers 
     1.0000   1.0000   1.0000   1.0000   1.0000   1.0000   1.0000   1.0000
     1.0000   1.0000   1.0000   1.0000   1.0000   1.0000   1.0000   1.0000
     1.0000   1.0000   1.0000   0.0000   0.0000   0.0000   0.0000   0.0000
     0.0000   0.0000   0.0000

          k = 0.1250 0.2165 0.0000 (  2125 PWs)   bands (ev):

   -82.1823 -45.5092 -45.4941 -45.3461 -17.2806  -6.7437  -5.5175  -0.6522
    -0.1013   0.2672   7.2912   7.5891   7.7540   8.7809   9.5375  10.6015
    12.0513  12.4278  12.6730  14.5387  14.7088  19.0570  19.5868  20.9059
    22.4847  23.1978  23.9042

     occupation numbers 
     1.0000   1.0000   1.0000   1.0000   1.0000   1.0000   1.0000   1.0000
     1.0000   1.0000   1.0000   1.0000   1.0000   1.0000   1.0000   1.0000
     1.0000   1.0000   1.0000   0.0000   0.0000   0.0000   0.0000   0.0000
     0.0000   0.0000   0.0000

          k = 0.1250 0.2165 0.1758 (  2124 PWs)   bands (ev):

   -82.1823 -45.5092 -45.4941 -45.3461 -17.2775  -6.9033  -5.3061  -0.6411
    -0.1635   0.2423   7.0564   7.5423   7.7279   9.2496   9.5512  10.6832
    12.0608  12.3863  12.7155  14.3645  14.7081  18.9554  19.6234  20.8807
    22.1921  22.9797  23.8471

     occupation numbers 
     1.0000   1.0000   1.0000   1.0000   1.0000   1.0000   1.0000   1.0000
     1.0000   1.0000   1.0000   1.0000   1.0000   1.0000   1.0000   1.0000
     1.0000   1.0000   1.0001   0.0000   0.0000   0.0000   0.0000   0.0000
     0.0000   0.0000   0.0000

          k = 0.1250 0.3608 0.0000 (  2112 PWs)   bands (ev):

   -82.1806 -45.5268 -45.5008 -45.3430 -17.0146  -6.4666  -5.3455  -1.3014
    -0.4226  -0.0394   6.8773   7.4001   8.0775   8.5645   9.1493  10.1939
    12.0559  12.4439  12.6666  14.4372  14.6747  18.4066  20.4367  21.8657
    22.7050  23.5331  25.0346

     occupation numbers 
     1.0000   1.0000   1.0000   1.0000   1.0000   1.0000   1.0000   1.0000
     1.0000   1.0000   1.0000   1.0000   1.0000   1.0000   1.0000   1.0000
     1.0000   1.0000   1.0000   0.0000   0.0000   0.0000   0.0000   0.0000
     0.0000   0.0000   0.0000

          k = 0.1250 0.3608 0.1758 (  2117 PWs)   bands (ev):

   -82.1806 -45.5269 -45.5008 -45.3431 -17.0123  -6.5240  -5.2904  -1.2750
    -0.4370  -0.0681   7.0473   7.2407   7.9162   8.7804   9.2074  10.2081
    12.1121  12.4651  12.6478  14.3036  14.6332  18.4249  20.4176  21.6486
    22.6461  23.5819  24.7805

     occupation numbers 
     1.0000   1.0000   1.0000   1.0000   1.0000   1.0000   1.0000   1.0000
     1.0000   1.0000   1.0000   1.0000   1.0000   1.0000   1.0000   1.0000
     1.0000   1.0000   1.0000   0.0001   0.0000   0.0000   0.0000   0.0000
     0.0000   0.0000   0.0000

          k = 0.1250 0.5052 0.0000 (  2125 PWs)   bands (ev):

   -82.1794 -45.5394 -45.5058 -45.3408 -16.8139  -6.3002  -5.2293  -1.6747
    -0.5611  -0.2978   6.1330   7.3090   8.3525   8.6735   9.0607  10.0628
    11.8922  12.3187  12.5847  14.4176  14.7380  17.8039  21.0267  22.5014
    23.1707  23.6847  25.7468

     occupation numbers 
     1.0000   1.0000   1.0000   1.0000   1.0000   1.0000   1.0000   1.0000
     1.0000   1.0000   1.0000   1.0000   1.0000   1.0000   1.0000   1.0000
     1.0000   1.0000   1.0000   0.0000   0.0000   0.0000   0.0000   0.0000
     0.0000   0.0000   0.0000

          k = 0.1250 0.5052 0.1758 (  2124 PWs)   bands (ev):

   -82.1794 -45.5394 -45.5057 -45.3409 -16.8121  -6.3055  -5.2242  -1.7183
    -0.5646  -0.3115   6.5822   7.2448   8.1414   8.8717   9.0663   9.5996
    12.0429  12.3050  12.6075  14.4554  14.7075  17.8522  21.0933  22.0528
    22.8826  23.9925  25.2900

     occupation numbers 
     1.0000   1.0000   1.0000   1.0000   1.0000   1.0000   1.0000   1.0000
     1.0000   1.0000   1.0000   1.0000   1.0000   1.0000   1.0000   1.0000
     1.0000   1.0000   1.0000   0.0000   0.0000   0.0000   0.0000   0.0000
     0.0000   0.0000   0.0000

          k = 0.2500 0.4330 0.0000 (  2117 PWs)   bands (ev):

   -82.1793 -45.5332 -45.5118 -45.3408 -16.8158  -6.2843  -5.2229  -1.4783
    -0.7581  -0.3874   6.6298   6.9656   7.9294   8.9109   9.0236   9.9426
    12.0325  12.3662  12.6798  14.4791  14.5862  19.0173  20.3888  21.8107
    22.9593  23.3870  26.2797

     occupation numbers 
     1.0000   1.0000   1.0000   1.0000   1.0000   1.0000   1.0000   1.0000
     1.0000   1.0000   1.0000   1.0000   1.0000   1.0000   1.0000   1.0000
     1.0000   1.0000   1.0000   0.0000   0.0000   0.0000   0.0000   0.0000
     0.0000   0.0000   0.0000

          k = 0.2500 0.4330 0.1758 (  2126 PWs)   bands (ev):

   -82.1794 -45.5332 -45.5118 -45.3410 -16.8140  -6.2799  -5.2397  -1.4686
    -0.7827  -0.4116   6.8117   7.1331   8.0035   8.6571   8.9844   9.9066
    12.0931  12.3506  12.7452  14.3066  14.5088  19.0937  20.3631  21.8280
    22.5017  23.7138  25.7267

     occupation numbers 
     1.0000   1.0000   1.0000   1.0000   1.0000   1.0000   1.0000   1.0000
     1.0000   1.0000   1.0000   1.0000   1.0000   1.0000   1.0000   1.0000
     1.0000   1.0000   1.0001   0.0001   0.0000   0.0000   0.0000   0.0000
     0.0000   0.0000   0.0000

          k = 0.2500 0.5774 0.0000 (  2121 PWs)   bands (ev):

   -82.1788 -45.5337 -45.5185 -45.3400 -16.7306  -6.2103  -5.1759  -1.5374
    -0.8568  -0.5631   6.4532   6.9058   7.6728   9.0029   9.1699   9.8681
    11.8802  12.4997  12.6223  14.4954  14.5513  19.1432  20.7684  21.7433
    22.8320  23.6279  26.5318

     occupation numbers 
     1.0000   1.0000   1.0000   1.0000   1.0000   1.0000   1.0000   1.0000
     1.0000   1.0000   1.0000   1.0000   1.0000   1.0000   1.0000   1.0000
     1.0000   1.0000   1.0000   0.0000   0.0000   0.0000   0.0000   0.0000
     0.0000   0.0000   0.0000

          k = 0.2500 0.5774 0.1758 (  2132 PWs)   bands (ev):

   -82.1789 -45.5337 -45.5186 -45.3401 -16.7290  -6.2051  -5.1754  -1.5667
    -0.8839  -0.6016   6.7374   7.1127   7.9796   8.7337   9.0330   9.4918
    11.9907  12.4921  12.6930  14.3292  14.4467  19.1831  20.8335  21.9183
    22.3815  23.8589  25.9836

     occupation numbers 
     1.0000   1.0000   1.0000   1.0000   1.0000   1.0000   1.0000   1.0000
     1.0000   1.0000   1.0000   1.0000   1.0000   1.0000   1.0000   1.0000
     1.0000   1.0000   1.0001   0.0000   0.0000   0.0000   0.0000   0.0000
     0.0000   0.0000   0.0000

          k = 0.0000-0.1443 0.1758 (  2112 PWs)   bands (ev):

   -82.1835 -45.4960 -45.4898 -45.3481 -17.4542  -7.1818  -5.2941  -0.3581
     0.2179   0.4656   7.1666   7.5874   7.6286   9.7237  10.1973  10.6585
    11.9237  12.0460  12.6816  14.6428  14.9395  18.3192  20.1488  20.4584
    21.5967  21.9221  23.9744

     occupation numbers 
     1.0000   1.0000   1.0000   1.0000   1.0000   1.0000   1.0000   1.0000
     1.0000   1.0000   1.0000   1.0000   1.0000   1.0000   1.0000   1.0000
     1.0000   1.0000   1.0000   0.0000   0.0000   0.0000   0.0000   0.0000
     0.0000   0.0000   0.0000

          k = 0.0000-0.2887 0.1758 (  2109 PWs)   bands (ev):

   -82.1818 -45.5158 -45.4945 -45.3451 -17.2015  -6.7774  -5.3351  -0.8755
    -0.2019   0.2227   6.8656   7.3412   7.7984   9.0968   9.6599  10.7484
    11.9872  12.3635  12.7194  14.2707  14.8361  18.4099  20.2210  20.9026
    22.6931  22.9634  24.0218

     occupation numbers 
     1.0000   1.0000   1.0000   1.0000   1.0000   1.0000   1.0000   1.0000
     1.0000   1.0000   1.0000   1.0000   1.0000   1.0000   1.0000   1.0000
     1.0000   1.0000   1.0001   0.0001   0.0000   0.0000   0.0000   0.0000
     0.0000   0.0000   0.0000

          k = 0.0000-0.4330 0.1758 (  2127 PWs)   bands (ev):

   -82.1801 -45.5357 -45.4994 -45.3422 -16.9295  -6.3940  -5.3495  -1.5474
    -0.4118  -0.0064   6.3462   7.3250   7.9869   8.9324   9.3504  10.2379
    11.9251  12.3187  12.6105  14.4213  14.9057  17.5372  20.6353  21.7624
    23.6464  23.6605  25.2606

     occupation numbers 
     1.0000   1.0000   1.0000   1.0000   1.0000   1.0000   1.0000   1.0000
     1.0000   1.0000   1.0000   1.0000   1.0000   1.0000   1.0000   1.0000
     1.0000   1.0000   1.0000   0.0000   0.0000   0.0000   0.0000   0.0000
     0.0000   0.0000   0.0000

          k =-0.1250-0.3608 0.1758 (  2117 PWs)   bands (ev):

   -82.1806 -45.5269 -45.5008 -45.3431 -17.0123  -6.5026  -5.3335  -1.2343
    -0.4229  -0.0645   6.7320   7.2911   7.8803   9.0428   9.0919  10.4522
    12.0526  12.4429  12.6754  14.3219  14.6375  18.4827  20.2987  21.3582
    22.6399  23.6648  25.0813

     occupation numbers 
     1.0000   1.0000   1.0000   1.0000   1.0000   1.0000   1.0000   1.0000
     1.0000   1.0000   1.0000   1.0000   1.0000   1.0000   1.0000   1.0000
     1.0000   1.0000   1.0000   0.0000   0.0000   0.0000   0.0000   0.0000
     0.0000   0.0000   0.0000

          k =-0.1250-0.5052 0.1758 (  2124 PWs)   bands (ev):

   -82.1794 -45.5394 -45.5057 -45.3409 -16.8121  -6.2820  -5.2692  -1.6778
    -0.5660  -0.3028   6.3822   7.2854   8.1838   8.8319   9.0100   9.8639
    11.9991  12.3040  12.6303  14.4341  14.7483  17.8439  20.9445  21.9748
    22.8746  24.0144  25.4694

     occupation numbers 
     1.0000   1.0000   1.0000   1.0000   1.0000   1.0000   1.0000   1.0000
     1.0000   1.0000   1.0000   1.0000   1.0000   1.0000   1.0000   1.0000
     1.0000   1.0000   1.0000   0.0000   0.0000   0.0000   0.0000   0.0000
     0.0000   0.0000   0.0000

     the Fermi energy is    13.6886 ev

     WARNING: integrated charge=    38.00016692, expected=    38.00000000

!    total energy              =    -573.00912398 Ry
     total all-electron energy =     -4292.119960 Ry
     estimated scf accuracy    <       0.00000003 Ry
     smearing contrib. (-TS)   =       0.00000249 Ry
     internal energy E=F+TS    =    -573.00912648 Ry

     The total energy is F=E-TS. E is the sum of the following terms:
     one-electron contribution =    -257.77790808 Ry
     hartree contribution      =     154.02306036 Ry
     xc contribution           =     -57.22300606 Ry
     ewald contribution        =    -249.84596039 Ry
     one-center paw contrib.   =    -162.18531231 Ry
      -> PAW hartree energy AE =     314.78659521 Ry
      -> PAW hartree energy PS =    -313.41324425 Ry
      -> PAW xc energy AE      =    -217.61621524 Ry
      -> PAW xc energy PS      =      54.05755197 Ry
      -> total E_H with PAW    =     155.39641132 Ry
      -> total E_XC with PAW   =    -220.78166933 Ry

     total magnetization       =    -0.00 Bohr mag/cell
     absolute magnetization    =     0.00 Bohr mag/cell

     convergence has been achieved in  25 iterations

     Forces acting on atoms (cartesian axes, Ry/au):

     atom    1 type  1   force =     0.00000000    0.00000000    0.08538026
     atom    2 type  2   force =     0.00000000    0.00000000   -0.00707241
     atom    3 type  2   force =     0.00000000    0.00000000    0.10268369
     atom    4 type  3   force =     0.00000000    0.00000000   -0.18099155
     The non-local contrib.  to forces
     atom    1 type  1   force =     0.00000000    0.00000000   -0.21911554
     atom    2 type  2   force =     0.00000000    0.00000000   -0.83857274
     atom    3 type  2   force =     0.00000000    0.00000000    0.79545257
     atom    4 type  3   force =     0.00000000   -0.00000000   -0.11571255
     The ionic contribution  to forces
     atom    1 type  1   force =    -0.00000000   -0.00000000    8.82709705
     atom    2 type  2   force =     0.00000000   -0.00000000   20.78671209
     atom    3 type  2   force =    -0.00000000    0.00000000  -16.39018172
     atom    4 type  3   force =     0.00000000   -0.00000000  -13.22362741
     The local contribution  to forces
     atom    1 type  1   force =    -0.00000000   -0.00000000   -8.52263300
     atom    2 type  2   force =     0.00000001   -0.00000001  -19.96298659
     atom    3 type  2   force =    -0.00000001    0.00000001   15.70597322
     atom    4 type  3   force =    -0.00000000    0.00000000   13.15479206
     The core correction contribution to forces
     atom    1 type  1   force =     0.00000000   -0.00000000    0.00034858
     atom    2 type  2   force =    -0.00000000    0.00000000    0.00766984
     atom    3 type  2   force =     0.00000000   -0.00000000   -0.00840910
     atom    4 type  3   force =     0.00000000   -0.00000000    0.00346247
     The Hubbard contrib.    to forces
     atom    1 type  1   force =     0.00000000    0.00000000    0.00000000
     atom    2 type  2   force =     0.00000000    0.00000000    0.00000000
     atom    3 type  2   force =     0.00000000    0.00000000    0.00000000
     atom    4 type  3   force =     0.00000000    0.00000000    0.00000000
     The SCF correction term to forces
     atom    1 type  1   force =    -0.00000000    0.00000000   -0.00030187
     atom    2 type  2   force =     0.00000000   -0.00000000    0.00011993
     atom    3 type  2   force =    -0.00000000    0.00000000   -0.00013634
     atom    4 type  3   force =     0.00000000   -0.00000000    0.00010884

     Total force =     0.225037     Total SCF correction =     0.000369

     Writing all to output data dir ./out/pw.save/ :
     XML data file, charge density, pseudopotentials, collected wavefunctions
 
     init_run     :     11.60s CPU      2.87s WALL (       1 calls)
     electrons    :    146.80s CPU     37.61s WALL (       1 calls)
     forces       :      0.62s CPU      0.54s WALL (       1 calls)

     Called by init_run:
     wfcinit      :      0.27s CPU      0.36s WALL (       1 calls)
     wfcinit:atom :      0.04s CPU      0.05s WALL (      50 calls)
     wfcinit:wfcr :      0.18s CPU      0.24s WALL (      50 calls)
     potinit      :     10.67s CPU      1.78s WALL (       1 calls)
     hinit0       :      0.57s CPU      0.57s WALL (       1 calls)

     Called by electrons:
     c_bands      :     15.37s CPU     15.24s WALL (      25 calls)
     sum_band     :      3.04s CPU      3.02s WALL (      25 calls)
     v_of_rho     :      0.36s CPU      0.17s WALL (      26 calls)
     v_h          :      0.25s CPU      0.03s WALL (      26 calls)
     v_xc         :      0.11s CPU      0.14s WALL (      27 calls)
     newd         :      0.76s CPU      0.64s WALL (      26 calls)
                                        0.64s GPU  (      26 calls)
     PAW_pot      :    132.12s CPU     18.72s WALL (      26 calls)
     mix_rho      :      0.64s CPU      0.61s WALL (      25 calls)

     Called by c_bands:
     init_us_2    :      1.02s CPU      0.99s WALL (    2600 calls)
     cegterg      :     13.59s CPU     13.53s WALL (    1250 calls)

     Called by sum_band:
     sum_band:wei :      0.04s CPU      0.04s WALL (      25 calls)
                                        0.04s GPU  (      25 calls)
     sum_band:loo :      1.63s CPU      1.60s WALL (      25 calls)
                                        1.60s GPU  (      25 calls)
     sum_band:buf :      0.15s CPU      0.18s WALL (    1250 calls)
                                        0.16s GPU  (    1250 calls)
     sum_band:ini :      0.48s CPU      0.49s WALL (    1250 calls)
                                        0.48s GPU  (    1250 calls)
     sum_band:cal :      0.05s CPU      0.07s WALL (    1250 calls)
                                        0.06s GPU  (    1250 calls)
     sum_band:bec :      0.27s CPU      0.29s WALL (    1250 calls)
                                        0.27s GPU  (    1250 calls)
     addusdens    :      1.25s CPU      1.26s WALL (      25 calls)
                                        1.26s GPU  (      25 calls)
     addusd:skk   :      0.00s CPU      0.00s WALL (      75 calls)
                                        0.00s GPU  (      75 calls)

     Called by *egterg:
     cdiaghg      :      4.90s CPU      5.07s WALL (    5650 calls)
                                        5.00s GPU  (    5650 calls)
     cegterg:over :      0.84s CPU      0.86s WALL (    4400 calls)
     cegterg:upda :      0.90s CPU      0.91s WALL (    4400 calls)
     cegterg:last :      0.16s CPU      0.16s WALL (    2577 calls)
     h_psi        :      4.69s CPU      4.65s WALL (    5700 calls)
                                        4.58s GPU  (    5700 calls)
     s_psi        :      0.85s CPU      0.88s WALL (    5700 calls)
     g_psi        :      0.02s CPU      0.10s WALL (    4400 calls)
                                        0.05s GPU  (    4400 calls)

     Called by h_psi:
     h_psi:calbec :      0.16s CPU      0.29s WALL (    5700 calls)
                                        0.22s GPU  (    5700 calls)
     vloc_psi     :      3.20s CPU      3.08s WALL (    5700 calls)
                                        3.01s GPU  (    5700 calls)
     add_vuspsi   :      0.76s CPU      0.89s WALL (    5700 calls)
                                        0.82s GPU  (    5700 calls)

     General routines
     calbec       :      0.17s CPU      0.20s WALL (    7150 calls)
     fft          :      3.16s CPU      0.68s WALL (     663 calls)
                                        0.09s GPU  (     611 calls)
     ffts         :      1.89s CPU      0.36s WALL (     830 calls)
                                        0.02s GPU  (     778 calls)
     fftw         :      0.33s CPU      1.05s WALL (   19054 calls)
                                        0.84s GPU  (   19054 calls)
     interpolate  :      5.09s CPU      0.94s WALL (      52 calls)
 
     Parallel routines

     PAW routines
     PAW_pot      :    132.12s CPU     18.72s WALL (      26 calls)
     PAW_symme    :      0.01s CPU      0.01s WALL (      51 calls)
 
     PWSCF        :   2m40.01s CPU     41.64s WALL

 
   This run was terminated on:   5:36:29  12Jul2026            

=------------------------------------------------------------------------------=
   JOB DONE.
=------------------------------------------------------------------------------=
Warning: ieee_divide_by_zero is signaling
Warning: ieee_inexact is signaling
FORTRAN STOP
