
     Program PWSCF v.7.3.1 starts on 12Jul2026 at  3:16:13 

     This program is part of the open-source Quantum ESPRESSO suite
     for quantum simulation of materials; please cite
         "P. Giannozzi et al., J. Phys.:Condens. Matter 21 395502 (2009);
         "P. Giannozzi et al., J. Phys.:Condens. Matter 29 465901 (2017);
         "P. Giannozzi et al., J. Chem. Phys. 152 154105 (2020);
          URL http://www.quantum-espresso.org", 
     in publications or presentations arising from this work. More details at
     http://www.quantum-espresso.org/quote

     Parallel version (MPI & OpenMP), running on      14 processor cores
     Number of MPI processes:                 1
     Threads/MPI process:                    14

     MPI processes distributed on     1 nodes
     850630 MiB available memory on the printing compute node when the environment starts
 
     Reading input from pw.in

     Current dimensions of program PWSCF are:
     Max number of different atomic species (ntypx) = 10
     Max number of k-points (npk) =  40000
     Max angular momentum in pseudopotentials (lmaxx) =  4
     file Co.pbe-spn-kjpaw_psl.0.3.1.UPF: wavefunction(s)  3P 3D renormalized
     file O.pbe-n-kjpaw_psl.1.0.0.UPF: wavefunction(s)  2S 2P renormalized
     file Na.pbe-spn-kjpaw_psl.1.0.0.UPF: wavefunction(s)  2P renormalized
 
     Subspace diagonalization in iterative solution of the eigenvalue problem:
     a serial algorithm will be used

 
     G-vector sticks info
     --------------------
     sticks:   dense  smooth     PW     G-vecs:    dense   smooth      PW
     Sum         979     499    151                59641    21167    3485
 
     Using Slab Decomposition
 


     bravais-lattice index     =            4
     lattice parameter (alat)  =       5.4575  a.u.
     unit-cell volume          =     336.3339 (a.u.)^3
     number of atoms/cell      =            4
     number of atomic types    =            3
     number of electrons       =        38.00
     number of Kohn-Sham states=           27
     kinetic-energy cutoff     =      60.0000  Ry
     charge density cutoff     =     480.0000  Ry
     scf convergence threshold =      1.0E-07
     mixing beta               =       0.3000
     number of iterations used =            8  local-TF  mixing
     Exchange-correlation= SLA  PW   PBX  PBC
                           (   1   4   3   4   0   0   0)

     GPU acceleration is ACTIVE.  1 visible GPUs per MPI rank
     GPU-aware MPI enabled


     GPU used by master process:

        Device Number: 0
        Device name: NVIDIA A100-SXM4-80GB
        Compute capability : 80
        Ratio of single to double precision performance  : 2
        Memory Clock Rate (KHz): 1593000
        Memory Bus Width (bits): 5120
        Peak Memory Bandwidth (GB/s): ******

     celldm(1)=   5.457529  celldm(2)=   0.000000  celldm(3)=   2.389197
     celldm(4)=   0.000000  celldm(5)=   0.000000  celldm(6)=   0.000000

     crystal axes: (cart. coord. in units of alat)
               a(1) = (   1.000000   0.000000   0.000000 )  
               a(2) = (  -0.500000   0.866025   0.000000 )  
               a(3) = (   0.000000   0.000000   2.389197 )  

     reciprocal axes: (cart. coord. in units 2 pi/alat)
               b(1) = (  1.000000  0.577350 -0.000000 )  
               b(2) = (  0.000000  1.154701  0.000000 )  
               b(3) = (  0.000000 -0.000000  0.418551 )  


     PseudoPot. # 1 for Co read from file:
     ../../pseudo/Co.pbe-spn-kjpaw_psl.0.3.1.UPF
     MD5 check sum: 3c0a43779828c046024e4f3be63f8e67
     Pseudo is Projector augmented-wave + core cor, Zval = 17.0
     Generated using &quot;atomic&quot; code by A. Dal Corso  v.6.2.2
     Shape of augmentation charge: PSQ
     Using radial grid of 1193 points,  6 beta functions with: 
                l(1) =   0
                l(2) =   0
                l(3) =   1
                l(4) =   1
                l(5) =   2
                l(6) =   2
     Q(r) pseudized with 0 coefficients 


     PseudoPot. # 2 for O  read from file:
     ../../pseudo/O.pbe-n-kjpaw_psl.1.0.0.UPF
     MD5 check sum: e99d9cef9b487d1ca56f5b95ecd0fd7a
     Pseudo is Projector augmented-wave + core cor, Zval =  6.0
     Generated using &quot;atomic&quot; code by A. Dal Corso  v.6.3
     Shape of augmentation charge: PSQ
     Using radial grid of 1095 points,  4 beta functions with: 
                l(1) =   0
                l(2) =   0
                l(3) =   1
                l(4) =   1
     Q(r) pseudized with 0 coefficients 


     PseudoPot. # 3 for Na read from file:
     ../../pseudo/Na.pbe-spn-kjpaw_psl.1.0.0.UPF
     MD5 check sum: 05b4deb74e3932c23ab016979dc8b5d4
     Pseudo is Projector augmented-wave + core cor, Zval =  9.0
     Generated using &quot;atomic&quot; code by A. Dal Corso  v.6.3
     Shape of augmentation charge: PSQ
     Using radial grid of 1121 points,  4 beta functions with: 
                l(1) =   0
                l(2) =   0
                l(3) =   1
                l(4) =   1
     Q(r) pseudized with 0 coefficients 


     atomic species   valence    mass     pseudopotential
     Co               17.00    58.93300     Co( 1.00)
     O                 6.00    15.99900     O ( 1.00)
     Na                9.00    22.98977     Na( 1.00)

     Starting magnetic structure 
     atomic species   magnetization
     Co              0.300
     O               0.000
     Na              0.000

     12 Sym. Ops., with inversion, found


                                    s                        frac. trans.

      isym =  1     identity                                     

 cryst.   s( 1) = (     1          0          0      )
                  (     0          1          0      )
                  (     0          0          1      )

 cart.    s( 1) = (  1.0000000  0.0000000  0.0000000 )
                  (  0.0000000  1.0000000  0.0000000 )
                  (  0.0000000  0.0000000  1.0000000 )


      isym =  2     180 deg rotation - cart. axis [1,0,0]        

 cryst.   s( 2) = (     1          0          0      )
                  (    -1         -1          0      )
                  (     0          0         -1      )

 cart.    s( 2) = (  1.0000000  0.0000000  0.0000000 )
                  (  0.0000000 -1.0000000  0.0000000 )
                  (  0.0000000  0.0000000 -1.0000000 )


      isym =  3     120 deg rotation - cryst. axis [0,0,1]       

 cryst.   s( 3) = (     0          1          0      )
                  (    -1         -1          0      )
                  (     0          0          1      )

 cart.    s( 3) = ( -0.5000000 -0.8660254  0.0000000 )
                  (  0.8660254 -0.5000000  0.0000000 )
                  (  0.0000000  0.0000000  1.0000000 )


      isym =  4     120 deg rotation - cryst. axis [0,0,-1]      

 cryst.   s( 4) = (    -1         -1          0      )
                  (     1          0          0      )
                  (     0          0          1      )

 cart.    s( 4) = ( -0.5000000  0.8660254  0.0000000 )
                  ( -0.8660254 -0.5000000  0.0000000 )
                  (  0.0000000  0.0000000  1.0000000 )


      isym =  5     180 deg rotation - cryst. axis [0,1,0]       

 cryst.   s( 5) = (    -1         -1          0      )
                  (     0          1          0      )
                  (     0          0         -1      )

 cart.    s( 5) = ( -0.5000000 -0.8660254  0.0000000 )
                  ( -0.8660254  0.5000000  0.0000000 )
                  (  0.0000000  0.0000000 -1.0000000 )


      isym =  6     180 deg rotation - cryst. axis [1,1,0]       

 cryst.   s( 6) = (     0          1          0      )
                  (     1          0          0      )
                  (     0          0         -1      )

 cart.    s( 6) = ( -0.5000000  0.8660254  0.0000000 )
                  (  0.8660254  0.5000000  0.0000000 )
                  (  0.0000000  0.0000000 -1.0000000 )


      isym =  7     inversion                                    

 cryst.   s( 7) = (    -1          0          0      )
                  (     0         -1          0      )
                  (     0          0         -1      )

 cart.    s( 7) = ( -1.0000000  0.0000000  0.0000000 )
                  (  0.0000000 -1.0000000  0.0000000 )
                  (  0.0000000  0.0000000 -1.0000000 )


      isym =  8     inv. 180 deg rotation - cart. axis [1,0,0]   

 cryst.   s( 8) = (    -1          0          0      )
                  (     1          1          0      )
                  (     0          0          1      )

 cart.    s( 8) = ( -1.0000000  0.0000000  0.0000000 )
                  (  0.0000000  1.0000000  0.0000000 )
                  (  0.0000000  0.0000000  1.0000000 )


      isym =  9     inv. 120 deg rotation - cryst. axis [0,0,1]  

 cryst.   s( 9) = (     0         -1          0      )
                  (     1          1          0      )
                  (     0          0         -1      )

 cart.    s( 9) = (  0.5000000  0.8660254  0.0000000 )
                  ( -0.8660254  0.5000000  0.0000000 )
                  (  0.0000000  0.0000000 -1.0000000 )


      isym = 10     inv. 120 deg rotation - cryst. axis [0,0,-1] 

 cryst.   s(10) = (     1          1          0      )
                  (    -1          0          0      )
                  (     0          0         -1      )

 cart.    s(10) = (  0.5000000 -0.8660254  0.0000000 )
                  (  0.8660254  0.5000000  0.0000000 )
                  (  0.0000000  0.0000000 -1.0000000 )


      isym = 11     inv. 180 deg rotation - cryst. axis [0,1,0]  

 cryst.   s(11) = (     1          1          0      )
                  (     0         -1          0      )
                  (     0          0          1      )

 cart.    s(11) = (  0.5000000  0.8660254  0.0000000 )
                  (  0.8660254 -0.5000000  0.0000000 )
                  (  0.0000000  0.0000000  1.0000000 )


      isym = 12     inv. 180 deg rotation - cryst. axis [1,1,0]  

 cryst.   s(12) = (     0         -1          0      )
                  (    -1          0          0      )
                  (     0          0          1      )

 cart.    s(12) = (  0.5000000 -0.8660254  0.0000000 )
                  ( -0.8660254 -0.5000000  0.0000000 )
                  (  0.0000000  0.0000000  1.0000000 )


     point group D_3d (-3m) 
     there are  6 classes
     the character table:

       E     2C3   3C2'  i     2S6   3s_d 
A_1g   1.00  1.00  1.00  1.00  1.00  1.00
A_2g   1.00  1.00 -1.00  1.00  1.00 -1.00
E_g    2.00 -1.00  0.00  2.00 -1.00  0.00
A_1u   1.00  1.00  1.00 -1.00 -1.00 -1.00
A_2u   1.00  1.00 -1.00 -1.00 -1.00  1.00
E_u    2.00 -1.00  0.00 -2.00  1.00  0.00

     the symmetry operations in each class and the name of the first element:

     E        1
          identity                                               
     2C3      3    4
          120 deg rotation - cryst. axis [0,0,1]                 
     3C2'     2    5    6
          180 deg rotation - cart. axis [1,0,0]                  
     i        7
          inversion                                              
     2S6      9   10
          inv. 120 deg rotation - cryst. axis [0,0,1]            
     3s_d     8   11   12
          inv. 180 deg rotation - cart. axis [1,0,0]             

   Cartesian axes

     site n.     atom                  positions (alat units)
         1        Co     tau(   1) = (   0.0000000   0.0000000   0.0000000  )
         2        O      tau(   2) = (  -0.0000000   0.5773503   0.3324100  )
         3        O      tau(   3) = (   0.5000000   0.2886751   2.0567867  )
         4        Na     tau(   4) = (   0.0000000   0.0000000   1.1945983  )

   Crystallographic axes

     site n.     atom                  positions (cryst. coord.)
         1        Co     tau(   1) = (  0.0000000  0.0000000  0.0000000  )
         2        O      tau(   2) = (  0.3333333  0.6666667  0.1391304  )
         3        O      tau(   3) = (  0.6666667  0.3333333  0.8608696  )
         4        Na     tau(   4) = (  0.0000000  0.0000000  0.5000000  )

     number of k points=    25  Marzari-Vanderbilt smearing, width (Ry)=  0.0200
                       cart. coord. in units 2pi/alat
        k(    1) = (   0.0000000   0.0000000   0.0000000), wk =   0.0052083
        k(    2) = (   0.0000000   0.0000000   0.1395169), wk =   0.0104167
        k(    3) = (   0.0000000   0.1443376   0.0000000), wk =   0.0312500
        k(    4) = (   0.0000000   0.1443376   0.1395169), wk =   0.0312500
        k(    5) = (   0.0000000   0.2886751   0.0000000), wk =   0.0312500
        k(    6) = (   0.0000000   0.2886751   0.1395169), wk =   0.0312500
        k(    7) = (   0.0000000   0.4330127   0.0000000), wk =   0.0312500
        k(    8) = (   0.0000000   0.4330127   0.1395169), wk =   0.0312500
        k(    9) = (   0.0000000  -0.5773503   0.0000000), wk =   0.0156250
        k(   10) = (   0.0000000  -0.5773503   0.1395169), wk =   0.0312500
        k(   11) = (   0.1250000   0.2165064   0.0000000), wk =   0.0312500
        k(   12) = (   0.1250000   0.2165064   0.1395169), wk =   0.0625000
        k(   13) = (   0.1250000   0.3608439   0.0000000), wk =   0.0625000
        k(   14) = (   0.1250000   0.3608439   0.1395169), wk =   0.0625000
        k(   15) = (   0.1250000   0.5051815   0.0000000), wk =   0.0625000
        k(   16) = (   0.1250000   0.5051815   0.1395169), wk =   0.0625000
        k(   17) = (   0.2500000   0.4330127   0.0000000), wk =   0.0312500
        k(   18) = (   0.2500000   0.4330127   0.1395169), wk =   0.0625000
        k(   19) = (   0.2500000   0.5773503   0.0000000), wk =   0.0312500
        k(   20) = (   0.2500000   0.5773503   0.1395169), wk =   0.0625000
        k(   21) = (   0.0000000   0.1443376  -0.1395169), wk =   0.0312500
        k(   22) = (   0.0000000   0.2886751  -0.1395169), wk =   0.0312500
        k(   23) = (   0.0000000   0.4330127  -0.1395169), wk =   0.0312500
        k(   24) = (  -0.1250000   0.3608439  -0.1395169), wk =   0.0625000
        k(   25) = (  -0.1250000   0.5051815  -0.1395169), wk =   0.0625000

                       cryst. coord.
        k(    1) = (   0.0000000   0.0000000   0.0000000), wk =   0.0052083
        k(    2) = (   0.0000000   0.0000000   0.3333333), wk =   0.0104167
        k(    3) = (   0.0000000   0.1250000   0.0000000), wk =   0.0312500
        k(    4) = (   0.0000000   0.1250000   0.3333333), wk =   0.0312500
        k(    5) = (   0.0000000   0.2500000   0.0000000), wk =   0.0312500
        k(    6) = (   0.0000000   0.2500000   0.3333333), wk =   0.0312500
        k(    7) = (   0.0000000   0.3750000   0.0000000), wk =   0.0312500
        k(    8) = (   0.0000000   0.3750000   0.3333333), wk =   0.0312500
        k(    9) = (   0.0000000  -0.5000000   0.0000000), wk =   0.0156250
        k(   10) = (   0.0000000  -0.5000000   0.3333333), wk =   0.0312500
        k(   11) = (   0.1250000   0.1250000   0.0000000), wk =   0.0312500
        k(   12) = (   0.1250000   0.1250000   0.3333333), wk =   0.0625000
        k(   13) = (   0.1250000   0.2500000   0.0000000), wk =   0.0625000
        k(   14) = (   0.1250000   0.2500000   0.3333333), wk =   0.0625000
        k(   15) = (   0.1250000   0.3750000   0.0000000), wk =   0.0625000
        k(   16) = (   0.1250000   0.3750000   0.3333333), wk =   0.0625000
        k(   17) = (   0.2500000   0.2500000   0.0000000), wk =   0.0312500
        k(   18) = (   0.2500000   0.2500000   0.3333333), wk =   0.0625000
        k(   19) = (   0.2500000   0.3750000   0.0000000), wk =   0.0312500
        k(   20) = (   0.2500000   0.3750000   0.3333333), wk =   0.0625000
        k(   21) = (   0.0000000   0.1250000  -0.3333333), wk =   0.0312500
        k(   22) = (   0.0000000   0.2500000  -0.3333333), wk =   0.0312500
        k(   23) = (   0.0000000   0.3750000  -0.3333333), wk =   0.0312500
        k(   24) = (  -0.1250000   0.3750000  -0.3333333), wk =   0.0625000
        k(   25) = (  -0.1250000   0.5000000  -0.3333333), wk =   0.0625000

     Dense  grid:    59641 G-vectors     FFT dimensions: (  40,  40,  96)

     Smooth grid:    21167 G-vectors     FFT dimensions: (  27,  27,  72)

     Dynamical RAM for                 wfc:       1.09 MB

     Dynamical RAM for     wfc (w. buffer):      55.47 MB

     Dynamical RAM for           str. fact:       2.73 MB

     Dynamical RAM for           local pot:       0.00 MB

     Dynamical RAM for          nlocal pot:       1.69 MB

     Dynamical RAM for                qrad:       5.27 MB

     Dynamical RAM for          rho,v,vnew:      12.49 MB

     Dynamical RAM for               rhoin:       4.16 MB

     Dynamical RAM for            rho*nmix:      29.12 MB

     Dynamical RAM for           G-vectors:       3.57 MB

     Dynamical RAM for          h,s,v(r/c):       0.13 MB

     Dynamical RAM for          <psi|beta>:       0.02 MB

     Dynamical RAM for                 psi:       2.18 MB

     Dynamical RAM for                hpsi:       2.18 MB

     Dynamical RAM for                spsi:       2.18 MB

     Dynamical RAM for      wfcinit/wfcrot:       2.19 MB

     Dynamical RAM for           addusdens:     172.00 MB

     Dynamical RAM for          addusforce:     173.84 MB

     Estimated static dynamical RAM per process >      96.07 MB

     Estimated max dynamical RAM per process >     299.02 MB

     Check: negative core charge=   -0.000008
     Generating pointlists ...
     new r_m :   0.2748 (alat units)  1.4998 (a.u.) for type    1
     new r_m :   0.2748 (alat units)  1.4998 (a.u.) for type    2
     new r_m :   0.4125 (alat units)  2.2512 (a.u.) for type    3

     Initial potential from superposition of free atoms

     starting charge      37.9934, renormalised to      38.0000
     Starting wfcs are   23 randomized atomic wfcs +    4 random wfcs
     Checking if some PAW data can be deallocated... 

     total cpu time spent up to now is        3.8 secs

     Self-consistent Calculation
[tb_dev] Currently allocated     6.54E-01 Mbytes, locked:    0 /   6
[tb_pin] Currently allocated     0.00E+00 Mbytes, locked:    0 /   0

     iteration #  1     ecut=    60.00 Ry     beta= 0.30
     Davidson diagonalization with overlap

---- Real-time Memory Report at c_bands before calling an iterative solver
           688 MiB given to the printing process from OS
             0 MiB allocation reported by mallinfo(arena+hblkhd)
        849436 MiB available memory on the node where the printing process lives
     GPU memory used/free/total (MiB): 998 / 80152 / 81151
------------------
     ethr =  1.00E-02,  avg # of iterations =  9.6

     total cpu time spent up to now is        5.9 secs

     total energy              =    -569.08154075 Ry
     estimated scf accuracy    <       1.51509163 Ry

     total magnetization       =     4.02 Bohr mag/cell
     absolute magnetization    =     4.02 Bohr mag/cell
[tb_dev] Currently allocated     3.05E-05 Mbytes, locked:    0 /   2
[tb_pin] Currently allocated     0.00E+00 Mbytes, locked:    0 /   0

     iteration #  2     ecut=    60.00 Ry     beta= 0.30
     Davidson diagonalization with overlap

---- Real-time Memory Report at c_bands before calling an iterative solver
           730 MiB given to the printing process from OS
             0 MiB allocation reported by mallinfo(arena+hblkhd)
        849357 MiB available memory on the node where the printing process lives
     GPU memory used/free/total (MiB): 1014 / 80136 / 81151
------------------
     ethr =  3.99E-03,  avg # of iterations =  2.0

     total cpu time spent up to now is        7.0 secs

     total energy              =    -569.06234061 Ry
     estimated scf accuracy    <       0.53401066 Ry

     total magnetization       =     3.94 Bohr mag/cell
     absolute magnetization    =     3.94 Bohr mag/cell
[tb_dev] Currently allocated     3.05E-05 Mbytes, locked:    0 /   2
[tb_pin] Currently allocated     0.00E+00 Mbytes, locked:    0 /   0

     iteration #  3     ecut=    60.00 Ry     beta= 0.30
     Davidson diagonalization with overlap

---- Real-time Memory Report at c_bands before calling an iterative solver
           730 MiB given to the printing process from OS
             0 MiB allocation reported by mallinfo(arena+hblkhd)
        849360 MiB available memory on the node where the printing process lives
     GPU memory used/free/total (MiB): 1014 / 80136 / 81151
------------------
     ethr =  1.41E-03,  avg # of iterations =  2.7

     total cpu time spent up to now is        8.2 secs

     total energy              =    -569.26160661 Ry
     estimated scf accuracy    <       0.88281526 Ry

     total magnetization       =     1.62 Bohr mag/cell
     absolute magnetization    =     1.69 Bohr mag/cell
[tb_dev] Currently allocated     3.05E-05 Mbytes, locked:    0 /   2
[tb_pin] Currently allocated     0.00E+00 Mbytes, locked:    0 /   0

     iteration #  4     ecut=    60.00 Ry     beta= 0.30
     Davidson diagonalization with overlap

---- Real-time Memory Report at c_bands before calling an iterative solver
           733 MiB given to the printing process from OS
             0 MiB allocation reported by mallinfo(arena+hblkhd)
        849354 MiB available memory on the node where the printing process lives
     GPU memory used/free/total (MiB): 1014 / 80136 / 81151
------------------
     ethr =  1.41E-03,  avg # of iterations =  1.6

     total cpu time spent up to now is        9.4 secs

     total energy              =    -569.30002969 Ry
     estimated scf accuracy    <       1.76604728 Ry

     total magnetization       =     1.11 Bohr mag/cell
     absolute magnetization    =     1.31 Bohr mag/cell
[tb_dev] Currently allocated     3.05E-05 Mbytes, locked:    0 /   2
[tb_pin] Currently allocated     0.00E+00 Mbytes, locked:    0 /   0

     iteration #  5     ecut=    60.00 Ry     beta= 0.30
     Davidson diagonalization with overlap

---- Real-time Memory Report at c_bands before calling an iterative solver
           735 MiB given to the printing process from OS
             0 MiB allocation reported by mallinfo(arena+hblkhd)
        849273 MiB available memory on the node where the printing process lives
     GPU memory used/free/total (MiB): 1014 / 80136 / 81151
------------------
     ethr =  1.41E-03,  avg # of iterations =  1.6

     total cpu time spent up to now is       10.5 secs

     total energy              =    -569.10819710 Ry
     estimated scf accuracy    <       1.44675085 Ry

     total magnetization       =     0.60 Bohr mag/cell
     absolute magnetization    =     1.13 Bohr mag/cell
[tb_dev] Currently allocated     3.05E-05 Mbytes, locked:    0 /   2
[tb_pin] Currently allocated     0.00E+00 Mbytes, locked:    0 /   0

     iteration #  6     ecut=    60.00 Ry     beta= 0.30
     Davidson diagonalization with overlap

---- Real-time Memory Report at c_bands before calling an iterative solver
           736 MiB given to the printing process from OS
             0 MiB allocation reported by mallinfo(arena+hblkhd)
        849252 MiB available memory on the node where the printing process lives
     GPU memory used/free/total (MiB): 1014 / 80136 / 81151
------------------
     ethr =  1.41E-03,  avg # of iterations =  2.0

     total cpu time spent up to now is       11.6 secs

     total energy              =    -569.24689278 Ry
     estimated scf accuracy    <       0.04636714 Ry

     total magnetization       =     0.36 Bohr mag/cell
     absolute magnetization    =     0.65 Bohr mag/cell
[tb_dev] Currently allocated     3.05E-05 Mbytes, locked:    0 /   2
[tb_pin] Currently allocated     0.00E+00 Mbytes, locked:    0 /   0

     iteration #  7     ecut=    60.00 Ry     beta= 0.30
     Davidson diagonalization with overlap

---- Real-time Memory Report at c_bands before calling an iterative solver
           736 MiB given to the printing process from OS
             0 MiB allocation reported by mallinfo(arena+hblkhd)
        849225 MiB available memory on the node where the printing process lives
     GPU memory used/free/total (MiB): 1014 / 80136 / 81151
------------------
     ethr =  1.22E-04,  avg # of iterations =  8.0

     total cpu time spent up to now is       13.5 secs

     total energy              =    -569.25214069 Ry
     estimated scf accuracy    <       0.04405950 Ry

     total magnetization       =     0.25 Bohr mag/cell
     absolute magnetization    =     0.59 Bohr mag/cell
[tb_dev] Currently allocated     3.05E-05 Mbytes, locked:    0 /   2
[tb_pin] Currently allocated     0.00E+00 Mbytes, locked:    0 /   0

     iteration #  8     ecut=    60.00 Ry     beta= 0.30
     Davidson diagonalization with overlap

---- Real-time Memory Report at c_bands before calling an iterative solver
           740 MiB given to the printing process from OS
             0 MiB allocation reported by mallinfo(arena+hblkhd)
        849216 MiB available memory on the node where the printing process lives
     GPU memory used/free/total (MiB): 1014 / 80136 / 81151
------------------
     ethr =  1.16E-04,  avg # of iterations =  3.2

     total cpu time spent up to now is       14.8 secs

     total energy              =    -569.25757067 Ry
     estimated scf accuracy    <       0.01931037 Ry

     total magnetization       =    -0.20 Bohr mag/cell
     absolute magnetization    =     0.22 Bohr mag/cell
[tb_dev] Currently allocated     3.05E-05 Mbytes, locked:    0 /   2
[tb_pin] Currently allocated     0.00E+00 Mbytes, locked:    0 /   0

     iteration #  9     ecut=    60.00 Ry     beta= 0.30
     Davidson diagonalization with overlap

---- Real-time Memory Report at c_bands before calling an iterative solver
           742 MiB given to the printing process from OS
             0 MiB allocation reported by mallinfo(arena+hblkhd)
        849203 MiB available memory on the node where the printing process lives
     GPU memory used/free/total (MiB): 1014 / 80136 / 81151
------------------
     ethr =  5.08E-05,  avg # of iterations =  1.7

     total cpu time spent up to now is       16.0 secs

     total energy              =    -569.26832557 Ry
     estimated scf accuracy    <       0.01700526 Ry

     total magnetization       =     0.13 Bohr mag/cell
     absolute magnetization    =     0.36 Bohr mag/cell
[tb_dev] Currently allocated     3.05E-05 Mbytes, locked:    0 /   2
[tb_pin] Currently allocated     0.00E+00 Mbytes, locked:    0 /   0

     iteration # 10     ecut=    60.00 Ry     beta= 0.30
     Davidson diagonalization with overlap

---- Real-time Memory Report at c_bands before calling an iterative solver
           744 MiB given to the printing process from OS
             0 MiB allocation reported by mallinfo(arena+hblkhd)
        849206 MiB available memory on the node where the printing process lives
     GPU memory used/free/total (MiB): 1014 / 80136 / 81151
------------------
     ethr =  4.48E-05,  avg # of iterations =  1.8

     total cpu time spent up to now is       17.1 secs

     total energy              =    -569.26997913 Ry
     estimated scf accuracy    <       0.00121598 Ry

     total magnetization       =     0.12 Bohr mag/cell
     absolute magnetization    =     0.24 Bohr mag/cell
[tb_dev] Currently allocated     3.05E-05 Mbytes, locked:    0 /   2
[tb_pin] Currently allocated     0.00E+00 Mbytes, locked:    0 /   0

     iteration # 11     ecut=    60.00 Ry     beta= 0.30
     Davidson diagonalization with overlap

---- Real-time Memory Report at c_bands before calling an iterative solver
           744 MiB given to the printing process from OS
             0 MiB allocation reported by mallinfo(arena+hblkhd)
        849217 MiB available memory on the node where the printing process lives
     GPU memory used/free/total (MiB): 1014 / 80136 / 81151
------------------
     ethr =  3.20E-06,  avg # of iterations =  7.5

     total cpu time spent up to now is       18.9 secs

     total energy              =    -569.27062884 Ry
     estimated scf accuracy    <       0.00130823 Ry

     total magnetization       =     0.18 Bohr mag/cell
     absolute magnetization    =     0.27 Bohr mag/cell
[tb_dev] Currently allocated     3.05E-05 Mbytes, locked:    0 /   2
[tb_pin] Currently allocated     0.00E+00 Mbytes, locked:    0 /   0

     iteration # 12     ecut=    60.00 Ry     beta= 0.30
     Davidson diagonalization with overlap

---- Real-time Memory Report at c_bands before calling an iterative solver
           745 MiB given to the printing process from OS
             0 MiB allocation reported by mallinfo(arena+hblkhd)
        849236 MiB available memory on the node where the printing process lives
     GPU memory used/free/total (MiB): 1014 / 80136 / 81151
------------------
     ethr =  3.20E-06,  avg # of iterations =  1.2

     total cpu time spent up to now is       20.0 secs

     total energy              =    -569.27076937 Ry
     estimated scf accuracy    <       0.00018665 Ry

     total magnetization       =     0.19 Bohr mag/cell
     absolute magnetization    =     0.25 Bohr mag/cell
[tb_dev] Currently allocated     3.05E-05 Mbytes, locked:    0 /   2
[tb_pin] Currently allocated     0.00E+00 Mbytes, locked:    0 /   0

     iteration # 13     ecut=    60.00 Ry     beta= 0.30
     Davidson diagonalization with overlap

---- Real-time Memory Report at c_bands before calling an iterative solver
           745 MiB given to the printing process from OS
             0 MiB allocation reported by mallinfo(arena+hblkhd)
        849261 MiB available memory on the node where the printing process lives
     GPU memory used/free/total (MiB): 1014 / 80136 / 81151
------------------
     ethr =  4.91E-07,  avg # of iterations =  4.9

     total cpu time spent up to now is       21.6 secs

     total energy              =    -569.27090549 Ry
     estimated scf accuracy    <       0.00009739 Ry

     total magnetization       =     0.16 Bohr mag/cell
     absolute magnetization    =     0.21 Bohr mag/cell
[tb_dev] Currently allocated     3.05E-05 Mbytes, locked:    0 /   2
[tb_pin] Currently allocated     0.00E+00 Mbytes, locked:    0 /   0

     iteration # 14     ecut=    60.00 Ry     beta= 0.30
     Davidson diagonalization with overlap

---- Real-time Memory Report at c_bands before calling an iterative solver
           745 MiB given to the printing process from OS
             0 MiB allocation reported by mallinfo(arena+hblkhd)
        849272 MiB available memory on the node where the printing process lives
     GPU memory used/free/total (MiB): 1014 / 80136 / 81151
------------------
     ethr =  2.56E-07,  avg # of iterations =  1.9

     total cpu time spent up to now is       22.7 secs

     total energy              =    -569.27090458 Ry
     estimated scf accuracy    <       0.00009883 Ry

     total magnetization       =     0.17 Bohr mag/cell
     absolute magnetization    =     0.22 Bohr mag/cell
[tb_dev] Currently allocated     3.05E-05 Mbytes, locked:    0 /   2
[tb_pin] Currently allocated     0.00E+00 Mbytes, locked:    0 /   0

     iteration # 15     ecut=    60.00 Ry     beta= 0.30
     Davidson diagonalization with overlap

---- Real-time Memory Report at c_bands before calling an iterative solver
           745 MiB given to the printing process from OS
             0 MiB allocation reported by mallinfo(arena+hblkhd)
        849292 MiB available memory on the node where the printing process lives
     GPU memory used/free/total (MiB): 1014 / 80136 / 81151
------------------
     ethr =  2.56E-07,  avg # of iterations =  1.3

     total cpu time spent up to now is       23.8 secs

     total energy              =    -569.27091799 Ry
     estimated scf accuracy    <       0.00000285 Ry

     total magnetization       =     0.18 Bohr mag/cell
     absolute magnetization    =     0.23 Bohr mag/cell
[tb_dev] Currently allocated     3.05E-05 Mbytes, locked:    0 /   2
[tb_pin] Currently allocated     0.00E+00 Mbytes, locked:    0 /   0

     iteration # 16     ecut=    60.00 Ry     beta= 0.30
     Davidson diagonalization with overlap

---- Real-time Memory Report at c_bands before calling an iterative solver
           745 MiB given to the printing process from OS
             0 MiB allocation reported by mallinfo(arena+hblkhd)
        849303 MiB available memory on the node where the printing process lives
     GPU memory used/free/total (MiB): 1014 / 80136 / 81151
------------------
     ethr =  7.49E-09,  avg # of iterations =  9.9

     total cpu time spent up to now is       26.0 secs

     total energy              =    -569.27092380 Ry
     estimated scf accuracy    <       0.00000098 Ry

     total magnetization       =     0.18 Bohr mag/cell
     absolute magnetization    =     0.23 Bohr mag/cell
[tb_dev] Currently allocated     3.05E-05 Mbytes, locked:    0 /   2
[tb_pin] Currently allocated     0.00E+00 Mbytes, locked:    0 /   0

     iteration # 17     ecut=    60.00 Ry     beta= 0.30
     Davidson diagonalization with overlap

---- Real-time Memory Report at c_bands before calling an iterative solver
           745 MiB given to the printing process from OS
             0 MiB allocation reported by mallinfo(arena+hblkhd)
        849784 MiB available memory on the node where the printing process lives
     GPU memory used/free/total (MiB): 1014 / 80136 / 81151
------------------
     ethr =  2.58E-09,  avg # of iterations =  2.3

     total cpu time spent up to now is       27.2 secs

     total energy              =    -569.27092406 Ry
     estimated scf accuracy    <       0.00000038 Ry

     total magnetization       =     0.18 Bohr mag/cell
     absolute magnetization    =     0.23 Bohr mag/cell
[tb_dev] Currently allocated     3.05E-05 Mbytes, locked:    0 /   2
[tb_pin] Currently allocated     0.00E+00 Mbytes, locked:    0 /   0

     iteration # 18     ecut=    60.00 Ry     beta= 0.30
     Davidson diagonalization with overlap

---- Real-time Memory Report at c_bands before calling an iterative solver
           745 MiB given to the printing process from OS
             0 MiB allocation reported by mallinfo(arena+hblkhd)
        849611 MiB available memory on the node where the printing process lives
     GPU memory used/free/total (MiB): 1014 / 80136 / 81151
------------------
     ethr =  9.87E-10,  avg # of iterations =  5.4
 
     Magnetic moment per site  (integrated on atomic sphere of radius R)
     atom   1 (R=0.275)  charge= 14.1366  magn=  0.1672
     atom   2 (R=0.275)  charge=  5.2413  magn=  0.0093
     atom   3 (R=0.275)  charge=  5.2413  magn=  0.0093
     atom   4 (R=0.413)  charge=  8.1805  magn= -0.0120

     total cpu time spent up to now is       28.7 secs

     End of self-consistent calculation

 ------ SPIN UP ------------


          k = 0.0000 0.0000 0.0000 (  2625 PWs)   bands (ev):

   -87.5473 -50.7831 -50.7831 -50.7814 -46.0472 -17.8732 -17.8732 -17.8536
   -11.9321 -10.1166   1.4747   2.5622   2.5622   4.8916   5.9035   5.9035
     6.3493   6.4971   6.4971   7.9574  10.0597  10.0597  13.1729  15.2317
    18.0526  22.1075  24.9193

     occupation numbers 
     1.0000   1.0000   1.0000   1.0000   1.0000   1.0000   1.0000   1.0000
     1.0000   1.0000   1.0000   1.0000   1.0000   1.0000   1.0000   1.0000
     1.0000   1.0000   1.0000   0.0705   0.0000   0.0000   0.0000   0.0000
     0.0000   0.0000   0.0000

          k = 0.0000 0.0000 0.1395 (  2666 PWs)   bands (ev):

   -87.5474 -50.7833 -50.7833 -50.7816 -46.0473 -17.8736 -17.8736 -17.8542
   -11.9269 -10.1246   1.6339   2.5623   2.5623   4.1894   5.9026   5.9026
     6.4971   6.4971   7.2498   7.8806  10.0604  10.0604  12.2404  16.1594
    17.9637  22.0714  24.7246

     occupation numbers 
     1.0000   1.0000   1.0000   1.0000   1.0000   1.0000   1.0000   1.0000
     1.0000   1.0000   1.0000   1.0000   1.0000   1.0000   1.0000   1.0000
     1.0000   1.0000   1.0536   0.1542   0.0000   0.0000   0.0000   0.0000
     0.0000   0.0000   0.0000

          k = 0.0000 0.1443 0.0000 (  2643 PWs)   bands (ev):

   -87.5466 -50.7916 -50.7852 -50.7803 -46.0421 -17.9166 -17.8827 -17.8467
   -11.7611 -10.1124   1.7063   2.2894   2.6646   4.8240   5.3134   5.3605
     6.6448   6.7763   6.9497   8.1254   9.5850   9.9597  13.4678  15.8607
    18.6914  21.6113  22.1999

     occupation numbers 
     1.0000   1.0000   1.0000   1.0000   1.0000   1.0000   1.0000   1.0000
     1.0000   1.0000   1.0000   1.0000   1.0000   1.0000   1.0000   1.0000
     1.0000   1.0001   1.0017   0.0075   0.0000   0.0000   0.0000   0.0000
     0.0000   0.0000   0.0000

          k = 0.0000 0.1443 0.1395 (  2651 PWs)   bands (ev):

   -87.5466 -50.7917 -50.7852 -50.7803 -46.0421 -17.9167 -17.8827 -17.8470
   -11.7566 -10.1191   1.8399   2.2531   2.6647   4.7281   4.8747   5.3602
     6.7388   6.9496   7.3946   7.9712   9.7246   9.9601  12.6844  16.7198
    18.4172  21.3977  22.4932

     occupation numbers 
     1.0000   1.0000   1.0000   1.0000   1.0000   1.0000   1.0000   1.0000
     1.0000   1.0000   1.0000   1.0000   1.0000   1.0000   1.0000   1.0000
     1.0000   1.0017   1.0816   0.0603   0.0000   0.0000   0.0000   0.0000
     0.0000   0.0000   0.0000

          k = 0.0000 0.2887 0.0000 (  2620 PWs)   bands (ev):

   -87.5447 -50.8119 -50.7900 -50.7772 -46.0296 -18.0196 -17.9049 -17.8293
   -11.3120 -10.1157   1.9083   2.2872   2.9077   3.3854   4.7561   5.6453
     6.8668   7.2456   7.2468   8.3114   9.2180   9.8335  14.0566  17.2528
    18.0259  20.0931  21.5633

     occupation numbers 
     1.0000   1.0000   1.0000   1.0000   1.0000   1.0000   1.0000   1.0000
     1.0000   1.0000   1.0000   1.0000   1.0000   1.0000   1.0000   1.0000
     1.0004   1.0522   1.0526   0.0003   0.0000   0.0000   0.0000   0.0000
     0.0000   0.0000   0.0000

          k = 0.0000 0.2887 0.1395 (  2636 PWs)   bands (ev):

   -87.5448 -50.8119 -50.7901 -50.7772 -46.0297 -18.0197 -17.9051 -17.8295
   -11.3090 -10.1194   1.8525   2.3746   2.9078   3.4293   4.7559   5.4717
     6.7860   7.2467   7.5472   7.9055   9.6905   9.8332  13.6145  17.7405
    17.9877  19.3877  21.7180

     occupation numbers 
     1.0000   1.0000   1.0000   1.0000   1.0000   1.0000   1.0000   1.0000
     1.0000   1.0000   1.0000   1.0000   1.0000   1.0000   1.0000   1.0000
     1.0001   1.0526   0.9340   0.1216   0.0000   0.0000   0.0000   0.0000
     0.0000   0.0000   0.0000

          k = 0.0000 0.4330 0.0000 (  2652 PWs)   bands (ev):

   -87.5430 -50.8324 -50.7951 -50.7743 -46.0173 -18.1211 -17.9277 -17.8123
   -10.7701 -10.1708   1.4075   2.3866   3.1038   3.3391   4.4741   5.1236
     6.7943   7.1344   7.3412   8.9473   9.8658  10.0775  14.4375  15.3855
    18.2901  19.2306  20.4418

     occupation numbers 
     1.0000   1.0000   1.0000   1.0000   1.0000   1.0000   1.0000   1.0000
     1.0000   1.0000   1.0000   1.0000   1.0000   1.0000   1.0000   1.0000
     1.0001   1.0200   1.0805   0.0000   0.0000   0.0000   0.0000   0.0000
     0.0000   0.0000   0.0000

          k = 0.0000 0.4330 0.1395 (  2641 PWs)   bands (ev):

   -87.5430 -50.8323 -50.7950 -50.7743 -46.0173 -18.1210 -17.9274 -17.8123
   -10.7687 -10.1722   1.3992   2.3634   3.1040   3.3942   4.4739   5.1491
     6.7728   7.1345   7.3544   8.6634   9.8655  10.4020  14.4966  14.9967
    18.8696  19.2215  19.8367

     occupation numbers 
     1.0000   1.0000   1.0000   1.0000   1.0000   1.0000   1.0000   1.0000
     1.0000   1.0000   1.0000   1.0000   1.0000   1.0000   1.0000   1.0000
     1.0001   1.0200   1.0823   0.0000   0.0000   0.0000   0.0000   0.0000
     0.0000   0.0000   0.0000

          k = 0.0000-0.5774 0.0000 (  2642 PWs)   bands (ev):

   -87.5422 -50.8409 -50.7970 -50.7729 -46.0122 -18.1626 -17.9367 -17.8049
   -10.3927 -10.3311   1.0143   2.4950   3.1476   3.6502   4.4519   4.7328
     6.6510   7.0023   7.2881   9.3385   9.9141  11.4551  12.6661  16.4923
    16.5775  19.6396  19.8562

     occupation numbers 
     1.0000   1.0000   1.0000   1.0000   1.0000   1.0000   1.0000   1.0000
     1.0000   1.0000   1.0000   1.0000   1.0000   1.0000   1.0000   1.0000
     1.0000   1.0038   1.0666   0.0000   0.0000   0.0000   0.0000   0.0000
     0.0000   0.0000   0.0000

          k = 0.0000-0.5774 0.1395 (  2638 PWs)   bands (ev):

   -87.5422 -50.8408 -50.7970 -50.7730 -46.0121 -18.1624 -17.9366 -17.8051
   -10.3937 -10.3300   1.0140   2.4713   3.1478   3.6651   4.4518   4.7766
     6.6421   7.0023   7.2815   9.3175   9.9138  11.4626  12.5422  16.2998
    17.2278  19.1091  19.8902

     occupation numbers 
     1.0000   1.0000   1.0000   1.0000   1.0000   1.0000   1.0000   1.0000
     1.0000   1.0000   1.0000   1.0000   1.0000   1.0000   1.0000   1.0000
     1.0000   1.0038   1.0645   0.0000   0.0000   0.0000   0.0000   0.0000
     0.0000   0.0000   0.0000

          k = 0.1250 0.2165 0.0000 (  2659 PWs)   bands (ev):

   -87.5453 -50.8052 -50.7897 -50.7783 -46.0334 -17.9851 -17.9035 -17.8348
   -11.4509 -10.1112   2.0370   2.1148   2.7877   3.8826   4.6528   5.6780
     6.8961   7.1032   7.2477   8.2955   9.1707   9.8007  13.8957  16.8932
    19.0435  20.0397  21.2466

     occupation numbers 
     1.0000   1.0000   1.0000   1.0000   1.0000   1.0000   1.0000   1.0000
     1.0000   1.0000   1.0000   1.0000   1.0000   1.0000   1.0000   1.0000
     1.0007   1.0142   1.0529   0.0004   0.0000   0.0000   0.0000   0.0000
     0.0000   0.0000   0.0000

          k = 0.1250 0.2165 0.1395 (  2634 PWs)   bands (ev):

   -87.5453 -50.8050 -50.7896 -50.7781 -46.0333 -17.9848 -17.9034 -17.8345
   -11.4475 -10.1156   1.9753   2.2252   2.7897   3.9203   4.6515   5.3671
     6.9051   7.1226   7.5043   8.1554   9.4541   9.7483  13.4640  17.4583
    19.1181  19.2152  21.7542

     occupation numbers 
     1.0000   1.0000   1.0000   1.0000   1.0000   1.0000   1.0000   1.0000
     1.0000   1.0000   1.0000   1.0000   1.0000   1.0000   1.0000   1.0000
     1.0008   1.0177   1.0033   0.0047   0.0000   0.0000   0.0000   0.0000
     0.0000   0.0000   0.0000

          k = 0.1250 0.3608 0.0000 (  2630 PWs)   bands (ev):

   -87.5435 -50.8233 -50.7965 -50.7751 -46.0209 -18.0760 -17.9364 -17.8172
   -10.9561 -10.1328   1.8265   2.3219   2.9902   3.2552   4.1542   5.4601
     6.9270   7.2485   7.4312   8.7151   9.3224   9.9443  14.5501  16.4241
    18.2198  19.9344  20.4276

     occupation numbers 
     1.0000   1.0000   1.0000   1.0000   1.0000   1.0000   1.0000   1.0000
     1.0000   1.0000   1.0000   1.0000   1.0000   1.0000   1.0000   1.0000
     1.0012   1.0532   1.0698   0.0000   0.0000   0.0000   0.0000   0.0000
     0.0000   0.0000   0.0000

          k = 0.1250 0.3608 0.1395 (  2633 PWs)   bands (ev):

   -87.5435 -50.8233 -50.7965 -50.7751 -46.0209 -18.0760 -17.9365 -17.8173
   -10.9544 -10.1348   1.7948   2.3192   3.0245   3.3015   4.1538   5.4361
     6.9187   7.2419   7.4174   8.4654   9.5521  10.0309  14.4613  16.2642
    18.3280  19.7764  20.4220

     occupation numbers 
     1.0000   1.0000   1.0000   1.0000   1.0000   1.0000   1.0000   1.0000
     1.0000   1.0000   1.0000   1.0000   1.0000   1.0000   1.0000   1.0000
     1.0010   1.0509   1.0757   0.0000   0.0000   0.0000   0.0000   0.0000
     0.0000   0.0000   0.0000

          k = 0.1250 0.5052 0.0000 (  2636 PWs)   bands (ev):

   -87.5422 -50.8362 -50.8016 -50.7729 -46.0121 -18.1391 -17.9605 -17.8049
   -10.4986 -10.2262   1.3045   2.2999   3.2569   3.5682   4.0279   4.8220
     6.7724   7.0815   7.4072   9.2475   9.6032  11.1404  13.5744  15.9951
    17.7780  18.6948  20.1422

     occupation numbers 
     1.0000   1.0000   1.0000   1.0000   1.0000   1.0000   1.0000   1.0000
     1.0000   1.0000   1.0000   1.0000   1.0000   1.0000   1.0000   1.0000
     1.0001   1.0110   1.0789   0.0000   0.0000   0.0000   0.0000   0.0000
     0.0000   0.0000   0.0000

          k = 0.1250 0.5052 0.1395 (  2647 PWs)   bands (ev):

   -87.5422 -50.8362 -50.8016 -50.7730 -46.0122 -18.1392 -17.9605 -17.8052
   -10.4981 -10.2268   1.3041   2.2834   3.2490   3.5930   4.0278   4.8528
     6.7651   7.0838   7.3941   9.1881   9.6491  11.1361  13.4859  15.9206
    18.2683  18.4571  20.0726

     occupation numbers 
     1.0000   1.0000   1.0000   1.0000   1.0000   1.0000   1.0000   1.0000
     1.0000   1.0000   1.0000   1.0000   1.0000   1.0000   1.0000   1.0000
     1.0001   1.0113   1.0817   0.0000   0.0000   0.0000   0.0000   0.0000
     0.0000   0.0000   0.0000

          k = 0.2500 0.4330 0.0000 (  2639 PWs)   bands (ev):

   -87.5422 -50.8298 -50.8079 -50.7730 -46.0122 -18.1067 -17.9933 -17.8051
   -10.5530 -10.1729   1.8822   1.9910   2.9793   3.6042   3.7390   4.9312
     6.8590   7.1367   7.5501   9.0879   9.3616  10.9826  14.5235  15.9766
    17.3776  19.5700  19.8984

     occupation numbers 
     1.0000   1.0000   1.0000   1.0000   1.0000   1.0000   1.0000   1.0000
     1.0000   1.0000   1.0000   1.0000   1.0000   1.0000   1.0000   1.0000
     1.0004   1.0205   0.9285   0.0000   0.0000   0.0000   0.0000   0.0000
     0.0000   0.0000   0.0000

          k = 0.2500 0.4330 0.1395 (  2630 PWs)   bands (ev):

   -87.5422 -50.8297 -50.8078 -50.7730 -46.0121 -18.1065 -17.9932 -17.8052
   -10.5526 -10.1732   1.8826   1.9728   2.9837   3.6453   3.7296   4.9299
     6.8617   7.1410   7.5109   9.1936   9.3361  10.8433  14.5506  16.0309
    17.2342  19.6915  19.8635

     occupation numbers 
     1.0000   1.0000   1.0000   1.0000   1.0000   1.0000   1.0000   1.0000
     1.0000   1.0000   1.0000   1.0000   1.0000   1.0000   1.0000   1.0000
     1.0004   1.0214   0.9940   0.0000   0.0000   0.0000   0.0000   0.0000
     0.0000   0.0000   0.0000

          k = 0.2500 0.5774 0.0000 (  2630 PWs)   bands (ev):

   -87.5417 -50.8303 -50.8148 -50.7720 -46.0085 -18.1078 -18.0281 -17.7999
   -10.3153 -10.2515   1.7138   2.1193   2.7435   3.7537   4.0011   4.4464
     6.6519   7.3006   7.4967   9.2730   9.3082  12.3494  13.2062  16.6465
    17.5035  17.5672  19.5866

     occupation numbers 
     1.0000   1.0000   1.0000   1.0000   1.0000   1.0000   1.0000   1.0000
     1.0000   1.0000   1.0000   1.0000   1.0000   1.0000   1.0000   1.0000
     1.0000   1.0705   1.0132   0.0000   0.0000   0.0000   0.0000   0.0000
     0.0000   0.0000   0.0000

          k = 0.2500 0.5774 0.1395 (  2649 PWs)   bands (ev):

   -87.5417 -50.8303 -50.8148 -50.7722 -46.0085 -18.1079 -18.0282 -17.8003
   -10.3156 -10.2512   1.7132   2.1142   2.7489   3.7503   4.0061   4.4493
     6.6527   7.3013   7.4832   9.3207   9.3466  12.2031  13.0977  16.5623
    17.5940  17.8600  19.5829

     occupation numbers 
     1.0000   1.0000   1.0000   1.0000   1.0000   1.0000   1.0000   1.0000
     1.0000   1.0000   1.0000   1.0000   1.0000   1.0000   1.0000   1.0000
     1.0000   1.0707   1.0290   0.0000   0.0000   0.0000   0.0000   0.0000
     0.0000   0.0000   0.0000

          k = 0.0000 0.1443-0.1395 (  2651 PWs)   bands (ev):

   -87.5466 -50.7916 -50.7852 -50.7803 -46.0421 -17.9167 -17.8827 -17.8470
   -11.7566 -10.1190   1.8458   2.2473   2.6647   4.6390   4.9715   5.3601
     6.7274   6.9495   7.3674   8.0587   9.6242   9.9606  12.7545  16.6671
    18.4339  21.6416  22.2032

     occupation numbers 
     1.0000   1.0000   1.0000   1.0000   1.0000   1.0000   1.0000   1.0000
     1.0000   1.0000   1.0000   1.0000   1.0000   1.0000   1.0000   1.0000
     1.0000   1.0017   1.0832   0.0200   0.0000   0.0000   0.0000   0.0000
     0.0000   0.0000   0.0000

          k = 0.0000 0.2887-0.1395 (  2636 PWs)   bands (ev):

   -87.5448 -50.8119 -50.7901 -50.7772 -46.0297 -18.0197 -17.9051 -17.8295
   -11.3093 -10.1191   1.8709   2.3426   2.9078   3.4459   4.7558   5.4324
     6.8121   7.2466   7.4000   8.3883   9.2391   9.8339  13.8671  17.2841
    18.4215  19.4645  21.7854

     occupation numbers 
     1.0000   1.0000   1.0000   1.0000   1.0000   1.0000   1.0000   1.0000
     1.0000   1.0000   1.0000   1.0000   1.0000   1.0000   1.0000   1.0000
     1.0001   1.0525   1.0806   0.0001   0.0000   0.0000   0.0000   0.0000
     0.0000   0.0000   0.0000

          k = 0.0000 0.4330-0.1395 (  2641 PWs)   bands (ev):

   -87.5430 -50.8323 -50.7950 -50.7742 -46.0173 -18.1210 -17.9274 -17.8123
   -10.7695 -10.1712   1.3944   2.3610   3.1040   3.4182   4.4739   5.1035
     6.7885   7.1344   7.3132   9.0142   9.8658   9.9596  14.5623  15.3945
    18.3511  19.1444  20.1970

     occupation numbers 
     1.0000   1.0000   1.0000   1.0000   1.0000   1.0000   1.0000   1.0000
     1.0000   1.0000   1.0000   1.0000   1.0000   1.0000   1.0000   1.0000
     1.0001   1.0200   1.0742   0.0000   0.0000   0.0000   0.0000   0.0000
     0.0000   0.0000   0.0000

          k =-0.1250 0.3608-0.1395 (  2633 PWs)   bands (ev):

   -87.5435 -50.8233 -50.7965 -50.7751 -46.0209 -18.0760 -17.9365 -17.8173
   -10.9547 -10.1344   1.7958   2.3117   3.0153   3.3267   4.1511   5.4062
     6.9414   7.2748   7.3281   8.7871   9.3336   9.9093  14.6286  16.2813
    18.2687  20.0341  20.5582

     occupation numbers 
     1.0000   1.0000   1.0000   1.0000   1.0000   1.0000   1.0000   1.0000
     1.0000   1.0000   1.0000   1.0000   1.0000   1.0000   1.0000   1.0000
     1.0015   1.0622   1.0779   0.0000   0.0000   0.0000   0.0000   0.0000
     0.0000   0.0000   0.0000

          k =-0.1250 0.5052-0.1395 (  2647 PWs)   bands (ev):

   -87.5422 -50.8362 -50.8016 -50.7730 -46.0122 -18.1392 -17.9605 -17.8052
   -10.4989 -10.2259   1.3006   2.2856   3.2523   3.5972   4.0335   4.8320
     6.7717   7.0831   7.3832   9.3121   9.6140  10.9756  13.5365  16.2444
    17.8345  18.5375  20.2031

     occupation numbers 
     1.0000   1.0000   1.0000   1.0000   1.0000   1.0000   1.0000   1.0000
     1.0000   1.0000   1.0000   1.0000   1.0000   1.0000   1.0000   1.0000
     1.0001   1.0112   1.0829   0.0000   0.0000   0.0000   0.0000   0.0000
     0.0000   0.0000   0.0000

 ------ SPIN DOWN ----------


          k = 0.0000 0.0000 0.0000 (  2625 PWs)   bands (ev):

   -87.3455 -50.5973 -50.5973 -50.5626 -46.0522 -17.8788 -17.8788 -17.8576
   -11.9153 -10.0997   1.5172   2.6155   2.6155   4.9121   5.9166   5.9166
     6.3336   6.6877   6.6877   8.1072  10.1434  10.1434  13.1611  15.2426
    18.0644  22.1064  24.8462

     occupation numbers 
     1.0000   1.0000   1.0000   1.0000   1.0000   1.0000   1.0000   1.0000
     1.0000   1.0000   1.0000   1.0000   1.0000   1.0000   1.0000   1.0000
     1.0000   1.0000   1.0000   0.0099   0.0000   0.0000   0.0000   0.0000
     0.0000   0.0000   0.0000

          k = 0.0000 0.0000 0.1395 (  2666 PWs)   bands (ev):

   -87.3455 -50.5975 -50.5975 -50.5628 -46.0523 -17.8792 -17.8792 -17.8582
   -11.9101 -10.1077   1.6843   2.6156   2.6156   4.1805   5.9157   5.9157
     6.6877   6.6877   7.2842   8.0006  10.1442  10.1442  12.2336  16.1672
    17.9781  22.0597  24.6683

     occupation numbers 
     1.0000   1.0000   1.0000   1.0000   1.0000   1.0000   1.0000   1.0000
     1.0000   1.0000   1.0000   1.0000   1.0000   1.0000   1.0000   1.0000
     1.0000   1.0000   1.0653   0.0425   0.0000   0.0000   0.0000   0.0000
     0.0000   0.0000   0.0000

          k = 0.0000 0.1443 0.0000 (  2643 PWs)   bands (ev):

   -87.3448 -50.6059 -50.5994 -50.5615 -46.0471 -17.9226 -17.8883 -17.8507
   -11.7443 -10.0954   1.7498   2.3370   2.7159   4.8598   5.3357   5.4119
     6.6626   6.9452   7.1074   8.2414   9.6683  10.0418  13.4578  15.8706
    18.7038  21.5460  22.1684

     occupation numbers 
     1.0000   1.0000   1.0000   1.0000   1.0000   1.0000   1.0000   1.0000
     1.0000   1.0000   1.0000   1.0000   1.0000   1.0000   1.0000   1.0000
     1.0000   1.0016   1.0149   0.0010   0.0000   0.0000   0.0000   0.0000
     0.0000   0.0000   0.0000

          k = 0.0000 0.1443 0.1395 (  2651 PWs)   bands (ev):

   -87.3448 -50.6059 -50.5994 -50.5615 -46.0471 -17.9226 -17.8884 -17.8510
   -11.7398 -10.1020   1.8897   2.2987   2.7161   4.7291   4.9117   5.4115
     6.9005   7.1073   7.4686   8.0579   9.8050  10.0422  12.6757  16.7272
    18.4329  21.3261  22.4615

     occupation numbers 
     1.0000   1.0000   1.0000   1.0000   1.0000   1.0000   1.0000   1.0000
     1.0000   1.0000   1.0000   1.0000   1.0000   1.0000   1.0000   1.0000
     1.0008   1.0149   1.0436   0.0202   0.0000   0.0000   0.0000   0.0000
     0.0000   0.0000   0.0000

          k = 0.0000 0.2887 0.0000 (  2620 PWs)   bands (ev):

   -87.3429 -50.6264 -50.6042 -50.5583 -46.0346 -18.0262 -17.9106 -17.8332
   -11.2951 -10.0982   1.9504   2.3286   2.9550   3.4211   4.8055   5.6696
     7.0416   7.3681   7.4178   8.3446   9.2791   9.9129  14.0439  17.2545
    17.9482  20.1040  21.5689

     occupation numbers 
     1.0000   1.0000   1.0000   1.0000   1.0000   1.0000   1.0000   1.0000
     1.0000   1.0000   1.0000   1.0000   1.0000   1.0000   1.0000   1.0000
     1.0066   1.0833   1.0756   0.0001   0.0000   0.0000   0.0000   0.0000
     0.0000   0.0000   0.0000

          k = 0.0000 0.2887 0.1395 (  2636 PWs)   bands (ev):

   -87.3429 -50.6264 -50.6043 -50.5584 -46.0346 -18.0263 -17.9109 -17.8334
   -11.2922 -10.1020   1.8922   2.4192   2.9551   3.4691   4.8053   5.4839
     6.9496   7.4177   7.7326   7.9140   9.7344   9.9126  13.6010  17.6855
    17.9675  19.3961  21.7261

     occupation numbers 
     1.0000   1.0000   1.0000   1.0000   1.0000   1.0000   1.0000   1.0000
     1.0000   1.0000   1.0000   1.0000   1.0000   1.0000   1.0000   1.0000
     1.0017   1.0756   0.4646   0.1118   0.0000   0.0000   0.0000   0.0000
     0.0000   0.0000   0.0000

          k = 0.0000 0.4330 0.0000 (  2652 PWs)   bands (ev):

   -87.3411 -50.6471 -50.6094 -50.5554 -46.0222 -18.1284 -17.9335 -17.8161
   -10.7531 -10.1531   1.4446   2.4104   3.1517   3.3886   4.5036   5.1513
     6.9790   7.3274   7.5424   9.0053   9.9470  10.0333  14.3702  15.3564
    18.2980  19.2175  20.4539

     occupation numbers 
     1.0000   1.0000   1.0000   1.0000   1.0000   1.0000   1.0000   1.0000
     1.0000   1.0000   1.0000   1.0000   1.0000   1.0000   1.0000   1.0000
     1.0027   1.0777   0.9428   0.0000   0.0000   0.0000   0.0000   0.0000
     0.0000   0.0000   0.0000

          k = 0.0000 0.4330 0.1395 (  2641 PWs)   bands (ev):

   -87.3411 -50.6470 -50.6093 -50.5554 -46.0222 -18.1283 -17.9333 -17.8162
   -10.7517 -10.1545   1.4360   2.3868   3.1520   3.4459   4.5034   5.1771
     6.9547   7.3275   7.5561   8.6997   9.9467  10.3812  14.4254  14.9736
    18.8580  19.2291  19.8429

     occupation numbers 
     1.0000   1.0000   1.0000   1.0000   1.0000   1.0000   1.0000   1.0000
     1.0000   1.0000   1.0000   1.0000   1.0000   1.0000   1.0000   1.0000
     1.0019   1.0777   0.9168   0.0000   0.0000   0.0000   0.0000   0.0000
     0.0000   0.0000   0.0000

          k = 0.0000-0.5774 0.0000 (  2642 PWs)   bands (ev):

   -87.3403 -50.6556 -50.6113 -50.5540 -46.0170 -18.1702 -17.9427 -17.8087
   -10.3758 -10.3130   1.0491   2.5111   3.1986   3.7102   4.4657   4.7519
     6.8507   7.2077   7.4861   9.4359   9.9974  11.3560  12.5959  16.4745
    16.5772  19.6394  19.8582

     occupation numbers 
     1.0000   1.0000   1.0000   1.0000   1.0000   1.0000   1.0000   1.0000
     1.0000   1.0000   1.0000   1.0000   1.0000   1.0000   1.0000   1.0000
     1.0003   1.0395   1.0258   0.0000   0.0000   0.0000   0.0000   0.0000
     0.0000   0.0000   0.0000

          k = 0.0000-0.5774 0.1395 (  2638 PWs)   bands (ev):

   -87.3403 -50.6555 -50.6113 -50.5540 -46.0170 -18.1700 -17.9426 -17.8089
   -10.3768 -10.3120   1.0487   2.4870   3.1988   3.7250   4.4656   4.7976
     6.8408   7.2078   7.4798   9.4087   9.9971  11.3719  12.4719  16.2831
    17.2236  19.0881  19.9211

     occupation numbers 
     1.0000   1.0000   1.0000   1.0000   1.0000   1.0000   1.0000   1.0000
     1.0000   1.0000   1.0000   1.0000   1.0000   1.0000   1.0000   1.0000
     1.0003   1.0395   1.0326   0.0000   0.0000   0.0000   0.0000   0.0000
     0.0000   0.0000   0.0000

          k = 0.1250 0.2165 0.0000 (  2659 PWs)   bands (ev):

   -87.3435 -50.6196 -50.6039 -50.5594 -46.0383 -17.9915 -17.9093 -17.8387
   -11.4340 -10.0939   2.0797   2.1589   2.8349   3.9155   4.7083   5.6996
     7.0794   7.1946   7.3990   8.3447   9.2560   9.8762  13.8845  16.9013
    18.9707  20.0247  21.2393

     occupation numbers 
     1.0000   1.0000   1.0000   1.0000   1.0000   1.0000   1.0000   1.0000
     1.0000   1.0000   1.0000   1.0000   1.0000   1.0000   1.0000   1.0000
     1.0107   1.0355   1.0808   0.0001   0.0000   0.0000   0.0000   0.0000
     0.0000   0.0000   0.0000

          k = 0.1250 0.2165 0.1395 (  2634 PWs)   bands (ev):

   -87.3434 -50.6194 -50.6038 -50.5593 -46.0383 -17.9911 -17.9092 -17.8385
   -11.4307 -10.0983   2.0151   2.2745   2.8373   3.9563   4.7066   5.3741
     7.0945   7.2420   7.6725   8.1802   9.5245   9.8228  13.4534  17.4599
    19.0651  19.1895  21.7451

     occupation numbers 
     1.0000   1.0000   1.0000   1.0000   1.0000   1.0000   1.0000   1.0000
     1.0000   1.0000   1.0000   1.0000   1.0000   1.0000   1.0000   1.0000
     1.0128   1.0509   0.6292   0.0031   0.0000   0.0000   0.0000   0.0000
     0.0000   0.0000   0.0000

          k = 0.1250 0.3608 0.0000 (  2630 PWs)   bands (ev):

   -87.3416 -50.6379 -50.6108 -50.5562 -46.0258 -18.0830 -17.9424 -17.8211
   -10.9392 -10.1152   1.8654   2.3540   3.0372   3.2933   4.1987   5.4867
     7.1198   7.4504   7.5988   8.7193   9.3875   9.9727  14.5268  16.3417
    18.2189  19.9318  20.4186

     occupation numbers 
     1.0000   1.0000   1.0000   1.0000   1.0000   1.0000   1.0000   1.0000
     1.0000   1.0000   1.0000   1.0000   1.0000   1.0000   1.0000   1.0000
     1.0171   1.0583   0.8228   0.0000   0.0000   0.0000   0.0000   0.0000
     0.0000   0.0000   0.0000

          k = 0.1250 0.3608 0.1395 (  2633 PWs)   bands (ev):

   -87.3416 -50.6379 -50.6108 -50.5562 -46.0258 -18.0830 -17.9425 -17.8211
   -10.9375 -10.1171   1.8326   2.3511   3.0713   3.3442   4.1982   5.4598
     7.1071   7.4257   7.6006   8.4819   9.6339  10.0383  14.4420  16.1794
    18.3156  19.7940  20.4179

     occupation numbers 
     1.0000   1.0000   1.0000   1.0000   1.0000   1.0000   1.0000   1.0000
     1.0000   1.0000   1.0000   1.0000   1.0000   1.0000   1.0000   1.0000
     1.0149   1.0724   0.8186   0.0000   0.0000   0.0000   0.0000   0.0000
     0.0000   0.0000   0.0000

          k = 0.1250 0.5052 0.0000 (  2636 PWs)   bands (ev):

   -87.3403 -50.6509 -50.6159 -50.5540 -46.0170 -18.1465 -17.9666 -17.8088
   -10.4814 -10.2085   1.3392   2.3270   3.2972   3.6151   4.0596   4.8477
     6.9840   7.2817   7.5879   9.3327   9.6830  11.0650  13.4902  15.9826
    17.7719  18.6693  20.1438

     occupation numbers 
     1.0000   1.0000   1.0000   1.0000   1.0000   1.0000   1.0000   1.0000
     1.0000   1.0000   1.0000   1.0000   1.0000   1.0000   1.0000   1.0000
     1.0029   1.0645   0.8484   0.0000   0.0000   0.0000   0.0000   0.0000
     0.0000   0.0000   0.0000

          k = 0.1250 0.5052 0.1395 (  2647 PWs)   bands (ev):

   -87.3403 -50.6510 -50.6159 -50.5541 -46.0170 -18.1466 -17.9666 -17.8090
   -10.4809 -10.2090   1.3387   2.3100   3.2895   3.6400   4.0597   4.8799
     6.9753   7.2845   7.5742   9.2661   9.7343  11.0633  13.4032  15.9083
    18.2581  18.4302  20.0949

     occupation numbers 
     1.0000   1.0000   1.0000   1.0000   1.0000   1.0000   1.0000   1.0000
     1.0000   1.0000   1.0000   1.0000   1.0000   1.0000   1.0000   1.0000
     1.0026   1.0655   0.8792   0.0000   0.0000   0.0000   0.0000   0.0000
     0.0000   0.0000   0.0000

          k = 0.2500 0.4330 0.0000 (  2639 PWs)   bands (ev):

   -87.3403 -50.6445 -50.6223 -50.5540 -46.0170 -18.1138 -17.9997 -17.8089
   -10.5359 -10.1551   1.9129   2.0289   3.0063   3.6513   3.7791   4.9613
     7.0812   7.3329   7.7191   9.1536   9.4503  10.9187  14.4262  15.9566
    17.3614  19.5665  19.8868

     occupation numbers 
     1.0000   1.0000   1.0000   1.0000   1.0000   1.0000   1.0000   1.0000
     1.0000   1.0000   1.0000   1.0000   1.0000   1.0000   1.0000   1.0000
     1.0110   1.0789   0.5007   0.0000   0.0000   0.0000   0.0000   0.0000
     0.0000   0.0000   0.0000

          k = 0.2500 0.4330 0.1395 (  2630 PWs)   bands (ev):

   -87.3403 -50.6444 -50.6222 -50.5541 -46.0170 -18.1136 -17.9995 -17.8090
   -10.5355 -10.1555   1.9132   2.0099   3.0108   3.6943   3.7698   4.9597
     7.0839   7.3378   7.6758   9.2683   9.4241  10.7742  14.4500  16.0154
    17.2156  19.6951  19.8512

     occupation numbers 
     1.0000   1.0000   1.0000   1.0000   1.0000   1.0000   1.0000   1.0000
     1.0000   1.0000   1.0000   1.0000   1.0000   1.0000   1.0000   1.0000
     1.0113   1.0799   0.6201   0.0000   0.0000   0.0000   0.0000   0.0000
     0.0000   0.0000   0.0000

          k = 0.2500 0.5774 0.0000 (  2630 PWs)   bands (ev):

   -87.3398 -50.6449 -50.6293 -50.5531 -46.0133 -18.1150 -18.0346 -17.8038
   -10.2980 -10.2338   1.7469   2.1531   2.7695   3.7903   4.0509   4.4700
     6.8868   7.4879   7.6748   9.3565   9.3960  12.2548  13.1163  16.6308
    17.4807  17.5641  19.5736

     occupation numbers 
     1.0000   1.0000   1.0000   1.0000   1.0000   1.0000   1.0000   1.0000
     1.0000   1.0000   1.0000   1.0000   1.0000   1.0000   1.0000   1.0000
     1.0006   1.0237   0.6228   0.0000   0.0000   0.0000   0.0000   0.0000
     0.0000   0.0000   0.0000

          k = 0.2500 0.5774 0.1395 (  2649 PWs)   bands (ev):

   -87.3398 -50.6450 -50.6293 -50.5532 -46.0134 -18.1151 -18.0348 -17.8041
   -10.2983 -10.2335   1.7463   2.1478   2.7747   3.7867   4.0560   4.4740
     6.8877   7.4890   7.6605   9.4082   9.4368  12.1043  13.0061  16.5433
    17.5737  17.8581  19.5777

     occupation numbers 
     1.0000   1.0000   1.0000   1.0000   1.0000   1.0000   1.0000   1.0000
     1.0000   1.0000   1.0000   1.0000   1.0000   1.0000   1.0000   1.0000
     1.0006   1.0225   0.6623   0.0000   0.0000   0.0000   0.0000   0.0000
     0.0000   0.0000   0.0000

          k = 0.0000 0.1443-0.1395 (  2651 PWs)   bands (ev):

   -87.3448 -50.6059 -50.5994 -50.5615 -46.0471 -17.9226 -17.8884 -17.8510
   -11.7398 -10.1020   1.8957   2.2930   2.7161   4.6450   5.0040   5.4115
     6.8826   7.1072   7.4576   8.1315   9.7070  10.0428  12.7471  16.6730
    18.4508  21.5501  22.1956

     occupation numbers 
     1.0000   1.0000   1.0000   1.0000   1.0000   1.0000   1.0000   1.0000
     1.0000   1.0000   1.0000   1.0000   1.0000   1.0000   1.0000   1.0000
     1.0005   1.0149   1.0529   0.0068   0.0000   0.0000   0.0000   0.0000
     0.0000   0.0000   0.0000

          k = 0.0000 0.2887-0.1395 (  2636 PWs)   bands (ev):

   -87.3429 -50.6264 -50.6043 -50.5584 -46.0346 -18.0263 -17.9109 -17.8334
   -11.2924 -10.1017   1.9103   2.3874   2.9551   3.4860   4.8052   5.4436
     6.9742   7.4176   7.5626   8.4082   9.2952   9.9132  13.8555  17.2540
    18.3600  19.4881  21.7897

     occupation numbers 
     1.0000   1.0000   1.0000   1.0000   1.0000   1.0000   1.0000   1.0000
     1.0000   1.0000   1.0000   1.0000   1.0000   1.0000   1.0000   1.0000
     1.0025   1.0756   0.9038   0.0000   0.0000   0.0000   0.0000   0.0000
     0.0000   0.0000   0.0000

          k = 0.0000 0.4330-0.1395 (  2641 PWs)   bands (ev):

   -87.3411 -50.6470 -50.6093 -50.5553 -46.0222 -18.1283 -17.9333 -17.8162
   -10.7525 -10.1536   1.4310   2.3842   3.1519   3.4720   4.5034   5.1286
     6.9694   7.3274   7.5128   9.0787   9.9157   9.9470  14.4844  15.3755
    18.3419  19.1330  20.2329

     occupation numbers 
     1.0000   1.0000   1.0000   1.0000   1.0000   1.0000   1.0000   1.0000
     1.0000   1.0000   1.0000   1.0000   1.0000   1.0000   1.0000   1.0000
     1.0023   1.0777   0.9913   0.0000   0.0000   0.0000   0.0000   0.0000
     0.0000   0.0000   0.0000

          k =-0.1250 0.3608-0.1395 (  2633 PWs)   bands (ev):

   -87.3416 -50.6379 -50.6108 -50.5562 -46.0258 -18.0830 -17.9425 -17.8211
   -10.9378 -10.1167   1.8334   2.3436   3.0621   3.3704   4.1956   5.4282
     7.1336   7.4562   7.5043   8.8082   9.3963   9.9378  14.6082  16.1997
    18.2472  20.0611  20.5558

     occupation numbers 
     1.0000   1.0000   1.0000   1.0000   1.0000   1.0000   1.0000   1.0000
     1.0000   1.0000   1.0000   1.0000   1.0000   1.0000   1.0000   1.0000
     1.0199   1.0540   1.0033   0.0000   0.0000   0.0000   0.0000   0.0000
     0.0000   0.0000   0.0000

          k =-0.1250 0.5052-0.1395 (  2647 PWs)   bands (ev):

   -87.3403 -50.6510 -50.6159 -50.5541 -46.0170 -18.1466 -17.9666 -17.8090
   -10.4817 -10.2081   1.3351   2.3121   3.2926   3.6449   4.0664   4.8575
     6.9824   7.2833   7.5629   9.4040   9.6942  10.8966  13.4515  16.2293
    17.8250  18.5117  20.2256

     occupation numbers 
     1.0000   1.0000   1.0000   1.0000   1.0000   1.0000   1.0000   1.0000
     1.0000   1.0000   1.0000   1.0000   1.0000   1.0000   1.0000   1.0000
     1.0028   1.0650   0.9030   0.0000   0.0000   0.0000   0.0000   0.0000
     0.0000   0.0000   0.0000

     the Fermi energy is     7.7573 ev

!    total energy              =    -569.27092433 Ry
     total all-electron energy =     -3412.761480 Ry
     estimated scf accuracy    <       0.00000008 Ry
     smearing contrib. (-TS)   =       0.00634863 Ry
     internal energy E=F+TS    =    -569.27727296 Ry

     The total energy is F=E-TS. E is the sum of the following terms:
     one-electron contribution =    -416.34964056 Ry
     hartree contribution      =     225.97102824 Ry
     xc contribution           =     -60.14434655 Ry
     ewald contribution        =    -196.82218580 Ry
     one-center paw contrib.   =    -121.93212829 Ry
      -> PAW hartree energy AE =     344.15618403 Ry
      -> PAW hartree energy PS =    -344.14006438 Ry
      -> PAW xc energy AE      =    -179.05569540 Ry
      -> PAW xc energy PS      =      57.10744746 Ry
      -> total E_H with PAW    =     225.98714789 Ry
      -> total E_XC with PAW   =    -182.09259449 Ry

     total magnetization       =     0.18 Bohr mag/cell
     absolute magnetization    =     0.23 Bohr mag/cell

     convergence has been achieved in  18 iterations

     Forces acting on atoms (cartesian axes, Ry/au):

     atom    1 type  1   force =     0.00000000   -0.00000000    0.00000000
     atom    2 type  2   force =     0.00000000    0.00000000    0.02067170
     atom    3 type  2   force =     0.00000000    0.00000000   -0.02067170
     atom    4 type  3   force =     0.00000000   -0.00000000    0.00000000
     The non-local contrib.  to forces
     atom    1 type  1   force =    -0.00000000    0.00000000    0.00000000
     atom    2 type  2   force =     0.00000000    0.00000000   -0.70630469
     atom    3 type  2   force =     0.00000000    0.00000000    0.70630469
     atom    4 type  3   force =     0.00000000   -0.00000000    0.00000000
     The ionic contribution  to forces
     atom    1 type  1   force =    -0.00000000   -0.00000000   -0.00000000
     atom    2 type  2   force =     0.00000000   -0.00000000   25.79816724
     atom    3 type  2   force =    -0.00000000    0.00000000  -25.79816724
     atom    4 type  3   force =    -0.00000000    0.00000000    0.00000000
     The local contribution  to forces
     atom    1 type  1   force =    -0.00000000   -0.00000000    0.00000000
     atom    2 type  2   force =     0.00000001   -0.00000001  -25.07725119
     atom    3 type  2   force =    -0.00000001    0.00000001   25.07725119
     atom    4 type  3   force =    -0.00000000   -0.00000000    0.00000000
     The core correction contribution to forces
     atom    1 type  1   force =    -0.00000000   -0.00000000    0.00000000
     atom    2 type  2   force =    -0.00000000    0.00000000    0.00573694
     atom    3 type  2   force =     0.00000000   -0.00000000   -0.00573694
     atom    4 type  3   force =    -0.00000000   -0.00000000    0.00000000
     The Hubbard contrib.    to forces
     atom    1 type  1   force =     0.00000000    0.00000000    0.00000000
     atom    2 type  2   force =     0.00000000    0.00000000    0.00000000
     atom    3 type  2   force =     0.00000000    0.00000000    0.00000000
     atom    4 type  3   force =     0.00000000    0.00000000    0.00000000
     The SCF correction term to forces
     atom    1 type  1   force =     0.00000000   -0.00000000   -0.00000000
     atom    2 type  2   force =    -0.00000000    0.00000000    0.00032339
     atom    3 type  2   force =     0.00000000   -0.00000000   -0.00032339
     atom    4 type  3   force =     0.00000000   -0.00000000    0.00000000

     Total force =     0.029234     Total SCF correction =     0.000457

     Writing all to output data dir ./out/pw.save/ :
     XML data file, charge density, pseudopotentials, collected wavefunctions
 
     init_run     :     13.51s CPU      3.27s WALL (       1 calls)
     electrons    :     96.18s CPU     24.93s WALL (       1 calls)
     forces       :      0.82s CPU      0.55s WALL (       1 calls)

     Called by init_run:
     wfcinit      :      0.27s CPU      0.32s WALL (       1 calls)
     wfcinit:atom :      0.04s CPU      0.04s WALL (      50 calls)
     wfcinit:wfcr :      0.17s CPU      0.20s WALL (      50 calls)
     potinit      :     12.66s CPU      2.36s WALL (       1 calls)
     hinit0       :      0.49s CPU      0.48s WALL (       1 calls)

     Called by electrons:
     c_bands      :     12.21s CPU     12.11s WALL (      18 calls)
     sum_band     :      1.95s CPU      1.90s WALL (      18 calls)
     v_of_rho     :      0.31s CPU      0.15s WALL (      19 calls)
     v_h          :      0.21s CPU      0.03s WALL (      19 calls)
     v_xc         :      0.10s CPU      0.13s WALL (      20 calls)
     newd         :      0.44s CPU      0.34s WALL (      19 calls)
                                        0.34s GPU  (      19 calls)
     PAW_pot      :     84.70s CPU     10.51s WALL (      19 calls)
     mix_rho      :      0.51s CPU      0.47s WALL (      18 calls)

     Called by c_bands:
     init_us_2    :      0.78s CPU      0.72s WALL (    1900 calls)
     cegterg      :     10.78s CPU     10.78s WALL (     900 calls)

     Called by sum_band:
     sum_band:wei :      0.02s CPU      0.02s WALL (      18 calls)
                                        0.02s GPU  (      18 calls)
     sum_band:loo :      1.24s CPU      1.18s WALL (      18 calls)
                                        1.18s GPU  (      18 calls)
     sum_band:buf :      0.13s CPU      0.15s WALL (     900 calls)
                                        0.14s GPU  (     900 calls)
     sum_band:ini :      0.36s CPU      0.35s WALL (     900 calls)
                                        0.34s GPU  (     900 calls)
     sum_band:cal :      0.03s CPU      0.05s WALL (     900 calls)
                                        0.04s GPU  (     900 calls)
     sum_band:bec :      0.19s CPU      0.21s WALL (     900 calls)
                                        0.19s GPU  (     900 calls)
     addusdens    :      0.58s CPU      0.59s WALL (      18 calls)
                                        0.59s GPU  (      18 calls)
     addusd:skk   :      0.00s CPU      0.00s WALL (      54 calls)
                                        0.00s GPU  (      54 calls)

     Called by *egterg:
     cdiaghg      :      3.77s CPU      3.90s WALL (    4324 calls)
                                        3.85s GPU  (    4324 calls)
     cegterg:over :      0.78s CPU      0.81s WALL (    3424 calls)
     cegterg:upda :      0.64s CPU      0.64s WALL (    3424 calls)
     cegterg:last :      0.12s CPU      0.11s WALL (    1824 calls)
     h_psi        :      3.84s CPU      3.81s WALL (    4374 calls)
                                        3.76s GPU  (    4374 calls)
     s_psi        :      0.65s CPU      0.69s WALL (    4374 calls)
     g_psi        :      0.02s CPU      0.08s WALL (    3424 calls)
                                        0.04s GPU  (    3424 calls)

     Called by h_psi:
     h_psi:calbec :      0.13s CPU      0.24s WALL (    4374 calls)
                                        0.19s GPU  (    4374 calls)
     vloc_psi     :      2.68s CPU      2.57s WALL (    4374 calls)
                                        2.51s GPU  (    4374 calls)
     add_vuspsi   :      0.59s CPU      0.70s WALL (    4374 calls)
                                        0.65s GPU  (    4374 calls)

     General routines
     calbec       :      0.14s CPU      0.17s WALL (    5474 calls)
     fft          :      3.74s CPU      0.98s WALL (     488 calls)
                                        0.06s GPU  (     450 calls)
     ffts         :      4.80s CPU      0.83s WALL (     621 calls)
                                        0.01s GPU  (     583 calls)
     fftw         :      0.24s CPU      0.85s WALL (   14258 calls)
                                        0.70s GPU  (   14258 calls)
     interpolate  :      8.62s CPU      1.74s WALL (      38 calls)
 
     Parallel routines

     PAW routines
     PAW_pot      :     84.70s CPU     10.51s WALL (      19 calls)
     PAW_symme    :      0.02s CPU      0.01s WALL (      37 calls)
 
     PWSCF        :   1m51.45s CPU     29.34s WALL

 
   This run was terminated on:   3:16:42  12Jul2026            

=------------------------------------------------------------------------------=
   JOB DONE.
=------------------------------------------------------------------------------=
Warning: ieee_divide_by_zero is signaling
Warning: ieee_inexact is signaling
FORTRAN STOP
