
     Program PWSCF v.7.3.1 starts on 12Jul2026 at  5:42:50 

     This program is part of the open-source Quantum ESPRESSO suite
     for quantum simulation of materials; please cite
         "P. Giannozzi et al., J. Phys.:Condens. Matter 21 395502 (2009);
         "P. Giannozzi et al., J. Phys.:Condens. Matter 29 465901 (2017);
         "P. Giannozzi et al., J. Chem. Phys. 152 154105 (2020);
          URL http://www.quantum-espresso.org", 
     in publications or presentations arising from this work. More details at
     http://www.quantum-espresso.org/quote

     Parallel version (MPI & OpenMP), running on      14 processor cores
     Number of MPI processes:                 1
     Threads/MPI process:                    14

     MPI processes distributed on     1 nodes
     1367101 MiB available memory on the printing compute node when the environment starts
 
     Reading input from pw.in

     Current dimensions of program PWSCF are:
     Max number of different atomic species (ntypx) = 10
     Max number of k-points (npk) =  40000
     Max angular momentum in pseudopotentials (lmaxx) =  4
     file Co.pbe-spn-kjpaw_psl.0.3.1.UPF: wavefunction(s)  3P 3D renormalized
     file O.pbe-n-kjpaw_psl.1.0.0.UPF: wavefunction(s)  2S 2P renormalized
     file Na.pbe-spn-kjpaw_psl.1.0.0.UPF: wavefunction(s)  2P renormalized
     file H.pbe-kjpaw_psl.1.0.0.UPF: wavefunction(s)  1S renormalized
 
     Subspace diagonalization in iterative solution of the eigenvalue problem:
     a serial algorithm will be used

 
     G-vector sticks info
     --------------------
     sticks:   dense  smooth     PW     G-vecs:    dense   smooth      PW
     Sum        2941    1483    421               256907    90927   13645
 
     Using Slab Decomposition
 


     bravais-lattice index     =            4
     lattice parameter (alat)  =       9.4527  a.u.
     unit-cell volume          =    1447.6983 (a.u.)^3
     number of atoms/cell      =           22
     number of atomic types    =            4
     number of electrons       =       128.00
     number of Kohn-Sham states=           85
     kinetic-energy cutoff     =      60.0000  Ry
     charge density cutoff     =     480.0000  Ry
     scf convergence threshold =      1.0E-07
     mixing beta               =       0.3000
     number of iterations used =            8  local-TF  mixing
     Exchange-correlation= SLA  PW   PBX  PBC
                           (   1   4   3   4   0   0   0)

     GPU acceleration is ACTIVE.  1 visible GPUs per MPI rank
     GPU-aware MPI enabled


     GPU used by master process:

        Device Number: 0
        Device name: NVIDIA A100-SXM4-80GB
        Compute capability : 80
        Ratio of single to double precision performance  : 2
        Memory Clock Rate (KHz): 1593000
        Memory Bus Width (bits): 5120
        Peak Memory Bandwidth (GB/s): ******

     celldm(1)=   9.452718  celldm(2)=   0.000000  celldm(3)=   1.979144
     celldm(4)=   0.000000  celldm(5)=   0.000000  celldm(6)=   0.000000

     crystal axes: (cart. coord. in units of alat)
               a(1) = (   1.000000   0.000000   0.000000 )  
               a(2) = (  -0.500000   0.866025   0.000000 )  
               a(3) = (   0.000000   0.000000   1.979144 )  

     reciprocal axes: (cart. coord. in units 2 pi/alat)
               b(1) = (  1.000000  0.577350 -0.000000 )  
               b(2) = (  0.000000  1.154701  0.000000 )  
               b(3) = (  0.000000 -0.000000  0.505269 )  


     PseudoPot. # 1 for Co read from file:
     ../../pseudo/Co.pbe-spn-kjpaw_psl.0.3.1.UPF
     MD5 check sum: 3c0a43779828c046024e4f3be63f8e67
     Pseudo is Projector augmented-wave + core cor, Zval = 17.0
     Generated using &quot;atomic&quot; code by A. Dal Corso  v.6.2.2
     Shape of augmentation charge: PSQ
     Using radial grid of 1193 points,  6 beta functions with: 
                l(1) =   0
                l(2) =   0
                l(3) =   1
                l(4) =   1
                l(5) =   2
                l(6) =   2
     Q(r) pseudized with 0 coefficients 


     PseudoPot. # 2 for O  read from file:
     ../../pseudo/O.pbe-n-kjpaw_psl.1.0.0.UPF
     MD5 check sum: e99d9cef9b487d1ca56f5b95ecd0fd7a
     Pseudo is Projector augmented-wave + core cor, Zval =  6.0
     Generated using &quot;atomic&quot; code by A. Dal Corso  v.6.3
     Shape of augmentation charge: PSQ
     Using radial grid of 1095 points,  4 beta functions with: 
                l(1) =   0
                l(2) =   0
                l(3) =   1
                l(4) =   1
     Q(r) pseudized with 0 coefficients 


     PseudoPot. # 3 for Na read from file:
     ../../pseudo/Na.pbe-spn-kjpaw_psl.1.0.0.UPF
     MD5 check sum: 05b4deb74e3932c23ab016979dc8b5d4
     Pseudo is Projector augmented-wave + core cor, Zval =  9.0
     Generated using &quot;atomic&quot; code by A. Dal Corso  v.6.3
     Shape of augmentation charge: PSQ
     Using radial grid of 1121 points,  4 beta functions with: 
                l(1) =   0
                l(2) =   0
                l(3) =   1
                l(4) =   1
     Q(r) pseudized with 0 coefficients 


     PseudoPot. # 4 for H  read from file:
     ../../pseudo/H.pbe-kjpaw_psl.1.0.0.UPF
     MD5 check sum: d81a744832360e4a8af0b0b5b123bc2a
     Pseudo is Projector augmented-wave, Zval =  1.0
     Generated using &quot;atomic&quot; code by A. Dal Corso  v.6.3MaX
     Shape of augmentation charge: PSQ
     Using radial grid of  929 points,  2 beta functions with: 
                l(1) =   0
                l(2) =   0
     Q(r) pseudized with 0 coefficients 


     atomic species   valence    mass     pseudopotential
     Co               17.00    58.93300     Co( 1.00)
     O                 6.00    15.99900     O ( 1.00)
     Na                9.00    22.98977     Na( 1.00)
     H                 1.00     1.00800     H ( 1.00)

     Starting magnetic structure 
     atomic species   magnetization
     Co              0.300
     O               0.000
     Na              0.000
     H               0.000

     No symmetry found


                                    s                        frac. trans.

      isym =  1     identity                                     

 cryst.   s( 1) = (     1          0          0      )
                  (     0          1          0      )
                  (     0          0          1      )

 cart.    s( 1) = (  1.0000000  0.0000000  0.0000000 )
                  (  0.0000000  1.0000000  0.0000000 )
                  (  0.0000000  0.0000000  1.0000000 )


     point group C_1 (1)    
     there are  1 classes
     the character table:

       E    
A      1.00

     the symmetry operations in each class and the name of the first element:

     E        1
          identity                                               

   Cartesian axes

     site n.     atom                  positions (alat units)
         1        Co     tau(   1) = (   0.0000000   0.0000000   0.0000000  )
         2        Co     tau(   2) = (  -0.0000000   0.5773503   0.0000000  )
         3        Co     tau(   3) = (   0.5000000   0.2886751   0.0000000  )
         4        O      tau(   4) = (   0.1666667   0.2886751   0.1919170  )
         5        O      tau(   5) = (   0.6666667   0.0000000   0.1919170  )
         6        O      tau(   6) = (  -0.3333333   0.5773503   0.1919170  )
         7        O      tau(   7) = (   0.3333333   0.0000000   1.7872269  )
         8        O      tau(   8) = (   0.3333333   0.5773503   1.7872269  )
         9        O      tau(   9) = (  -0.1666667   0.2886751   1.7872269  )
        10        Na     tau(  10) = (   0.0000000   0.0000000   1.0195590  )
        11        O      tau(  11) = (   0.3333333   0.0000000   0.7496757  )
        12        H      tau(  12) = (   0.5188487   0.0262772   0.7885490  )
        13        H      tau(  13) = (  -0.1727349   0.8397482   0.5602285  )
        14        O      tau(  14) = (  -0.1666667   0.2886751   0.7496757  )
        15        H      tau(  15) = (   0.7178189   0.4361976   0.7885490  )
        16        H      tau(  16) = (  -0.1408758   0.2965585   0.5602285  )
        17        O      tau(  17) = (  -0.0000000   0.5773503   1.2294682  )
        18        H      tau(  18) = (  -0.0756623   0.7513118   1.2043644  )
        19        H      tau(  19) = (   0.0756623   0.5828359   1.4051461  )
        20        O      tau(  20) = (   0.5000000   0.2886751   1.2294682  )
        21        H      tau(  21) = (   0.6128239   0.4411814   1.2043644  )
        22        H      tau(  22) = (   0.5425818   0.2258925   1.4051461  )

   Crystallographic axes

     site n.     atom                  positions (cryst. coord.)
         1        Co     tau(   1) = (  0.0000000  0.0000000  0.0000000  )
         2        Co     tau(   2) = (  0.3333333  0.6666667  0.0000000  )
         3        Co     tau(   3) = (  0.6666667  0.3333333  0.0000000  )
         4        O      tau(   4) = (  0.3333333  0.3333333  0.0969697  )
         5        O      tau(   5) = (  0.6666667  0.0000000  0.0969697  )
         6        O      tau(   6) = (  0.0000000  0.6666667  0.0969697  )
         7        O      tau(   7) = (  0.3333333  0.0000000  0.9030303  )
         8        O      tau(   8) = (  0.6666667  0.6666667  0.9030303  )
         9        O      tau(   9) = ( -0.0000000  0.3333333  0.9030303  )
        10        Na     tau(  10) = (  0.0000000  0.0000000  0.5151515  )
        11        O      tau(  11) = (  0.3333333  0.0000000  0.3787879  )
        12        H      tau(  12) = (  0.5340199  0.0303423  0.3984293  )
        13        H      tau(  13) = (  0.3120939  0.9696577  0.2830660  )
        14        O      tau(  14) = ( -0.0000000  0.3333333  0.3787879  )
        15        H      tau(  15) = (  0.9696577  0.5036776  0.3984293  )
        16        H      tau(  16) = (  0.0303423  0.3424362  0.2830660  )
        17        O      tau(  17) = (  0.3333333  0.6666667  0.6212121  )
        18        H      tau(  18) = (  0.3581077  0.8675401  0.6085279  )
        19        H      tau(  19) = (  0.4121628  0.6730009  0.7099767  )
        20        O      tau(  20) = (  0.6666667  0.3333333  0.6212121  )
        21        H      tau(  21) = (  0.8675401  0.5094324  0.6085279  )
        22        H      tau(  22) = (  0.6730009  0.2608382  0.7099767  )

     number of k points=    40  Marzari-Vanderbilt smearing, width (Ry)=  0.0200
                       cart. coord. in units 2pi/alat
        k(    1) = (   0.0000000   0.0000000   0.0000000), wk =   0.0138889
        k(    2) = (   0.0000000   0.0000000  -0.2526345), wk =   0.0138889
        k(    3) = (   0.0000000   0.1924501   0.0000000), wk =   0.0277778
        k(    4) = (   0.0000000   0.1924501  -0.2526345), wk =   0.0277778
        k(    5) = (   0.0000000   0.3849002   0.0000000), wk =   0.0277778
        k(    6) = (   0.0000000   0.3849002  -0.2526345), wk =   0.0277778
        k(    7) = (   0.0000000  -0.5773503   0.0000000), wk =   0.0138889
        k(    8) = (   0.0000000  -0.5773503  -0.2526345), wk =   0.0138889
        k(    9) = (   0.1666667   0.2886751   0.0000000), wk =   0.0277778
        k(   10) = (   0.1666667   0.2886751  -0.2526345), wk =   0.0277778
        k(   11) = (   0.1666667   0.4811252   0.0000000), wk =   0.0277778
        k(   12) = (   0.1666667   0.4811252  -0.2526345), wk =   0.0277778
        k(   13) = (   0.3333333   0.5773503   0.0000000), wk =   0.0277778
        k(   14) = (   0.3333333   0.5773503  -0.2526345), wk =   0.0277778
        k(   15) = (  -0.1666667   0.0962250   0.0000000), wk =   0.0277778
        k(   16) = (   0.1666667   0.0962250   0.0000000), wk =   0.0277778
        k(   17) = (  -0.1666667   0.0962250  -0.2526345), wk =   0.0277778
        k(   18) = (   0.1666667   0.0962250  -0.2526345), wk =   0.0277778
        k(   19) = (  -0.3333333   0.1924501   0.0000000), wk =   0.0277778
        k(   20) = (   0.3333333   0.1924501   0.0000000), wk =   0.0277778
        k(   21) = (  -0.3333333   0.1924501  -0.2526345), wk =   0.0277778
        k(   22) = (   0.3333333   0.1924501  -0.2526345), wk =   0.0277778
        k(   23) = (   0.5000000  -0.2886751   0.0000000), wk =   0.0138889
        k(   24) = (  -0.5000000  -0.2886751   0.0000000), wk =   0.0138889
        k(   25) = (   0.5000000  -0.2886751  -0.2526345), wk =   0.0138889
        k(   26) = (  -0.5000000  -0.2886751  -0.2526345), wk =   0.0138889
        k(   27) = (  -0.1666667   0.2886751   0.0000000), wk =   0.0277778
        k(   28) = (   0.3333333   0.0000000   0.0000000), wk =   0.0277778
        k(   29) = (  -0.1666667   0.2886751   0.2526345), wk =   0.0277778
        k(   30) = (   0.3333333   0.0000000  -0.2526345), wk =   0.0277778
        k(   31) = (  -0.1666667   0.4811252   0.0000000), wk =   0.0277778
        k(   32) = (  -0.3333333   0.3849002   0.0000000), wk =   0.0277778
        k(   33) = (   0.5000000   0.0962250   0.0000000), wk =   0.0277778
        k(   34) = (  -0.3333333  -0.3849002   0.0000000), wk =   0.0277778
        k(   35) = (   0.5000000  -0.0962250   0.0000000), wk =   0.0277778
        k(   36) = (  -0.1666667   0.4811252   0.2526345), wk =   0.0277778
        k(   37) = (  -0.3333333   0.3849002  -0.2526345), wk =   0.0277778
        k(   38) = (   0.5000000   0.0962250  -0.2526345), wk =   0.0277778
        k(   39) = (  -0.3333333  -0.3849002   0.2526345), wk =   0.0277778
        k(   40) = (   0.5000000  -0.0962250   0.2526345), wk =   0.0277778

                       cryst. coord.
        k(    1) = (   0.0000000   0.0000000   0.0000000), wk =   0.0138889
        k(    2) = (   0.0000000   0.0000000  -0.5000000), wk =   0.0138889
        k(    3) = (   0.0000000   0.1666667   0.0000000), wk =   0.0277778
        k(    4) = (   0.0000000   0.1666667  -0.5000000), wk =   0.0277778
        k(    5) = (   0.0000000   0.3333333   0.0000000), wk =   0.0277778
        k(    6) = (   0.0000000   0.3333333  -0.5000000), wk =   0.0277778
        k(    7) = (   0.0000000  -0.5000000   0.0000000), wk =   0.0138889
        k(    8) = (   0.0000000  -0.5000000  -0.5000000), wk =   0.0138889
        k(    9) = (   0.1666667   0.1666667   0.0000000), wk =   0.0277778
        k(   10) = (   0.1666667   0.1666667  -0.5000000), wk =   0.0277778
        k(   11) = (   0.1666667   0.3333333   0.0000000), wk =   0.0277778
        k(   12) = (   0.1666667   0.3333333  -0.5000000), wk =   0.0277778
        k(   13) = (   0.3333333   0.3333333   0.0000000), wk =   0.0277778
        k(   14) = (   0.3333333   0.3333333  -0.5000000), wk =   0.0277778
        k(   15) = (  -0.1666667   0.1666667   0.0000000), wk =   0.0277778
        k(   16) = (   0.1666667  -0.0000000   0.0000000), wk =   0.0277778
        k(   17) = (  -0.1666667   0.1666667  -0.5000000), wk =   0.0277778
        k(   18) = (   0.1666667  -0.0000000  -0.5000000), wk =   0.0277778
        k(   19) = (  -0.3333333   0.3333333   0.0000000), wk =   0.0277778
        k(   20) = (   0.3333333  -0.0000000   0.0000000), wk =   0.0277778
        k(   21) = (  -0.3333333   0.3333333  -0.5000000), wk =   0.0277778
        k(   22) = (   0.3333333  -0.0000000  -0.5000000), wk =   0.0277778
        k(   23) = (   0.5000000  -0.5000000   0.0000000), wk =   0.0138889
        k(   24) = (  -0.5000000   0.0000000   0.0000000), wk =   0.0138889
        k(   25) = (   0.5000000  -0.5000000  -0.5000000), wk =   0.0138889
        k(   26) = (  -0.5000000   0.0000000  -0.5000000), wk =   0.0138889
        k(   27) = (  -0.1666667   0.3333333   0.0000000), wk =   0.0277778
        k(   28) = (   0.3333333  -0.1666667   0.0000000), wk =   0.0277778
        k(   29) = (  -0.1666667   0.3333333   0.5000000), wk =   0.0277778
        k(   30) = (   0.3333333  -0.1666667  -0.5000000), wk =   0.0277778
        k(   31) = (  -0.1666667   0.5000000   0.0000000), wk =   0.0277778
        k(   32) = (  -0.3333333   0.5000000   0.0000000), wk =   0.0277778
        k(   33) = (   0.5000000  -0.1666667   0.0000000), wk =   0.0277778
        k(   34) = (  -0.3333333  -0.1666667   0.0000000), wk =   0.0277778
        k(   35) = (   0.5000000  -0.3333333   0.0000000), wk =   0.0277778
        k(   36) = (  -0.1666667   0.5000000   0.5000000), wk =   0.0277778
        k(   37) = (  -0.3333333   0.5000000  -0.5000000), wk =   0.0277778
        k(   38) = (   0.5000000  -0.1666667  -0.5000000), wk =   0.0277778
        k(   39) = (  -0.3333333  -0.1666667   0.5000000), wk =   0.0277778
        k(   40) = (   0.5000000  -0.3333333   0.5000000), wk =   0.0277778

     Dense  grid:   256907 G-vectors     FFT dimensions: (  72,  72, 135)

     Smooth grid:    90927 G-vectors     FFT dimensions: (  48,  48,  96)

     Dynamical RAM for                 wfc:      14.74 MB

     Dynamical RAM for     wfc (w. buffer):    1193.65 MB

     Dynamical RAM for           str. fact:      15.68 MB

     Dynamical RAM for           local pot:       0.00 MB

     Dynamical RAM for          nlocal pot:      27.39 MB

     Dynamical RAM for                qrad:       7.03 MB

     Dynamical RAM for          rho,v,vnew:      55.56 MB

     Dynamical RAM for               rhoin:      18.52 MB

     Dynamical RAM for            rho*nmix:     125.44 MB

     Dynamical RAM for           G-vectors:      15.39 MB

     Dynamical RAM for          h,s,v(r/c):       1.32 MB

     Dynamical RAM for          <psi|beta>:       0.20 MB

     Dynamical RAM for                 psi:      29.47 MB

     Dynamical RAM for                hpsi:      29.47 MB

     Dynamical RAM for                spsi:      29.47 MB

     Dynamical RAM for      wfcinit/wfcrot:      29.64 MB

     Dynamical RAM for           addusdens:     772.26 MB

     Dynamical RAM for          addusforce:     842.90 MB

     Estimated static dynamical RAM per process >       1.35 GB

     Estimated max dynamical RAM per process >       2.30 GB

     Check: negative core charge=   -0.000006
     Generating pointlists ...
     new r_m :   0.1587 (alat units)  1.4998 (a.u.) for type    1
     new r_m :   0.0789 (alat units)  0.7461 (a.u.) for type    2
     new r_m :   0.1769 (alat units)  1.6724 (a.u.) for type    3
     new r_m :   0.0789 (alat units)  0.7461 (a.u.) for type    4

     Initial potential from superposition of free atoms

     starting charge     127.9928, renormalised to     128.0000
     Starting wfcs are   83 randomized atomic wfcs +    2 random wfcs
     Checking if some PAW data can be deallocated... 

     total cpu time spent up to now is        7.8 secs

     Self-consistent Calculation
[tb_dev] Currently allocated     1.27E+00 Mbytes, locked:    0 /   6
[tb_pin] Currently allocated     0.00E+00 Mbytes, locked:    0 /   0

     iteration #  1     ecut=    60.00 Ry     beta= 0.30
     Davidson diagonalization with overlap

---- Real-time Memory Report at c_bands before calling an iterative solver
          1941 MiB given to the printing process from OS
             0 MiB allocation reported by mallinfo(arena+hblkhd)
       1371235 MiB available memory on the node where the printing process lives
     GPU memory used/free/total (MiB): 2068 / 79082 / 81151
------------------
     ethr =  1.00E-02,  avg # of iterations =  8.5

     total cpu time spent up to now is       16.6 secs

     total energy              =   -1664.56323244 Ry
     estimated scf accuracy    <       7.58324101 Ry

     total magnetization       =    14.00 Bohr mag/cell
     absolute magnetization    =    14.01 Bohr mag/cell
[tb_dev] Currently allocated     1.68E-04 Mbytes, locked:    0 /   2
[tb_pin] Currently allocated     0.00E+00 Mbytes, locked:    0 /   0

     iteration #  2     ecut=    60.00 Ry     beta= 0.30
     Davidson diagonalization with overlap

---- Real-time Memory Report at c_bands before calling an iterative solver
          2001 MiB given to the printing process from OS
             0 MiB allocation reported by mallinfo(arena+hblkhd)
       1371896 MiB available memory on the node where the printing process lives
     GPU memory used/free/total (MiB): 2124 / 79026 / 81151
------------------
     ethr =  5.92E-03,  avg # of iterations =  2.0

     total cpu time spent up to now is       22.3 secs

     total energy              =   -1664.77545787 Ry
     estimated scf accuracy    <       1.69081981 Ry

     total magnetization       =    10.74 Bohr mag/cell
     absolute magnetization    =    10.75 Bohr mag/cell
[tb_dev] Currently allocated     1.68E-04 Mbytes, locked:    0 /   2
[tb_pin] Currently allocated     0.00E+00 Mbytes, locked:    0 /   0

     iteration #  3     ecut=    60.00 Ry     beta= 0.30
     Davidson diagonalization with overlap

---- Real-time Memory Report at c_bands before calling an iterative solver
          2027 MiB given to the printing process from OS
             0 MiB allocation reported by mallinfo(arena+hblkhd)
       1360388 MiB available memory on the node where the printing process lives
     GPU memory used/free/total (MiB): 2126 / 79024 / 81151
------------------
     ethr =  1.32E-03,  avg # of iterations =  2.9

     total cpu time spent up to now is       28.6 secs

     total energy              =   -1665.11022979 Ry
     estimated scf accuracy    <       2.39086994 Ry

     total magnetization       =     4.07 Bohr mag/cell
     absolute magnetization    =     4.82 Bohr mag/cell
[tb_dev] Currently allocated     1.68E-04 Mbytes, locked:    0 /   2
[tb_pin] Currently allocated     0.00E+00 Mbytes, locked:    0 /   0

     iteration #  4     ecut=    60.00 Ry     beta= 0.30
     Davidson diagonalization with overlap

---- Real-time Memory Report at c_bands before calling an iterative solver
          2036 MiB given to the printing process from OS
             0 MiB allocation reported by mallinfo(arena+hblkhd)
       1347772 MiB available memory on the node where the printing process lives
     GPU memory used/free/total (MiB): 2126 / 79024 / 81151
------------------
     ethr =  1.32E-03,  avg # of iterations =  1.1

     total cpu time spent up to now is       33.9 secs

     total energy              =   -1665.26665594 Ry
     estimated scf accuracy    <       0.63709052 Ry

     total magnetization       =     6.40 Bohr mag/cell
     absolute magnetization    =     6.60 Bohr mag/cell
[tb_dev] Currently allocated     1.68E-04 Mbytes, locked:    0 /   2
[tb_pin] Currently allocated     0.00E+00 Mbytes, locked:    0 /   0

     iteration #  5     ecut=    60.00 Ry     beta= 0.30
     Davidson diagonalization with overlap

---- Real-time Memory Report at c_bands before calling an iterative solver
          2045 MiB given to the printing process from OS
             0 MiB allocation reported by mallinfo(arena+hblkhd)
       1337814 MiB available memory on the node where the printing process lives
     GPU memory used/free/total (MiB): 2126 / 79024 / 81151
------------------
     ethr =  4.98E-04,  avg # of iterations =  2.4

     total cpu time spent up to now is       39.8 secs

     total energy              =   -1665.35537333 Ry
     estimated scf accuracy    <       0.94165201 Ry

     total magnetization       =     3.46 Bohr mag/cell
     absolute magnetization    =     4.47 Bohr mag/cell
[tb_dev] Currently allocated     1.68E-04 Mbytes, locked:    0 /   2
[tb_pin] Currently allocated     0.00E+00 Mbytes, locked:    0 /   0

     iteration #  6     ecut=    60.00 Ry     beta= 0.30
     Davidson diagonalization with overlap

---- Real-time Memory Report at c_bands before calling an iterative solver
          2050 MiB given to the printing process from OS
             0 MiB allocation reported by mallinfo(arena+hblkhd)
       1327708 MiB available memory on the node where the printing process lives
     GPU memory used/free/total (MiB): 2126 / 79024 / 81151
------------------
     ethr =  4.98E-04,  avg # of iterations =  1.3

     total cpu time spent up to now is       45.2 secs

     total energy              =   -1665.50670262 Ry
     estimated scf accuracy    <       0.38208570 Ry

     total magnetization       =     2.30 Bohr mag/cell
     absolute magnetization    =     3.73 Bohr mag/cell
[tb_dev] Currently allocated     1.68E-04 Mbytes, locked:    0 /   2
[tb_pin] Currently allocated     0.00E+00 Mbytes, locked:    0 /   0

     iteration #  7     ecut=    60.00 Ry     beta= 0.30
     Davidson diagonalization with overlap

---- Real-time Memory Report at c_bands before calling an iterative solver
          2058 MiB given to the printing process from OS
             0 MiB allocation reported by mallinfo(arena+hblkhd)
       1361114 MiB available memory on the node where the printing process lives
     GPU memory used/free/total (MiB): 2126 / 79024 / 81151
------------------
     c_bands:  1 eigenvalues not converged
     ethr =  2.99E-04,  avg # of iterations =  3.0

     total cpu time spent up to now is       51.3 secs

     total energy              =   -1665.51728499 Ry
     estimated scf accuracy    <       1.00659016 Ry

     total magnetization       =     2.20 Bohr mag/cell
     absolute magnetization    =     2.65 Bohr mag/cell
[tb_dev] Currently allocated     1.68E-04 Mbytes, locked:    0 /   2
[tb_pin] Currently allocated     0.00E+00 Mbytes, locked:    0 /   0

     iteration #  8     ecut=    60.00 Ry     beta= 0.30
     Davidson diagonalization with overlap

---- Real-time Memory Report at c_bands before calling an iterative solver
          2063 MiB given to the printing process from OS
             0 MiB allocation reported by mallinfo(arena+hblkhd)
       1350498 MiB available memory on the node where the printing process lives
     GPU memory used/free/total (MiB): 2126 / 79024 / 81151
------------------
     ethr =  2.99E-04,  avg # of iterations =  2.2

     total cpu time spent up to now is       57.1 secs

     total energy              =   -1665.49677773 Ry
     estimated scf accuracy    <       0.42570011 Ry

     total magnetization       =     2.10 Bohr mag/cell
     absolute magnetization    =     2.57 Bohr mag/cell
[tb_dev] Currently allocated     1.68E-04 Mbytes, locked:    0 /   2
[tb_pin] Currently allocated     0.00E+00 Mbytes, locked:    0 /   0

     iteration #  9     ecut=    60.00 Ry     beta= 0.30
     Davidson diagonalization with overlap

---- Real-time Memory Report at c_bands before calling an iterative solver
          2069 MiB given to the printing process from OS
             0 MiB allocation reported by mallinfo(arena+hblkhd)
       1340674 MiB available memory on the node where the printing process lives
     GPU memory used/free/total (MiB): 2126 / 79024 / 81151
------------------
     ethr =  2.99E-04,  avg # of iterations =  1.3

     total cpu time spent up to now is       62.5 secs

     total energy              =   -1665.50132340 Ry
     estimated scf accuracy    <       0.17676364 Ry

     total magnetization       =     2.02 Bohr mag/cell
     absolute magnetization    =     2.57 Bohr mag/cell
[tb_dev] Currently allocated     1.68E-04 Mbytes, locked:    0 /   2
[tb_pin] Currently allocated     0.00E+00 Mbytes, locked:    0 /   0

     iteration # 10     ecut=    60.00 Ry     beta= 0.30
     Davidson diagonalization with overlap

---- Real-time Memory Report at c_bands before calling an iterative solver
          2080 MiB given to the printing process from OS
             0 MiB allocation reported by mallinfo(arena+hblkhd)
       1331726 MiB available memory on the node where the printing process lives
     GPU memory used/free/total (MiB): 2126 / 79024 / 81151
------------------
     c_bands:  1 eigenvalues not converged
     c_bands:  1 eigenvalues not converged
     c_bands:  1 eigenvalues not converged
     ethr =  1.38E-04,  avg # of iterations =  6.4

     total cpu time spent up to now is       70.0 secs

     total energy              =   -1665.51739982 Ry
     estimated scf accuracy    <       0.02946739 Ry

     total magnetization       =     2.28 Bohr mag/cell
     absolute magnetization    =     2.37 Bohr mag/cell
[tb_dev] Currently allocated     1.68E-04 Mbytes, locked:    0 /   2
[tb_pin] Currently allocated     0.00E+00 Mbytes, locked:    0 /   0

     iteration # 11     ecut=    60.00 Ry     beta= 0.30
     Davidson diagonalization with overlap

---- Real-time Memory Report at c_bands before calling an iterative solver
          2080 MiB given to the printing process from OS
             0 MiB allocation reported by mallinfo(arena+hblkhd)
       1360778 MiB available memory on the node where the printing process lives
     GPU memory used/free/total (MiB): 2126 / 79024 / 81151
------------------
     c_bands:  1 eigenvalues not converged
     c_bands:  1 eigenvalues not converged
     c_bands:  1 eigenvalues not converged
     c_bands:  1 eigenvalues not converged
     c_bands:  1 eigenvalues not converged
     c_bands:  1 eigenvalues not converged
     c_bands:  1 eigenvalues not converged
     c_bands:  1 eigenvalues not converged
     c_bands:  1 eigenvalues not converged
     c_bands:  1 eigenvalues not converged
     c_bands:  1 eigenvalues not converged
     c_bands:  1 eigenvalues not converged
     c_bands:  1 eigenvalues not converged
     c_bands:  1 eigenvalues not converged
     c_bands:  1 eigenvalues not converged
     c_bands:  1 eigenvalues not converged
     c_bands:  1 eigenvalues not converged
     c_bands:  1 eigenvalues not converged
     c_bands:  1 eigenvalues not converged
     ethr =  2.30E-05,  avg # of iterations = 16.3

     total cpu time spent up to now is       82.2 secs

     total energy              =   -1665.51145459 Ry
     estimated scf accuracy    <       0.02680902 Ry

     total magnetization       =     2.32 Bohr mag/cell
     absolute magnetization    =     2.37 Bohr mag/cell
[tb_dev] Currently allocated     1.68E-04 Mbytes, locked:    0 /   2
[tb_pin] Currently allocated     0.00E+00 Mbytes, locked:    0 /   0

     iteration # 12     ecut=    60.00 Ry     beta= 0.30
     Davidson diagonalization with overlap

---- Real-time Memory Report at c_bands before calling an iterative solver
          2080 MiB given to the printing process from OS
             0 MiB allocation reported by mallinfo(arena+hblkhd)
       1340339 MiB available memory on the node where the printing process lives
     GPU memory used/free/total (MiB): 2126 / 79024 / 81151
------------------
     c_bands:  1 eigenvalues not converged
     c_bands:  1 eigenvalues not converged
     c_bands:  1 eigenvalues not converged
     ethr =  2.09E-05,  avg # of iterations =  2.8

     total cpu time spent up to now is       88.4 secs

     total energy              =   -1665.51029878 Ry
     estimated scf accuracy    <       0.03944448 Ry

     total magnetization       =     2.21 Bohr mag/cell
     absolute magnetization    =     2.28 Bohr mag/cell
[tb_dev] Currently allocated     1.68E-04 Mbytes, locked:    0 /   2
[tb_pin] Currently allocated     0.00E+00 Mbytes, locked:    0 /   0

     iteration # 13     ecut=    60.00 Ry     beta= 0.30
     Davidson diagonalization with overlap

---- Real-time Memory Report at c_bands before calling an iterative solver
          2080 MiB given to the printing process from OS
             0 MiB allocation reported by mallinfo(arena+hblkhd)
       1328868 MiB available memory on the node where the printing process lives
     GPU memory used/free/total (MiB): 2126 / 79024 / 81151
------------------
     c_bands:  1 eigenvalues not converged
     c_bands:  1 eigenvalues not converged
     c_bands:  1 eigenvalues not converged
     c_bands:  1 eigenvalues not converged
     c_bands:  1 eigenvalues not converged
     c_bands:  1 eigenvalues not converged
     c_bands:  1 eigenvalues not converged
     c_bands:  1 eigenvalues not converged
     ethr =  2.09E-05,  avg # of iterations =  9.6

     total cpu time spent up to now is       97.9 secs

     total energy              =   -1665.51529557 Ry
     estimated scf accuracy    <       0.02023648 Ry

     total magnetization       =     2.26 Bohr mag/cell
     absolute magnetization    =     2.29 Bohr mag/cell
[tb_dev] Currently allocated     1.68E-04 Mbytes, locked:    0 /   2
[tb_pin] Currently allocated     0.00E+00 Mbytes, locked:    0 /   0

     iteration # 14     ecut=    60.00 Ry     beta= 0.30
     Davidson diagonalization with overlap

---- Real-time Memory Report at c_bands before calling an iterative solver
          2080 MiB given to the printing process from OS
             0 MiB allocation reported by mallinfo(arena+hblkhd)
       1356678 MiB available memory on the node where the printing process lives
     GPU memory used/free/total (MiB): 2126 / 79024 / 81151
------------------
     c_bands:  1 eigenvalues not converged
     ethr =  1.58E-05,  avg # of iterations =  2.3

     total cpu time spent up to now is      103.7 secs

     total energy              =   -1665.51265020 Ry
     estimated scf accuracy    <       0.01606771 Ry

     total magnetization       =     2.21 Bohr mag/cell
     absolute magnetization    =     2.25 Bohr mag/cell
[tb_dev] Currently allocated     1.68E-04 Mbytes, locked:    0 /   2
[tb_pin] Currently allocated     0.00E+00 Mbytes, locked:    0 /   0

     iteration # 15     ecut=    60.00 Ry     beta= 0.30
     Davidson diagonalization with overlap

---- Real-time Memory Report at c_bands before calling an iterative solver
          2080 MiB given to the printing process from OS
             0 MiB allocation reported by mallinfo(arena+hblkhd)
       1346736 MiB available memory on the node where the printing process lives
     GPU memory used/free/total (MiB): 2126 / 79024 / 81151
------------------
     c_bands:  1 eigenvalues not converged
     ethr =  1.26E-05,  avg # of iterations =  3.3

     total cpu time spent up to now is      110.0 secs

     total energy              =   -1665.51122106 Ry
     estimated scf accuracy    <       0.00598253 Ry

     total magnetization       =     2.29 Bohr mag/cell
     absolute magnetization    =     2.33 Bohr mag/cell
[tb_dev] Currently allocated     1.68E-04 Mbytes, locked:    0 /   2
[tb_pin] Currently allocated     0.00E+00 Mbytes, locked:    0 /   0

     iteration # 16     ecut=    60.00 Ry     beta= 0.30
     Davidson diagonalization with overlap

---- Real-time Memory Report at c_bands before calling an iterative solver
          2080 MiB given to the printing process from OS
             0 MiB allocation reported by mallinfo(arena+hblkhd)
       1336021 MiB available memory on the node where the printing process lives
     GPU memory used/free/total (MiB): 2126 / 79024 / 81151
------------------
     c_bands:  1 eigenvalues not converged
     c_bands:  1 eigenvalues not converged
     c_bands:  2 eigenvalues not converged
     c_bands:  1 eigenvalues not converged
     c_bands:  1 eigenvalues not converged
     c_bands:  1 eigenvalues not converged
     c_bands:  1 eigenvalues not converged
     c_bands:  1 eigenvalues not converged
     c_bands:  1 eigenvalues not converged
     c_bands:  1 eigenvalues not converged
     c_bands:  1 eigenvalues not converged
     c_bands:  1 eigenvalues not converged
     c_bands:  1 eigenvalues not converged
     c_bands:  1 eigenvalues not converged
     c_bands:  1 eigenvalues not converged
     c_bands:  1 eigenvalues not converged
     ethr =  4.67E-06,  avg # of iterations = 15.8

     total cpu time spent up to now is      122.4 secs

     total energy              =   -1665.51313668 Ry
     estimated scf accuracy    <       0.00473178 Ry

     total magnetization       =     2.29 Bohr mag/cell
     absolute magnetization    =     2.35 Bohr mag/cell
[tb_dev] Currently allocated     1.68E-04 Mbytes, locked:    0 /   2
[tb_pin] Currently allocated     0.00E+00 Mbytes, locked:    0 /   0

     iteration # 17     ecut=    60.00 Ry     beta= 0.30
     Davidson diagonalization with overlap

---- Real-time Memory Report at c_bands before calling an iterative solver
          2080 MiB given to the printing process from OS
             0 MiB allocation reported by mallinfo(arena+hblkhd)
       1336670 MiB available memory on the node where the printing process lives
     GPU memory used/free/total (MiB): 2126 / 79024 / 81151
------------------
     c_bands:  1 eigenvalues not converged
     c_bands:  1 eigenvalues not converged
     c_bands:  1 eigenvalues not converged
     c_bands:  1 eigenvalues not converged
     c_bands:  1 eigenvalues not converged
     c_bands:  1 eigenvalues not converged
     c_bands:  1 eigenvalues not converged
     c_bands:  1 eigenvalues not converged
     c_bands:  1 eigenvalues not converged
     ethr =  3.70E-06,  avg # of iterations =  4.0

     total cpu time spent up to now is      129.1 secs

     total energy              =   -1665.51308682 Ry
     estimated scf accuracy    <       0.00277134 Ry

     total magnetization       =     2.31 Bohr mag/cell
     absolute magnetization    =     2.36 Bohr mag/cell
[tb_dev] Currently allocated     1.68E-04 Mbytes, locked:    0 /   2
[tb_pin] Currently allocated     0.00E+00 Mbytes, locked:    0 /   0

     iteration # 18     ecut=    60.00 Ry     beta= 0.30
     Davidson diagonalization with overlap

---- Real-time Memory Report at c_bands before calling an iterative solver
          2080 MiB given to the printing process from OS
             0 MiB allocation reported by mallinfo(arena+hblkhd)
       1359011 MiB available memory on the node where the printing process lives
     GPU memory used/free/total (MiB): 2126 / 79024 / 81151
------------------
     ethr =  2.17E-06,  avg # of iterations =  2.6

     total cpu time spent up to now is      135.2 secs

     total energy              =   -1665.51264038 Ry
     estimated scf accuracy    <       0.00192690 Ry

     total magnetization       =     2.30 Bohr mag/cell
     absolute magnetization    =     2.35 Bohr mag/cell
[tb_dev] Currently allocated     1.68E-04 Mbytes, locked:    0 /   2
[tb_pin] Currently allocated     0.00E+00 Mbytes, locked:    0 /   0

     iteration # 19     ecut=    60.00 Ry     beta= 0.30
     Davidson diagonalization with overlap

---- Real-time Memory Report at c_bands before calling an iterative solver
          2080 MiB given to the printing process from OS
             0 MiB allocation reported by mallinfo(arena+hblkhd)
       1358679 MiB available memory on the node where the printing process lives
     GPU memory used/free/total (MiB): 2126 / 79024 / 81151
------------------
     c_bands:  1 eigenvalues not converged
     c_bands:  1 eigenvalues not converged
     ethr =  1.51E-06,  avg # of iterations =  2.5

     total cpu time spent up to now is      141.5 secs

     total energy              =   -1665.51278145 Ry
     estimated scf accuracy    <       0.00051464 Ry

     total magnetization       =     2.30 Bohr mag/cell
     absolute magnetization    =     2.35 Bohr mag/cell
[tb_dev] Currently allocated     1.68E-04 Mbytes, locked:    0 /   2
[tb_pin] Currently allocated     0.00E+00 Mbytes, locked:    0 /   0

     iteration # 20     ecut=    60.00 Ry     beta= 0.30
     Davidson diagonalization with overlap

---- Real-time Memory Report at c_bands before calling an iterative solver
          2080 MiB given to the printing process from OS
             0 MiB allocation reported by mallinfo(arena+hblkhd)
       1359232 MiB available memory on the node where the printing process lives
     GPU memory used/free/total (MiB): 2126 / 79024 / 81151
------------------
     c_bands:  1 eigenvalues not converged
     ethr =  4.02E-07,  avg # of iterations =  7.8

     total cpu time spent up to now is      150.2 secs

     total energy              =   -1665.51305536 Ry
     estimated scf accuracy    <       0.00022613 Ry

     total magnetization       =     2.30 Bohr mag/cell
     absolute magnetization    =     2.35 Bohr mag/cell
[tb_dev] Currently allocated     1.68E-04 Mbytes, locked:    0 /   2
[tb_pin] Currently allocated     0.00E+00 Mbytes, locked:    0 /   0

     iteration # 21     ecut=    60.00 Ry     beta= 0.30
     Davidson diagonalization with overlap

---- Real-time Memory Report at c_bands before calling an iterative solver
          2080 MiB given to the printing process from OS
             0 MiB allocation reported by mallinfo(arena+hblkhd)
       1358067 MiB available memory on the node where the printing process lives
     GPU memory used/free/total (MiB): 2126 / 79024 / 81151
------------------
     ethr =  1.77E-07,  avg # of iterations =  2.5

     total cpu time spent up to now is      156.4 secs

     total energy              =   -1665.51300637 Ry
     estimated scf accuracy    <       0.00018944 Ry

     total magnetization       =     2.30 Bohr mag/cell
     absolute magnetization    =     2.35 Bohr mag/cell
[tb_dev] Currently allocated     1.68E-04 Mbytes, locked:    0 /   2
[tb_pin] Currently allocated     0.00E+00 Mbytes, locked:    0 /   0

     iteration # 22     ecut=    60.00 Ry     beta= 0.30
     Davidson diagonalization with overlap

---- Real-time Memory Report at c_bands before calling an iterative solver
          2080 MiB given to the printing process from OS
             0 MiB allocation reported by mallinfo(arena+hblkhd)
       1357657 MiB available memory on the node where the printing process lives
     GPU memory used/free/total (MiB): 2126 / 79024 / 81151
------------------
     ethr =  1.48E-07,  avg # of iterations =  4.1

     total cpu time spent up to now is      163.5 secs

     total energy              =   -1665.51305071 Ry
     estimated scf accuracy    <       0.00009605 Ry

     total magnetization       =     2.30 Bohr mag/cell
     absolute magnetization    =     2.35 Bohr mag/cell
[tb_dev] Currently allocated     1.68E-04 Mbytes, locked:    0 /   2
[tb_pin] Currently allocated     0.00E+00 Mbytes, locked:    0 /   0

     iteration # 23     ecut=    60.00 Ry     beta= 0.30
     Davidson diagonalization with overlap

---- Real-time Memory Report at c_bands before calling an iterative solver
          2080 MiB given to the printing process from OS
             0 MiB allocation reported by mallinfo(arena+hblkhd)
       1356521 MiB available memory on the node where the printing process lives
     GPU memory used/free/total (MiB): 2126 / 79024 / 81151
------------------
     ethr =  7.50E-08,  avg # of iterations =  4.2

     total cpu time spent up to now is      170.8 secs

     total energy              =   -1665.51307149 Ry
     estimated scf accuracy    <       0.00006745 Ry

     total magnetization       =     2.30 Bohr mag/cell
     absolute magnetization    =     2.35 Bohr mag/cell
[tb_dev] Currently allocated     1.68E-04 Mbytes, locked:    0 /   2
[tb_pin] Currently allocated     0.00E+00 Mbytes, locked:    0 /   0

     iteration # 24     ecut=    60.00 Ry     beta= 0.30
     Davidson diagonalization with overlap

---- Real-time Memory Report at c_bands before calling an iterative solver
          2080 MiB given to the printing process from OS
             0 MiB allocation reported by mallinfo(arena+hblkhd)
       1355710 MiB available memory on the node where the printing process lives
     GPU memory used/free/total (MiB): 2126 / 79024 / 81151
------------------
     ethr =  5.27E-08,  avg # of iterations =  1.7

     total cpu time spent up to now is      176.8 secs

     total energy              =   -1665.51306853 Ry
     estimated scf accuracy    <       0.00002380 Ry

     total magnetization       =     2.30 Bohr mag/cell
     absolute magnetization    =     2.35 Bohr mag/cell
[tb_dev] Currently allocated     1.68E-04 Mbytes, locked:    0 /   2
[tb_pin] Currently allocated     0.00E+00 Mbytes, locked:    0 /   0

     iteration # 25     ecut=    60.00 Ry     beta= 0.30
     Davidson diagonalization with overlap

---- Real-time Memory Report at c_bands before calling an iterative solver
          2080 MiB given to the printing process from OS
             0 MiB allocation reported by mallinfo(arena+hblkhd)
       1354896 MiB available memory on the node where the printing process lives
     GPU memory used/free/total (MiB): 2126 / 79024 / 81151
------------------
     ethr =  1.86E-08,  avg # of iterations =  3.8

     total cpu time spent up to now is      183.7 secs

     total energy              =   -1665.51307608 Ry
     estimated scf accuracy    <       0.00000494 Ry

     total magnetization       =     2.30 Bohr mag/cell
     absolute magnetization    =     2.34 Bohr mag/cell
[tb_dev] Currently allocated     1.68E-04 Mbytes, locked:    0 /   2
[tb_pin] Currently allocated     0.00E+00 Mbytes, locked:    0 /   0

     iteration # 26     ecut=    60.00 Ry     beta= 0.30
     Davidson diagonalization with overlap

---- Real-time Memory Report at c_bands before calling an iterative solver
          2080 MiB given to the printing process from OS
             0 MiB allocation reported by mallinfo(arena+hblkhd)
       1353659 MiB available memory on the node where the printing process lives
     GPU memory used/free/total (MiB): 2126 / 79024 / 81151
------------------
     ethr =  3.86E-09,  avg # of iterations =  8.7

     total cpu time spent up to now is      192.7 secs

     total energy              =   -1665.51307743 Ry
     estimated scf accuracy    <       0.00000287 Ry

     total magnetization       =     2.30 Bohr mag/cell
     absolute magnetization    =     2.34 Bohr mag/cell
[tb_dev] Currently allocated     1.68E-04 Mbytes, locked:    0 /   2
[tb_pin] Currently allocated     0.00E+00 Mbytes, locked:    0 /   0

     iteration # 27     ecut=    60.00 Ry     beta= 0.30
     Davidson diagonalization with overlap

---- Real-time Memory Report at c_bands before calling an iterative solver
          2080 MiB given to the printing process from OS
             0 MiB allocation reported by mallinfo(arena+hblkhd)
       1352517 MiB available memory on the node where the printing process lives
     GPU memory used/free/total (MiB): 2126 / 79024 / 81151
------------------
     ethr =  2.25E-09,  avg # of iterations =  2.0

     total cpu time spent up to now is      198.6 secs

     total energy              =   -1665.51307720 Ry
     estimated scf accuracy    <       0.00000173 Ry

     total magnetization       =     2.30 Bohr mag/cell
     absolute magnetization    =     2.34 Bohr mag/cell
[tb_dev] Currently allocated     1.68E-04 Mbytes, locked:    0 /   2
[tb_pin] Currently allocated     0.00E+00 Mbytes, locked:    0 /   0

     iteration # 28     ecut=    60.00 Ry     beta= 0.30
     Davidson diagonalization with overlap

---- Real-time Memory Report at c_bands before calling an iterative solver
          2080 MiB given to the printing process from OS
             0 MiB allocation reported by mallinfo(arena+hblkhd)
       1351743 MiB available memory on the node where the printing process lives
     GPU memory used/free/total (MiB): 2126 / 79024 / 81151
------------------
     ethr =  1.35E-09,  avg # of iterations =  3.0

     total cpu time spent up to now is      205.1 secs

     total energy              =   -1665.51307743 Ry
     estimated scf accuracy    <       0.00000071 Ry

     total magnetization       =     2.30 Bohr mag/cell
     absolute magnetization    =     2.34 Bohr mag/cell
[tb_dev] Currently allocated     1.68E-04 Mbytes, locked:    0 /   2
[tb_pin] Currently allocated     0.00E+00 Mbytes, locked:    0 /   0

     iteration # 29     ecut=    60.00 Ry     beta= 0.30
     Davidson diagonalization with overlap

---- Real-time Memory Report at c_bands before calling an iterative solver
          2080 MiB given to the printing process from OS
             0 MiB allocation reported by mallinfo(arena+hblkhd)
       1350600 MiB available memory on the node where the printing process lives
     GPU memory used/free/total (MiB): 2126 / 79024 / 81151
------------------
     ethr =  5.55E-10,  avg # of iterations =  2.5

     total cpu time spent up to now is      211.2 secs

     total energy              =   -1665.51307742 Ry
     estimated scf accuracy    <       0.00000045 Ry

     total magnetization       =     2.30 Bohr mag/cell
     absolute magnetization    =     2.34 Bohr mag/cell
[tb_dev] Currently allocated     1.68E-04 Mbytes, locked:    0 /   2
[tb_pin] Currently allocated     0.00E+00 Mbytes, locked:    0 /   0

     iteration # 30     ecut=    60.00 Ry     beta= 0.30
     Davidson diagonalization with overlap

---- Real-time Memory Report at c_bands before calling an iterative solver
          2080 MiB given to the printing process from OS
             0 MiB allocation reported by mallinfo(arena+hblkhd)
       1349980 MiB available memory on the node where the printing process lives
     GPU memory used/free/total (MiB): 2126 / 79024 / 81151
------------------
     ethr =  3.49E-10,  avg # of iterations =  3.1

     total cpu time spent up to now is      217.7 secs

     total energy              =   -1665.51307743 Ry
     estimated scf accuracy    <       0.00000024 Ry

     total magnetization       =     2.30 Bohr mag/cell
     absolute magnetization    =     2.34 Bohr mag/cell
[tb_dev] Currently allocated     1.68E-04 Mbytes, locked:    0 /   2
[tb_pin] Currently allocated     0.00E+00 Mbytes, locked:    0 /   0

     iteration # 31     ecut=    60.00 Ry     beta= 0.30
     Davidson diagonalization with overlap

---- Real-time Memory Report at c_bands before calling an iterative solver
          2080 MiB given to the printing process from OS
             0 MiB allocation reported by mallinfo(arena+hblkhd)
       1347682 MiB available memory on the node where the printing process lives
     GPU memory used/free/total (MiB): 2126 / 79024 / 81151
------------------
     ethr =  1.91E-10,  avg # of iterations =  2.9

     total cpu time spent up to now is      224.1 secs

     total energy              =   -1665.51307744 Ry
     estimated scf accuracy    <       0.00000014 Ry

     total magnetization       =     2.30 Bohr mag/cell
     absolute magnetization    =     2.34 Bohr mag/cell
[tb_dev] Currently allocated     1.68E-04 Mbytes, locked:    0 /   2
[tb_pin] Currently allocated     0.00E+00 Mbytes, locked:    0 /   0

     iteration # 32     ecut=    60.00 Ry     beta= 0.30
     Davidson diagonalization with overlap

---- Real-time Memory Report at c_bands before calling an iterative solver
          2080 MiB given to the printing process from OS
             0 MiB allocation reported by mallinfo(arena+hblkhd)
       1346022 MiB available memory on the node where the printing process lives
     GPU memory used/free/total (MiB): 2126 / 79024 / 81151
------------------
     ethr =  1.06E-10,  avg # of iterations =  2.3
 
     Magnetic moment per site  (integrated on atomic sphere of radius R)
     atom   1 (R=0.159)  charge= 14.0974  magn=  0.5954
     atom   2 (R=0.159)  charge= 14.0999  magn=  0.5904
     atom   3 (R=0.159)  charge= 14.0991  magn=  0.5892
     atom   4 (R=0.079)  charge=  1.8587  magn=  0.0268
     atom   5 (R=0.079)  charge=  1.8587  magn=  0.0254
     atom   6 (R=0.079)  charge=  1.8593  magn=  0.0252
     atom   7 (R=0.079)  charge=  1.8589  magn=  0.0240
     atom   8 (R=0.079)  charge=  1.8591  magn=  0.0258
     atom   9 (R=0.079)  charge=  1.8587  magn=  0.0252
     atom  10 (R=0.177)  charge=  7.8417  magn=  0.0001
     atom  11 (R=0.079)  charge=  1.9193  magn=  0.0005
     atom  12 (R=0.079)  charge=  0.3952  magn=  0.0000
     atom  13 (R=0.079)  charge=  0.3893  magn=  0.0000
     atom  14 (R=0.079)  charge=  1.9177  magn=  0.0006
     atom  15 (R=0.079)  charge=  0.3997  magn=  0.0000
     atom  16 (R=0.079)  charge=  0.3889  magn=  0.0000
     atom  17 (R=0.079)  charge=  1.9105  magn=  0.0005
     atom  18 (R=0.079)  charge=  0.4028  magn=  0.0000
     atom  19 (R=0.079)  charge=  0.3907  magn=  0.0000
     atom  20 (R=0.079)  charge=  1.9130  magn=  0.0005
     atom  21 (R=0.079)  charge=  0.4000  magn=  0.0000
     atom  22 (R=0.079)  charge=  0.3918  magn=  0.0000

     total cpu time spent up to now is      230.1 secs

     End of self-consistent calculation

 ------ SPIN UP ------------


          k = 0.0000 0.0000 0.0000 ( 11393 PWs)   bands (ev):

   -91.5032 -91.4940 -91.4905 -54.7473 -54.7433 -54.7388 -54.7385 -54.7294
   -54.7189 -54.7144 -54.7015 -54.7011 -47.8635 -19.8349 -19.8074 -19.7706
   -17.6836 -17.3293 -17.0308 -16.8469 -15.0017 -13.3308 -13.3254 -13.3246
   -13.3147 -13.1055  -5.4838  -5.3362  -4.7271  -4.7045  -1.8758  -1.7826
    -1.6566  -1.2738  -1.1052  -1.0788  -1.0592  -1.0515  -1.0011  -0.8049
    -0.8008  -0.6792  -0.6581   0.4604   0.7411   0.8344   0.9058   0.9392
     0.9624   0.9916   1.2858   1.3052   1.3336   2.3313   2.6791   2.6832
     2.7124   2.7146   2.8771   2.8855   3.7620   3.7648   3.7665   3.7730
     3.9315   5.8383   5.8584   5.8659   5.8772   6.4899   6.6055   6.6105
     8.6784  10.5181  11.3614  11.4544  12.7556  12.9662  13.3802  13.5001
    13.7841  14.0549  14.5854  14.7955  15.2827

     occupation numbers 
     1.0000   1.0000   1.0000   1.0000   1.0000   1.0000   1.0000   1.0000
     1.0000   1.0000   1.0000   1.0000   1.0000   1.0000   1.0000   1.0000
     1.0000   1.0000   1.0000   1.0000   1.0000   1.0000   1.0000   1.0000
     1.0000   1.0000   1.0000   1.0000   1.0000   1.0000   1.0000   1.0000
     1.0000   1.0000   1.0000   1.0000   1.0000   1.0000   1.0000   1.0000
     1.0000   1.0000   1.0000   1.0000   1.0000   1.0000   1.0000   1.0000
     1.0000   1.0000   1.0000   1.0000   1.0000   1.0000   1.0000   1.0000
     1.0000   1.0000   1.0000   1.0000   1.0202   1.0208   1.0212   1.0227
     1.0718   0.0000   0.0000   0.0000   0.0000   0.0000   0.0000   0.0000
     0.0000   0.0000   0.0000   0.0000   0.0000   0.0000   0.0000   0.0000
     0.0000   0.0000   0.0000   0.0000   0.0000

          k = 0.0000 0.0000-0.2526 ( 11446 PWs)   bands (ev):

   -91.5032 -91.4940 -91.4905 -54.7474 -54.7434 -54.7389 -54.7386 -54.7296
   -54.7190 -54.7145 -54.7016 -54.7011 -47.8635 -19.8350 -19.8076 -19.7707
   -17.6831 -17.3302 -17.0308 -16.8469 -15.0008 -13.3308 -13.3254 -13.3246
   -13.3147 -13.1065  -5.4719  -5.3325  -4.7448  -4.7053  -1.8449  -1.7719
    -1.7070  -1.3948  -1.0875  -1.0683  -1.0519  -1.0496  -0.8970  -0.8050
    -0.8009  -0.6667  -0.6482   0.4905   0.6890   0.8557   0.8954   0.9395
     0.9545   0.9852   1.2976   1.3245   1.3375   2.2485   2.6791   2.6827
     2.7124   2.7145   2.8771   2.8855   3.7624   3.7652   3.7666   3.7727
     3.9512   5.8364   5.8588   5.8651   5.8771   6.6042   6.6097   6.6362
     8.4049  10.8169  11.0829  11.7834  12.4863  13.0228  13.4032  13.5427
    13.7903  14.0359  14.3756  14.9916  15.2712

     occupation numbers 
     1.0000   1.0000   1.0000   1.0000   1.0000   1.0000   1.0000   1.0000
     1.0000   1.0000   1.0000   1.0000   1.0000   1.0000   1.0000   1.0000
     1.0000   1.0000   1.0000   1.0000   1.0000   1.0000   1.0000   1.0000
     1.0000   1.0000   1.0000   1.0000   1.0000   1.0000   1.0000   1.0000
     1.0000   1.0000   1.0000   1.0000   1.0000   1.0000   1.0000   1.0000
     1.0000   1.0000   1.0000   1.0000   1.0000   1.0000   1.0000   1.0000
     1.0000   1.0000   1.0000   1.0000   1.0000   1.0000   1.0000   1.0000
     1.0000   1.0000   1.0000   1.0000   1.0203   1.0209   1.0213   1.0226
     1.0771   0.0000   0.0000   0.0000   0.0000   0.0000   0.0000   0.0000
     0.0000   0.0000   0.0000   0.0000   0.0000   0.0000   0.0000   0.0000
     0.0000   0.0000   0.0000   0.0000   0.0000

          k = 0.0000 0.1925 0.0000 ( 11360 PWs)   bands (ev):

   -91.5030 -91.4939 -91.4907 -54.7522 -54.7473 -54.7347 -54.7299 -54.7271
   -54.7188 -54.7146 -54.7062 -54.7022 -47.8634 -19.8357 -19.8082 -19.7703
   -17.6408 -17.3024 -17.0766 -16.8766 -14.8987 -13.4752 -13.3873 -13.3134
   -13.2536 -13.1076  -5.5475  -5.2978  -4.7468  -4.6346  -1.9375  -1.7584
    -1.6410  -1.4527  -1.2834  -1.2175  -1.0640  -0.9993  -0.9408  -0.8690
    -0.7372  -0.3001  -0.1176   0.3225   0.6279   0.6563   0.7083   0.8468
     0.9010   1.0162   1.2440   1.6180   1.6987   2.0415   2.1435   2.5623
     2.7612   2.8289   3.1094   3.3099   3.5135   3.5259   3.8558   3.9239
     3.9869   5.8426   5.8887   5.9057   5.9594   6.3250   6.5262   6.8266
     8.9526  10.5071  11.3265  11.5470  12.2687  12.7135  12.9563  13.3148
    13.6856  14.3181  14.7345  14.9032  15.1409

     occupation numbers 
     1.0000   1.0000   1.0000   1.0000   1.0000   1.0000   1.0000   1.0000
     1.0000   1.0000   1.0000   1.0000   1.0000   1.0000   1.0000   1.0000
     1.0000   1.0000   1.0000   1.0000   1.0000   1.0000   1.0000   1.0000
     1.0000   1.0000   1.0000   1.0000   1.0000   1.0000   1.0000   1.0000
     1.0000   1.0000   1.0000   1.0000   1.0000   1.0000   1.0000   1.0000
     1.0000   1.0000   1.0000   1.0000   1.0000   1.0000   1.0000   1.0000
     1.0000   1.0000   1.0000   1.0000   1.0000   1.0000   1.0000   1.0000
     1.0000   1.0000   1.0000   1.0000   1.0006   1.0007   1.0466   1.0695
     1.0829   0.0000   0.0000   0.0000   0.0000   0.0000   0.0000   0.0000
     0.0000   0.0000   0.0000   0.0000   0.0000   0.0000   0.0000   0.0000
     0.0000   0.0000   0.0000   0.0000   0.0000

          k = 0.0000 0.1925-0.2526 ( 11384 PWs)   bands (ev):

   -91.5030 -91.4939 -91.4907 -54.7522 -54.7473 -54.7348 -54.7299 -54.7271
   -54.7188 -54.7147 -54.7063 -54.7022 -47.8634 -19.8358 -19.8083 -19.7704
   -17.6403 -17.3031 -17.0765 -16.8767 -14.8979 -13.4752 -13.3873 -13.3134
   -13.2536 -13.1085  -5.5408  -5.2927  -4.7532  -4.6423  -1.9186  -1.7265
    -1.7031  -1.4800  -1.3198  -1.2332  -1.0545  -0.9519  -0.9060  -0.8513
    -0.7373  -0.2936  -0.1191   0.3585   0.5457   0.6549   0.7586   0.8510
     0.8969   1.0238   1.2297   1.6176   1.7000   2.0428   2.1384   2.5177
     2.7612   2.8289   3.1095   3.3085   3.5134   3.5261   3.8566   3.9245
     4.0039   5.8416   5.8882   5.9065   5.9581   6.2995   6.5327   6.9626
     8.7077  10.7593  11.0618  11.8272  12.2775  12.6435  13.0271  13.2541
    13.6415  14.2433  14.6744  14.8720  15.2450

     occupation numbers 
     1.0000   1.0000   1.0000   1.0000   1.0000   1.0000   1.0000   1.0000
     1.0000   1.0000   1.0000   1.0000   1.0000   1.0000   1.0000   1.0000
     1.0000   1.0000   1.0000   1.0000   1.0000   1.0000   1.0000   1.0000
     1.0000   1.0000   1.0000   1.0000   1.0000   1.0000   1.0000   1.0000
     1.0000   1.0000   1.0000   1.0000   1.0000   1.0000   1.0000   1.0000
     1.0000   1.0000   1.0000   1.0000   1.0000   1.0000   1.0000   1.0000
     1.0000   1.0000   1.0000   1.0000   1.0000   1.0000   1.0000   1.0000
     1.0000   1.0000   1.0000   1.0000   1.0006   1.0007   1.0469   1.0697
     1.0832   0.0000   0.0000   0.0000   0.0000   0.0000   0.0000   0.0000
     0.0000   0.0000   0.0000   0.0000   0.0000   0.0000   0.0000   0.0000
     0.0000   0.0000   0.0000   0.0000   0.0000

          k = 0.0000 0.3849 0.0000 ( 11350 PWs)   bands (ev):

   -91.5027 -91.4938 -91.4911 -54.7575 -54.7451 -54.7320 -54.7229 -54.7206
   -54.7180 -54.7168 -54.7148 -54.7053 -47.8634 -19.8379 -19.8096 -19.7698
   -17.5256 -17.2395 -17.1868 -16.9562 -14.6120 -13.7914 -13.4315 -13.3596
   -13.1904 -13.1178  -5.6305  -5.2715  -4.7249  -4.5504  -2.0180  -1.9606
    -1.6206  -1.5611  -1.3295  -1.0780  -1.0634  -1.0036  -0.7413  -0.6897
    -0.5758  -0.0891   0.0695   0.2555   0.4167   0.5346   0.6128   0.7752
     1.0226   1.0375   1.1461   1.2804   1.5191   1.9057   2.2660   2.8545
     2.8627   3.1810   3.2499   3.2587   3.2947   3.6716   3.7092   3.9694
     3.9780   5.8294   5.8375   5.8868   5.9045   6.2837   6.3063   7.5959
     9.5678  10.0879  11.3248  11.5371  11.8434  12.2103  12.6462  12.9301
    13.5653  14.2111  14.5147  14.8367  15.2632

     occupation numbers 
     1.0000   1.0000   1.0000   1.0000   1.0000   1.0000   1.0000   1.0000
     1.0000   1.0000   1.0000   1.0000   1.0000   1.0000   1.0000   1.0000
     1.0000   1.0000   1.0000   1.0000   1.0000   1.0000   1.0000   1.0000
     1.0000   1.0000   1.0000   1.0000   1.0000   1.0000   1.0000   1.0000
     1.0000   1.0000   1.0000   1.0000   1.0000   1.0000   1.0000   1.0000
     1.0000   1.0000   1.0000   1.0000   1.0000   1.0000   1.0000   1.0000
     1.0000   1.0000   1.0000   1.0000   1.0000   1.0000   1.0000   1.0000
     1.0000   1.0000   1.0000   1.0000   1.0000   1.0069   1.0112   1.0807
     1.0820   0.0000   0.0000   0.0000   0.0000   0.0000   0.0000   0.0000
     0.0000   0.0000   0.0000   0.0000   0.0000   0.0000   0.0000   0.0000
     0.0000   0.0000   0.0000   0.0000   0.0000

          k = 0.0000 0.3849-0.2526 ( 11352 PWs)   bands (ev):

   -91.5027 -91.4938 -91.4911 -54.7575 -54.7451 -54.7320 -54.7229 -54.7207
   -54.7181 -54.7168 -54.7148 -54.7052 -47.8634 -19.8379 -19.8096 -19.7698
   -17.5253 -17.2398 -17.1869 -16.9563 -14.6115 -13.7913 -13.4315 -13.3597
   -13.1905 -13.1183  -5.6281  -5.2691  -4.7244  -4.5571  -2.0098  -1.9620
    -1.6446  -1.5659  -1.3018  -1.0802  -1.0606  -1.0392  -0.7032  -0.6924
    -0.5762  -0.0904   0.0760   0.2296   0.4770   0.5572   0.5808   0.7494
     1.0247   1.0379   1.1536   1.2682   1.5188   1.9002   2.2657   2.8509
     2.8569   3.1811   3.2496   3.2588   3.2945   3.6688   3.7103   3.9745
     3.9803   5.8136   5.8379   5.8865   5.9032   6.2834   6.3138   7.6602
     9.4240  10.1337  11.2885  11.5117  11.9162  12.3934  12.6335  12.9733
    13.4681  14.1558  14.4788  14.7379  15.3083

     occupation numbers 
     1.0000   1.0000   1.0000   1.0000   1.0000   1.0000   1.0000   1.0000
     1.0000   1.0000   1.0000   1.0000   1.0000   1.0000   1.0000   1.0000
     1.0000   1.0000   1.0000   1.0000   1.0000   1.0000   1.0000   1.0000
     1.0000   1.0000   1.0000   1.0000   1.0000   1.0000   1.0000   1.0000
     1.0000   1.0000   1.0000   1.0000   1.0000   1.0000   1.0000   1.0000
     1.0000   1.0000   1.0000   1.0000   1.0000   1.0000   1.0000   1.0000
     1.0000   1.0000   1.0000   1.0000   1.0000   1.0000   1.0000   1.0000
     1.0000   1.0000   1.0000   1.0000   1.0000   1.0067   1.0113   1.0815
     1.0822   0.0000   0.0000   0.0000   0.0000   0.0000   0.0000   0.0000
     0.0000   0.0000   0.0000   0.0000   0.0000   0.0000   0.0000   0.0000
     0.0000   0.0000   0.0000   0.0000   0.0000

          k = 0.0000-0.5774 0.0000 ( 11352 PWs)   bands (ev):

   -91.5025 -91.4937 -91.4914 -54.7595 -54.7370 -54.7323 -54.7309 -54.7187
   -54.7176 -54.7154 -54.7137 -54.7082 -47.8634 -19.8392 -19.8101 -19.7696
   -17.3939 -17.3379 -17.1574 -17.0248 -14.2106 -14.2056 -13.4474 -13.3849
   -13.1464 -13.1413  -5.6639  -5.2679  -4.7079  -4.5132  -2.1106  -2.0308
    -1.6249  -1.5352  -1.3606  -1.0801  -1.0592  -0.6838  -0.6576  -0.4353
    -0.3114  -0.3022  -0.1626   0.1042   0.3657   0.3877   0.5401   0.7489
     0.9504   0.9553   1.1535   1.3213   1.4137   2.0082   2.7622   2.7831
     2.8582   3.1312   3.2058   3.2092   3.5643   3.7092   3.7201   3.8811
     3.8971   5.6829   5.6910   5.8979   6.0307   6.0660   6.4846   8.1361
     9.5672  10.1129  11.1745  11.2804  11.7683  12.2551  12.4211  12.9307
    13.4227  14.0762  14.3839  14.6500  15.2613

     occupation numbers 
     1.0000   1.0000   1.0000   1.0000   1.0000   1.0000   1.0000   1.0000
     1.0000   1.0000   1.0000   1.0000   1.0000   1.0000   1.0000   1.0000
     1.0000   1.0000   1.0000   1.0000   1.0000   1.0000   1.0000   1.0000
     1.0000   1.0000   1.0000   1.0000   1.0000   1.0000   1.0000   1.0000
     1.0000   1.0000   1.0000   1.0000   1.0000   1.0000   1.0000   1.0000
     1.0000   1.0000   1.0000   1.0000   1.0000   1.0000   1.0000   1.0000
     1.0000   1.0000   1.0000   1.0000   1.0000   1.0000   1.0000   1.0000
     1.0000   1.0000   1.0000   1.0000   1.0014   1.0112   1.0127   1.0553
     1.0608   0.0000   0.0000   0.0000   0.0000   0.0000   0.0000   0.0000
     0.0000   0.0000   0.0000   0.0000   0.0000   0.0000   0.0000   0.0000
     0.0000   0.0000   0.0000   0.0000   0.0000

          k = 0.0000-0.5774-0.2526 ( 11344 PWs)   bands (ev):

   -91.5025 -91.4937 -91.4914 -54.7594 -54.7370 -54.7324 -54.7309 -54.7187
   -54.7176 -54.7153 -54.7137 -54.7081 -47.8634 -19.8391 -19.8101 -19.7695
   -17.3938 -17.3377 -17.1576 -17.0250 -14.2104 -14.2054 -13.4474 -13.3849
   -13.1466 -13.1416  -5.6629  -5.2672  -4.7052  -4.5187  -2.1058  -2.0396
    -1.6223  -1.5448  -1.3257  -1.0882  -1.0813  -0.6781  -0.6561  -0.4494
    -0.3102  -0.2951  -0.1624   0.0805   0.4005   0.4117   0.6004   0.6651
     0.9505   0.9574   1.1585   1.3061   1.4181   2.0025   2.7644   2.7838
     2.8590   3.1312   3.2059   3.2090   3.5653   3.7091   3.7206   3.8803
     3.8956   5.6782   5.6859   5.8958   6.0336   6.0702   6.4845   8.1481
     9.5997  10.0706  11.1060  11.3245  11.6914  12.3334  12.4835  13.0111
    13.4376  14.2092  14.2305  14.4800  15.2140

     occupation numbers 
     1.0000   1.0000   1.0000   1.0000   1.0000   1.0000   1.0000   1.0000
     1.0000   1.0000   1.0000   1.0000   1.0000   1.0000   1.0000   1.0000
     1.0000   1.0000   1.0000   1.0000   1.0000   1.0000   1.0000   1.0000
     1.0000   1.0000   1.0000   1.0000   1.0000   1.0000   1.0000   1.0000
     1.0000   1.0000   1.0000   1.0000   1.0000   1.0000   1.0000   1.0000
     1.0000   1.0000   1.0000   1.0000   1.0000   1.0000   1.0000   1.0000
     1.0000   1.0000   1.0000   1.0000   1.0000   1.0000   1.0000   1.0000
     1.0000   1.0000   1.0000   1.0000   1.0014   1.0111   1.0128   1.0550
     1.0603   0.0000   0.0000   0.0000   0.0000   0.0000   0.0000   0.0000
     0.0000   0.0000   0.0000   0.0000   0.0000   0.0000   0.0000   0.0000
     0.0000   0.0000   0.0000   0.0000   0.0000

          k = 0.1667 0.2887 0.0000 ( 11373 PWs)   bands (ev):

   -91.5028 -91.4939 -91.4910 -54.7537 -54.7497 -54.7323 -54.7240 -54.7220
   -54.7183 -54.7163 -54.7128 -54.7042 -47.8634 -19.8360 -19.8084 -19.7716
   -17.5502 -17.2432 -17.1710 -16.9444 -14.7037 -13.5931 -13.5840 -13.2498
   -13.2418 -13.1138  -5.6379  -5.2318  -4.7195  -4.5901  -1.9756  -1.7909
    -1.5874  -1.5184  -1.4616  -1.3851  -1.0164  -0.8687  -0.8549  -0.8198
    -0.6088   0.0238   0.0495   0.3094   0.5400   0.5957   0.7296   0.7485
     0.9283   0.9989   1.1186   1.2227   1.8518   1.9486   1.9748   2.7369
     2.9873   2.9907   3.2204   3.3311   3.3354   3.5444   3.8693   3.8724
     4.0001   5.8268   5.8471   5.8794   6.0717   6.0895   6.4576   7.3771
     9.3504  10.4372  11.0868  11.4365  11.9520  12.4699  12.6340  13.0389
    13.9054  14.0964  14.3798  14.9874  15.2359

     occupation numbers 
     1.0000   1.0000   1.0000   1.0000   1.0000   1.0000   1.0000   1.0000
     1.0000   1.0000   1.0000   1.0000   1.0000   1.0000   1.0000   1.0000
     1.0000   1.0000   1.0000   1.0000   1.0000   1.0000   1.0000   1.0000
     1.0000   1.0000   1.0000   1.0000   1.0000   1.0000   1.0000   1.0000
     1.0000   1.0000   1.0000   1.0000   1.0000   1.0000   1.0000   1.0000
     1.0000   1.0000   1.0000   1.0000   1.0000   1.0000   1.0000   1.0000
     1.0000   1.0000   1.0000   1.0000   1.0000   1.0000   1.0000   1.0000
     1.0000   1.0000   1.0000   1.0000   1.0000   1.0010   1.0512   1.0523
     1.0833   0.0000   0.0000   0.0000   0.0000   0.0000   0.0000   0.0000
     0.0000   0.0000   0.0000   0.0000   0.0000   0.0000   0.0000   0.0000
     0.0000   0.0000   0.0000   0.0000   0.0000

          k = 0.1667 0.2887-0.2526 ( 11348 PWs)   bands (ev):

   -91.5028 -91.4939 -91.4910 -54.7537 -54.7496 -54.7323 -54.7239 -54.7220
   -54.7183 -54.7163 -54.7128 -54.7041 -47.8634 -19.8359 -19.8083 -19.7715
   -17.5498 -17.2436 -17.1710 -16.9445 -14.7031 -13.5930 -13.5841 -13.2498
   -13.2418 -13.1144  -5.6354  -5.2283  -4.7217  -4.5947  -1.9628  -1.7452
    -1.6687  -1.6060  -1.4213  -1.3225  -1.0291  -0.8753  -0.8635  -0.7740
    -0.6089   0.0265   0.0478   0.3057   0.5523   0.6074   0.7233   0.7635
     0.9045   1.0035   1.1078   1.2203   1.8518   1.9464   1.9735   2.7237
     2.9872   2.9907   3.2154   3.3310   3.3353   3.5445   3.8706   3.8738
     4.0089   5.8263   5.8402   5.8690   6.0720   6.0898   6.4575   7.4692
     9.1838  10.4521  11.0277  11.7215  11.8543  12.4365  12.8359  12.9935
    13.8373  13.9244  14.3900  14.9838  15.1720

     occupation numbers 
     1.0000   1.0000   1.0000   1.0000   1.0000   1.0000   1.0000   1.0000
     1.0000   1.0000   1.0000   1.0000   1.0000   1.0000   1.0000   1.0000
     1.0000   1.0000   1.0000   1.0000   1.0000   1.0000   1.0000   1.0000
     1.0000   1.0000   1.0000   1.0000   1.0000   1.0000   1.0000   1.0000
     1.0000   1.0000   1.0000   1.0000   1.0000   1.0000   1.0000   1.0000
     1.0000   1.0000   1.0000   1.0000   1.0000   1.0000   1.0000   1.0000
     1.0000   1.0000   1.0000   1.0000   1.0000   1.0000   1.0000   1.0000
     1.0000   1.0000   1.0000   1.0000   1.0000   1.0010   1.0516   1.0527
     1.0830   0.0000   0.0000   0.0000   0.0000   0.0000   0.0000   0.0000
     0.0000   0.0000   0.0000   0.0000   0.0000   0.0000   0.0000   0.0000
     0.0000   0.0000   0.0000   0.0000   0.0000

          k = 0.1667 0.4811 0.0000 ( 11356 PWs)   bands (ev):

   -91.5025 -91.4937 -91.4915 -54.7556 -54.7436 -54.7335 -54.7282 -54.7190
   -54.7177 -54.7148 -54.7139 -54.7069 -47.8634 -19.8385 -19.8095 -19.7707
   -17.4091 -17.3203 -17.1575 -17.0274 -14.3587 -13.9506 -13.6612 -13.2563
   -13.1770 -13.1337  -5.6690  -5.2399  -4.7204  -4.5292  -2.0663  -1.8938
    -1.6085  -1.5409  -1.4101  -1.1922  -1.1390  -0.7533  -0.6080  -0.5817
    -0.4147  -0.1515  -0.1188   0.1580   0.3306   0.3675   0.5316   0.7539
     0.9814   1.1356   1.2507   1.2650   1.4056   2.0825   2.4527   2.7905
     3.0262   3.2240   3.2385   3.2668   3.4370   3.6515   3.6793   3.8511
     3.8752   5.5546   5.6643   5.8048   6.1876   6.3295   6.4034   8.0548
     9.5975  10.2188  10.8158  11.4051  11.8378  12.1046  12.5805  12.9432
    13.6248  14.0034  14.2675  14.8034  15.3714

     occupation numbers 
     1.0000   1.0000   1.0000   1.0000   1.0000   1.0000   1.0000   1.0000
     1.0000   1.0000   1.0000   1.0000   1.0000   1.0000   1.0000   1.0000
     1.0000   1.0000   1.0000   1.0000   1.0000   1.0000   1.0000   1.0000
     1.0000   1.0000   1.0000   1.0000   1.0000   1.0000   1.0000   1.0000
     1.0000   1.0000   1.0000   1.0000   1.0000   1.0000   1.0000   1.0000
     1.0000   1.0000   1.0000   1.0000   1.0000   1.0000   1.0000   1.0000
     1.0000   1.0000   1.0000   1.0000   1.0000   1.0000   1.0000   1.0000
     1.0000   1.0000   1.0000   1.0000   1.0001   1.0053   1.0077   1.0450
     1.0532   0.0000   0.0000   0.0000   0.0000   0.0000   0.0000   0.0000
     0.0000   0.0000   0.0000   0.0000   0.0000   0.0000   0.0000   0.0000
     0.0000   0.0000   0.0000   0.0000   0.0000

          k = 0.1667 0.4811-0.2526 ( 11352 PWs)   bands (ev):

   -91.5025 -91.4937 -91.4915 -54.7556 -54.7437 -54.7334 -54.7282 -54.7190
   -54.7177 -54.7148 -54.7139 -54.7069 -47.8634 -19.8384 -19.8095 -19.7707
   -17.4089 -17.3202 -17.1578 -17.0275 -14.3584 -13.9505 -13.6612 -13.2563
   -13.1772 -13.1340  -5.6683  -5.2393  -4.7202  -4.5309  -2.0596  -1.8970
    -1.6192  -1.5742  -1.3672  -1.1853  -1.1417  -0.7615  -0.6202  -0.5759
    -0.4144  -0.1510  -0.1185   0.1354   0.3562   0.3895   0.5786   0.7025
     0.9783   1.1400   1.2227   1.2798   1.4041   2.0795   2.4537   2.7908
     3.0262   3.2238   3.2384   3.2660   3.4366   3.6530   3.6788   3.8518
     3.8769   5.5466   5.6626   5.8030   6.1883   6.3304   6.4034   8.0785
     9.6205  10.1557  10.7769  11.3771  11.9234  12.1852  12.5902  12.9675
    13.5974  13.8758  14.2109  15.1209  15.3070

     occupation numbers 
     1.0000   1.0000   1.0000   1.0000   1.0000   1.0000   1.0000   1.0000
     1.0000   1.0000   1.0000   1.0000   1.0000   1.0000   1.0000   1.0000
     1.0000   1.0000   1.0000   1.0000   1.0000   1.0000   1.0000   1.0000
     1.0000   1.0000   1.0000   1.0000   1.0000   1.0000   1.0000   1.0000
     1.0000   1.0000   1.0000   1.0000   1.0000   1.0000   1.0000   1.0000
     1.0000   1.0000   1.0000   1.0000   1.0000   1.0000   1.0000   1.0000
     1.0000   1.0000   1.0000   1.0000   1.0000   1.0000   1.0000   1.0000
     1.0000   1.0000   1.0000   1.0000   1.0001   1.0054   1.0076   1.0452
     1.0538   0.0000   0.0000   0.0000   0.0000   0.0000   0.0000   0.0000
     0.0000   0.0000   0.0000   0.0000   0.0000   0.0000   0.0000   0.0000
     0.0000   0.0000   0.0000   0.0000   0.0000

          k = 0.3333 0.5774 0.0000 ( 11370 PWs)   bands (ev):

   -91.5024 -91.4936 -91.4917 -54.7483 -54.7459 -54.7408 -54.7293 -54.7184
   -54.7178 -54.7138 -54.7117 -54.7076 -47.8634 -19.8408 -19.8090 -19.7713
   -17.4440 -17.2775 -17.1719 -17.0146 -14.0169 -14.0100 -14.0034 -13.1814
   -13.1740 -13.1706  -5.6412  -5.2100  -4.7974  -4.5569  -2.1520  -1.7492
    -1.6141  -1.4574  -1.4115  -1.3643  -0.9974  -0.6262  -0.6110  -0.5785
    -0.2619  -0.2571  -0.2522   0.1211   0.1946   0.2744   0.3761   0.5780
     1.1368   1.3148   1.3484   1.3541   1.3779   2.4409   2.4639   2.4730
     3.2166   3.2233   3.2251   3.4763   3.4778   3.4785   3.7085   3.7123
     3.7183   5.5671   5.5816   5.6028   6.4016   6.4103   6.4130   8.2696
     9.5377   9.9704  10.8338  11.2482  11.7674  12.4073  12.6086  12.9028
    13.6115  13.9554  14.3393  15.1669  15.3565

     occupation numbers 
     1.0000   1.0000   1.0000   1.0000   1.0000   1.0000   1.0000   1.0000
     1.0000   1.0000   1.0000   1.0000   1.0000   1.0000   1.0000   1.0000
     1.0000   1.0000   1.0000   1.0000   1.0000   1.0000   1.0000   1.0000
     1.0000   1.0000   1.0000   1.0000   1.0000   1.0000   1.0000   1.0000
     1.0000   1.0000   1.0000   1.0000   1.0000   1.0000   1.0000   1.0000
     1.0000   1.0000   1.0000   1.0000   1.0000   1.0000   1.0000   1.0000
     1.0000   1.0000   1.0000   1.0000   1.0000   1.0000   1.0000   1.0000
     1.0000   1.0000   1.0000   1.0003   1.0003   1.0003   1.0111   1.0116
     1.0124   0.0000   0.0000   0.0000   0.0000   0.0000   0.0000   0.0000
     0.0000   0.0000   0.0000   0.0000   0.0000   0.0000   0.0000   0.0000
     0.0000   0.0000   0.0000   0.0000   0.0000

          k = 0.3333 0.5774-0.2526 ( 11340 PWs)   bands (ev):

   -91.5024 -91.4936 -91.4917 -54.7483 -54.7459 -54.7408 -54.7293 -54.7184
   -54.7177 -54.7138 -54.7116 -54.7075 -47.8634 -19.8408 -19.8089 -19.7712
   -17.4439 -17.2774 -17.1721 -17.0146 -14.0166 -14.0099 -14.0034 -13.1816
   -13.1741 -13.1705  -5.6416  -5.2111  -4.7981  -4.5537  -2.1492  -1.7573
    -1.6275  -1.4543  -1.4047  -1.3272  -1.0236  -0.6339  -0.6198  -0.5987
    -0.2615  -0.2569  -0.2522   0.1061   0.2583   0.2879   0.3969   0.5466
     1.1233   1.3071   1.3484   1.3536   1.3805   2.4397   2.4648   2.4739
     3.2166   3.2227   3.2250   3.4764   3.4779   3.4785   3.7090   3.7141
     3.7210   5.5618   5.5774   5.5996   6.4016   6.4103   6.4130   8.2670
     9.5665   9.9681  10.8554  11.2546  11.7027  12.3911  12.5896  12.9921
    13.5783  13.9412  14.3640  15.2348  15.4473

     occupation numbers 
     1.0000   1.0000   1.0000   1.0000   1.0000   1.0000   1.0000   1.0000
     1.0000   1.0000   1.0000   1.0000   1.0000   1.0000   1.0000   1.0000
     1.0000   1.0000   1.0000   1.0000   1.0000   1.0000   1.0000   1.0000
     1.0000   1.0000   1.0000   1.0000   1.0000   1.0000   1.0000   1.0000
     1.0000   1.0000   1.0000   1.0000   1.0000   1.0000   1.0000   1.0000
     1.0000   1.0000   1.0000   1.0000   1.0000   1.0000   1.0000   1.0000
     1.0000   1.0000   1.0000   1.0000   1.0000   1.0000   1.0000   1.0000
     1.0000   1.0000   1.0000   1.0003   1.0003   1.0003   1.0111   1.0118
     1.0128   0.0000   0.0000   0.0000   0.0000   0.0000   0.0000   0.0000
     0.0000   0.0000   0.0000   0.0000   0.0000   0.0000   0.0000   0.0000
     0.0000   0.0000   0.0000   0.0000   0.0000

          k =-0.1667 0.0962 0.0000 ( 11360 PWs)   bands (ev):

   -91.5030 -91.4939 -91.4907 -54.7517 -54.7480 -54.7338 -54.7307 -54.7270
   -54.7188 -54.7147 -54.7058 -54.7024 -47.8634 -19.8370 -19.8080 -19.7705
   -17.6573 -17.3167 -17.0525 -16.8636 -14.8987 -13.4749 -13.3876 -13.3135
   -13.2536 -13.1076  -5.4749  -5.3339  -4.7980  -4.6570  -2.0138  -1.7438
    -1.6258  -1.4700  -1.2555  -1.1877  -1.0559  -0.9786  -0.9424  -0.8345
    -0.7352  -0.2985  -0.1138   0.3841   0.5704   0.6364   0.7023   0.8164
     0.8608   0.9787   1.3452   1.6227   1.6973   2.0371   2.1441   2.5663
     2.7616   2.8286   3.1082   3.3112   3.5126   3.5267   3.8557   3.9244
     3.9861   5.8441   5.8857   5.9069   5.9577   6.3223   6.5269   6.8138
     8.9350  10.4145  11.2265  11.4326  12.6352  12.8689  13.0167  13.3637
    13.7539  14.1219  14.6074  14.9914  15.1185

     occupation numbers 
     1.0000   1.0000   1.0000   1.0000   1.0000   1.0000   1.0000   1.0000
     1.0000   1.0000   1.0000   1.0000   1.0000   1.0000   1.0000   1.0000
     1.0000   1.0000   1.0000   1.0000   1.0000   1.0000   1.0000   1.0000
     1.0000   1.0000   1.0000   1.0000   1.0000   1.0000   1.0000   1.0000
     1.0000   1.0000   1.0000   1.0000   1.0000   1.0000   1.0000   1.0000
     1.0000   1.0000   1.0000   1.0000   1.0000   1.0000   1.0000   1.0000
     1.0000   1.0000   1.0000   1.0000   1.0000   1.0000   1.0000   1.0000
     1.0000   1.0000   1.0000   1.0000   1.0006   1.0007   1.0466   1.0697
     1.0828   0.0000   0.0000   0.0000   0.0000   0.0000   0.0000   0.0000
     0.0000   0.0000   0.0000   0.0000   0.0000   0.0000   0.0000   0.0000
     0.0000   0.0000   0.0000   0.0000   0.0000

          k = 0.1667 0.0962 0.0000 ( 11360 PWs)   bands (ev):

   -91.5030 -91.4939 -91.4907 -54.7517 -54.7480 -54.7341 -54.7310 -54.7267
   -54.7188 -54.7148 -54.7055 -54.7026 -47.8634 -19.8353 -19.8074 -19.7714
   -17.6421 -17.3017 -17.0748 -16.8780 -14.8986 -13.4745 -13.3879 -13.3142
   -13.2531 -13.1075  -5.5562  -5.2654  -4.7376  -4.6731  -1.9424  -1.7514
    -1.6480  -1.4705  -1.2497  -1.2278  -1.0717  -1.0132  -0.9380  -0.8684
    -0.7334  -0.2939  -0.1133   0.4431   0.5959   0.6909   0.7212   0.8213
     0.8863   0.9399   1.2353   1.6333   1.6810   2.0335   2.1448   2.5675
     2.7621   2.8280   3.1076   3.3126   3.5117   3.5274   3.8558   3.9235
     3.9875   5.8462   5.8854   5.9121   5.9511   6.3189   6.5279   6.8323
     8.9345  10.5826  11.2253  11.3467  12.4033  12.9102  13.0148  13.3751
    13.6079  14.1685  14.7437  14.9224  15.0494

     occupation numbers 
     1.0000   1.0000   1.0000   1.0000   1.0000   1.0000   1.0000   1.0000
     1.0000   1.0000   1.0000   1.0000   1.0000   1.0000   1.0000   1.0000
     1.0000   1.0000   1.0000   1.0000   1.0000   1.0000   1.0000   1.0000
     1.0000   1.0000   1.0000   1.0000   1.0000   1.0000   1.0000   1.0000
     1.0000   1.0000   1.0000   1.0000   1.0000   1.0000   1.0000   1.0000
     1.0000   1.0000   1.0000   1.0000   1.0000   1.0000   1.0000   1.0000
     1.0000   1.0000   1.0000   1.0000   1.0000   1.0000   1.0000   1.0000
     1.0000   1.0000   1.0000   1.0000   1.0006   1.0008   1.0466   1.0694
     1.0829   0.0000   0.0000   0.0000   0.0000   0.0000   0.0000   0.0000
     0.0000   0.0000   0.0000   0.0000   0.0000   0.0000   0.0000   0.0000
     0.0000   0.0000   0.0000   0.0000   0.0000

          k =-0.1667 0.0962-0.2526 ( 11384 PWs)   bands (ev):

   -91.5030 -91.4939 -91.4907 -54.7518 -54.7480 -54.7339 -54.7307 -54.7270
   -54.7189 -54.7147 -54.7059 -54.7025 -47.8634 -19.8370 -19.8080 -19.7706
   -17.6569 -17.3174 -17.0525 -16.8636 -14.8979 -13.4749 -13.3876 -13.3135
   -13.2536 -13.1084  -5.4668  -5.3298  -4.8046  -4.6646  -2.0034  -1.7606
    -1.6226  -1.4680  -1.3322  -1.1801  -1.0647  -0.9587  -0.9044  -0.7980
    -0.7352  -0.2956  -0.1021   0.3985   0.5105   0.6476   0.7319   0.8237
     0.8672   0.9640   1.3431   1.6222   1.6991   2.0386   2.1383   2.5185
     2.7616   2.8286   3.1083   3.3096   3.5127   3.5268   3.8562   3.9247
     4.0039   5.8452   5.8848   5.9066   5.9575   6.2942   6.5342   6.9500
     8.6995  10.6211  10.9129  11.9342  12.3961  12.8882  13.0650  13.2969
    13.7469  14.0863  14.5217  15.0285  15.2114

     occupation numbers 
[...]
     1.0288   1.0369   1.0484   1.0662   0.9333   0.8930   0.6722   0.2762
     0.0249   0.0000   0.0000   0.0000   0.0000   0.0000   0.0000   0.0000
     0.0000   0.0000   0.0000   0.0000   0.0000   0.0000   0.0000   0.0000
     0.0000   0.0000   0.0000   0.0000   0.0000

          k = 0.5000-0.0962 0.2526 ( 11352 PWs)   bands (ev):

   -90.7736 -90.7720 -90.7686 -54.1064 -54.0958 -54.0825 -54.0684 -54.0648
   -54.0602 -53.9040 -53.9017 -53.8983 -47.8633 -19.8425 -19.8084 -19.7708
   -17.5418 -17.2484 -17.1558 -16.9411 -14.2605 -13.8502 -13.5599 -13.1508
   -13.0720 -13.0277  -5.5514  -5.2302  -4.8670  -4.6130  -2.1745  -1.8292
    -1.6528  -1.4308  -1.1558  -1.0259  -0.8629  -0.6190  -0.5082  -0.3642
    -0.1976   0.0281   0.0665   0.2951   0.3795   0.6233   0.7027   0.8485
     1.0229   1.1624   1.3547   1.4656   1.6231   2.2580   2.6317   2.9810
     3.7976   3.8223   3.8623   3.9127   4.1750   4.1948   4.2830   4.4367
     4.6697   5.8821   6.0189   6.1778   6.4699   6.6150   6.6777   8.0527
     9.5209   9.8225  10.7081  11.5533  12.1444  12.5016  12.7643  13.0208
    13.6487  14.1990  14.5435  14.8475  15.1316

     occupation numbers 
     1.0000   1.0000   1.0000   1.0000   1.0000   1.0000   1.0000   1.0000
     1.0000   1.0000   1.0000   1.0000   1.0000   1.0000   1.0000   1.0000
     1.0000   1.0000   1.0000   1.0000   1.0000   1.0000   1.0000   1.0000
     1.0000   1.0000   1.0000   1.0000   1.0000   1.0000   1.0000   1.0000
     1.0000   1.0000   1.0000   1.0000   1.0000   1.0000   1.0000   1.0000
     1.0000   1.0000   1.0000   1.0000   1.0000   1.0000   1.0000   1.0000
     1.0000   1.0000   1.0000   1.0000   1.0000   1.0000   1.0000   1.0000
     1.0288   1.0358   1.0488   1.0660   0.9315   0.8919   0.6731   0.2782
     0.0246   0.0000   0.0000   0.0000   0.0000   0.0000   0.0000   0.0000
     0.0000   0.0000   0.0000   0.0000   0.0000   0.0000   0.0000   0.0000
     0.0000   0.0000   0.0000   0.0000   0.0000

     the Fermi energy is     4.3838 ev

!    total energy              =   -1665.51307745 Ry
     total all-electron energy =    -10200.135411 Ry
     estimated scf accuracy    <       0.00000002 Ry
     smearing contrib. (-TS)   =       0.00984299 Ry
     internal energy E=F+TS    =   -1665.52292044 Ry

     The total energy is F=E-TS. E is the sum of the following terms:
     one-electron contribution =   -1720.05188165 Ry
     hartree contribution      =     910.48277227 Ry
     xc contribution           =    -186.41948672 Ry
     ewald contribution        =    -295.67685418 Ry
     one-center paw contrib.   =    -373.85747015 Ry
      -> PAW hartree energy AE =    1007.03850928 Ry
      -> PAW hartree energy PS =   -1004.62107871 Ry
      -> PAW xc energy AE      =    -554.17842851 Ry
      -> PAW xc energy PS      =     177.90352779 Ry
      -> total E_H with PAW    =     912.90020283 Ry
      -> total E_XC with PAW   =    -562.69438745 Ry

     total magnetization       =     2.30 Bohr mag/cell
     absolute magnetization    =     2.34 Bohr mag/cell

     convergence has been achieved in  32 iterations

     Forces acting on atoms (cartesian axes, Ry/au):

     atom    1 type  1   force =    -0.00170614    0.00129736   -0.00259063
     atom    2 type  1   force =     0.00146191   -0.00056671    0.00203233
     atom    3 type  1   force =    -0.00071788   -0.00028435    0.00379405
     atom    4 type  2   force =    -0.00459907   -0.00323975   -0.02024644
     atom    5 type  2   force =    -0.00132421    0.00216178   -0.02046347
     atom    6 type  2   force =     0.00418957    0.00195117   -0.01566142
     atom    7 type  2   force =     0.00414338    0.00160886    0.01529907
     atom    8 type  2   force =    -0.00446940    0.00180369    0.01452990
     atom    9 type  2   force =    -0.00260962   -0.00290477    0.01835401
     atom   10 type  3   force =    -0.01784448    0.01697864    0.02478391
     atom   11 type  2   force =    -0.02828660   -0.01412249    0.02157716
     atom   12 type  4   force =     0.03351018    0.01616701   -0.00048901
     atom   13 type  4   force =    -0.00401382   -0.00241914   -0.04849933
     atom   14 type  2   force =    -0.00739158   -0.02881374    0.02021677
     atom   15 type  4   force =    -0.00464388    0.02158340   -0.00458965
     atom   16 type  4   force =     0.01004635    0.00028820   -0.04888480
     atom   17 type  2   force =    -0.00745416   -0.02136597   -0.04333027
     atom   18 type  4   force =     0.00593077    0.03602946   -0.00015321
     atom   19 type  4   force =     0.01420268   -0.00770674    0.05369548
     atom   20 type  2   force =    -0.03664058   -0.02974290   -0.03789660
     atom   21 type  4   force =     0.03951060    0.00793055    0.01421940
     atom   22 type  4   force =     0.00870600    0.00336645    0.05430276
     The non-local contrib.  to forces
     atom    1 type  1   force =    -0.00060531    0.01253695    0.01239067
     atom    2 type  1   force =    -0.00096385    0.00171892   -0.00570860
     atom    3 type  1   force =     0.00893006   -0.01648474   -0.01468242
     atom    4 type  2   force =    -0.03566246   -0.02840511   -1.12028534
     atom    5 type  2   force =    -0.01359900    0.01957028   -1.12267186
     atom    6 type  2   force =     0.04045290    0.01261566   -1.08120180
     atom    7 type  2   force =     0.03965020    0.01248297    1.08419564
     atom    8 type  2   force =    -0.04246702    0.00321367    1.07496655
     atom    9 type  2   force =    -0.02828007   -0.00671938    1.10708688
     atom   10 type  3   force =    -0.08438913   -0.38138707    0.43296983
     atom   11 type  2   force =     1.52735660   -0.21065266   -1.21853660
     atom   12 type  4   force =    -0.11067138   -0.01747880   -0.02456338
     atom   13 type  4   force =     0.00572214    0.01539445    0.11539068
     atom   14 type  2   force =    -0.99891683    1.26170723   -1.29040243
     atom   15 type  4   force =     0.06798576   -0.08837991   -0.02451109
     atom   16 type  4   force =    -0.01752427   -0.00290358    0.11545685
     atom   17 type  2   force =    -0.17050521    1.79245951    1.41277624
     atom   18 type  4   force =     0.04395587   -0.10348831    0.01739258
     atom   19 type  4   force =    -0.04725909    0.00029050   -0.10643523
     atom   20 type  2   force =     1.51348635    0.80160408    1.31695110
     atom   21 type  4   force =    -0.06757859   -0.08919961    0.01529235
     atom   22 type  4   force =    -0.02342255    0.03957063   -0.10665778
     The ionic contribution  to forces
     atom    1 type  1   force =    -0.15046495   -0.29414141    0.18841733
     atom    2 type  1   force =     0.36593655   -0.06250264    1.08988238
     atom    3 type  1   force =    -0.23790651    0.36397528    1.15530462
     atom    4 type  2   force =     0.29240274    0.43382982   32.76261468
     atom    5 type  2   force =     0.24900667   -0.41397812   32.73277256
     atom    6 type  2   force =    -0.52806493   -0.02654113   32.66145481
     atom    7 type  2   force =    -0.45210393    0.00537787  -32.18074576
     atom    8 type  2   force =     0.24703294    0.25940020  -32.12676001
     atom    9 type  2   force =     0.25409325   -0.27229631  -32.22118656
     atom   10 type  3   force =    -1.86472399   -2.38410562    1.05243649
     atom   11 type  2   force =    -0.70025783    0.39781839   10.33575735
     atom   12 type  4   force =     3.09347498    0.21017128    1.90515439
     atom   13 type  4   force =    -0.09614020   -0.43430808    0.12103727
     atom   14 type  2   force =     0.81578457   -0.44574564   10.45135072
     atom   15 type  4   force =    -2.22124009    2.45111050    1.88407986
     atom   16 type  4   force =     0.50461916    0.16182770    0.13078014
     atom   17 type  2   force =     1.09791534   -3.27919339  -12.78133926
     atom   18 type  4   force =    -1.16734800    2.63190737   -1.84095436
     atom   19 type  4   force =     1.38585085   -0.02618644   -0.38638744
     atom   20 type  2   force =    -3.11907247   -0.67713021  -12.69341009
     atom   21 type  4   force =     1.54862930    2.48520553   -1.92128632
     atom   22 type  4   force =     0.68257655   -1.08449495   -0.31897281
     The local contribution  to forces
     atom    1 type  1   force =     0.14935878    0.28298837   -0.20343939
     atom    2 type  1   force =    -0.36352234    0.06023380   -1.08226050
     atom    3 type  1   force =     0.22831852   -0.34789792   -1.13697568
     atom    4 type  2   force =    -0.26167241   -0.40890186  -31.67245248
     atom    5 type  2   force =    -0.23684077    0.39671416  -31.64047574
     atom    6 type  2   force =     0.49216359    0.01600007  -31.60541141
     atom    7 type  2   force =     0.41695604   -0.01614809   31.12130303
     atom    8 type  2   force =    -0.20944799   -0.26076705   31.07568361
     atom    9 type  2   force =    -0.22866722    0.27604928   31.14213866
     atom   10 type  3   force =     1.93118443    2.78222947   -1.46023530
     atom   11 type  2   force =    -0.84375392   -0.20322788   -9.10492370
     atom   12 type  4   force =    -2.94929516   -0.17652724   -1.88108615
     atom   13 type  4   force =     0.08640740    0.41649313   -0.28493632
     atom   14 type  2   force =     0.16773283   -0.83512105   -9.15065667
     atom   15 type  4   force =     2.14861109   -2.34115036   -1.86416483
     atom   16 type  4   force =    -0.47705084   -0.15863402   -0.29513035
     atom   17 type  2   force =    -0.93643182    1.47916342   11.33610803
     atom   18 type  4   force =     1.12933177   -2.49239811    1.82342406
     atom   19 type  4   force =    -1.32439437    0.01818865    0.54651046
     atom   20 type  2   force =     1.58047495   -0.14795543   11.34850874
     atom   21 type  4   force =    -1.44154281   -2.38808580    1.92022803
     atom   22 type  4   force =    -0.65045106    1.04829306    0.47992565
     The core correction contribution to forces
     atom    1 type  1   force =     0.00000813   -0.00008113   -0.00002768
     atom    2 type  1   force =     0.00000560   -0.00000985    0.00002670
     atom    3 type  1   force =    -0.00005265    0.00010177    0.00006909
     atom    4 type  2   force =     0.00031922    0.00024542    0.00988952
     atom    5 type  2   force =     0.00011187   -0.00016361    0.00992281
     atom    6 type  2   force =    -0.00034965   -0.00011549    0.00951006
     atom    7 type  2   force =    -0.00035218   -0.00012404   -0.00953892
     atom    8 type  2   force =     0.00039092   -0.00003414   -0.00944268
     atom    9 type  2   force =     0.00025683    0.00006907   -0.00976690
     atom   10 type  3   force =     0.00005520    0.00017648   -0.00023508
     atom   11 type  2   force =    -0.01156177    0.00193451    0.00918774
     atom   12 type  4   force =     0.00000000    0.00000000    0.00000000
     atom   13 type  4   force =     0.00000000    0.00000000    0.00000000
     atom   14 type  2   force =     0.00797407   -0.00958831    0.00983293
     atom   15 type  4   force =     0.00000000    0.00000000    0.00000000
     atom   16 type  4   force =     0.00000000    0.00000000    0.00000000
     atom   17 type  2   force =     0.00157655   -0.01377238   -0.01075271
     atom   18 type  4   force =     0.00000000    0.00000000    0.00000000
     atom   19 type  4   force =     0.00000000    0.00000000    0.00000000
     atom   20 type  2   force =    -0.01151657   -0.00625157   -0.00981652
     atom   21 type  4   force =     0.00000000    0.00000000    0.00000000
     atom   22 type  4   force =     0.00000000    0.00000000    0.00000000
     The Hubbard contrib.    to forces
     atom    1 type  1   force =     0.00000000    0.00000000    0.00000000
     atom    2 type  1   force =     0.00000000    0.00000000    0.00000000
     atom    3 type  1   force =     0.00000000    0.00000000    0.00000000
     atom    4 type  2   force =     0.00000000    0.00000000    0.00000000
     atom    5 type  2   force =     0.00000000    0.00000000    0.00000000
     atom    6 type  2   force =     0.00000000    0.00000000    0.00000000
     atom    7 type  2   force =     0.00000000    0.00000000    0.00000000
     atom    8 type  2   force =     0.00000000    0.00000000    0.00000000
     atom    9 type  2   force =     0.00000000    0.00000000    0.00000000
     atom   10 type  3   force =     0.00000000    0.00000000    0.00000000
     atom   11 type  2   force =     0.00000000    0.00000000    0.00000000
     atom   12 type  4   force =     0.00000000    0.00000000    0.00000000
     atom   13 type  4   force =     0.00000000    0.00000000    0.00000000
     atom   14 type  2   force =     0.00000000    0.00000000    0.00000000
     atom   15 type  4   force =     0.00000000    0.00000000    0.00000000
     atom   16 type  4   force =     0.00000000    0.00000000    0.00000000
     atom   17 type  2   force =     0.00000000    0.00000000    0.00000000
     atom   18 type  4   force =     0.00000000    0.00000000    0.00000000
     atom   19 type  4   force =     0.00000000    0.00000000    0.00000000
     atom   20 type  2   force =     0.00000000    0.00000000    0.00000000
     atom   21 type  4   force =     0.00000000    0.00000000    0.00000000
     atom   22 type  4   force =     0.00000000    0.00000000    0.00000000
     The SCF correction term to forces
     atom    1 type  1   force =    -0.00000306   -0.00000675    0.00006419
     atom    2 type  1   force =     0.00000567   -0.00000826    0.00008811
     atom    3 type  1   force =    -0.00000757    0.00001993    0.00007419
     atom    4 type  2   force =     0.00001357   -0.00000936   -0.00001707
     atom    5 type  2   force =    -0.00000325    0.00001774   -0.00001548
     atom    6 type  2   force =    -0.00001262   -0.00000929   -0.00001732
     atom    7 type  2   force =    -0.00000703    0.00001882    0.00008083
     atom    8 type  2   force =     0.00002147   -0.00001031    0.00007817
     atom    9 type  2   force =    -0.00001269   -0.00000877    0.00007770
     atom   10 type  3   force =     0.00002875    0.00006404   -0.00015626
     atom   11 type  2   force =    -0.00006996    0.00000380    0.00008814
     atom   12 type  4   force =     0.00000146    0.00000045    0.00000188
     atom   13 type  4   force =    -0.00000344    0.00000002    0.00000480
     atom   14 type  2   force =     0.00003351   -0.00006730    0.00008798
     atom   15 type  4   force =    -0.00000090    0.00000183    0.00000217
     atom   16 type  4   force =     0.00000202   -0.00000323    0.00000431
     atom   17 type  2   force =    -0.00000930   -0.00002446   -0.00012681
     atom   18 type  4   force =    -0.00000914    0.00000718   -0.00001974
     atom   19 type  4   force =     0.00000502   -0.00000078    0.00000344
     atom   20 type  2   force =    -0.00001313   -0.00001110   -0.00013407
     atom   21 type  4   force =     0.00000243    0.00000910   -0.00001891
     atom   22 type  4   force =     0.00000278   -0.00000362    0.00000345

     Total force =     0.167740     Total SCF correction =     0.000362

     Writing all to output data dir ./out/pw.save/ :
     XML data file, charge density, pseudopotentials, collected wavefunctions
 
     init_run     :     28.73s CPU      7.31s WALL (       1 calls)
     electrons    :    633.77s CPU    222.36s WALL (       1 calls)
     forces       :      3.46s CPU      2.91s WALL (       1 calls)

     Called by init_run:
     wfcinit      :      1.81s CPU      2.29s WALL (       1 calls)
     wfcinit:atom :      0.20s CPU      0.20s WALL (      80 calls)
     wfcinit:wfcr :      1.07s CPU      1.11s WALL (      80 calls)
     potinit      :     25.98s CPU      4.04s WALL (       1 calls)
     hinit0       :      0.72s CPU      0.69s WALL (       1 calls)

     Called by electrons:
     c_bands      :    136.61s CPU    137.05s WALL (      32 calls)
     sum_band     :     22.69s CPU     22.61s WALL (      32 calls)
     v_of_rho     :      0.86s CPU      0.55s WALL (      33 calls)
     v_h          :      0.51s CPU      0.15s WALL (      33 calls)
     v_xc         :      0.36s CPU      0.41s WALL (      34 calls)
     newd         :      0.87s CPU      0.79s WALL (      33 calls)
                                        0.79s GPU  (      33 calls)
     PAW_pot      :    482.55s CPU     60.43s WALL (      33 calls)
     mix_rho      :      1.94s CPU      1.90s WALL (      32 calls)

     Called by c_bands:
     init_us_2    :      5.12s CPU      5.05s WALL (    5280 calls)
     cegterg      :    104.11s CPU    104.43s WALL (    2560 calls)

     Called by sum_band:
     sum_band:wei :      0.19s CPU      0.19s WALL (      32 calls)
                                        0.19s GPU  (      32 calls)
     sum_band:loo :     20.82s CPU     20.72s WALL (      32 calls)
                                       20.72s GPU  (      32 calls)
     sum_band:buf :      8.09s CPU      8.22s WALL (    2560 calls)
                                        8.18s GPU  (    2560 calls)
     sum_band:ini :      2.48s CPU      2.48s WALL (    2560 calls)
                                        2.45s GPU  (    2560 calls)
     sum_band:cal :      0.25s CPU      0.58s WALL (    2560 calls)
                                        0.53s GPU  (    2560 calls)
     sum_band:bec :      2.51s CPU      2.57s WALL (    2560 calls)
                                        2.53s GPU  (    2560 calls)
     addusdens    :      1.34s CPU      1.35s WALL (      32 calls)
                                        1.35s GPU  (      32 calls)
     addusd:skk   :      0.03s CPU      0.03s WALL (     128 calls)
                                        0.03s GPU  (     128 calls)

     Called by *egterg:
     cdiaghg      :     36.83s CPU     37.16s WALL (   13685 calls)
                                       36.99s GPU  (   13685 calls)
     cegterg:over :      4.58s CPU      4.61s WALL (   11125 calls)
     cegterg:upda :      5.20s CPU      5.22s WALL (   11125 calls)
     cegterg:last :      1.23s CPU      1.23s WALL (    5068 calls)
     h_psi        :     43.83s CPU     44.24s WALL (   13765 calls)
                                       44.06s GPU  (   13765 calls)
     s_psi        :      8.70s CPU      8.78s WALL (   13765 calls)
     g_psi        :      0.06s CPU      0.60s WALL (   11125 calls)
                                        0.45s GPU  (   11125 calls)

     Called by h_psi:
     h_psi:calbec :      0.55s CPU      1.71s WALL (   13765 calls)
                                        1.54s GPU  (   13765 calls)
     vloc_psi     :     32.02s CPU     32.00s WALL (   13765 calls)
                                       31.83s GPU  (   13765 calls)
     add_vuspsi   :      8.32s CPU      9.48s WALL (   13765 calls)
                                        9.30s GPU  (   13765 calls)

     General routines
     calbec       :      0.72s CPU      0.78s WALL (   16645 calls)
     fft          :      8.73s CPU      1.38s WALL (     838 calls)
                                        0.05s GPU  (     772 calls)
     ffts         :      4.17s CPU      1.02s WALL (    1671 calls)
                                        0.05s GPU  (    1605 calls)
     fftw         :      1.62s CPU     21.06s WALL (   99348 calls)
                                       19.95s GPU  (   99348 calls)
     interpolate  :     13.40s CPU      2.47s WALL (      66 calls)
 
     Parallel routines

     PAW routines
     PAW_pot      :    482.55s CPU     60.43s WALL (      33 calls)
 
     PWSCF        :  11m 7.63s CPU   3m53.84s WALL

 
   This run was terminated on:   5:46:44  12Jul2026            

=------------------------------------------------------------------------------=
   JOB DONE.
=------------------------------------------------------------------------------=
Warning: ieee_divide_by_zero is signaling
Warning: ieee_inexact is signaling
FORTRAN STOP
