
     Program PWSCF v.7.3.1 starts on 12Jul2026 at  3:22: 7 

     This program is part of the open-source Quantum ESPRESSO suite
     for quantum simulation of materials; please cite
         "P. Giannozzi et al., J. Phys.:Condens. Matter 21 395502 (2009);
         "P. Giannozzi et al., J. Phys.:Condens. Matter 29 465901 (2017);
         "P. Giannozzi et al., J. Chem. Phys. 152 154105 (2020);
          URL http://www.quantum-espresso.org", 
     in publications or presentations arising from this work. More details at
     http://www.quantum-espresso.org/quote

     Parallel version (MPI & OpenMP), running on      14 processor cores
     Number of MPI processes:                 1
     Threads/MPI process:                    14

     MPI processes distributed on     1 nodes
     846173 MiB available memory on the printing compute node when the environment starts
 
     Reading input from pw.in

     Current dimensions of program PWSCF are:
     Max number of different atomic species (ntypx) = 10
     Max number of k-points (npk) =  40000
     Max angular momentum in pseudopotentials (lmaxx) =  4
     file Co.pbe-spn-kjpaw_psl.0.3.1.UPF: wavefunction(s)  3P 3D renormalized
     file O.pbe-n-kjpaw_psl.1.0.0.UPF: wavefunction(s)  2S 2P renormalized
     file Na.pbe-spn-kjpaw_psl.1.0.0.UPF: wavefunction(s)  2P renormalized
 
     Subspace diagonalization in iterative solution of the eigenvalue problem:
     a serial algorithm will be used

 
     G-vector sticks info
     --------------------
     sticks:   dense  smooth     PW     G-vecs:    dense   smooth      PW
     Sum        2941    1483    421               142753    50601    7659
 
     Using Slab Decomposition
 


     bravais-lattice index     =            4
     lattice parameter (alat)  =       9.4527  a.u.
     unit-cell volume          =     804.2768 (a.u.)^3
     number of atoms/cell      =           10
     number of atomic types    =            3
     number of electrons       =        96.00
     number of Kohn-Sham states=           64
     kinetic-energy cutoff     =      60.0000  Ry
     charge density cutoff     =     480.0000  Ry
     scf convergence threshold =      1.0E-07
     mixing beta               =       0.3000
     number of iterations used =            8  local-TF  mixing
     Exchange-correlation= SLA  PW   PBX  PBC
                           (   1   4   3   4   0   0   0)

     GPU acceleration is ACTIVE.  1 visible GPUs per MPI rank
     GPU-aware MPI enabled


     GPU used by master process:

        Device Number: 0
        Device name: NVIDIA A100-SXM4-80GB
        Compute capability : 80
        Ratio of single to double precision performance  : 2
        Memory Clock Rate (KHz): 1593000
        Memory Bus Width (bits): 5120
        Peak Memory Bandwidth (GB/s): ******

     celldm(1)=   9.452718  celldm(2)=   0.000000  celldm(3)=   1.099524
     celldm(4)=   0.000000  celldm(5)=   0.000000  celldm(6)=   0.000000

     crystal axes: (cart. coord. in units of alat)
               a(1) = (   1.000000   0.000000   0.000000 )  
               a(2) = (  -0.500000   0.866025   0.000000 )  
               a(3) = (   0.000000   0.000000   1.099524 )  

     reciprocal axes: (cart. coord. in units 2 pi/alat)
               b(1) = (  1.000000  0.577350 -0.000000 )  
               b(2) = (  0.000000  1.154701  0.000000 )  
               b(3) = (  0.000000 -0.000000  0.909484 )  


     PseudoPot. # 1 for Co read from file:
     ../../pseudo/Co.pbe-spn-kjpaw_psl.0.3.1.UPF
     MD5 check sum: 3c0a43779828c046024e4f3be63f8e67
     Pseudo is Projector augmented-wave + core cor, Zval = 17.0
     Generated using &quot;atomic&quot; code by A. Dal Corso  v.6.2.2
     Shape of augmentation charge: PSQ
     Using radial grid of 1193 points,  6 beta functions with: 
                l(1) =   0
                l(2) =   0
                l(3) =   1
                l(4) =   1
                l(5) =   2
                l(6) =   2
     Q(r) pseudized with 0 coefficients 


     PseudoPot. # 2 for O  read from file:
     ../../pseudo/O.pbe-n-kjpaw_psl.1.0.0.UPF
     MD5 check sum: e99d9cef9b487d1ca56f5b95ecd0fd7a
     Pseudo is Projector augmented-wave + core cor, Zval =  6.0
     Generated using &quot;atomic&quot; code by A. Dal Corso  v.6.3
     Shape of augmentation charge: PSQ
     Using radial grid of 1095 points,  4 beta functions with: 
                l(1) =   0
                l(2) =   0
                l(3) =   1
                l(4) =   1
     Q(r) pseudized with 0 coefficients 


     PseudoPot. # 3 for Na read from file:
     ../../pseudo/Na.pbe-spn-kjpaw_psl.1.0.0.UPF
     MD5 check sum: 05b4deb74e3932c23ab016979dc8b5d4
     Pseudo is Projector augmented-wave + core cor, Zval =  9.0
     Generated using &quot;atomic&quot; code by A. Dal Corso  v.6.3
     Shape of augmentation charge: PSQ
     Using radial grid of 1121 points,  4 beta functions with: 
                l(1) =   0
                l(2) =   0
                l(3) =   1
                l(4) =   1
     Q(r) pseudized with 0 coefficients 


     atomic species   valence    mass     pseudopotential
     Co               17.00    58.93300     Co( 1.00)
     O                 6.00    15.99900     O ( 1.00)
     Na                9.00    22.98977     Na( 1.00)

     Starting magnetic structure 
     atomic species   magnetization
     Co              0.300
     O               0.000
     Na              0.000

      6 Sym. Ops. (no inversion) found


                                    s                        frac. trans.

      isym =  1     identity                                     

 cryst.   s( 1) = (     1          0          0      )
                  (     0          1          0      )
                  (     0          0          1      )

 cart.    s( 1) = (  1.0000000  0.0000000  0.0000000 )
                  (  0.0000000  1.0000000  0.0000000 )
                  (  0.0000000  0.0000000  1.0000000 )


      isym =  2     120 deg rotation - cryst. axis [0,0,1]       

 cryst.   s( 2) = (     0          1          0      )
                  (    -1         -1          0      )
                  (     0          0          1      )

 cart.    s( 2) = ( -0.5000000 -0.8660254  0.0000000 )
                  (  0.8660254 -0.5000000  0.0000000 )
                  (  0.0000000  0.0000000  1.0000000 )


      isym =  3     120 deg rotation - cryst. axis [0,0,-1]      

 cryst.   s( 3) = (    -1         -1          0      )
                  (     1          0          0      )
                  (     0          0          1      )

 cart.    s( 3) = ( -0.5000000  0.8660254  0.0000000 )
                  ( -0.8660254 -0.5000000  0.0000000 )
                  (  0.0000000  0.0000000  1.0000000 )


      isym =  4     inv. 180 deg rotation - cart. axis [0,1,0]   

 cryst.   s( 4) = (     1          0          0      )
                  (    -1         -1          0      )
                  (     0          0          1      )

 cart.    s( 4) = (  1.0000000  0.0000000  0.0000000 )
                  (  0.0000000 -1.0000000  0.0000000 )
                  (  0.0000000  0.0000000  1.0000000 )


      isym =  5     inv. 180 deg rotation - cryst. axis [1,-1,0] 

 cryst.   s( 5) = (     0          1          0      )
                  (     1          0          0      )
                  (     0          0          1      )

 cart.    s( 5) = ( -0.5000000  0.8660254  0.0000000 )
                  (  0.8660254  0.5000000  0.0000000 )
                  (  0.0000000  0.0000000  1.0000000 )


      isym =  6     inv. 180 deg rotation - cryst. axis [2,1,0]  

 cryst.   s( 6) = (    -1         -1          0      )
                  (     0          1          0      )
                  (     0          0          1      )

 cart.    s( 6) = ( -0.5000000 -0.8660254  0.0000000 )
                  ( -0.8660254  0.5000000  0.0000000 )
                  (  0.0000000  0.0000000  1.0000000 )


     point group C_3v (3m)  
     there are  3 classes
     the character table:

       E     2C3   3s_v 
A_1    1.00  1.00  1.00
A_2    1.00  1.00 -1.00
E      2.00 -1.00  0.00

     the symmetry operations in each class and the name of the first element:

     E        1
          identity                                               
     2C3      2    3
          120 deg rotation - cryst. axis [0,0,1]                 
     3s_v     4    6    5
          inv. 180 deg rotation - cart. axis [0,1,0]             

   Cartesian axes

     site n.     atom                  positions (alat units)
         1        Co     tau(   1) = (   0.0000000   0.0000000   0.0000000  )
         2        Co     tau(   2) = (  -0.0000000   0.5773503   0.0000000  )
         3        Co     tau(   3) = (   0.5000000   0.2886751   0.0000000  )
         4        O      tau(   4) = (   0.1666667   0.2886751   0.1919170  )
         5        O      tau(   5) = (   0.6666667   0.0000000   0.1919170  )
         6        O      tau(   6) = (  -0.3333333   0.5773503   0.1919170  )
         7        O      tau(   7) = (   0.3333333   0.0000000   0.9076074  )
         8        O      tau(   8) = (   0.3333333   0.5773503   0.9076074  )
         9        O      tau(   9) = (  -0.1666667   0.2886751   0.9076074  )
        10        Na     tau(  10) = (   0.0000000   0.0000000   0.5997406  )

   Crystallographic axes

     site n.     atom                  positions (cryst. coord.)
         1        Co     tau(   1) = (  0.0000000  0.0000000  0.0000000  )
         2        Co     tau(   2) = (  0.3333333  0.6666667  0.0000000  )
         3        Co     tau(   3) = (  0.6666667  0.3333333  0.0000000  )
         4        O      tau(   4) = (  0.3333333  0.3333333  0.1745455  )
         5        O      tau(   5) = (  0.6666667  0.0000000  0.1745455  )
         6        O      tau(   6) = (  0.0000000  0.6666667  0.1745455  )
         7        O      tau(   7) = (  0.3333333  0.0000000  0.8254545  )
         8        O      tau(   8) = (  0.6666667  0.6666667  0.8254545  )
         9        O      tau(   9) = ( -0.0000000  0.3333333  0.8254545  )
        10        Na     tau(  10) = (  0.0000000  0.0000000  0.5454545  )

     number of k points=    17  Marzari-Vanderbilt smearing, width (Ry)=  0.0200
                       cart. coord. in units 2pi/alat
        k(    1) = (   0.0000000   0.0000000   0.0000000), wk =   0.0092593
        k(    2) = (   0.0000000   0.0000000   0.3031614), wk =   0.0185185
        k(    3) = (   0.0000000   0.1924501   0.0000000), wk =   0.0555556
        k(    4) = (   0.0000000   0.1924501   0.3031614), wk =   0.1111111
        k(    5) = (   0.0000000   0.3849002   0.0000000), wk =   0.0555556
        k(    6) = (   0.0000000   0.3849002   0.3031614), wk =   0.1111111
        k(    7) = (   0.0000000  -0.5773503   0.0000000), wk =   0.0277778
        k(    8) = (   0.0000000  -0.5773503   0.3031614), wk =   0.0555556
        k(    9) = (   0.1666667   0.2886751   0.0000000), wk =   0.0555556
        k(   10) = (   0.1666667   0.2886751   0.3031614), wk =   0.0555556
        k(   11) = (   0.1666667   0.4811252   0.0000000), wk =   0.1111111
        k(   12) = (   0.1666667   0.4811252   0.3031614), wk =   0.1111111
        k(   13) = (   0.3333333   0.5773503   0.0000000), wk =   0.0185185
        k(   14) = (   0.3333333   0.5773503   0.3031614), wk =   0.0185185
        k(   15) = (  -0.1666667  -0.2886751   0.3031614), wk =   0.0555556
        k(   16) = (  -0.1666667  -0.4811252   0.3031614), wk =   0.1111111
        k(   17) = (  -0.3333333  -0.5773503   0.3031614), wk =   0.0185185

                       cryst. coord.
        k(    1) = (   0.0000000   0.0000000   0.0000000), wk =   0.0092593
        k(    2) = (   0.0000000   0.0000000   0.3333333), wk =   0.0185185
        k(    3) = (   0.0000000   0.1666667   0.0000000), wk =   0.0555556
        k(    4) = (   0.0000000   0.1666667   0.3333333), wk =   0.1111111
        k(    5) = (   0.0000000   0.3333333   0.0000000), wk =   0.0555556
        k(    6) = (   0.0000000   0.3333333   0.3333333), wk =   0.1111111
        k(    7) = (   0.0000000  -0.5000000   0.0000000), wk =   0.0277778
        k(    8) = (   0.0000000  -0.5000000   0.3333333), wk =   0.0555556
        k(    9) = (   0.1666667   0.1666667   0.0000000), wk =   0.0555556
        k(   10) = (   0.1666667   0.1666667   0.3333333), wk =   0.0555556
        k(   11) = (   0.1666667   0.3333333   0.0000000), wk =   0.1111111
        k(   12) = (   0.1666667   0.3333333   0.3333333), wk =   0.1111111
        k(   13) = (   0.3333333   0.3333333   0.0000000), wk =   0.0185185
        k(   14) = (   0.3333333   0.3333333   0.3333333), wk =   0.0185185
        k(   15) = (  -0.1666667  -0.1666667   0.3333333), wk =   0.0555556
        k(   16) = (  -0.1666667  -0.3333333   0.3333333), wk =   0.1111111
        k(   17) = (  -0.3333333  -0.3333333   0.3333333), wk =   0.0185185

     Dense  grid:   142753 G-vectors     FFT dimensions: (  72,  72,  75)

     Smooth grid:    50601 G-vectors     FFT dimensions: (  48,  48,  54)

     Dynamical RAM for                 wfc:       6.16 MB

     Dynamical RAM for     wfc (w. buffer):     215.74 MB

     Dynamical RAM for           str. fact:       6.53 MB

     Dynamical RAM for           local pot:       0.00 MB

     Dynamical RAM for          nlocal pot:      10.59 MB

     Dynamical RAM for                qrad:       5.27 MB

     Dynamical RAM for          rho,v,vnew:      30.87 MB

     Dynamical RAM for               rhoin:      10.29 MB

     Dynamical RAM for            rho*nmix:      69.70 MB

     Dynamical RAM for           G-vectors:       8.55 MB

     Dynamical RAM for          h,s,v(r/c):       0.75 MB

     Dynamical RAM for          <psi|beta>:       0.11 MB

     Dynamical RAM for                 psi:      12.33 MB

     Dynamical RAM for                hpsi:      12.33 MB

     Dynamical RAM for                spsi:      12.33 MB

     Dynamical RAM for      wfcinit/wfcrot:      12.42 MB

     Dynamical RAM for           addusdens:     420.40 MB

     Dynamical RAM for          addusforce:     442.23 MB

     Estimated static dynamical RAM per process >     314.37 MB

     Estimated max dynamical RAM per process >     826.30 MB

     Check: negative core charge=   -0.000009
     Generating pointlists ...
     new r_m :   0.1587 (alat units)  1.4998 (a.u.) for type    1
     new r_m :   0.1587 (alat units)  1.4998 (a.u.) for type    2
     new r_m :   0.1872 (alat units)  1.7693 (a.u.) for type    3

     Initial potential from superposition of free atoms

     starting charge      95.9928, renormalised to      96.0000
     Starting wfcs are   59 randomized atomic wfcs +    5 random wfcs
     Checking if some PAW data can be deallocated... 

     total cpu time spent up to now is        4.9 secs

     Self-consistent Calculation
[tb_dev] Currently allocated     9.94E-01 Mbytes, locked:    0 /   6
[tb_pin] Currently allocated     0.00E+00 Mbytes, locked:    0 /   0

     iteration #  1     ecut=    60.00 Ry     beta= 0.30
     Davidson diagonalization with overlap

---- Real-time Memory Report at c_bands before calling an iterative solver
           890 MiB given to the printing process from OS
             0 MiB allocation reported by mallinfo(arena+hblkhd)
        846199 MiB available memory on the node where the printing process lives
     GPU memory used/free/total (MiB): 1438 / 79712 / 81151
------------------
     ethr =  1.00E-02,  avg # of iterations =  9.8

     total cpu time spent up to now is        8.5 secs

     total energy              =   -1488.33597183 Ry
     estimated scf accuracy    <       6.24293904 Ry

     total magnetization       =    14.00 Bohr mag/cell
     absolute magnetization    =    14.00 Bohr mag/cell
[tb_dev] Currently allocated     7.63E-05 Mbytes, locked:    0 /   2
[tb_pin] Currently allocated     0.00E+00 Mbytes, locked:    0 /   0

     iteration #  2     ecut=    60.00 Ry     beta= 0.30
     Davidson diagonalization with overlap

---- Real-time Memory Report at c_bands before calling an iterative solver
           944 MiB given to the printing process from OS
             0 MiB allocation reported by mallinfo(arena+hblkhd)
        845530 MiB available memory on the node where the printing process lives
     GPU memory used/free/total (MiB): 1488 / 79662 / 81151
------------------
     ethr =  6.50E-03,  avg # of iterations =  1.9

     total cpu time spent up to now is       10.9 secs

     total energy              =   -1488.63081425 Ry
     estimated scf accuracy    <       1.12087672 Ry

     total magnetization       =    11.09 Bohr mag/cell
     absolute magnetization    =    11.09 Bohr mag/cell
[tb_dev] Currently allocated     7.63E-05 Mbytes, locked:    0 /   2
[tb_pin] Currently allocated     0.00E+00 Mbytes, locked:    0 /   0

     iteration #  3     ecut=    60.00 Ry     beta= 0.30
     Davidson diagonalization with overlap

---- Real-time Memory Report at c_bands before calling an iterative solver
           948 MiB given to the printing process from OS
             0 MiB allocation reported by mallinfo(arena+hblkhd)
        845119 MiB available memory on the node where the printing process lives
     GPU memory used/free/total (MiB): 1488 / 79662 / 81151
------------------
     ethr =  1.17E-03,  avg # of iterations =  2.5

     total cpu time spent up to now is       13.4 secs

     total energy              =   -1488.93333711 Ry
     estimated scf accuracy    <       2.31535039 Ry

     total magnetization       =     5.43 Bohr mag/cell
     absolute magnetization    =     5.79 Bohr mag/cell
[tb_dev] Currently allocated     7.63E-05 Mbytes, locked:    0 /   2
[tb_pin] Currently allocated     0.00E+00 Mbytes, locked:    0 /   0

     iteration #  4     ecut=    60.00 Ry     beta= 0.30
     Davidson diagonalization with overlap

---- Real-time Memory Report at c_bands before calling an iterative solver
           954 MiB given to the printing process from OS
             0 MiB allocation reported by mallinfo(arena+hblkhd)
        845056 MiB available memory on the node where the printing process lives
     GPU memory used/free/total (MiB): 1488 / 79662 / 81151
------------------
     ethr =  1.17E-03,  avg # of iterations =  1.3

     total cpu time spent up to now is       15.6 secs

     total energy              =   -1488.96934461 Ry
     estimated scf accuracy    <       0.94425507 Ry

     total magnetization       =     5.49 Bohr mag/cell
     absolute magnetization    =     5.84 Bohr mag/cell
[tb_dev] Currently allocated     7.63E-05 Mbytes, locked:    0 /   2
[tb_pin] Currently allocated     0.00E+00 Mbytes, locked:    0 /   0

     iteration #  5     ecut=    60.00 Ry     beta= 0.30
     Davidson diagonalization with overlap

---- Real-time Memory Report at c_bands before calling an iterative solver
           958 MiB given to the printing process from OS
             0 MiB allocation reported by mallinfo(arena+hblkhd)
        845052 MiB available memory on the node where the printing process lives
     GPU memory used/free/total (MiB): 1488 / 79662 / 81151
------------------
     ethr =  9.84E-04,  avg # of iterations =  1.1

     total cpu time spent up to now is       17.9 secs

     total energy              =   -1489.09628793 Ry
     estimated scf accuracy    <       0.39372120 Ry

     total magnetization       =     7.30 Bohr mag/cell
     absolute magnetization    =     7.41 Bohr mag/cell
[tb_dev] Currently allocated     7.63E-05 Mbytes, locked:    0 /   2
[tb_pin] Currently allocated     0.00E+00 Mbytes, locked:    0 /   0

     iteration #  6     ecut=    60.00 Ry     beta= 0.30
     Davidson diagonalization with overlap

---- Real-time Memory Report at c_bands before calling an iterative solver
           962 MiB given to the printing process from OS
             0 MiB allocation reported by mallinfo(arena+hblkhd)
        845055 MiB available memory on the node where the printing process lives
     GPU memory used/free/total (MiB): 1488 / 79662 / 81151
------------------
     ethr =  4.10E-04,  avg # of iterations =  1.7

     total cpu time spent up to now is       20.3 secs

     total energy              =   -1489.30721525 Ry
     estimated scf accuracy    <       0.36293076 Ry

     total magnetization       =     2.38 Bohr mag/cell
     absolute magnetization    =     3.75 Bohr mag/cell
[tb_dev] Currently allocated     7.63E-05 Mbytes, locked:    0 /   2
[tb_pin] Currently allocated     0.00E+00 Mbytes, locked:    0 /   0

     iteration #  7     ecut=    60.00 Ry     beta= 0.30
     Davidson diagonalization with overlap

---- Real-time Memory Report at c_bands before calling an iterative solver
           967 MiB given to the printing process from OS
             0 MiB allocation reported by mallinfo(arena+hblkhd)
        845114 MiB available memory on the node where the printing process lives
     GPU memory used/free/total (MiB): 1488 / 79662 / 81151
------------------
     ethr =  3.78E-04,  avg # of iterations =  1.2

     total cpu time spent up to now is       22.5 secs

     total energy              =   -1489.30506884 Ry
     estimated scf accuracy    <       0.40070903 Ry

     total magnetization       =     2.03 Bohr mag/cell
     absolute magnetization    =     2.79 Bohr mag/cell
[tb_dev] Currently allocated     7.63E-05 Mbytes, locked:    0 /   2
[tb_pin] Currently allocated     0.00E+00 Mbytes, locked:    0 /   0

     iteration #  8     ecut=    60.00 Ry     beta= 0.30
     Davidson diagonalization with overlap

---- Real-time Memory Report at c_bands before calling an iterative solver
           980 MiB given to the printing process from OS
             0 MiB allocation reported by mallinfo(arena+hblkhd)
        845120 MiB available memory on the node where the printing process lives
     GPU memory used/free/total (MiB): 1488 / 79662 / 81151
------------------
     ethr =  3.78E-04,  avg # of iterations =  1.4

     total cpu time spent up to now is       24.9 secs

     total energy              =   -1489.32504666 Ry
     estimated scf accuracy    <       0.14822654 Ry

     total magnetization       =     2.01 Bohr mag/cell
     absolute magnetization    =     2.71 Bohr mag/cell
[tb_dev] Currently allocated     7.63E-05 Mbytes, locked:    0 /   2
[tb_pin] Currently allocated     0.00E+00 Mbytes, locked:    0 /   0

     iteration #  9     ecut=    60.00 Ry     beta= 0.30
     Davidson diagonalization with overlap

---- Real-time Memory Report at c_bands before calling an iterative solver
           983 MiB given to the printing process from OS
             0 MiB allocation reported by mallinfo(arena+hblkhd)
        845033 MiB available memory on the node where the printing process lives
     GPU memory used/free/total (MiB): 1488 / 79662 / 81151
------------------
     ethr =  1.54E-04,  avg # of iterations =  3.3

     total cpu time spent up to now is       27.5 secs

     total energy              =   -1489.33420045 Ry
     estimated scf accuracy    <       0.02161378 Ry

     total magnetization       =     2.18 Bohr mag/cell
     absolute magnetization    =     2.40 Bohr mag/cell
[tb_dev] Currently allocated     7.63E-05 Mbytes, locked:    0 /   2
[tb_pin] Currently allocated     0.00E+00 Mbytes, locked:    0 /   0

     iteration # 10     ecut=    60.00 Ry     beta= 0.30
     Davidson diagonalization with overlap

---- Real-time Memory Report at c_bands before calling an iterative solver
           983 MiB given to the printing process from OS
             0 MiB allocation reported by mallinfo(arena+hblkhd)
        845011 MiB available memory on the node where the printing process lives
     GPU memory used/free/total (MiB): 1488 / 79662 / 81151
------------------
     c_bands:  1 eigenvalues not converged
     c_bands:  1 eigenvalues not converged
     c_bands:  1 eigenvalues not converged
     ethr =  2.25E-05,  avg # of iterations = 13.8

     total cpu time spent up to now is       31.7 secs

     total energy              =   -1489.33981767 Ry
     estimated scf accuracy    <       0.00789758 Ry

     total magnetization       =     2.34 Bohr mag/cell
     absolute magnetization    =     2.39 Bohr mag/cell
[tb_dev] Currently allocated     7.63E-05 Mbytes, locked:    0 /   2
[tb_pin] Currently allocated     0.00E+00 Mbytes, locked:    0 /   0

     iteration # 11     ecut=    60.00 Ry     beta= 0.30
     Davidson diagonalization with overlap

---- Real-time Memory Report at c_bands before calling an iterative solver
           984 MiB given to the printing process from OS
             0 MiB allocation reported by mallinfo(arena+hblkhd)
        844998 MiB available memory on the node where the printing process lives
     GPU memory used/free/total (MiB): 1488 / 79662 / 81151
------------------
     ethr =  8.23E-06,  avg # of iterations =  4.6

     total cpu time spent up to now is       34.5 secs

     total energy              =   -1489.34025318 Ry
     estimated scf accuracy    <       0.00470452 Ry

     total magnetization       =     2.32 Bohr mag/cell
     absolute magnetization    =     2.36 Bohr mag/cell
[tb_dev] Currently allocated     7.63E-05 Mbytes, locked:    0 /   2
[tb_pin] Currently allocated     0.00E+00 Mbytes, locked:    0 /   0

     iteration # 12     ecut=    60.00 Ry     beta= 0.30
     Davidson diagonalization with overlap

---- Real-time Memory Report at c_bands before calling an iterative solver
           984 MiB given to the printing process from OS
             0 MiB allocation reported by mallinfo(arena+hblkhd)
        844956 MiB available memory on the node where the printing process lives
     GPU memory used/free/total (MiB): 1488 / 79662 / 81151
------------------
     ethr =  4.90E-06,  avg # of iterations =  2.2

     total cpu time spent up to now is       37.0 secs

     total energy              =   -1489.34098959 Ry
     estimated scf accuracy    <       0.00050681 Ry

     total magnetization       =     2.33 Bohr mag/cell
     absolute magnetization    =     2.36 Bohr mag/cell
[tb_dev] Currently allocated     7.63E-05 Mbytes, locked:    0 /   2
[tb_pin] Currently allocated     0.00E+00 Mbytes, locked:    0 /   0

     iteration # 13     ecut=    60.00 Ry     beta= 0.30
     Davidson diagonalization with overlap

---- Real-time Memory Report at c_bands before calling an iterative solver
           984 MiB given to the printing process from OS
             0 MiB allocation reported by mallinfo(arena+hblkhd)
        844929 MiB available memory on the node where the printing process lives
     GPU memory used/free/total (MiB): 1488 / 79662 / 81151
------------------
     c_bands:  3 eigenvalues not converged
     ethr =  5.28E-07,  avg # of iterations = 10.4

     total cpu time spent up to now is       40.8 secs

     total energy              =   -1489.34135281 Ry
     estimated scf accuracy    <       0.00032773 Ry

     total magnetization       =     2.31 Bohr mag/cell
     absolute magnetization    =     2.35 Bohr mag/cell
[tb_dev] Currently allocated     7.63E-05 Mbytes, locked:    0 /   2
[tb_pin] Currently allocated     0.00E+00 Mbytes, locked:    0 /   0

     iteration # 14     ecut=    60.00 Ry     beta= 0.30
     Davidson diagonalization with overlap

---- Real-time Memory Report at c_bands before calling an iterative solver
           984 MiB given to the printing process from OS
             0 MiB allocation reported by mallinfo(arena+hblkhd)
        844961 MiB available memory on the node where the printing process lives
     GPU memory used/free/total (MiB): 1488 / 79662 / 81151
------------------
     ethr =  3.41E-07,  avg # of iterations =  1.5

     total cpu time spent up to now is       43.2 secs

     total energy              =   -1489.34134474 Ry
     estimated scf accuracy    <       0.00007728 Ry

     total magnetization       =     2.30 Bohr mag/cell
     absolute magnetization    =     2.33 Bohr mag/cell
[tb_dev] Currently allocated     7.63E-05 Mbytes, locked:    0 /   2
[tb_pin] Currently allocated     0.00E+00 Mbytes, locked:    0 /   0

     iteration # 15     ecut=    60.00 Ry     beta= 0.30
     Davidson diagonalization with overlap

---- Real-time Memory Report at c_bands before calling an iterative solver
           984 MiB given to the printing process from OS
             0 MiB allocation reported by mallinfo(arena+hblkhd)
        844948 MiB available memory on the node where the printing process lives
     GPU memory used/free/total (MiB): 1488 / 79662 / 81151
------------------
     ethr =  8.05E-08,  avg # of iterations =  3.8

     total cpu time spent up to now is       45.9 secs

     total energy              =   -1489.34136448 Ry
     estimated scf accuracy    <       0.00000769 Ry

     total magnetization       =     2.30 Bohr mag/cell
     absolute magnetization    =     2.34 Bohr mag/cell
[tb_dev] Currently allocated     7.63E-05 Mbytes, locked:    0 /   2
[tb_pin] Currently allocated     0.00E+00 Mbytes, locked:    0 /   0

     iteration # 16     ecut=    60.00 Ry     beta= 0.30
     Davidson diagonalization with overlap

---- Real-time Memory Report at c_bands before calling an iterative solver
           984 MiB given to the printing process from OS
             0 MiB allocation reported by mallinfo(arena+hblkhd)
        844970 MiB available memory on the node where the printing process lives
     GPU memory used/free/total (MiB): 1488 / 79662 / 81151
------------------
     ethr =  8.01E-09,  avg # of iterations =  8.4

     total cpu time spent up to now is       49.4 secs

     total energy              =   -1489.34137025 Ry
     estimated scf accuracy    <       0.00000745 Ry

     total magnetization       =     2.29 Bohr mag/cell
     absolute magnetization    =     2.33 Bohr mag/cell
[tb_dev] Currently allocated     7.63E-05 Mbytes, locked:    0 /   2
[tb_pin] Currently allocated     0.00E+00 Mbytes, locked:    0 /   0

     iteration # 17     ecut=    60.00 Ry     beta= 0.30
     Davidson diagonalization with overlap

---- Real-time Memory Report at c_bands before calling an iterative solver
           984 MiB given to the printing process from OS
             0 MiB allocation reported by mallinfo(arena+hblkhd)
        844934 MiB available memory on the node where the printing process lives
     GPU memory used/free/total (MiB): 1488 / 79662 / 81151
------------------
     ethr =  7.76E-09,  avg # of iterations =  1.1

     total cpu time spent up to now is       51.7 secs

     total energy              =   -1489.34136970 Ry
     estimated scf accuracy    <       0.00000513 Ry

     total magnetization       =     2.30 Bohr mag/cell
     absolute magnetization    =     2.34 Bohr mag/cell
[tb_dev] Currently allocated     7.63E-05 Mbytes, locked:    0 /   2
[tb_pin] Currently allocated     0.00E+00 Mbytes, locked:    0 /   0

     iteration # 18     ecut=    60.00 Ry     beta= 0.30
     Davidson diagonalization with overlap

---- Real-time Memory Report at c_bands before calling an iterative solver
           984 MiB given to the printing process from OS
             0 MiB allocation reported by mallinfo(arena+hblkhd)
        845426 MiB available memory on the node where the printing process lives
     GPU memory used/free/total (MiB): 1488 / 79662 / 81151
------------------
     ethr =  5.34E-09,  avg # of iterations =  1.3

     total cpu time spent up to now is       54.0 secs

     total energy              =   -1489.34137004 Ry
     estimated scf accuracy    <       0.00000025 Ry

     total magnetization       =     2.30 Bohr mag/cell
     absolute magnetization    =     2.34 Bohr mag/cell
[tb_dev] Currently allocated     7.63E-05 Mbytes, locked:    0 /   2
[tb_pin] Currently allocated     0.00E+00 Mbytes, locked:    0 /   0

     iteration # 19     ecut=    60.00 Ry     beta= 0.30
     Davidson diagonalization with overlap

---- Real-time Memory Report at c_bands before calling an iterative solver
           984 MiB given to the printing process from OS
             0 MiB allocation reported by mallinfo(arena+hblkhd)
        845135 MiB available memory on the node where the printing process lives
     GPU memory used/free/total (MiB): 1488 / 79662 / 81151
------------------
     ethr =  2.57E-10,  avg # of iterations = 10.7
 
     Magnetic moment per site  (integrated on atomic sphere of radius R)
     atom   1 (R=0.159)  charge= 14.1239  magn=  0.5453
     atom   2 (R=0.159)  charge= 14.0918  magn=  0.6065
     atom   3 (R=0.159)  charge= 14.0918  magn=  0.6065
     atom   4 (R=0.159)  charge=  5.2251  magn=  0.0634
     atom   5 (R=0.159)  charge=  5.2251  magn=  0.0634
     atom   6 (R=0.159)  charge=  5.2251  magn=  0.0634
     atom   7 (R=0.159)  charge=  5.2459  magn=  0.0598
     atom   8 (R=0.159)  charge=  5.2459  magn=  0.0598
     atom   9 (R=0.159)  charge=  5.2459  magn=  0.0598
     atom  10 (R=0.187)  charge=  7.9261  magn=  0.0006

     total cpu time spent up to now is       57.8 secs

     End of self-consistent calculation

 ------ SPIN UP ------------


          k = 0.0000 0.0000 0.0000 (  6307 PWs)   bands (ev):

   -89.5369 -89.5332 -89.4057 -52.7749 -52.7699 -52.7699 -52.7686 -52.7485
   -52.7485 -52.6662 -52.6662 -52.5956 -43.5943 -15.6121 -15.5138 -15.5138
   -13.0119 -11.3638 -11.3638 -11.2882 -11.2882 -11.0565   0.6034   0.8485
     0.8485   0.9807   0.9807   1.1886   1.1886   1.2164   1.3719   2.8712
     2.8712   2.9659   2.9659   3.2578   3.3986   4.6256   4.6517   4.6995
     4.6995   4.7101   4.8701   4.8701   5.7637   5.7637   5.7802   5.7802
     5.8802   7.7899   7.7899   7.8763   7.8763   8.6012   8.6012  11.7358
    15.8822  17.2071  18.4174  18.4174  18.5411  18.6788  18.6788  18.9003

     occupation numbers 
     1.0000   1.0000   1.0000   1.0000   1.0000   1.0000   1.0000   1.0000
     1.0000   1.0000   1.0000   1.0000   1.0000   1.0000   1.0000   1.0000
     1.0000   1.0000   1.0000   1.0000   1.0000   1.0000   1.0000   1.0000
     1.0000   1.0000   1.0000   1.0000   1.0000   1.0000   1.0000   1.0000
     1.0000   1.0000   1.0000   1.0000   1.0000   1.0000   1.0000   1.0000
     1.0000   1.0000   1.0000   1.0000   1.0212   1.0212   1.0250   1.0250
     1.0559   0.0000   0.0000   0.0000   0.0000   0.0000   0.0000   0.0000
     0.0000   0.0000   0.0000   0.0000   0.0000   0.0000   0.0000   0.0000

          k = 0.0000 0.0000 0.3032 (  6332 PWs)   bands (ev):

   -89.5369 -89.5332 -89.4057 -52.7748 -52.7698 -52.7698 -52.7689 -52.7485
   -52.7485 -52.6663 -52.6663 -52.5957 -43.5942 -15.6224 -15.5138 -15.5138
   -12.9669 -11.3645 -11.3645 -11.2874 -11.2874 -11.1070   0.8067   0.8348
     0.8348   0.9546   0.9546   1.1900   1.1900   1.2732   1.4002   2.8832
     2.8832   2.9954   2.9954   3.1732   3.3536   4.1822   4.6547   4.6996
     4.6996   4.7181   4.8634   4.8634   5.7491   5.7491   5.7663   5.7663
     5.9835   7.8360   7.8360   7.9370   7.9370   8.6077   8.6077  12.6269
    14.8836  17.1768  18.3018  18.4308  18.4309  18.6278  18.7210  18.7210

     occupation numbers 
     1.0000   1.0000   1.0000   1.0000   1.0000   1.0000   1.0000   1.0000
     1.0000   1.0000   1.0000   1.0000   1.0000   1.0000   1.0000   1.0000
     1.0000   1.0000   1.0000   1.0000   1.0000   1.0000   1.0000   1.0000
     1.0000   1.0000   1.0000   1.0000   1.0000   1.0000   1.0000   1.0000
     1.0000   1.0000   1.0000   1.0000   1.0000   1.0000   1.0000   1.0000
     1.0000   1.0000   1.0000   1.0000   1.0182   1.0182   1.0218   1.0218
     1.0828   0.0000   0.0000   0.0000   0.0000   0.0000   0.0000   0.0000
     0.0000   0.0000   0.0000   0.0000   0.0000   0.0000   0.0000   0.0000

          k = 0.0000 0.1925 0.0000 (  6330 PWs)   bands (ev):

   -89.5367 -89.5334 -89.4057 -52.7746 -52.7717 -52.7697 -52.7691 -52.7475
   -52.7466 -52.6674 -52.6663 -52.5957 -43.5943 -15.6116 -15.5149 -15.5141
   -12.9079 -11.4820 -11.4033 -11.3012 -11.2489 -11.0630   0.4617   0.6868
     0.7915   0.9017   1.0498   1.1030   1.2534   1.6676   1.8783   2.6110
     2.6747   2.7562   2.8827   3.5910   3.6838   4.0220   4.1464   4.7519
     4.7973   4.8413   5.0949   5.3092   5.5060   5.5215   5.8694   5.9307
     5.9422   7.7952   7.8757   7.8939   7.9596   8.3452   8.5286  12.0954
    16.2684  17.0089  17.4075  17.7528  18.0378  19.2072  19.3780  19.4570

     occupation numbers 
     1.0000   1.0000   1.0000   1.0000   1.0000   1.0000   1.0000   1.0000
     1.0000   1.0000   1.0000   1.0000   1.0000   1.0000   1.0000   1.0000
     1.0000   1.0000   1.0000   1.0000   1.0000   1.0000   1.0000   1.0000
     1.0000   1.0000   1.0000   1.0000   1.0000   1.0000   1.0000   1.0000
     1.0000   1.0000   1.0000   1.0000   1.0000   1.0000   1.0000   1.0000
     1.0000   1.0000   1.0000   1.0000   1.0005   1.0007   1.0521   1.0724
     1.0755   0.0000   0.0000   0.0000   0.0000   0.0000   0.0000   0.0000
     0.0000   0.0000   0.0000   0.0000   0.0000   0.0000   0.0000   0.0000

          k = 0.0000 0.1925 0.3032 (  6320 PWs)   bands (ev):

   -89.5367 -89.5334 -89.4057 -52.7745 -52.7716 -52.7698 -52.7692 -52.7475
   -52.7466 -52.6674 -52.6662 -52.5957 -43.5942 -15.6208 -15.5145 -15.5139
   -12.8670 -11.4816 -11.4050 -11.2992 -11.2489 -11.1086   0.4629   0.7138
     0.8666   0.9389   1.0238   1.0905   1.2554   1.6936   1.8985   2.5872
     2.6501   2.7959   2.9125   3.6027   3.6733   4.0213   4.1165   4.4549
     4.7530   4.8438   5.0931   5.2926   5.5083   5.5252   5.8432   5.9111
     6.0458   7.8399   7.9006   7.9392   8.0032   8.3279   8.5366  12.9068
    15.2238  16.8614  17.4428  17.7077  17.8683  19.2694  19.4196  19.5916

     occupation numbers 
     1.0000   1.0000   1.0000   1.0000   1.0000   1.0000   1.0000   1.0000
     1.0000   1.0000   1.0000   1.0000   1.0000   1.0000   1.0000   1.0000
     1.0000   1.0000   1.0000   1.0000   1.0000   1.0000   1.0000   1.0000
     1.0000   1.0000   1.0000   1.0000   1.0000   1.0000   1.0000   1.0000
     1.0000   1.0000   1.0000   1.0000   1.0000   1.0000   1.0000   1.0000
     1.0000   1.0000   1.0000   1.0000   1.0006   1.0008   1.0433   1.0663
     1.0740   0.0000   0.0000   0.0000   0.0000   0.0000   0.0000   0.0000
     0.0000   0.0000   0.0000   0.0000   0.0000   0.0000   0.0000   0.0000

          k = 0.0000 0.3849 0.0000 (  6318 PWs)   bands (ev):

   -89.5361 -89.5340 -89.4057 -52.7750 -52.7735 -52.7700 -52.7667 -52.7487
   -52.7435 -52.6691 -52.6663 -52.5957 -43.5943 -15.6103 -15.5168 -15.5146
   -12.6190 -11.7945 -11.4452 -11.3484 -11.1839 -11.0838   0.0570   0.8552
     0.9154   0.9648   1.0995   1.3129   1.4128   1.8907   2.1761   2.3784
     2.5060   2.6209   3.0018   3.0421   3.5029   3.8432   4.2439   4.8571
     4.9904   5.1655   5.2469   5.2502   5.2801   5.6955   5.7207   5.9169
     6.0081   7.8333   7.8585   7.9226   7.9333   8.2825   8.3072  12.9963
    15.5128  17.0049  17.2040  17.5709  17.9952  18.9408  19.1472  19.3958

     occupation numbers 
     1.0000   1.0000   1.0000   1.0000   1.0000   1.0000   1.0000   1.0000
     1.0000   1.0000   1.0000   1.0000   1.0000   1.0000   1.0000   1.0000
     1.0000   1.0000   1.0000   1.0000   1.0000   1.0000   1.0000   1.0000
     1.0000   1.0000   1.0000   1.0000   1.0000   1.0000   1.0000   1.0000
     1.0000   1.0000   1.0000   1.0000   1.0000   1.0000   1.0000   1.0000
     1.0000   1.0000   1.0000   1.0000   1.0000   1.0097   1.0132   1.0682
     1.0828   0.0000   0.0000   0.0000   0.0000   0.0000   0.0000   0.0000
     0.0000   0.0000   0.0000   0.0000   0.0000   0.0000   0.0000   0.0000

          k = 0.0000 0.3849 0.3032 (  6304 PWs)   bands (ev):

   -89.5361 -89.5340 -89.4057 -52.7748 -52.7734 -52.7700 -52.7669 -52.7486
   -52.7435 -52.6690 -52.6663 -52.5958 -43.5942 -15.6176 -15.5160 -15.5143
   -12.5883 -11.7877 -11.4489 -11.3437 -11.1895 -11.1180   0.0524   0.7876
     0.8854   0.9177   1.2520   1.2770   1.4151   1.9039   2.1416   2.4768
     2.5478   2.6121   3.0177   3.0655   3.4983   3.9229   4.2493   4.7897
     4.8540   5.1650   5.2553   5.2571   5.2904   5.6509   5.6991   5.9602
     6.0200   7.7865   7.8568   7.8916   7.9685   8.2902   8.3326  13.5756
    15.4968  16.1084  16.8321  17.3168  18.4800  18.5927  18.9875  19.7819

     occupation numbers 
     1.0000   1.0000   1.0000   1.0000   1.0000   1.0000   1.0000   1.0000
     1.0000   1.0000   1.0000   1.0000   1.0000   1.0000   1.0000   1.0000
     1.0000   1.0000   1.0000   1.0000   1.0000   1.0000   1.0000   1.0000
     1.0000   1.0000   1.0000   1.0000   1.0000   1.0000   1.0000   1.0000
     1.0000   1.0000   1.0000   1.0000   1.0000   1.0000   1.0000   1.0000
     1.0000   1.0000   1.0000   1.0000   1.0000   1.0054   1.0102   1.0796
     1.0813   0.0000   0.0000   0.0000   0.0000   0.0000   0.0000   0.0000
     0.0000   0.0000   0.0000   0.0000   0.0000   0.0000   0.0000   0.0000

          k = 0.0000-0.5774 0.0000 (  6336 PWs)   bands (ev):

   -89.5357 -89.5344 -89.4057 -52.7762 -52.7729 -52.7706 -52.7633 -52.7518
   -52.7423 -52.6696 -52.6664 -52.5958 -43.5943 -15.6097 -15.5179 -15.5149
   -12.2303 -12.1946 -11.4618 -11.3722 -11.1382 -11.1122  -0.0923   0.8315
     0.9141   1.2985   1.3126   1.6135   1.6213   1.6523   1.8194   2.2278
     2.3977   2.5557   2.9364   2.9508   3.3904   3.9246   4.7491   4.8191
     4.8616   5.1268   5.1827   5.1993   5.5723   5.6703   5.7006   5.9238
     5.9377   7.7385   7.8257   7.8878   8.0063   8.0767   8.4867  14.1665
    14.1757  16.7029  17.3702  18.1434  18.4202  18.5256  18.7700  18.7970

     occupation numbers 
     1.0000   1.0000   1.0000   1.0000   1.0000   1.0000   1.0000   1.0000
     1.0000   1.0000   1.0000   1.0000   1.0000   1.0000   1.0000   1.0000
     1.0000   1.0000   1.0000   1.0000   1.0000   1.0000   1.0000   1.0000
     1.0000   1.0000   1.0000   1.0000   1.0000   1.0000   1.0000   1.0000
     1.0000   1.0000   1.0000   1.0000   1.0000   1.0000   1.0000   1.0000
     1.0000   1.0000   1.0000   1.0000   1.0017   1.0070   1.0104   1.0703
     1.0743   0.0000   0.0000   0.0000   0.0000   0.0000   0.0000   0.0000
     0.0000   0.0000   0.0000   0.0000   0.0000   0.0000   0.0000   0.0000

          k = 0.0000-0.5774 0.3032 (  6310 PWs)   bands (ev):

   -89.5356 -89.5344 -89.4057 -52.7761 -52.7728 -52.7707 -52.7632 -52.7518
   -52.7422 -52.6696 -52.6663 -52.5958 -43.5942 -15.6161 -15.5168 -15.5146
   -12.1959 -12.1932 -11.4659 -11.3669 -11.1480 -11.1394  -0.0983   0.7309
     0.8450   1.3048   1.3125   1.5455   1.6501   1.7318   1.8190   2.3400
     2.4867   2.5927   2.9263   2.9489   3.3954   4.0351   4.7226   4.7683
     4.8553   5.1267   5.1848   5.2077   5.5585   5.7134   5.7419   5.8616
     5.8889   7.6303   7.7251   7.8989   8.0567   8.1287   8.4786  14.4165
    14.4561  16.4990  17.0702  17.2821  17.3566  18.6504  19.4723  19.7391

     occupation numbers 
     1.0000   1.0000   1.0000   1.0000   1.0000   1.0000   1.0000   1.0000
     1.0000   1.0000   1.0000   1.0000   1.0000   1.0000   1.0000   1.0000
     1.0000   1.0000   1.0000   1.0000   1.0000   1.0000   1.0000   1.0000
     1.0000   1.0000   1.0000   1.0000   1.0000   1.0000   1.0000   1.0000
     1.0000   1.0000   1.0000   1.0000   1.0000   1.0000   1.0000   1.0000
     1.0000   1.0000   1.0000   1.0000   1.0013   1.0121   1.0168   1.0495
     1.0589   0.0000   0.0000   0.0000   0.0000   0.0000   0.0000   0.0000
     0.0000   0.0000   0.0000   0.0000   0.0000   0.0000   0.0000   0.0000

          k = 0.1667 0.2887 0.0000 (  6317 PWs)   bands (ev):

   -89.5363 -89.5338 -89.4057 -52.7740 -52.7729 -52.7699 -52.7687 -52.7482
   -52.7441 -52.6686 -52.6664 -52.5957 -43.5943 -15.6106 -15.5162 -15.5146
   -12.7115 -11.5956 -11.5909 -11.2418 -11.2411 -11.0770   0.3956   0.3992
     0.9320   1.0157   1.0945   1.1667   1.3792   2.0121   2.0744   2.5002
     2.5616   2.6897   2.7696   3.1822   3.8229   3.9298   3.9403   4.8546
     4.9596   5.0180   5.2755   5.3197   5.3233   5.5353   5.8879   5.8906
     5.9457   7.7990   7.8681   7.9284   8.0595   8.1149   8.4552  12.7128
    16.2693  16.3314  16.9450  17.7759  18.6881  18.9291  19.2558  19.3188

     occupation numbers 
     1.0000   1.0000   1.0000   1.0000   1.0000   1.0000   1.0000   1.0000
     1.0000   1.0000   1.0000   1.0000   1.0000   1.0000   1.0000   1.0000
     1.0000   1.0000   1.0000   1.0000   1.0000   1.0000   1.0000   1.0000
     1.0000   1.0000   1.0000   1.0000   1.0000   1.0000   1.0000   1.0000
     1.0000   1.0000   1.0000   1.0000   1.0000   1.0000   1.0000   1.0000
     1.0000   1.0000   1.0000   1.0000   1.0000   1.0009   1.0585   1.0595
     1.0764   0.0000   0.0000   0.0000   0.0000   0.0000   0.0000   0.0000
     0.0000   0.0000   0.0000   0.0000   0.0000   0.0000   0.0000   0.0000

          k = 0.1667 0.2887 0.3032 (  6308 PWs)   bands (ev):

   -89.5363 -89.5338 -89.4057 -52.7739 -52.7729 -52.7700 -52.7686 -52.7482
   -52.7441 -52.6685 -52.6663 -52.5957 -43.5942 -15.6185 -15.5155 -15.5145
   -12.6773 -11.5934 -11.5835 -11.2496 -11.2414 -11.1148   0.3849   0.3988
     0.8648   1.0550   1.1272   1.1836   1.3803   1.9935   2.0601   2.5699
     2.6117   2.6828   2.7865   3.2007   3.8208   3.9768   3.9797   4.6558
     4.9582   5.0173   5.1872   5.3242   5.3286   5.5363   5.8644   5.8705
     6.0674   7.7843   7.8505   7.8624   8.0859   8.1407   8.4536  13.4322
    15.7686  16.2865  16.4034  18.0844  18.2449  18.5216  19.2754  19.3542

     occupation numbers 
     1.0000   1.0000   1.0000   1.0000   1.0000   1.0000   1.0000   1.0000
     1.0000   1.0000   1.0000   1.0000   1.0000   1.0000   1.0000   1.0000
     1.0000   1.0000   1.0000   1.0000   1.0000   1.0000   1.0000   1.0000
     1.0000   1.0000   1.0000   1.0000   1.0000   1.0000   1.0000   1.0000
     1.0000   1.0000   1.0000   1.0000   1.0000   1.0000   1.0000   1.0000
     1.0000   1.0000   1.0000   1.0000   1.0000   1.0009   1.0504   1.0525
     1.0629   0.0000   0.0000   0.0000   0.0000   0.0000   0.0000   0.0000
     0.0000   0.0000   0.0000   0.0000   0.0000   0.0000   0.0000   0.0000

          k = 0.1667 0.4811 0.0000 (  6294 PWs)   bands (ev):

   -89.5356 -89.5344 -89.4057 -52.7741 -52.7727 -52.7707 -52.7646 -52.7527
   -52.7420 -52.6690 -52.6666 -52.5957 -43.5942 -15.6096 -15.5173 -15.5151
   -12.3647 -11.9533 -11.6656 -11.2514 -11.1674 -11.1078   0.1344   0.6437
     0.8245   1.2306   1.3445   1.4185   1.5604   1.8324   1.8915   2.1894
     2.3651   2.5040   2.9707   3.2268   3.3844   4.0316   4.4307   4.8140
     5.0194   5.2052   5.2360   5.2845   5.4284   5.6620   5.6799   5.8558
     5.8760   7.6334   7.7214   7.8303   8.1964   8.3301   8.4053  13.7080
    14.9192  15.8541  17.7745  18.3051  18.4061  18.6131  18.8536  19.0373

     occupation numbers 
     1.0000   1.0000   1.0000   1.0000   1.0000   1.0000   1.0000   1.0000
     1.0000   1.0000   1.0000   1.0000   1.0000   1.0000   1.0000   1.0000
     1.0000   1.0000   1.0000   1.0000   1.0000   1.0000   1.0000   1.0000
     1.0000   1.0000   1.0000   1.0000   1.0000   1.0000   1.0000   1.0000
     1.0000   1.0000   1.0000   1.0000   1.0000   1.0000   1.0000   1.0000
     1.0000   1.0000   1.0000   1.0000   1.0001   1.0063   1.0080   1.0475
     1.0544   0.0000   0.0000   0.0000   0.0000   0.0000   0.0000   0.0000
     0.0000   0.0000   0.0000   0.0000   0.0000   0.0000   0.0000   0.0000

          k = 0.1667 0.4811 0.3032 (  6307 PWs)   bands (ev):

   -89.5356 -89.5344 -89.4057 -52.7742 -52.7728 -52.7708 -52.7646 -52.7526
   -52.7420 -52.6690 -52.6666 -52.5958 -43.5942 -15.6162 -15.5165 -15.5151
   -12.3406 -11.9409 -11.6580 -11.2579 -11.1782 -11.1348   0.1243   0.5939
     0.7395   1.1896   1.3566   1.4236   1.5790   1.8358   1.8773   2.3020
     2.4382   2.5688   2.9757   3.2330   3.3855   4.1246   4.4648   4.7752
     5.0126   5.2027   5.2361   5.2404   5.4397   5.6581   5.6620   5.8645
     5.9378   7.4984   7.6225   7.7767   8.2118   8.3343   8.4016  14.2098
    15.1492  16.0348  16.7289  17.5508  17.7843  18.8495  19.1096  19.5825

     occupation numbers 
     1.0000   1.0000   1.0000   1.0000   1.0000   1.0000   1.0000   1.0000
     1.0000   1.0000   1.0000   1.0000   1.0000   1.0000   1.0000   1.0000
     1.0000   1.0000   1.0000   1.0000   1.0000   1.0000   1.0000   1.0000
     1.0000   1.0000   1.0000   1.0000   1.0000   1.0000   1.0000   1.0000
     1.0000   1.0000   1.0000   1.0000   1.0000   1.0000   1.0000   1.0000
     1.0000   1.0000   1.0000   1.0000   1.0002   1.0060   1.0063   1.0504
     1.0744   0.0000   0.0000   0.0000   0.0000   0.0000   0.0000   0.0000
     0.0000   0.0000   0.0000   0.0000   0.0000   0.0000   0.0000   0.0000

          k = 0.3333 0.5774 0.0000 (  6294 PWs)   bands (ev):

   -89.5350 -89.5350 -89.4057 -52.7726 -52.7718 -52.7718 -52.7597 -52.7597
   -52.7413 -52.6677 -52.6677 -52.5958 -43.5942 -15.6094 -15.5164 -15.5164
   -12.0392 -12.0013 -12.0013 -11.1710 -11.1710 -11.1453   0.5269   0.5388
     0.5388   1.3642   1.4188   1.4188   1.7164   1.7164   1.7548   2.0425
     2.2442   2.2442   3.3149   3.3149   3.3594   4.4072   4.4072   4.4956
     5.2116   5.2116   5.2302   5.4687   5.4701   5.4701   5.7104   5.7104
     5.7335   7.6113   7.6753   7.6753   8.4021   8.4154   8.4154  14.6619
    14.6619  14.7150  18.0832  18.4287  18.4288  18.6784  18.8805  18.8805

     occupation numbers 
     1.0000   1.0000   1.0000   1.0000   1.0000   1.0000   1.0000   1.0000
     1.0000   1.0000   1.0000   1.0000   1.0000   1.0000   1.0000   1.0000
     1.0000   1.0000   1.0000   1.0000   1.0000   1.0000   1.0000   1.0000
     1.0000   1.0000   1.0000   1.0000   1.0000   1.0000   1.0000   1.0000
     1.0000   1.0000   1.0000   1.0000   1.0000   1.0000   1.0000   1.0000
     1.0000   1.0000   1.0000   1.0003   1.0003   1.0003   1.0117   1.0117
     1.0153   0.0000   0.0000   0.0000   0.0000   0.0000   0.0000   0.0000
     0.0000   0.0000   0.0000   0.0000   0.0000   0.0000   0.0000   0.0000

          k = 0.3333 0.5774 0.3032 (  6312 PWs)   bands (ev):

   -89.5350 -89.5350 -89.4057 -52.7728 -52.7719 -52.7719 -52.7598 -52.7598
   -52.7413 -52.6677 -52.6677 -52.5958 -43.5942 -15.6155 -15.5162 -15.5162
   -12.0006 -11.9979 -11.9979 -11.1801 -11.1760 -11.1760   0.4701   0.4970
     0.4970   1.3010   1.3816   1.3816   1.7163   1.7163   1.7508   2.2081
     2.3527   2.3527   3.3151   3.3151   3.3664   4.4497   4.4497   4.5474
     5.1914   5.1914   5.2055   5.4719   5.4720   5.4720   5.7473   5.7473
     5.7730   7.4703   7.5520   7.5520   8.3905   8.4078   8.4078  14.9932
    14.9932  15.1001  17.2446  17.4864  17.4864  19.2273  19.3123  19.3123

     occupation numbers 
     1.0000   1.0000   1.0000   1.0000   1.0000   1.0000   1.0000   1.0000
     1.0000   1.0000   1.0000   1.0000   1.0000   1.0000   1.0000   1.0000
     1.0000   1.0000   1.0000   1.0000   1.0000   1.0000   1.0000   1.0000
     1.0000   1.0000   1.0000   1.0000   1.0000   1.0000   1.0000   1.0000
     1.0000   1.0000   1.0000   1.0000   1.0000   1.0000   1.0000   1.0000
     1.0000   1.0000   1.0000   1.0003   1.0003   1.0003   1.0178   1.0178
     1.0233   0.0000   0.0000   0.0000   0.0000   0.0000   0.0000   0.0000
     0.0000   0.0000   0.0000   0.0000   0.0000   0.0000   0.0000   0.0000

          k =-0.1667-0.2887 0.3032 (  6308 PWs)   bands (ev):

   -89.5363 -89.5338 -89.4057 -52.7740 -52.7729 -52.7700 -52.7686 -52.7482
   -52.7441 -52.6685 -52.6663 -52.5957 -43.5942 -15.6184 -15.5154 -15.5143
   -12.6782 -11.5933 -11.5925 -11.2416 -11.2403 -11.1142   0.3792   0.3837
     0.9001   1.0653   1.1333   1.1565   1.3816   2.0178   2.0754   2.5281
     2.5819   2.7127   2.8111   3.1954   3.8190   3.9480   3.9481   4.6584
     4.9637   5.0248   5.1915   5.3294   5.3300   5.5333   5.8490   5.8501
     6.0387   7.8491   7.9108   7.9184   8.0784   8.1093   8.4615  13.3057
    15.8319  16.0370  16.1387  18.2170  18.6516  18.7713  19.0695  19.1859

     occupation numbers 
     1.0000   1.0000   1.0000   1.0000   1.0000   1.0000   1.0000   1.0000
     1.0000   1.0000   1.0000   1.0000   1.0000   1.0000   1.0000   1.0000
     1.0000   1.0000   1.0000   1.0000   1.0000   1.0000   1.0000   1.0000
     1.0000   1.0000   1.0000   1.0000   1.0000   1.0000   1.0000   1.0000
     1.0000   1.0000   1.0000   1.0000   1.0000   1.0000   1.0000   1.0000
     1.0000   1.0000   1.0000   1.0000   1.0000   1.0009   1.0452   1.0456
     1.0766   0.0000   0.0000   0.0000   0.0000   0.0000   0.0000   0.0000
     0.0000   0.0000   0.0000   0.0000   0.0000   0.0000   0.0000   0.0000

          k =-0.1667-0.4811 0.3032 (  6307 PWs)   bands (ev):

   -89.5356 -89.5344 -89.4057 -52.7742 -52.7727 -52.7708 -52.7646 -52.7527
   -52.7420 -52.6690 -52.6666 -52.5958 -43.5942 -15.6161 -15.5162 -15.5148
   -12.3428 -11.9446 -11.6653 -11.2505 -11.1745 -11.1327   0.1162   0.5877
     0.7638   1.1970   1.3659   1.3970   1.5741   1.8293   1.8823   2.3325
     2.4638   2.5874   2.9644   3.2296   3.3811   4.0647   4.4164   4.7398
     5.0291   5.2102   5.2381   5.2533   5.4457   5.6331   5.6708   5.8197
     5.8668   7.6221   7.7395   7.8607   8.1967   8.3367   8.4013  13.9765
    14.8760  15.5569  16.8702  17.9486  18.1562  18.7920  19.2402  19.7937

     occupation numbers 
     1.0000   1.0000   1.0000   1.0000   1.0000   1.0000   1.0000   1.0000
     1.0000   1.0000   1.0000   1.0000   1.0000   1.0000   1.0000   1.0000
     1.0000   1.0000   1.0000   1.0000   1.0000   1.0000   1.0000   1.0000
     1.0000   1.0000   1.0000   1.0000   1.0000   1.0000   1.0000   1.0000
     1.0000   1.0000   1.0000   1.0000   1.0000   1.0000   1.0000   1.0000
     1.0000   1.0000   1.0000   1.0000   1.0002   1.0042   1.0071   1.0359
     1.0513   0.0000   0.0000   0.0000   0.0000   0.0000   0.0000   0.0000
     0.0000   0.0000   0.0000   0.0000   0.0000   0.0000   0.0000   0.0000

          k =-0.3333-0.5774 0.3032 (  6312 PWs)   bands (ev):

   -89.5350 -89.5350 -89.4057 -52.7728 -52.7718 -52.7718 -52.7598 -52.7598
   -52.7413 -52.6677 -52.6677 -52.5958 -43.5942 -15.6153 -15.5157 -15.5157
   -12.0038 -12.0038 -12.0038 -11.1769 -11.1700 -11.1700   0.4553   0.5046
     0.5046   1.3170   1.3666   1.3666   1.7182   1.7182   1.7549   2.2414
     2.3796   2.3796   3.3138   3.3138   3.3590   4.3920   4.3920   4.4668
     5.2078   5.2078   5.2255   5.4707   5.4707   5.4707   5.6835   5.6835
     5.7022   7.6309   7.6967   7.6967   8.3978   8.4140   8.4140  14.6005
    14.6005  14.6615  17.5849  17.7468  17.7468  19.4205  19.6785  19.6787

     occupation numbers 
     1.0000   1.0000   1.0000   1.0000   1.0000   1.0000   1.0000   1.0000
     1.0000   1.0000   1.0000   1.0000   1.0000   1.0000   1.0000   1.0000
     1.0000   1.0000   1.0000   1.0000   1.0000   1.0000   1.0000   1.0000
     1.0000   1.0000   1.0000   1.0000   1.0000   1.0000   1.0000   1.0000
     1.0000   1.0000   1.0000   1.0000   1.0000   1.0000   1.0000   1.0000
     1.0000   1.0000   1.0000   1.0003   1.0003   1.0003   1.0084   1.0084
     1.0106   0.0000   0.0000   0.0000   0.0000   0.0000   0.0000   0.0000
     0.0000   0.0000   0.0000   0.0000   0.0000   0.0000   0.0000   0.0000

 ------ SPIN DOWN ----------


          k = 0.0000 0.0000 0.0000 (  6307 PWs)   bands (ev):

   -88.7933 -88.7892 -88.7414 -52.1095 -52.1095 -52.0933 -52.0933 -52.0485
   -52.0485 -51.9236 -51.9165 -51.8780 -43.5937 -15.6114 -15.5121 -15.5121
   -12.9119 -11.2568 -11.2568 -11.1747 -11.1747 -10.9483   0.8881   0.9973
     0.9973   1.1348   1.1348   1.3271   1.4133   1.4133   1.4652   3.1327
     3.1327   3.2345   3.2345   3.3313   3.4760   4.8031   4.9450   4.9450
     5.2961   5.2961   5.6150   5.7111   6.3518   6.3518   6.3717   6.3717
     6.7302   8.1139   8.1139   8.1811   8.1811   8.9083   8.9083  11.7971
    15.9809  17.3412  18.4524  18.4524  18.5931  18.7160  18.7160  18.9787

     occupation numbers 
     1.0000   1.0000   1.0000   1.0000   1.0000   1.0000   1.0000   1.0000
     1.0000   1.0000   1.0000   1.0000   1.0000   1.0000   1.0000   1.0000
     1.0000   1.0000   1.0000   1.0000   1.0000   1.0000   1.0000   1.0000
     1.0000   1.0000   1.0000   1.0000   1.0000   1.0000   1.0000   1.0000
     1.0000   1.0000   1.0000   1.0000   1.0000   1.0000   1.0000   1.0000
     1.0000   1.0000   1.0032   1.0118   0.4771   0.4771   0.4246   0.4246
     0.0101   0.0000   0.0000   0.0000   0.0000   0.0000   0.0000   0.0000
     0.0000   0.0000   0.0000   0.0000   0.0000   0.0000   0.0000   0.0000

          k = 0.0000 0.0000 0.3032 (  6332 PWs)   bands (ev):

   -88.7933 -88.7893 -88.7414 -52.1095 -52.1095 -52.0933 -52.0933 -52.0486
   -52.0486 -51.9235 -51.9167 -51.8782 -43.5937 -15.6212 -15.5121 -15.5121
   -12.8677 -11.2574 -11.2574 -11.1740 -11.1740 -10.9985   0.9832   0.9832
     1.1017   1.1078   1.1078   1.3931   1.4149   1.4149   1.4937   3.1469
     3.1469   3.2463   3.2632   3.2632   3.4304   4.3475   4.9384   4.9384
     5.2962   5.2962   5.6270   5.7161   6.3397   6.3397   6.3584   6.3584
     6.8174   8.1601   8.1601   8.2417   8.2417   8.9148   8.9148  12.7017
    15.0000  17.2660  18.3333  18.4601  18.4601  18.6767  18.7526  18.7526

     occupation numbers 
     1.0000   1.0000   1.0000   1.0000   1.0000   1.0000   1.0000   1.0000
     1.0000   1.0000   1.0000   1.0000   1.0000   1.0000   1.0000   1.0000
     1.0000   1.0000   1.0000   1.0000   1.0000   1.0000   1.0000   1.0000
     1.0000   1.0000   1.0000   1.0000   1.0000   1.0000   1.0000   1.0000
     1.0000   1.0000   1.0000   1.0000   1.0000   1.0000   1.0000   1.0000
     1.0000   1.0000   1.0039   1.0125   0.5097   0.5097   0.4595   0.4595
     0.0025   0.0000   0.0000   0.0000   0.0000   0.0000   0.0000   0.0000
     0.0000   0.0000   0.0000   0.0000   0.0000   0.0000   0.0000   0.0000

          k = 0.0000 0.1925 0.0000 (  6330 PWs)   bands (ev):

   -88.7930 -88.7895 -88.7415 -52.1129 -52.1106 -52.0893 -52.0891 -52.0516
   -52.0491 -51.9231 -51.9170 -51.8782 -43.5937 -15.6110 -15.5132 -15.5124
   -12.8075 -11.3747 -11.2967 -11.1879 -11.1365 -10.9542   0.6049   0.8417
     1.0502   1.0765   1.1979   1.3196   1.4734   1.7849   2.0013   2.7913
     2.8663   3.0329   3.1563   3.7505   3.8456   4.2417   4.4276   4.9671
     5.5893   5.6966   5.7096   5.7964   6.1245   6.1382   6.4295   6.4954
     6.7510   8.1182   8.2013   8.2164   8.2610   8.6558   8.8309  12.1544
    16.3659  17.0533  17.5366  17.7928  18.0811  19.2571  19.4652  19.5643

     occupation numbers 
     1.0000   1.0000   1.0000   1.0000   1.0000   1.0000   1.0000   1.0000
     1.0000   1.0000   1.0000   1.0000   1.0000   1.0000   1.0000   1.0000
     1.0000   1.0000   1.0000   1.0000   1.0000   1.0000   1.0000   1.0000
     1.0000   1.0000   1.0000   1.0000   1.0000   1.0000   1.0000   1.0000
     1.0000   1.0000   1.0000   1.0000   1.0000   1.0000   1.0000   1.0000
     1.0022   1.0099   1.0116   1.0292   1.0081   0.9891   0.2878   0.1675
     0.0073   0.0000   0.0000   0.0000   0.0000   0.0000   0.0000   0.0000
     0.0000   0.0000   0.0000   0.0000   0.0000   0.0000   0.0000   0.0000

          k = 0.0000 0.1925 0.3032 (  6320 PWs)   bands (ev):

   -88.7930 -88.7895 -88.7415 -52.1129 -52.1107 -52.0893 -52.0892 -52.0515
   -52.0490 -51.9230 -51.9171 -51.8782 -43.5936 -15.6196 -15.5129 -15.5122
   -12.7673 -11.3741 -11.2982 -11.1861 -11.1366 -10.9998   0.6059   0.8494
     1.0281   1.1676   1.2311   1.3262   1.4755   1.8099   2.0196   2.7585
     2.8367   3.0759   3.1875   3.7736   3.8380   4.2423   4.3779   4.6400
     5.5898   5.6911   5.7031   5.7983   6.1271   6.1413   6.4059   6.4669
     6.8456   8.1659   8.2272   8.2550   8.3058   8.6353   8.8391  12.9798
    15.3391  16.8965  17.5032  17.7657  17.9169  19.3176  19.4805  19.6538

     occupation numbers 
     1.0000   1.0000   1.0000   1.0000   1.0000   1.0000   1.0000   1.0000
     1.0000   1.0000   1.0000   1.0000   1.0000   1.0000   1.0000   1.0000
     1.0000   1.0000   1.0000   1.0000   1.0000   1.0000   1.0000   1.0000
     1.0000   1.0000   1.0000   1.0000   1.0000   1.0000   1.0000   1.0000
     1.0000   1.0000   1.0000   1.0000   1.0000   1.0000   1.0000   1.0000
     1.0022   1.0092   1.0107   1.0297   1.0047   0.9844   0.3405   0.2145
     0.0015   0.0000   0.0000   0.0000   0.0000   0.0000   0.0000   0.0000
     0.0000   0.0000   0.0000   0.0000   0.0000   0.0000   0.0000   0.0000

          k = 0.0000 0.3849 0.0000 (  6318 PWs)   bands (ev):

   -88.7923 -88.7901 -88.7415 -52.1177 -52.1078 -52.0875 -52.0834 -52.0558
   -52.0503 -51.9218 -51.9180 -51.8784 -43.5937 -15.6097 -15.5150 -15.5129
   -12.5175 -11.6890 -11.3396 -11.2349 -11.0718 -10.9739   0.2021   1.0149
     1.0822   1.1617   1.3895   1.4472   1.6197   2.0392   2.3413   2.6624
     2.7589   2.8057   3.1627   3.2336   3.7465   4.0111   4.4327   5.1610
     5.7225   5.7750   5.9086   5.9212   6.1128   6.1303   6.2891   6.5185
     6.7184   8.1597   8.1939   8.2482   8.2744   8.5660   8.5998  13.0509
    15.5571  17.0527  17.2836  17.6244  18.1267  19.0873  19.2211  19.5688

     occupation numbers 
     1.0000   1.0000   1.0000   1.0000   1.0000   1.0000   1.0000   1.0000
     1.0000   1.0000   1.0000   1.0000   1.0000   1.0000   1.0000   1.0000
     1.0000   1.0000   1.0000   1.0000   1.0000   1.0000   1.0000   1.0000
     1.0000   1.0000   1.0000   1.0000   1.0000   1.0000   1.0000   1.0000
     1.0000   1.0000   1.0000   1.0000   1.0000   1.0000   1.0000   1.0000
     1.0135   1.0238   1.0655   1.0696   1.0226   1.0003   0.6491   0.1352
     0.0120   0.0000   0.0000   0.0000   0.0000   0.0000   0.0000   0.0000
     0.0000   0.0000   0.0000   0.0000   0.0000   0.0000   0.0000   0.0000

          k = 0.0000 0.3849 0.3032 (  6304 PWs)   bands (ev):

   -88.7923 -88.7901 -88.7415 -52.1175 -52.1080 -52.0875 -52.0834 -52.0558
   -52.0503 -51.9218 -51.9180 -51.8784 -43.5936 -15.6167 -15.5142 -15.5126
   -12.4872 -11.6821 -11.3430 -11.2305 -11.0776 -11.0080   0.1988   0.9631
     1.0436   1.0994   1.4060   1.5495   1.6282   2.0533   2.3087   2.7421
     2.7741   2.8435   3.1854   3.2691   3.7405   4.0974   4.4344   4.9531
     5.7230   5.7721   5.9127   5.9265   6.0924   6.1183   6.2736   6.4755
     6.7994   8.1172   8.1688   8.2345   8.2979   8.5744   8.6269  13.6427
    15.5405  16.2193  16.8744  17.3646  18.5891  18.6967  19.0598  19.9922

     occupation numbers 
     1.0000   1.0000   1.0000   1.0000   1.0000   1.0000   1.0000   1.0000
     1.0000   1.0000   1.0000   1.0000   1.0000   1.0000   1.0000   1.0000
     1.0000   1.0000   1.0000   1.0000   1.0000   1.0000   1.0000   1.0000
     1.0000   1.0000   1.0000   1.0000   1.0000   1.0000   1.0000   1.0000
     1.0000   1.0000   1.0000   1.0000   1.0000   1.0000   1.0000   1.0000
     1.0136   1.0231   1.0669   1.0711   1.0436   1.0159   0.6915   0.1995
     0.0033   0.0000   0.0000   0.0000   0.0000   0.0000   0.0000   0.0000
     0.0000   0.0000   0.0000   0.0000   0.0000   0.0000   0.0000   0.0000

          k = 0.0000-0.5774 0.0000 (  6336 PWs)   bands (ev):

   -88.7918 -88.7906 -88.7416 -52.1194 -52.1027 -52.0923 -52.0810 -52.0564
   -52.0512 -51.9210 -51.9188 -51.8785 -43.5937 -15.6091 -15.5161 -15.5132
   -12.1271 -12.0912 -11.3565 -11.2588 -11.0267 -11.0012   0.0545   1.0216
     1.1052   1.4726   1.5025   1.7149   1.8501   1.9001   2.0197   2.4173
     2.6351   2.8808   3.1451   3.1572   3.4643   4.0801   4.9223   5.0113
     5.6686   5.8138   5.8254   5.8382   6.2000   6.3920   6.4109   6.4645
     6.5398   8.0794   8.1421   8.2651   8.3117   8.3666   8.7646  14.2154
    14.2254  16.7446  17.4056  18.2314  18.5034  18.6691  18.9249  18.9597

     occupation numbers 
     1.0000   1.0000   1.0000   1.0000   1.0000   1.0000   1.0000   1.0000
     1.0000   1.0000   1.0000   1.0000   1.0000   1.0000   1.0000   1.0000
     1.0000   1.0000   1.0000   1.0000   1.0000   1.0000   1.0000   1.0000
     1.0000   1.0000   1.0000   1.0000   1.0000   1.0000   1.0000   1.0000
     1.0000   1.0000   1.0000   1.0000   1.0000   1.0000   1.0000   1.0000
     1.0069   1.0341   1.0376   1.0416   0.8750   0.3738   0.3289   0.2188
     0.1095   0.0000   0.0000   0.0000   0.0000   0.0000   0.0000   0.0000
     0.0000   0.0000   0.0000   0.0000   0.0000   0.0000   0.0000   0.0000

          k = 0.0000-0.5774 0.3032 (  6310 PWs)   bands (ev):

   -88.7918 -88.7906 -88.7415 -52.1194 -52.1026 -52.0923 -52.0808 -52.0565
   -52.0510 -51.9209 -51.9189 -51.8785 -43.5936 -15.6152 -15.5150 -15.5129
   -12.0921 -12.0905 -11.3604 -11.2536 -11.0368 -11.0283   0.0498   0.9161
     1.0329   1.4744   1.4957   1.6378   1.8825   1.9703   2.0196   2.5630
     2.7549   2.9161   3.1350   3.1559   3.4696   4.1941   4.8860   4.9460
     5.6642   5.8137   5.8256   5.8415   6.1926   6.3294   6.3627   6.5067
     6.5746   7.9619   8.0325   8.2791   8.3665   8.4158   8.7566  14.4718
    14.5136  16.5413  17.1343  17.3825  17.4691  18.7139  19.5803  19.8887

     occupation numbers 
     1.0000   1.0000   1.0000   1.0000   1.0000   1.0000   1.0000   1.0000
     1.0000   1.0000   1.0000   1.0000   1.0000   1.0000   1.0000   1.0000
     1.0000   1.0000   1.0000   1.0000   1.0000   1.0000   1.0000   1.0000
     1.0000   1.0000   1.0000   1.0000   1.0000   1.0000   1.0000   1.0000
     1.0000   1.0000   1.0000   1.0000   1.0000   1.0000   1.0000   1.0000
     1.0065   1.0341   1.0377   1.0427   0.8910   0.5378   0.4481   0.1511
     0.0759   0.0000   0.0000   0.0000   0.0000   0.0000   0.0000   0.0000
     0.0000   0.0000   0.0000   0.0000   0.0000   0.0000   0.0000   0.0000

          k = 0.1667 0.2887 0.0000 (  6317 PWs)   bands (ev):

   -88.7925 -88.7899 -88.7415 -52.1145 -52.1114 -52.0873 -52.0846 -52.0549
   -52.0499 -51.9222 -51.9176 -51.8783 -43.5937 -15.6099 -15.5145 -15.5129
   -12.6104 -11.4889 -11.4842 -11.1296 -11.1291 -10.9674   0.5450   0.5459
     1.1453   1.2473   1.2967   1.3131   1.5917   2.1635   2.2328   2.7177
     2.7666   2.9059   3.0135   3.3812   4.0515   4.1116   4.1490   5.0740
     5.7602   5.8490   5.9147   5.9559   5.9592   5.9922   6.4273   6.4341
     6.7436   8.1518   8.2107   8.2609   8.3605   8.4007   8.7470  12.7683
    16.3102  16.3752  17.0408  17.9142  18.7229  18.9848  19.3841  19.4647

     occupation numbers 
     1.0000   1.0000   1.0000   1.0000   1.0000   1.0000   1.0000   1.0000
     1.0000   1.0000   1.0000   1.0000   1.0000   1.0000   1.0000   1.0000
     1.0000   1.0000   1.0000   1.0000   1.0000   1.0000   1.0000   1.0000
     1.0000   1.0000   1.0000   1.0000   1.0000   1.0000   1.0000   1.0000
     1.0000   1.0000   1.0000   1.0000   1.0000   1.0000   1.0000   1.0000
     1.0204   1.0452   1.0675   1.0787   1.0794   1.0833   0.2924   0.2780
     0.0082   0.0000   0.0000   0.0000   0.0000   0.0000   0.0000   0.0000
     0.0000   0.0000   0.0000   0.0000   0.0000   0.0000   0.0000   0.0000

          k = 0.1667 0.2887 0.3032 (  6308 PWs)   bands (ev):

   -88.7925 -88.7899 -88.7415 -52.1145 -52.1113 -52.0872 -52.0845 -52.0549
   -52.0499 -51.9221 -51.9178 -51.8784 -43.5936 -15.6175 -15.5137 -15.5128
   -12.5767 -11.4867 -11.4769 -11.1372 -11.1295 -11.0051   0.5353   0.5475
     1.0657   1.2078   1.2716   1.4844   1.5928   2.1454   2.2194   2.7511
     2.7918   2.9317   3.0556   3.4110   4.0567   4.1681   4.1829   4.8280
     5.7207   5.8454   5.9098   5.9579   5.9628   5.9940   6.4078   6.4183
     6.8420   8.1357   8.1857   8.1916   8.3860   8.4263   8.7456  13.5036
    15.8760  16.3249  16.4476  18.1720  18.3088  18.6151  19.3197  19.3952

     occupation numbers 
     1.0000   1.0000   1.0000   1.0000   1.0000   1.0000   1.0000   1.0000
     1.0000   1.0000   1.0000   1.0000   1.0000   1.0000   1.0000   1.0000
     1.0000   1.0000   1.0000   1.0000   1.0000   1.0000   1.0000   1.0000
     1.0000   1.0000   1.0000   1.0000   1.0000   1.0000   1.0000   1.0000
     1.0000   1.0000   1.0000   1.0000   1.0000   1.0000   1.0000   1.0000
     1.0132   1.0440   1.0659   1.0791   1.0801   1.0833   0.3361   0.3122
     0.0016   0.0000   0.0000   0.0000   0.0000   0.0000   0.0000   0.0000
     0.0000   0.0000   0.0000   0.0000   0.0000   0.0000   0.0000   0.0000

          k = 0.1667 0.4811 0.0000 (  6294 PWs)   bands (ev):

   -88.7918 -88.7905 -88.7415 -52.1160 -52.1063 -52.0928 -52.0809 -52.0554
   -52.0511 -51.9209 -51.9187 -51.8784 -43.5937 -15.6090 -15.5155 -15.5134
   -12.2622 -11.8487 -11.5593 -11.1396 -11.0557 -10.9972   0.2872   0.8181
     1.0214   1.3776   1.5446   1.5868   1.7706   2.0177   2.0798   2.4238
     2.6255   2.8167   3.1451   3.3451   3.6062   4.2108   4.6203   5.0361
     5.7652   5.8392   5.8626   5.9095   6.1694   6.1997   6.2845   6.4416
     6.6284   7.9901   8.0753   8.2070   8.4803   8.6108   8.6831  13.7585
    14.9645  15.8953  17.8639  18.3978  18.5124  18.7143  18.9790  19.1625

     occupation numbers 
     1.0000   1.0000   1.0000   1.0000   1.0000   1.0000   1.0000   1.0000
     1.0000   1.0000   1.0000   1.0000   1.0000   1.0000   1.0000   1.0000
     1.0000   1.0000   1.0000   1.0000   1.0000   1.0000   1.0000   1.0000
     1.0000   1.0000   1.0000   1.0000   1.0000   1.0000   1.0000   1.0000
     1.0000   1.0000   1.0000   1.0000   1.0000   1.0000   1.0000   1.0000
     1.0215   1.0420   1.0498   1.0658   0.9369   0.8755   0.6617   0.2627
     0.0405   0.0000   0.0000   0.0000   0.0000   0.0000   0.0000   0.0000
     0.0000   0.0000   0.0000   0.0000   0.0000   0.0000   0.0000   0.0000

          k = 0.1667 0.4811 0.3032 (  6307 PWs)   bands (ev):

   -88.7918 -88.7905 -88.7415 -52.1161 -52.1063 -52.0928 -52.0809 -52.0554
   -52.0511 -51.9209 -51.9188 -51.8786 -43.5936 -15.6154 -15.5148 -15.5134
   -12.2382 -11.8363 -11.5518 -11.1461 -11.0665 -11.0241   0.2788   0.7698
     0.9327   1.3325   1.4809   1.6424   1.8007   2.0161   2.0674   2.5514
     2.7292   2.8841   3.1508   3.3520   3.6073   4.3096   4.6511   4.9674
     5.7539   5.8190   5.8561   5.9085   6.1549   6.1851   6.2854   6.4515
     6.6955   7.8457   7.9702   8.1493   8.4971   8.6159   8.6795  14.2738
    15.2006  16.0806  16.8322  17.6229  17.8824  18.8981  19.2268  19.6992

     occupation numbers 
     1.0000   1.0000   1.0000   1.0000   1.0000   1.0000   1.0000   1.0000
     1.0000   1.0000   1.0000   1.0000   1.0000   1.0000   1.0000   1.0000
     1.0000   1.0000   1.0000   1.0000   1.0000   1.0000   1.0000   1.0000
     1.0000   1.0000   1.0000   1.0000   1.0000   1.0000   1.0000   1.0000
     1.0000   1.0000   1.0000   1.0000   1.0000   1.0000   1.0000   1.0000
     1.0191   1.0356   1.0476   1.0655   0.9626   0.9064   0.6595   0.2431
     0.0167   0.0000   0.0000   0.0000   0.0000   0.0000   0.0000   0.0000
     0.0000   0.0000   0.0000   0.0000   0.0000   0.0000   0.0000   0.0000

          k = 0.3333 0.5774 0.0000 (  6294 PWs)   bands (ev):

   -88.7912 -88.7912 -88.7416 -52.1124 -52.1023 -52.1023 -52.0799 -52.0527
   -52.0527 -51.9198 -51.9198 -51.8785 -43.5937 -15.6088 -15.5147 -15.5147
   -11.9351 -11.8969 -11.8969 -11.0593 -11.0593 -11.0342   0.7001   0.7178
     0.7178   1.4986   1.5607   1.5607   1.9065   1.9065   1.9575   2.3209
     2.5582   2.5582   3.4901   3.4901   3.5401   4.6031   4.6031   4.7131
     5.7905   5.8593   5.8593   6.0521   6.0521   6.0543   6.3982   6.4701
     6.4701   7.9955   8.0474   8.0474   8.6851   8.6851   8.6865  14.7065
    14.7065  14.7610  18.1777  18.5384  18.5384  18.8118  18.9911  18.9911

     occupation numbers 
     1.0000   1.0000   1.0000   1.0000   1.0000   1.0000   1.0000   1.0000
     1.0000   1.0000   1.0000   1.0000   1.0000   1.0000   1.0000   1.0000
     1.0000   1.0000   1.0000   1.0000   1.0000   1.0000   1.0000   1.0000
     1.0000   1.0000   1.0000   1.0000   1.0000   1.0000   1.0000   1.0000
     1.0000   1.0000   1.0000   1.0000   1.0000   1.0000   1.0000   1.0000
     1.0276   1.0487   1.0487   1.0712   1.0712   1.0702   0.3588   0.2089
     0.2089   0.0000   0.0000   0.0000   0.0000   0.0000   0.0000   0.0000
     0.0000   0.0000   0.0000   0.0000   0.0000   0.0000   0.0000   0.0000

          k = 0.3333 0.5774 0.3032 (  6312 PWs)   bands (ev):

   -88.7912 -88.7912 -88.7416 -52.1125 -52.1024 -52.1024 -52.0799 -52.0527
   -52.0527 -51.9199 -51.9199 -51.8786 -43.5936 -15.6147 -15.5144 -15.5144
   -11.8970 -11.8933 -11.8933 -11.0688 -11.0644 -11.0644   0.6455   0.6761
     0.6761   1.4312   1.5186   1.5186   1.9064   1.9064   1.9532   2.4969
     2.6834   2.6834   3.4907   3.4907   3.5480   4.6418   4.6418   4.7579
     5.7716   5.8390   5.8390   6.0528   6.0528   6.0566   6.4305   6.4989
     6.4989   7.8495   7.9184   7.9184   8.6752   8.6778   8.6778  15.0476
    15.0476  15.1571  17.3333  17.5814  17.5814  19.3644  19.4011  19.4012

     occupation numbers 
     1.0000   1.0000   1.0000   1.0000   1.0000   1.0000   1.0000   1.0000
     1.0000   1.0000   1.0000   1.0000   1.0000   1.0000   1.0000   1.0000
     1.0000   1.0000   1.0000   1.0000   1.0000   1.0000   1.0000   1.0000
     1.0000   1.0000   1.0000   1.0000   1.0000   1.0000   1.0000   1.0000
     1.0000   1.0000   1.0000   1.0000   1.0000   1.0000   1.0000   1.0000
     1.0230   1.0419   1.0419   1.0709   1.0709   1.0690   0.2857   0.1623
     0.1623   0.0000   0.0000   0.0000   0.0000   0.0000   0.0000   0.0000
     0.0000   0.0000   0.0000   0.0000   0.0000   0.0000   0.0000   0.0000

          k =-0.1667-0.2887 0.3032 (  6308 PWs)   bands (ev):

   -88.7925 -88.7899 -88.7415 -52.1145 -52.1113 -52.0872 -52.0845 -52.0549
   -52.0499 -51.9221 -51.9178 -51.8784 -43.5936 -15.6174 -15.5137 -15.5126
   -12.5775 -11.4865 -11.4856 -11.1297 -11.1282 -11.0045   0.5293   0.5319
     1.0926   1.2158   1.2768   1.4684   1.5943   2.1683   2.2348   2.7121
     2.7633   2.9678   3.0854   3.4017   4.0482   4.1298   4.1538   4.8410
     5.7106   5.8528   5.9138   5.9569   5.9656   5.9964   6.3929   6.3991
     6.8199   8.2022   8.2479   8.2547   8.3765   8.3929   8.7532  13.3723
    15.9345  16.0732  16.1917  18.3136  18.7271  18.8850  19.1461  19.2393

     occupation numbers 
     1.0000   1.0000   1.0000   1.0000   1.0000   1.0000   1.0000   1.0000
     1.0000   1.0000   1.0000   1.0000   1.0000   1.0000   1.0000   1.0000
     1.0000   1.0000   1.0000   1.0000   1.0000   1.0000   1.0000   1.0000
     1.0000   1.0000   1.0000   1.0000   1.0000   1.0000   1.0000   1.0000
     1.0000   1.0000   1.0000   1.0000   1.0000   1.0000   1.0000   1.0000
     1.0117   1.0465   1.0672   1.0789   1.0806   1.0833   0.3715   0.3567
     0.0024   0.0000   0.0000   0.0000   0.0000   0.0000   0.0000   0.0000
     0.0000   0.0000   0.0000   0.0000   0.0000   0.0000   0.0000   0.0000

          k =-0.1667-0.4811 0.3032 (  6307 PWs)   bands (ev):

   -88.7918 -88.7905 -88.7415 -52.1161 -52.1063 -52.0928 -52.0809 -52.0554
   -52.0510 -51.9209 -51.9188 -51.8786 -43.5936 -15.6152 -15.5145 -15.5131
   -12.2403 -11.8398 -11.5589 -11.1389 -11.0629 -11.0220   0.2696   0.7601
     0.9527   1.3422   1.4895   1.6254   1.7925   2.0142   2.0724   2.5796
     2.7577   2.9112   3.1395   3.3490   3.6029   4.2418   4.5961   4.9314
     5.7656   5.8167   5.8629   5.9073   6.1577   6.1921   6.2660   6.4063
     6.6492   7.9758   8.0907   8.2348   8.4814   8.6176   8.6792  14.0333
    14.9216  15.5958  16.9888  18.0697  18.2721  18.8262  19.3380  19.8651

     occupation numbers 
     1.0000   1.0000   1.0000   1.0000   1.0000   1.0000   1.0000   1.0000
     1.0000   1.0000   1.0000   1.0000   1.0000   1.0000   1.0000   1.0000
     1.0000   1.0000   1.0000   1.0000   1.0000   1.0000   1.0000   1.0000
     1.0000   1.0000   1.0000   1.0000   1.0000   1.0000   1.0000   1.0000
     1.0000   1.0000   1.0000   1.0000   1.0000   1.0000   1.0000   1.0000
     1.0216   1.0349   1.0499   1.0651   0.9578   0.8920   0.7121   0.3397
     0.0311   0.0000   0.0000   0.0000   0.0000   0.0000   0.0000   0.0000
     0.0000   0.0000   0.0000   0.0000   0.0000   0.0000   0.0000   0.0000

          k =-0.3333-0.5774 0.3032 (  6312 PWs)   bands (ev):

   -88.7912 -88.7912 -88.7416 -52.1125 -52.1024 -52.1024 -52.0799 -52.0527
   -52.0527 -51.9199 -51.9199 -51.8786 -43.5936 -15.6145 -15.5140 -15.5140
   -11.9001 -11.8991 -11.8991 -11.0656 -11.0586 -11.0586   0.6245   0.6813
     0.6813   1.4533   1.5080   1.5080   1.9084   1.9084   1.9577   2.5366
     2.7127   2.7127   3.4894   3.4894   3.5397   4.5742   4.5742   4.6644
     5.7787   5.8370   5.8370   6.0523   6.0523   6.0560   6.3819   6.4586
     6.4586   8.0115   8.0675   8.0675   8.6825   8.6838   8.6838  14.6450
    14.6450  14.7091  17.7094  17.8719  17.8719  19.5001  19.7319  19.7319

     occupation numbers 
     1.0000   1.0000   1.0000   1.0000   1.0000   1.0000   1.0000   1.0000
     1.0000   1.0000   1.0000   1.0000   1.0000   1.0000   1.0000   1.0000
     1.0000   1.0000   1.0000   1.0000   1.0000   1.0000   1.0000   1.0000
     1.0000   1.0000   1.0000   1.0000   1.0000   1.0000   1.0000   1.0000
     1.0000   1.0000   1.0000   1.0000   1.0000   1.0000   1.0000   1.0000
     1.0246   1.0413   1.0413   1.0711   1.0711   1.0693   0.3989   0.2297
     0.2297   0.0000   0.0000   0.0000   0.0000   0.0000   0.0000   0.0000
     0.0000   0.0000   0.0000   0.0000   0.0000   0.0000   0.0000   0.0000

     the Fermi energy is     6.3812 ev

!    total energy              =   -1489.34137028 Ry
     total all-electron energy =     -9588.576178 Ry
     estimated scf accuracy    <       0.00000004 Ry
     smearing contrib. (-TS)   =       0.00960463 Ry
     internal energy E=F+TS    =   -1489.35097491 Ry

     The total energy is F=E-TS. E is the sum of the following terms:
     one-electron contribution =   -1068.30939084 Ry
     hartree contribution      =     576.16700210 Ry
     xc contribution           =    -150.72244484 Ry
     ewald contribution        =    -510.97043138 Ry
     one-center paw contrib.   =    -335.51570995 Ry
      -> PAW hartree energy AE =     885.69120489 Ry
      -> PAW hartree energy PS =    -883.41233390 Ry
      -> PAW xc energy AE      =    -480.46573613 Ry
      -> PAW xc energy PS      =     142.67115518 Ry
      -> total E_H with PAW    =     578.44587310 Ry
      -> total E_XC with PAW   =    -488.51702579 Ry

     total magnetization       =     2.30 Bohr mag/cell
     absolute magnetization    =     2.34 Bohr mag/cell

     convergence has been achieved in  19 iterations

     Forces acting on atoms (cartesian axes, Ry/au):

     atom    1 type  1   force =     0.00000000    0.00000000    0.04096970
     atom    2 type  1   force =     0.00000000    0.00000000    0.00637901
     atom    3 type  1   force =    -0.00000000   -0.00000000    0.00637901
     atom    4 type  2   force =    -0.00125262   -0.00216960   -0.02365220
     atom    5 type  2   force =     0.00250524    0.00000000   -0.02365220
     atom    6 type  2   force =    -0.00125262    0.00216960   -0.02365220
     atom    7 type  2   force =     0.00391287   -0.00000000    0.02745093
     atom    8 type  2   force =    -0.00195643   -0.00338864    0.02745093
     atom    9 type  2   force =    -0.00195643    0.00338864    0.02745093
     atom   10 type  3   force =     0.00000000    0.00000000   -0.06512390
     The non-local contrib.  to forces
     atom    1 type  1   force =     0.00000000   -0.00000000   -0.10332140
     atom    2 type  1   force =     0.00000000    0.00000000    0.00433513
     atom    3 type  1   force =     0.00000000    0.00000000    0.00433513
     atom    4 type  2   force =    -0.03382395   -0.05858480   -1.14454652
     atom    5 type  2   force =     0.06764790   -0.00000000   -1.14454652
     atom    6 type  2   force =    -0.03382395    0.05858480   -1.14454652
     atom    7 type  2   force =    -0.10854937    0.00000000    1.09942906
     atom    8 type  2   force =     0.05427469    0.09400651    1.09942906
     atom    9 type  2   force =     0.05427469   -0.09400651    1.09942906
     atom   10 type  3   force =     0.00000000    0.00000000   -0.16085306
     The ionic contribution  to forces
     atom    1 type  1   force =    -0.00000000   -0.00000000    4.60793247
     atom    2 type  1   force =     0.00000002   -0.00000001    1.38810528
     atom    3 type  1   force =    -0.00000002    0.00000001    1.38810528
     atom    4 type  2   force =     0.73217730    1.26816829   24.85640274
     atom    5 type  2   force =    -1.46435460   -0.00000000   24.85640274
     atom    6 type  2   force =     0.73217730   -1.26816829   24.85640274
     atom    7 type  2   force =     2.58685052    0.00000000  -23.61261510
     atom    8 type  2   force =    -1.29342527   -2.24027828  -23.61261510
     atom    9 type  2   force =    -1.29342526    2.24027827  -23.61261510
     atom   10 type  3   force =    -0.00000000   -0.00000000  -11.11550596
     The local contribution  to forces
     atom    1 type  1   force =     0.00000000    0.00000000   -4.46432139
     atom    2 type  1   force =     0.00000021   -0.00000012   -1.38617151
     atom    3 type  1   force =    -0.00000021    0.00000012   -1.38617151
     atom    4 type  2   force =    -0.69989733   -1.21225774  -23.74574897
     atom    5 type  2   force =     1.39979466    0.00000000  -23.74574897
     atom    6 type  2   force =    -0.69989733    1.21225774  -23.74574897
     atom    7 type  2   force =    -2.47523801    0.00000000   22.55056525
     atom    8 type  2   force =     1.23761900    2.14361899   22.55056525
     atom    9 type  2   force =     1.23761900   -2.14361899   22.55056525
     atom   10 type  3   force =    -0.00000000    0.00000000   11.21131595
     The core correction contribution to forces
     atom    1 type  1   force =     0.00000000    0.00000000    0.00027376
     atom    2 type  1   force =     0.00000000   -0.00000000   -0.00006594
     atom    3 type  1   force =    -0.00000000    0.00000000   -0.00006594
     atom    4 type  2   force =     0.00028721    0.00049747    0.01014500
     atom    5 type  2   force =    -0.00057443    0.00000000    0.01014500
     atom    6 type  2   force =     0.00028721   -0.00049747    0.01014500
     atom    7 type  2   force =     0.00080474   -0.00000000   -0.00984360
     atom    8 type  2   force =    -0.00040237   -0.00069693   -0.00984360
     atom    9 type  2   force =    -0.00040237    0.00069693   -0.00984360
     atom   10 type  3   force =    -0.00000000   -0.00000000    0.00012525
     The Hubbard contrib.    to forces
     atom    1 type  1   force =     0.00000000    0.00000000    0.00000000
     atom    2 type  1   force =     0.00000000    0.00000000    0.00000000
     atom    3 type  1   force =     0.00000000    0.00000000    0.00000000
     atom    4 type  2   force =     0.00000000    0.00000000    0.00000000
     atom    5 type  2   force =     0.00000000    0.00000000    0.00000000
     atom    6 type  2   force =     0.00000000    0.00000000    0.00000000
     atom    7 type  2   force =     0.00000000    0.00000000    0.00000000
     atom    8 type  2   force =     0.00000000    0.00000000    0.00000000
     atom    9 type  2   force =     0.00000000    0.00000000    0.00000000
     atom   10 type  3   force =     0.00000000    0.00000000    0.00000000
     The SCF correction term to forces
     atom    1 type  1   force =     0.00000000    0.00000000    0.00041965
     atom    2 type  1   force =    -0.00000000    0.00000000    0.00018945
     atom    3 type  1   force =     0.00000000   -0.00000000    0.00018945
     atom    4 type  2   force =     0.00000414    0.00000718    0.00010894
     atom    5 type  2   force =    -0.00000829    0.00000000    0.00010894
     atom    6 type  2   force =     0.00000414   -0.00000718    0.00010894
     atom    7 type  2   force =     0.00004497   -0.00000000   -0.00007128
     atom    8 type  2   force =    -0.00002249   -0.00003895   -0.00007128
     atom    9 type  2   force =    -0.00002249    0.00003895   -0.00007128
     atom   10 type  3   force =     0.00000000    0.00000000   -0.00019268

     Total force =     0.100024     Total SCF correction =     0.000585

     Writing all to output data dir ./out/pw.save/ :
     XML data file, charge density, pseudopotentials, collected wavefunctions
 
     init_run     :     21.41s CPU      4.48s WALL (       1 calls)
     electrons    :    234.64s CPU     52.90s WALL (       1 calls)
     forces       :      1.04s CPU      0.88s WALL (       1 calls)

     Called by init_run:
     wfcinit      :      0.45s CPU      0.62s WALL (       1 calls)
     wfcinit:atom :      0.06s CPU      0.06s WALL (      34 calls)
     wfcinit:wfcr :      0.28s CPU      0.34s WALL (      34 calls)
     potinit      :     20.35s CPU      3.21s WALL (       1 calls)
     hinit0       :      0.49s CPU      0.49s WALL (       1 calls)

     Called by electrons:
     c_bands      :     21.07s CPU     21.18s WALL (      19 calls)
     sum_band     :      3.12s CPU      3.10s WALL (      19 calls)
     v_of_rho     :      0.40s CPU      0.23s WALL (      20 calls)
     v_h          :      0.26s CPU      0.05s WALL (      20 calls)
     v_xc         :      0.15s CPU      0.18s WALL (      21 calls)
     newd         :      0.47s CPU      0.40s WALL (      20 calls)
                                        0.40s GPU  (      20 calls)
     PAW_pot      :    219.40s CPU     28.57s WALL (      20 calls)
     mix_rho      :      0.74s CPU      0.72s WALL (      19 calls)

     Called by c_bands:
     init_us_2    :      0.77s CPU      0.76s WALL (    1360 calls)
     cegterg      :     17.76s CPU     17.88s WALL (     646 calls)

     Called by sum_band:
     sum_band:wei :      0.04s CPU      0.04s WALL (      19 calls)
                                        0.04s GPU  (      19 calls)
     sum_band:loo :      2.18s CPU      2.15s WALL (      19 calls)
                                        2.15s GPU  (      19 calls)
     sum_band:buf :      0.53s CPU      0.55s WALL (     646 calls)
                                        0.54s GPU  (     646 calls)
     sum_band:ini :      0.36s CPU      0.35s WALL (     646 calls)
                                        0.35s GPU  (     646 calls)
     sum_band:cal :      0.05s CPU      0.08s WALL (     646 calls)
                                        0.05s GPU  (     646 calls)
     sum_band:bec :      0.30s CPU      0.31s WALL (     646 calls)
                                        0.30s GPU  (     646 calls)
     addusdens    :      0.68s CPU      0.68s WALL (      19 calls)
                                        0.68s GPU  (      19 calls)
     addusd:skk   :      0.01s CPU      0.01s WALL (      57 calls)
                                        0.01s GPU  (      57 calls)

     Called by *egterg:
     cdiaghg      :      7.99s CPU      8.11s WALL (    3444 calls)
                                        8.06s GPU  (    3444 calls)
     cegterg:over :      0.81s CPU      0.83s WALL (    2798 calls)
     cegterg:upda :      1.01s CPU      1.01s WALL (    2798 calls)
     cegterg:last :      0.14s CPU      0.14s WALL (    1270 calls)
     h_psi        :      6.10s CPU      6.21s WALL (    3478 calls)
                                        6.17s GPU  (    3478 calls)
     s_psi        :      1.06s CPU      1.10s WALL (    3478 calls)
     g_psi        :      0.01s CPU      0.10s WALL (    2798 calls)
                                        0.06s GPU  (    2798 calls)

     Called by h_psi:
     h_psi:calbec :      0.16s CPU      0.33s WALL (    3478 calls)
                                        0.29s GPU  (    3478 calls)
     vloc_psi     :      4.42s CPU      4.45s WALL (    3478 calls)
                                        4.41s GPU  (    3478 calls)
     add_vuspsi   :      1.02s CPU      1.18s WALL (    3478 calls)
                                        1.13s GPU  (    3478 calls)

     General routines
     calbec       :      0.18s CPU      0.20s WALL (    4260 calls)
     fft          :      6.44s CPU      1.09s WALL (     513 calls)
                                        0.03s GPU  (     473 calls)
     ffts         :      2.95s CPU      0.65s WALL (     790 calls)
                                        0.02s GPU  (     750 calls)
     fftw         :      0.31s CPU      2.37s WALL (   18542 calls)
                                        2.17s GPU  (   18542 calls)
     interpolate  :      9.57s CPU      1.72s WALL (      40 calls)
 
     Parallel routines

     PAW routines
     PAW_pot      :    219.40s CPU     28.57s WALL (      20 calls)
     PAW_symme    :      0.03s CPU      0.01s WALL (      39 calls)
 
     PWSCF        :   4m17.93s CPU     58.86s WALL

 
   This run was terminated on:   3:23: 6  12Jul2026            

=------------------------------------------------------------------------------=
   JOB DONE.
=------------------------------------------------------------------------------=
Warning: ieee_divide_by_zero is signaling
Warning: ieee_inexact is signaling
FORTRAN STOP
