
     Program PWSCF v.7.3.1 starts on 12Jul2026 at  5:37: 9 

     This program is part of the open-source Quantum ESPRESSO suite
     for quantum simulation of materials; please cite
         "P. Giannozzi et al., J. Phys.:Condens. Matter 21 395502 (2009);
         "P. Giannozzi et al., J. Phys.:Condens. Matter 29 465901 (2017);
         "P. Giannozzi et al., J. Chem. Phys. 152 154105 (2020);
          URL http://www.quantum-espresso.org", 
     in publications or presentations arising from this work. More details at
     http://www.quantum-espresso.org/quote

     Parallel version (MPI & OpenMP), running on      14 processor cores
     Number of MPI processes:                 1
     Threads/MPI process:                    14

     MPI processes distributed on     1 nodes
     1347781 MiB available memory on the printing compute node when the environment starts
 
     Reading input from pw.in

     Current dimensions of program PWSCF are:
     Max number of different atomic species (ntypx) = 10
     Max number of k-points (npk) =  40000
     Max angular momentum in pseudopotentials (lmaxx) =  4
     file Co.pbe-spn-kjpaw_psl.0.3.1.UPF: wavefunction(s)  3P 3D renormalized
     file O.pbe-n-kjpaw_psl.1.0.0.UPF: wavefunction(s)  2S 2P renormalized
     file K.pbe-spn-kjpaw_psl.1.0.0.UPF: wavefunction(s)  3S renormalized
 
     Subspace diagonalization in iterative solution of the eigenvalue problem:
     a serial algorithm will be used

 
     G-vector sticks info
     --------------------
     sticks:   dense  smooth     PW     G-vecs:    dense   smooth      PW
     Sum        1003     499    151                60133    21263    3497
 
     Using Slab Decomposition
 


     bravais-lattice index     =            4
     lattice parameter (alat)  =       5.4802  a.u.
     unit-cell volume          =     339.1348 (a.u.)^3
     number of atoms/cell      =            4
     number of atomic types    =            3
     number of electrons       =        38.00
     number of Kohn-Sham states=           27
     kinetic-energy cutoff     =      60.0000  Ry
     charge density cutoff     =     480.0000  Ry
     scf convergence threshold =      1.0E-07
     mixing beta               =       0.3000
     number of iterations used =            8  local-TF  mixing
     Exchange-correlation= SLA  PW   PBX  PBC
                           (   1   4   3   4   0   0   0)

     GPU acceleration is ACTIVE.  1 visible GPUs per MPI rank
     GPU-aware MPI enabled


     GPU used by master process:

        Device Number: 0
        Device name: NVIDIA A100-SXM4-80GB
        Compute capability : 80
        Ratio of single to double precision performance  : 2
        Memory Clock Rate (KHz): 1593000
        Memory Bus Width (bits): 5120
        Peak Memory Bandwidth (GB/s): ******

     celldm(1)=   5.480206  celldm(2)=   0.000000  celldm(3)=   2.379310
     celldm(4)=   0.000000  celldm(5)=   0.000000  celldm(6)=   0.000000

     crystal axes: (cart. coord. in units of alat)
               a(1) = (   1.000000   0.000000   0.000000 )  
               a(2) = (  -0.500000   0.866025   0.000000 )  
               a(3) = (   0.000000   0.000000   2.379310 )  

     reciprocal axes: (cart. coord. in units 2 pi/alat)
               b(1) = (  1.000000  0.577350 -0.000000 )  
               b(2) = (  0.000000  1.154701  0.000000 )  
               b(3) = (  0.000000 -0.000000  0.420290 )  


     PseudoPot. # 1 for Co read from file:
     ../../pseudo/Co.pbe-spn-kjpaw_psl.0.3.1.UPF
     MD5 check sum: 3c0a43779828c046024e4f3be63f8e67
     Pseudo is Projector augmented-wave + core cor, Zval = 17.0
     Generated using &quot;atomic&quot; code by A. Dal Corso  v.6.2.2
     Shape of augmentation charge: PSQ
     Using radial grid of 1193 points,  6 beta functions with: 
                l(1) =   0
                l(2) =   0
                l(3) =   1
                l(4) =   1
                l(5) =   2
                l(6) =   2
     Q(r) pseudized with 0 coefficients 


     PseudoPot. # 2 for O  read from file:
     ../../pseudo/O.pbe-n-kjpaw_psl.1.0.0.UPF
     MD5 check sum: e99d9cef9b487d1ca56f5b95ecd0fd7a
     Pseudo is Projector augmented-wave + core cor, Zval =  6.0
     Generated using &quot;atomic&quot; code by A. Dal Corso  v.6.3
     Shape of augmentation charge: PSQ
     Using radial grid of 1095 points,  4 beta functions with: 
                l(1) =   0
                l(2) =   0
                l(3) =   1
                l(4) =   1
     Q(r) pseudized with 0 coefficients 


     PseudoPot. # 3 for K  read from file:
     ../../pseudo/K.pbe-spn-kjpaw_psl.1.0.0.UPF
     MD5 check sum: 34cc42130a09071ebe376fd42eb21491
     Pseudo is Projector augmented-wave + core cor, Zval =  9.0
     Generated using &quot;atomic&quot; code by A. Dal Corso  v.6.2.2
     Shape of augmentation charge: PSQ
     Using radial grid of 1165 points,  6 beta functions with: 
                l(1) =   0
                l(2) =   0
                l(3) =   1
                l(4) =   1
                l(5) =   2
                l(6) =   2
     Q(r) pseudized with 0 coefficients 


     atomic species   valence    mass     pseudopotential
     Co               17.00    58.93300     Co( 1.00)
     O                 6.00    15.99900     O ( 1.00)
     K                 9.00    39.09830     K ( 1.00)

     Starting magnetic structure 
     atomic species   magnetization
     Co              0.300
     O               0.000
     K               0.000

      6 Sym. Ops. (no inversion) found


                                    s                        frac. trans.

      isym =  1     identity                                     

 cryst.   s( 1) = (     1          0          0      )
                  (     0          1          0      )
                  (     0          0          1      )

 cart.    s( 1) = (  1.0000000  0.0000000  0.0000000 )
                  (  0.0000000  1.0000000  0.0000000 )
                  (  0.0000000  0.0000000  1.0000000 )


      isym =  2     120 deg rotation - cryst. axis [0,0,1]       

 cryst.   s( 2) = (     0          1          0      )
                  (    -1         -1          0      )
                  (     0          0          1      )

 cart.    s( 2) = ( -0.5000000 -0.8660254  0.0000000 )
                  (  0.8660254 -0.5000000  0.0000000 )
                  (  0.0000000  0.0000000  1.0000000 )


      isym =  3     120 deg rotation - cryst. axis [0,0,-1]      

 cryst.   s( 3) = (    -1         -1          0      )
                  (     1          0          0      )
                  (     0          0          1      )

 cart.    s( 3) = ( -0.5000000  0.8660254  0.0000000 )
                  ( -0.8660254 -0.5000000  0.0000000 )
                  (  0.0000000  0.0000000  1.0000000 )


      isym =  4     inv. 180 deg rotation - cart. axis [1,0,0]   

 cryst.   s( 4) = (    -1          0          0      )
                  (     1          1          0      )
                  (     0          0          1      )

 cart.    s( 4) = ( -1.0000000  0.0000000  0.0000000 )
                  (  0.0000000  1.0000000  0.0000000 )
                  (  0.0000000  0.0000000  1.0000000 )


      isym =  5     inv. 180 deg rotation - cryst. axis [0,1,0]  

 cryst.   s( 5) = (     1          1          0      )
                  (     0         -1          0      )
                  (     0          0          1      )

 cart.    s( 5) = (  0.5000000  0.8660254  0.0000000 )
                  (  0.8660254 -0.5000000  0.0000000 )
                  (  0.0000000  0.0000000  1.0000000 )


      isym =  6     inv. 180 deg rotation - cryst. axis [1,1,0]  

 cryst.   s( 6) = (     0         -1          0      )
                  (    -1          0          0      )
                  (     0          0          1      )

 cart.    s( 6) = (  0.5000000 -0.8660254  0.0000000 )
                  ( -0.8660254 -0.5000000  0.0000000 )
                  (  0.0000000  0.0000000  1.0000000 )


     point group C_3v (3m)  
     there are  3 classes
     the character table:

       E     2C3   3s_v 
A_1    1.00  1.00  1.00
A_2    1.00  1.00 -1.00
E      2.00 -1.00  0.00

     the symmetry operations in each class and the name of the first element:

     E        1
          identity                                               
     2C3      2    3
          120 deg rotation - cryst. axis [0,0,1]                 
     3s_v     4    5    6
          inv. 180 deg rotation - cart. axis [1,0,0]             

   Cartesian axes

     site n.     atom                  positions (alat units)
         1        Co     tau(   1) = (   0.0000000   0.0000000   0.0000000  )
         2        O      tau(   2) = (  -0.0000000   0.5773503   0.3310345  )
         3        O      tau(   3) = (   0.5000000   0.2886751   2.0482759  )
         4        K      tau(   4) = (   0.0000000   0.0000000   1.3620690  )

   Crystallographic axes

     site n.     atom                  positions (cryst. coord.)
         1        Co     tau(   1) = (  0.0000000  0.0000000  0.0000000  )
         2        O      tau(   2) = (  0.3333333  0.6666667  0.1391304  )
         3        O      tau(   3) = (  0.6666667  0.3333333  0.8608696  )
         4        K      tau(   4) = (  0.0000000  0.0000000  0.5724638  )

     number of k points=    25  Marzari-Vanderbilt smearing, width (Ry)=  0.0200
                       cart. coord. in units 2pi/alat
        k(    1) = (   0.0000000   0.0000000   0.0000000), wk =   0.0052083
        k(    2) = (   0.0000000   0.0000000   0.1400966), wk =   0.0104167
        k(    3) = (   0.0000000   0.1443376   0.0000000), wk =   0.0312500
        k(    4) = (   0.0000000   0.1443376   0.1400966), wk =   0.0312500
        k(    5) = (   0.0000000   0.2886751   0.0000000), wk =   0.0312500
        k(    6) = (   0.0000000   0.2886751   0.1400966), wk =   0.0312500
        k(    7) = (   0.0000000   0.4330127   0.0000000), wk =   0.0312500
        k(    8) = (   0.0000000   0.4330127   0.1400966), wk =   0.0312500
        k(    9) = (   0.0000000  -0.5773503   0.0000000), wk =   0.0156250
        k(   10) = (   0.0000000  -0.5773503   0.1400966), wk =   0.0312500
        k(   11) = (   0.1250000   0.2165064   0.0000000), wk =   0.0312500
        k(   12) = (   0.1250000   0.2165064   0.1400966), wk =   0.0625000
        k(   13) = (   0.1250000   0.3608439   0.0000000), wk =   0.0625000
        k(   14) = (   0.1250000   0.3608439   0.1400966), wk =   0.0625000
        k(   15) = (   0.1250000   0.5051815   0.0000000), wk =   0.0625000
        k(   16) = (   0.1250000   0.5051815   0.1400966), wk =   0.0625000
        k(   17) = (   0.2500000   0.4330127   0.0000000), wk =   0.0312500
        k(   18) = (   0.2500000   0.4330127   0.1400966), wk =   0.0625000
        k(   19) = (   0.2500000   0.5773503   0.0000000), wk =   0.0312500
        k(   20) = (   0.2500000   0.5773503   0.1400966), wk =   0.0625000
        k(   21) = (   0.0000000  -0.1443376   0.1400966), wk =   0.0312500
        k(   22) = (   0.0000000  -0.2886751   0.1400966), wk =   0.0312500
        k(   23) = (   0.0000000  -0.4330127   0.1400966), wk =   0.0312500
        k(   24) = (  -0.1250000  -0.3608439   0.1400966), wk =   0.0625000
        k(   25) = (  -0.1250000  -0.5051815   0.1400966), wk =   0.0625000

                       cryst. coord.
        k(    1) = (   0.0000000   0.0000000   0.0000000), wk =   0.0052083
        k(    2) = (   0.0000000   0.0000000   0.3333333), wk =   0.0104167
        k(    3) = (   0.0000000   0.1250000   0.0000000), wk =   0.0312500
        k(    4) = (   0.0000000   0.1250000   0.3333333), wk =   0.0312500
        k(    5) = (   0.0000000   0.2500000   0.0000000), wk =   0.0312500
        k(    6) = (   0.0000000   0.2500000   0.3333333), wk =   0.0312500
        k(    7) = (   0.0000000   0.3750000   0.0000000), wk =   0.0312500
        k(    8) = (   0.0000000   0.3750000   0.3333333), wk =   0.0312500
        k(    9) = (   0.0000000  -0.5000000   0.0000000), wk =   0.0156250
        k(   10) = (   0.0000000  -0.5000000   0.3333333), wk =   0.0312500
        k(   11) = (   0.1250000   0.1250000   0.0000000), wk =   0.0312500
        k(   12) = (   0.1250000   0.1250000   0.3333333), wk =   0.0625000
        k(   13) = (   0.1250000   0.2500000   0.0000000), wk =   0.0625000
        k(   14) = (   0.1250000   0.2500000   0.3333333), wk =   0.0625000
        k(   15) = (   0.1250000   0.3750000   0.0000000), wk =   0.0625000
        k(   16) = (   0.1250000   0.3750000   0.3333333), wk =   0.0625000
        k(   17) = (   0.2500000   0.2500000   0.0000000), wk =   0.0312500
        k(   18) = (   0.2500000   0.2500000   0.3333333), wk =   0.0625000
        k(   19) = (   0.2500000   0.3750000   0.0000000), wk =   0.0312500
        k(   20) = (   0.2500000   0.3750000   0.3333333), wk =   0.0625000
        k(   21) = (   0.0000000  -0.1250000   0.3333333), wk =   0.0312500
        k(   22) = (   0.0000000  -0.2500000   0.3333333), wk =   0.0312500
        k(   23) = (   0.0000000  -0.3750000   0.3333333), wk =   0.0312500
        k(   24) = (  -0.1250000  -0.2500000   0.3333333), wk =   0.0625000
        k(   25) = (  -0.1250000  -0.3750000   0.3333333), wk =   0.0625000

     Dense  grid:    60133 G-vectors     FFT dimensions: (  40,  40,  96)

     Smooth grid:    21263 G-vectors     FFT dimensions: (  27,  27,  72)

     Dynamical RAM for                 wfc:       1.10 MB

     Dynamical RAM for     wfc (w. buffer):      55.93 MB

     Dynamical RAM for           str. fact:       2.75 MB

     Dynamical RAM for           local pot:       0.00 MB

     Dynamical RAM for          nlocal pot:       2.11 MB

     Dynamical RAM for                qrad:       5.27 MB

     Dynamical RAM for          rho,v,vnew:      12.54 MB

     Dynamical RAM for               rhoin:       4.18 MB

     Dynamical RAM for            rho*nmix:      29.36 MB

     Dynamical RAM for           G-vectors:       3.60 MB

     Dynamical RAM for          h,s,v(r/c):       0.13 MB

     Dynamical RAM for          <psi|beta>:       0.02 MB

     Dynamical RAM for                 psi:       2.19 MB

     Dynamical RAM for                hpsi:       2.19 MB

     Dynamical RAM for                spsi:       2.19 MB

     Dynamical RAM for      wfcinit/wfcrot:       2.21 MB

     Dynamical RAM for           addusdens:     173.42 MB

     Dynamical RAM for          addusforce:     175.27 MB

     Estimated static dynamical RAM per process >      97.09 MB

     Estimated max dynamical RAM per process >     301.72 MB

     Check: negative core charge=   -0.000008
     Generating pointlists ...
     new r_m :   0.2745 (alat units)  1.5045 (a.u.) for type    1
     new r_m :   0.2745 (alat units)  1.5045 (a.u.) for type    2
     new r_m :   0.3699 (alat units)  2.0272 (a.u.) for type    3

     Initial potential from superposition of free atoms

     starting charge      37.9809, renormalised to      38.0000
     Starting wfcs are   26 randomized atomic wfcs +    1 random wfcs
     Checking if some PAW data can be deallocated... 

     total cpu time spent up to now is        4.1 secs

     Self-consistent Calculation
[tb_dev] Currently allocated     6.58E-01 Mbytes, locked:    0 /   6
[tb_pin] Currently allocated     0.00E+00 Mbytes, locked:    0 /   0

     iteration #  1     ecut=    60.00 Ry     beta= 0.30
     Davidson diagonalization with overlap

---- Real-time Memory Report at c_bands before calling an iterative solver
           674 MiB given to the printing process from OS
             0 MiB allocation reported by mallinfo(arena+hblkhd)
       1361302 MiB available memory on the node where the printing process lives
     GPU memory used/free/total (MiB): 1002 / 80148 / 81151
------------------
     ethr =  1.00E-02,  avg # of iterations =  8.8

     total cpu time spent up to now is        6.3 secs

     total energy              =    -572.84623951 Ry
     estimated scf accuracy    <       1.52012125 Ry

     total magnetization       =     4.00 Bohr mag/cell
     absolute magnetization    =     4.00 Bohr mag/cell
[tb_dev] Currently allocated     3.05E-05 Mbytes, locked:    0 /   2
[tb_pin] Currently allocated     0.00E+00 Mbytes, locked:    0 /   0

     iteration #  2     ecut=    60.00 Ry     beta= 0.30
     Davidson diagonalization with overlap

---- Real-time Memory Report at c_bands before calling an iterative solver
           716 MiB given to the printing process from OS
             0 MiB allocation reported by mallinfo(arena+hblkhd)
       1359239 MiB available memory on the node where the printing process lives
     GPU memory used/free/total (MiB): 1018 / 80132 / 81151
------------------
     ethr =  4.00E-03,  avg # of iterations =  2.0

     total cpu time spent up to now is        7.6 secs

     total energy              =    -572.79368490 Ry
     estimated scf accuracy    <       0.53389024 Ry

     total magnetization       =     4.03 Bohr mag/cell
     absolute magnetization    =     4.03 Bohr mag/cell
[tb_dev] Currently allocated     3.05E-05 Mbytes, locked:    0 /   2
[tb_pin] Currently allocated     0.00E+00 Mbytes, locked:    0 /   0

     iteration #  3     ecut=    60.00 Ry     beta= 0.30
     Davidson diagonalization with overlap

---- Real-time Memory Report at c_bands before calling an iterative solver
           719 MiB given to the printing process from OS
             0 MiB allocation reported by mallinfo(arena+hblkhd)
       1358004 MiB available memory on the node where the printing process lives
     GPU memory used/free/total (MiB): 1018 / 80132 / 81151
------------------
     ethr =  1.40E-03,  avg # of iterations =  3.2

     total cpu time spent up to now is        9.1 secs

     total energy              =    -573.05268980 Ry
     estimated scf accuracy    <       1.16851190 Ry

     total magnetization       =     1.47 Bohr mag/cell
     absolute magnetization    =     1.64 Bohr mag/cell
[tb_dev] Currently allocated     3.05E-05 Mbytes, locked:    0 /   2
[tb_pin] Currently allocated     0.00E+00 Mbytes, locked:    0 /   0

     iteration #  4     ecut=    60.00 Ry     beta= 0.30
     Davidson diagonalization with overlap

---- Real-time Memory Report at c_bands before calling an iterative solver
           721 MiB given to the printing process from OS
             0 MiB allocation reported by mallinfo(arena+hblkhd)
       1356822 MiB available memory on the node where the printing process lives
     GPU memory used/free/total (MiB): 1018 / 80132 / 81151
------------------
     ethr =  1.40E-03,  avg # of iterations =  1.7

     total cpu time spent up to now is       10.4 secs

     total energy              =    -573.06489316 Ry
     estimated scf accuracy    <       2.17177114 Ry

     total magnetization       =     0.96 Bohr mag/cell
     absolute magnetization    =     1.30 Bohr mag/cell
[tb_dev] Currently allocated     3.05E-05 Mbytes, locked:    0 /   2
[tb_pin] Currently allocated     0.00E+00 Mbytes, locked:    0 /   0

     iteration #  5     ecut=    60.00 Ry     beta= 0.30
     Davidson diagonalization with overlap

---- Real-time Memory Report at c_bands before calling an iterative solver
           722 MiB given to the printing process from OS
             0 MiB allocation reported by mallinfo(arena+hblkhd)
       1356349 MiB available memory on the node where the printing process lives
     GPU memory used/free/total (MiB): 1018 / 80132 / 81151
------------------
     ethr =  1.40E-03,  avg # of iterations =  1.5

     total cpu time spent up to now is       11.7 secs

     total energy              =    -572.95550339 Ry
     estimated scf accuracy    <       1.72096854 Ry

     total magnetization       =     0.81 Bohr mag/cell
     absolute magnetization    =     1.21 Bohr mag/cell
[tb_dev] Currently allocated     3.05E-05 Mbytes, locked:    0 /   2
[tb_pin] Currently allocated     0.00E+00 Mbytes, locked:    0 /   0

     iteration #  6     ecut=    60.00 Ry     beta= 0.30
     Davidson diagonalization with overlap

---- Real-time Memory Report at c_bands before calling an iterative solver
           722 MiB given to the printing process from OS
             0 MiB allocation reported by mallinfo(arena+hblkhd)
       1355032 MiB available memory on the node where the printing process lives
     GPU memory used/free/total (MiB): 1018 / 80132 / 81151
------------------
     ethr =  1.40E-03,  avg # of iterations =  1.4

     total cpu time spent up to now is       13.0 secs

     total energy              =    -572.99003674 Ry
     estimated scf accuracy    <       0.46521325 Ry

     total magnetization       =     0.60 Bohr mag/cell
     absolute magnetization    =     1.02 Bohr mag/cell
[tb_dev] Currently allocated     3.05E-05 Mbytes, locked:    0 /   2
[tb_pin] Currently allocated     0.00E+00 Mbytes, locked:    0 /   0

     iteration #  7     ecut=    60.00 Ry     beta= 0.30
     Davidson diagonalization with overlap

---- Real-time Memory Report at c_bands before calling an iterative solver
           725 MiB given to the printing process from OS
             0 MiB allocation reported by mallinfo(arena+hblkhd)
       1354005 MiB available memory on the node where the printing process lives
     GPU memory used/free/total (MiB): 1018 / 80132 / 81151
------------------
     ethr =  1.22E-03,  avg # of iterations =  1.9

     total cpu time spent up to now is       14.3 secs

     total energy              =    -573.03360713 Ry
     estimated scf accuracy    <       0.14955105 Ry

     total magnetization       =     0.01 Bohr mag/cell
     absolute magnetization    =     0.49 Bohr mag/cell
[tb_dev] Currently allocated     3.05E-05 Mbytes, locked:    0 /   2
[tb_pin] Currently allocated     0.00E+00 Mbytes, locked:    0 /   0

     iteration #  8     ecut=    60.00 Ry     beta= 0.30
     Davidson diagonalization with overlap

---- Real-time Memory Report at c_bands before calling an iterative solver
           728 MiB given to the printing process from OS
             0 MiB allocation reported by mallinfo(arena+hblkhd)
       1353411 MiB available memory on the node where the printing process lives
     GPU memory used/free/total (MiB): 1018 / 80132 / 81151
------------------
     ethr =  3.94E-04,  avg # of iterations =  4.6

     total cpu time spent up to now is       15.9 secs

     total energy              =    -573.00682857 Ry
     estimated scf accuracy    <       0.14118923 Ry

     total magnetization       =     0.00 Bohr mag/cell
     absolute magnetization    =     0.21 Bohr mag/cell
[tb_dev] Currently allocated     3.05E-05 Mbytes, locked:    0 /   2
[tb_pin] Currently allocated     0.00E+00 Mbytes, locked:    0 /   0

     iteration #  9     ecut=    60.00 Ry     beta= 0.30
     Davidson diagonalization with overlap

---- Real-time Memory Report at c_bands before calling an iterative solver
           730 MiB given to the printing process from OS
             0 MiB allocation reported by mallinfo(arena+hblkhd)
       1351626 MiB available memory on the node where the printing process lives
     GPU memory used/free/total (MiB): 1018 / 80132 / 81151
------------------
     ethr =  3.72E-04,  avg # of iterations =  1.5
     Minimization algorithm failed to find Fermi energy: reverting to bisection
     Possible cause: smearing is larger than the electronic band-gap.

     total cpu time spent up to now is       17.2 secs

     total energy              =    -573.02253130 Ry
     estimated scf accuracy    <       0.00522567 Ry

     total magnetization       =    -0.13 Bohr mag/cell
     absolute magnetization    =     0.15 Bohr mag/cell
[tb_dev] Currently allocated     3.05E-05 Mbytes, locked:    0 /   2
[tb_pin] Currently allocated     0.00E+00 Mbytes, locked:    0 /   0

     iteration # 10     ecut=    60.00 Ry     beta= 0.30
     Davidson diagonalization with overlap

---- Real-time Memory Report at c_bands before calling an iterative solver
           730 MiB given to the printing process from OS
             0 MiB allocation reported by mallinfo(arena+hblkhd)
       1349408 MiB available memory on the node where the printing process lives
     GPU memory used/free/total (MiB): 1018 / 80132 / 81151
------------------
     c_bands:  1 eigenvalues not converged
     c_bands:  1 eigenvalues not converged
     c_bands:  1 eigenvalues not converged
     c_bands:  1 eigenvalues not converged
     c_bands:  2 eigenvalues not converged
     c_bands:  1 eigenvalues not converged
     c_bands:  1 eigenvalues not converged
     c_bands:  1 eigenvalues not converged
     c_bands:  1 eigenvalues not converged
     c_bands:  1 eigenvalues not converged
     c_bands:  1 eigenvalues not converged
     c_bands:  1 eigenvalues not converged
     c_bands:  1 eigenvalues not converged
     c_bands:  1 eigenvalues not converged
     c_bands:  1 eigenvalues not converged
     c_bands:  1 eigenvalues not converged
     c_bands:  1 eigenvalues not converged
     c_bands:  1 eigenvalues not converged
     c_bands:  1 eigenvalues not converged
     c_bands:  1 eigenvalues not converged
     c_bands:  1 eigenvalues not converged
     c_bands:  1 eigenvalues not converged
     c_bands:  1 eigenvalues not converged
     c_bands:  1 eigenvalues not converged
     ethr =  1.38E-05,  avg # of iterations = 15.7
     Minimization algorithm failed to find Fermi energy: reverting to bisection
     Possible cause: smearing is larger than the electronic band-gap.

     total cpu time spent up to now is       20.2 secs

     total energy              =    -573.02556937 Ry
     estimated scf accuracy    <       0.00364084 Ry

     total magnetization       =    -0.14 Bohr mag/cell
     absolute magnetization    =     0.15 Bohr mag/cell
[tb_dev] Currently allocated     3.05E-05 Mbytes, locked:    0 /   2
[tb_pin] Currently allocated     0.00E+00 Mbytes, locked:    0 /   0

     iteration # 11     ecut=    60.00 Ry     beta= 0.30
     Davidson diagonalization with overlap

---- Real-time Memory Report at c_bands before calling an iterative solver
           730 MiB given to the printing process from OS
             0 MiB allocation reported by mallinfo(arena+hblkhd)
       1344248 MiB available memory on the node where the printing process lives
     GPU memory used/free/total (MiB): 1018 / 80132 / 81151
------------------
     ethr =  9.58E-06,  avg # of iterations =  4.0
     Minimization algorithm failed to find Fermi energy: reverting to bisection
     Possible cause: smearing is larger than the electronic band-gap.

     total cpu time spent up to now is       21.7 secs

     total energy              =    -573.02657378 Ry
     estimated scf accuracy    <       0.00337701 Ry

     total magnetization       =    -0.12 Bohr mag/cell
     absolute magnetization    =     0.15 Bohr mag/cell
[tb_dev] Currently allocated     3.05E-05 Mbytes, locked:    0 /   2
[tb_pin] Currently allocated     0.00E+00 Mbytes, locked:    0 /   0

     iteration # 12     ecut=    60.00 Ry     beta= 0.30
     Davidson diagonalization with overlap

---- Real-time Memory Report at c_bands before calling an iterative solver
           731 MiB given to the printing process from OS
             0 MiB allocation reported by mallinfo(arena+hblkhd)
       1341116 MiB available memory on the node where the printing process lives
     GPU memory used/free/total (MiB): 1018 / 80132 / 81151
------------------
     ethr =  8.89E-06,  avg # of iterations =  1.5
     Minimization algorithm failed to find Fermi energy: reverting to bisection
     Possible cause: smearing is larger than the electronic band-gap.

     total cpu time spent up to now is       23.0 secs

     total energy              =    -573.02652256 Ry
     estimated scf accuracy    <       0.00053745 Ry

     total magnetization       =    -0.11 Bohr mag/cell
     absolute magnetization    =     0.12 Bohr mag/cell
[tb_dev] Currently allocated     3.05E-05 Mbytes, locked:    0 /   2
[tb_pin] Currently allocated     0.00E+00 Mbytes, locked:    0 /   0

     iteration # 13     ecut=    60.00 Ry     beta= 0.30
     Davidson diagonalization with overlap

---- Real-time Memory Report at c_bands before calling an iterative solver
           731 MiB given to the printing process from OS
             0 MiB allocation reported by mallinfo(arena+hblkhd)
       1360900 MiB available memory on the node where the printing process lives
     GPU memory used/free/total (MiB): 1018 / 80132 / 81151
------------------
     ethr =  1.41E-06,  avg # of iterations =  5.2
     Minimization algorithm failed to find Fermi energy: reverting to bisection
     Possible cause: smearing is larger than the electronic band-gap.

     total cpu time spent up to now is       24.7 secs

     total energy              =    -573.02666810 Ry
     estimated scf accuracy    <       0.00014716 Ry

     total magnetization       =    -0.17 Bohr mag/cell
     absolute magnetization    =     0.17 Bohr mag/cell
[tb_dev] Currently allocated     3.05E-05 Mbytes, locked:    0 /   2
[tb_pin] Currently allocated     0.00E+00 Mbytes, locked:    0 /   0

     iteration # 14     ecut=    60.00 Ry     beta= 0.30
     Davidson diagonalization with overlap

---- Real-time Memory Report at c_bands before calling an iterative solver
           731 MiB given to the printing process from OS
             0 MiB allocation reported by mallinfo(arena+hblkhd)
       1359404 MiB available memory on the node where the printing process lives
     GPU memory used/free/total (MiB): 1018 / 80132 / 81151
------------------
     ethr =  3.87E-07,  avg # of iterations =  2.9
     Minimization algorithm failed to find Fermi energy: reverting to bisection
     Possible cause: smearing is larger than the electronic band-gap.

     total cpu time spent up to now is       26.1 secs

     total energy              =    -573.02667157 Ry
     estimated scf accuracy    <       0.00017689 Ry

     total magnetization       =    -0.16 Bohr mag/cell
     absolute magnetization    =     0.17 Bohr mag/cell
[tb_dev] Currently allocated     3.05E-05 Mbytes, locked:    0 /   2
[tb_pin] Currently allocated     0.00E+00 Mbytes, locked:    0 /   0

     iteration # 15     ecut=    60.00 Ry     beta= 0.30
     Davidson diagonalization with overlap

---- Real-time Memory Report at c_bands before calling an iterative solver
           731 MiB given to the printing process from OS
             0 MiB allocation reported by mallinfo(arena+hblkhd)
       1358217 MiB available memory on the node where the printing process lives
     GPU memory used/free/total (MiB): 1018 / 80132 / 81151
------------------
     ethr =  3.87E-07,  avg # of iterations =  1.5
     Minimization algorithm failed to find Fermi energy: reverting to bisection
     Possible cause: smearing is larger than the electronic band-gap.

     total cpu time spent up to now is       27.4 secs

     total energy              =    -573.02667936 Ry
     estimated scf accuracy    <       0.00004414 Ry

     total magnetization       =    -0.18 Bohr mag/cell
     absolute magnetization    =     0.18 Bohr mag/cell
[tb_dev] Currently allocated     3.05E-05 Mbytes, locked:    0 /   2
[tb_pin] Currently allocated     0.00E+00 Mbytes, locked:    0 /   0

     iteration # 16     ecut=    60.00 Ry     beta= 0.30
     Davidson diagonalization with overlap

---- Real-time Memory Report at c_bands before calling an iterative solver
           731 MiB given to the printing process from OS
             0 MiB allocation reported by mallinfo(arena+hblkhd)
       1357185 MiB available memory on the node where the printing process lives
     GPU memory used/free/total (MiB): 1018 / 80132 / 81151
------------------
     ethr =  1.16E-07,  avg # of iterations =  5.1
     Minimization algorithm failed to find Fermi energy: reverting to bisection
     Possible cause: smearing is larger than the electronic band-gap.

     total cpu time spent up to now is       29.1 secs

     total energy              =    -573.02670130 Ry
     estimated scf accuracy    <       0.00000859 Ry

     total magnetization       =    -0.19 Bohr mag/cell
     absolute magnetization    =     0.19 Bohr mag/cell
[tb_dev] Currently allocated     3.05E-05 Mbytes, locked:    0 /   2
[tb_pin] Currently allocated     0.00E+00 Mbytes, locked:    0 /   0

     iteration # 17     ecut=    60.00 Ry     beta= 0.30
     Davidson diagonalization with overlap

---- Real-time Memory Report at c_bands before calling an iterative solver
           731 MiB given to the printing process from OS
             0 MiB allocation reported by mallinfo(arena+hblkhd)
       1355857 MiB available memory on the node where the printing process lives
     GPU memory used/free/total (MiB): 1018 / 80132 / 81151
------------------
     ethr =  2.26E-08,  avg # of iterations =  4.7
     Minimization algorithm failed to find Fermi energy: reverting to bisection
     Possible cause: smearing is larger than the electronic band-gap.

     total cpu time spent up to now is       30.7 secs

     total energy              =    -573.02670332 Ry
     estimated scf accuracy    <       0.00000318 Ry

     total magnetization       =    -0.19 Bohr mag/cell
     absolute magnetization    =     0.19 Bohr mag/cell
[tb_dev] Currently allocated     3.05E-05 Mbytes, locked:    0 /   2
[tb_pin] Currently allocated     0.00E+00 Mbytes, locked:    0 /   0

     iteration # 18     ecut=    60.00 Ry     beta= 0.30
     Davidson diagonalization with overlap

---- Real-time Memory Report at c_bands before calling an iterative solver
           731 MiB given to the printing process from OS
             0 MiB allocation reported by mallinfo(arena+hblkhd)
       1354332 MiB available memory on the node where the printing process lives
     GPU memory used/free/total (MiB): 1018 / 80132 / 81151
------------------
     ethr =  8.37E-09,  avg # of iterations =  2.6
     Minimization algorithm failed to find Fermi energy: reverting to bisection
     Possible cause: smearing is larger than the electronic band-gap.

     total cpu time spent up to now is       32.1 secs

     total energy              =    -573.02670369 Ry
     estimated scf accuracy    <       0.00000099 Ry

     total magnetization       =    -0.19 Bohr mag/cell
     absolute magnetization    =     0.19 Bohr mag/cell
[tb_dev] Currently allocated     3.05E-05 Mbytes, locked:    0 /   2
[tb_pin] Currently allocated     0.00E+00 Mbytes, locked:    0 /   0

     iteration # 19     ecut=    60.00 Ry     beta= 0.30
     Davidson diagonalization with overlap

---- Real-time Memory Report at c_bands before calling an iterative solver
           731 MiB given to the printing process from OS
             0 MiB allocation reported by mallinfo(arena+hblkhd)
       1352937 MiB available memory on the node where the printing process lives
     GPU memory used/free/total (MiB): 1018 / 80132 / 81151
------------------
     ethr =  2.60E-09,  avg # of iterations =  4.4
     Minimization algorithm failed to find Fermi energy: reverting to bisection
     Possible cause: smearing is larger than the electronic band-gap.

     total cpu time spent up to now is       33.7 secs

     total energy              =    -573.02670396 Ry
     estimated scf accuracy    <       0.00000054 Ry

     total magnetization       =    -0.19 Bohr mag/cell
     absolute magnetization    =     0.19 Bohr mag/cell
[tb_dev] Currently allocated     3.05E-05 Mbytes, locked:    0 /   2
[tb_pin] Currently allocated     0.00E+00 Mbytes, locked:    0 /   0

     iteration # 20     ecut=    60.00 Ry     beta= 0.30
     Davidson diagonalization with overlap

---- Real-time Memory Report at c_bands before calling an iterative solver
           731 MiB given to the printing process from OS
             0 MiB allocation reported by mallinfo(arena+hblkhd)
       1351580 MiB available memory on the node where the printing process lives
     GPU memory used/free/total (MiB): 1018 / 80132 / 81151
------------------
     ethr =  1.42E-09,  avg # of iterations =  2.5
     Minimization algorithm failed to find Fermi energy: reverting to bisection
     Possible cause: smearing is larger than the electronic band-gap.

     total cpu time spent up to now is       35.1 secs

     total energy              =    -573.02670415 Ry
     estimated scf accuracy    <       0.00000017 Ry

     total magnetization       =    -0.19 Bohr mag/cell
     absolute magnetization    =     0.19 Bohr mag/cell
[tb_dev] Currently allocated     3.05E-05 Mbytes, locked:    0 /   2
[tb_pin] Currently allocated     0.00E+00 Mbytes, locked:    0 /   0

     iteration # 21     ecut=    60.00 Ry     beta= 0.30
     Davidson diagonalization with overlap

---- Real-time Memory Report at c_bands before calling an iterative solver
           731 MiB given to the printing process from OS
             0 MiB allocation reported by mallinfo(arena+hblkhd)
       1348974 MiB available memory on the node where the printing process lives
     GPU memory used/free/total (MiB): 1018 / 80132 / 81151
------------------
     ethr =  4.37E-10,  avg # of iterations =  2.4
     Minimization algorithm failed to find Fermi energy: reverting to bisection
     Possible cause: smearing is larger than the electronic band-gap.
 
     Magnetic moment per site  (integrated on atomic sphere of radius R)
     atom   1 (R=0.275)  charge= 14.1752  magn= -0.1496
     atom   2 (R=0.275)  charge=  5.2512  magn= -0.0106
     atom   3 (R=0.275)  charge=  5.3253  magn= -0.0100
     atom   4 (R=0.370)  charge=  7.4235  magn= -0.0001

     total cpu time spent up to now is       36.5 secs

     End of self-consistent calculation

 ------ SPIN UP ------------


          k = 0.0000 0.0000 0.0000 (  2625 PWs)   bands (ev):

   -84.2082 -47.4862 -47.4862 -47.4044 -22.9367  -9.2565  -7.5109  -5.5674
    -4.9430  -4.9430   4.5236   5.5139   5.5139   8.0240   8.6686   8.6686
     9.7364   9.7364  10.3845  11.5620  13.0285  13.0286  14.0905  15.5600
    15.5600  17.8446  19.0268

     occupation numbers 
     1.0000   1.0000   1.0000   1.0000   1.0000   1.0000   1.0000   1.0000
     1.0000   1.0000   1.0000   1.0000   1.0000   1.0000   1.0000   1.0000
     1.0000   1.0000   1.0762   0.0000   0.0000   0.0000   0.0000   0.0000
     0.0000   0.0000   0.0000

          k = 0.0000 0.0000 0.1401 (  2690 PWs)   bands (ev):

   -84.2083 -47.4865 -47.4865 -47.4047 -22.9367  -9.2901  -7.4049  -5.6594
    -4.9430  -4.9430   4.7149   5.5153   5.5153   7.6061   8.6626   8.6626
     9.7371   9.7371  10.6340  11.5668  13.0408  13.0408  14.3375  15.5495
    15.5495  17.1783  19.0231

     occupation numbers 
     1.0000   1.0000   1.0000   1.0000   1.0000   1.0000   1.0000   1.0000
     1.0000   1.0000   1.0000   1.0000   1.0000   1.0000   1.0000   1.0000
     1.0000   1.0000   0.8871   0.0000   0.0000   0.0000   0.0000   0.0000
     0.0000   0.0000   0.0000

          k = 0.0000 0.1443 0.0000 (  2661 PWs)   bands (ev):

   -84.2075 -47.4946 -47.4883 -47.4033 -22.8492  -9.0982  -7.4554  -5.5794
    -5.3494  -5.0344   4.7336   5.2800   5.6033   7.6385   8.2309   8.3326
     9.9536  10.0976  10.5944  12.0052  12.6049  12.9393  14.4295  14.9867
    16.0980  17.3588  19.3147

     occupation numbers 
     1.0000   1.0000   1.0000   1.0000   1.0000   1.0000   1.0000   1.0000
     1.0000   1.0000   1.0000   1.0000   1.0000   1.0000   1.0000   1.0000
     1.0006   1.0060   0.9629   0.0000   0.0000   0.0000   0.0000   0.0000
     0.0000   0.0000   0.0000

          k = 0.0000 0.1443 0.1401 (  2670 PWs)   bands (ev):

   -84.2076 -47.4946 -47.4884 -47.4034 -22.8492  -9.1281  -7.3678  -5.6472
    -5.3529  -5.0344   4.8716   5.2428   5.6053   7.6653   8.0887   8.2261
     9.9417  10.0968  10.7532  11.9260  12.6551  12.9465  14.5575  14.9962
    16.0969  17.2347  18.8982

     occupation numbers 
     1.0000   1.0000   1.0000   1.0000   1.0000   1.0000   1.0000   1.0000
     1.0000   1.0000   1.0000   1.0000   1.0000   1.0000   1.0000   1.0000
     1.0005   1.0059   0.5815   0.0000   0.0000   0.0000   0.0000   0.0000
     0.0000   0.0000   0.0000

          k = 0.0000 0.2887 0.0000 (  2664 PWs)   bands (ev):

   -84.2058 -47.5145 -47.4931 -47.4004 -22.6291  -8.7003  -7.3369  -6.3232
    -5.5015  -5.2468   4.8452   5.1849   5.8104   6.3367   7.6501   8.3704
    10.0341  10.4118  10.7278  12.0301  12.5249  12.8202  14.2156  15.5572
    16.7439  17.5899  18.4919

     occupation numbers 
     1.0000   1.0000   1.0000   1.0000   1.0000   1.0000   1.0000   1.0000
     1.0000   1.0000   1.0000   1.0000   1.0000   1.0000   1.0000   1.0000
     1.0024   1.0816   0.6517   0.0000   0.0000   0.0000   0.0000   0.0000
     0.0000   0.0000   0.0000

          k = 0.0000 0.2887 0.1401 (  2656 PWs)   bands (ev):

   -84.2058 -47.5144 -47.4931 -47.4003 -22.6290  -8.7186  -7.2988  -6.3113
    -5.5374  -5.2468   4.7901   5.2336   5.8135   6.4065   7.6446   8.3305
    10.0373  10.4097  10.7630  11.7361  12.7595  12.8292  14.1560  15.5163
    16.9722  17.5947  18.4807

     occupation numbers 
     1.0000   1.0000   1.0000   1.0000   1.0000   1.0000   1.0000   1.0000
     1.0000   1.0000   1.0000   1.0000   1.0000   1.0000   1.0000   1.0000
     1.0025   1.0813   0.5543   0.0000   0.0000   0.0000   0.0000   0.0000
     0.0000   0.0000   0.0000

          k = 0.0000 0.4330 0.0000 (  2668 PWs)   bands (ev):

   -84.2041 -47.5342 -47.4980 -47.3973 -22.3950  -8.3332  -7.2824  -7.0286
    -5.4650  -5.4488   4.1849   5.2030   5.9699   6.3222   7.3495   7.8681
     9.9304  10.3605  10.6017  11.7393  12.2475  12.8480  14.0417  16.8693
    17.4583  18.1318  19.5906

     occupation numbers 
     1.0000   1.0000   1.0000   1.0000   1.0000   1.0000   1.0000   1.0000
     1.0000   1.0000   1.0000   1.0000   1.0000   1.0000   1.0000   1.0000
     1.0004   1.0694   0.9503   0.0000   0.0000   0.0000   0.0000   0.0000
     0.0000   0.0000   0.0000

          k = 0.0000 0.4330 0.1401 (  2668 PWs)   bands (ev):

   -84.2041 -47.5342 -47.4979 -47.3974 -22.3950  -8.3368  -7.2958  -7.0051
    -5.4721  -5.4488   4.2287   5.1378   5.9755   6.3891   7.3399   7.7788
     9.9748  10.3596  10.5867  11.6555  12.4563  12.8640  13.9052  16.7883
    17.4970  18.1043  19.5942

     occupation numbers 
     1.0000   1.0000   1.0000   1.0000   1.0000   1.0000   1.0000   1.0000
     1.0000   1.0000   1.0000   1.0000   1.0000   1.0000   1.0000   1.0000
     1.0009   1.0691   0.9755   0.0000   0.0000   0.0000   0.0000   0.0000
     0.0000   0.0000   0.0000

          k = 0.0000-0.5774 0.0000 (  2658 PWs)   bands (ev):

   -84.2033 -47.5424 -47.4999 -47.3960 -22.2934  -8.2763  -7.2716  -7.1816
    -5.5297  -5.4473   3.7732   5.2771   6.0039   6.4944   7.3017   7.6033
     9.8164  10.2658  10.5125  11.4574  12.3206  12.8925  13.9035  17.1299
    18.0047  18.5267  20.7141

     occupation numbers 
     1.0000   1.0000   1.0000   1.0000   1.0000   1.0000   1.0000   1.0000
     1.0000   1.0000   1.0000   1.0000   1.0000   1.0000   1.0000   1.0000
     1.0000   1.0378   1.0593   0.0000   0.0000   0.0000   0.0000   0.0000
     0.0000   0.0000   0.0000

          k = 0.0000-0.5774 0.1401 (  2664 PWs)   bands (ev):

   -84.2033 -47.5425 -47.4999 -47.3961 -22.2934  -8.2739  -7.2882  -7.1706
    -5.5297  -5.4441   3.8215   5.2060   6.0094   6.5867   7.2919   7.4477
     9.8634  10.2660  10.5253  11.5090  12.4643  12.9099  13.7879  16.7822
    17.9694  18.5255  21.3984

     occupation numbers 
     1.0000   1.0000   1.0000   1.0000   1.0000   1.0000   1.0000   1.0000
     1.0000   1.0000   1.0000   1.0000   1.0000   1.0000   1.0000   1.0000
     1.0001   1.0379   1.0496   0.0000   0.0000   0.0000   0.0000   0.0000
     0.0000   0.0000   0.0000

          k = 0.1250 0.2165 0.0000 (  2673 PWs)   bands (ev):

   -84.2063 -47.5078 -47.4926 -47.4013 -22.6950  -8.8187  -7.3673  -6.0228
    -5.5094  -5.2420   4.9772   5.1078   5.7089   6.7328   7.5733   8.4700
    10.1037  10.3825  10.7231  12.2711  12.5164  12.9308  14.1470  14.8718
    16.8583  17.4007  18.3766

     occupation numbers 
     1.0000   1.0000   1.0000   1.0000   1.0000   1.0000   1.0000   1.0000
     1.0000   1.0000   1.0000   1.0000   1.0000   1.0000   1.0000   1.0000
     1.0065   1.0757   0.6648   0.0000   0.0000   0.0000   0.0000   0.0000
     0.0000   0.0000   0.0000

          k = 0.1250 0.2165 0.1401 (  2654 PWs)   bands (ev):

   -84.2063 -47.5077 -47.4926 -47.4012 -22.6949  -8.8401  -7.3163  -6.0145
    -5.5517  -5.2430   4.9256   5.1504   5.7069   6.8210   7.5758   8.4263
    10.0966  10.3599  10.7609  12.0099  12.6197  13.0285  14.1577  14.8202
    16.9800  17.4140  18.3868

     occupation numbers 
     1.0000   1.0000   1.0000   1.0000   1.0000   1.0000   1.0000   1.0000
     1.0000   1.0000   1.0000   1.0000   1.0000   1.0000   1.0000   1.0000
     1.0059   1.0693   0.5602   0.0000   0.0000   0.0000   0.0000   0.0000
     0.0000   0.0000   0.0000

          k = 0.1250 0.3608 0.0000 (  2648 PWs)   bands (ev):

   -84.2045 -47.5254 -47.4993 -47.3982 -22.4657  -8.4206  -7.2667  -6.7536
    -5.5771  -5.4625   4.6555   5.1254   5.8934   6.2143   7.1022   8.1488
    10.1259  10.4766  10.6319  12.1279  12.5289  12.8836  14.0539  15.6485
    16.8835  17.7252  19.4532

     occupation numbers 
     1.0000   1.0000   1.0000   1.0000   1.0000   1.0000   1.0000   1.0000
     1.0000   1.0000   1.0000   1.0000   1.0000   1.0000   1.0000   1.0000
     1.0087   1.0772   0.8917   0.0000   0.0000   0.0000   0.0000   0.0000
     0.0000   0.0000   0.0000

          k = 0.1250 0.3608 0.1401 (  2658 PWs)   bands (ev):

   -84.2046 -47.5255 -47.4994 -47.3982 -22.4657  -8.4273  -7.2713  -6.7285
    -5.5770  -5.4770   4.6505   5.1041   5.8779   6.2824   7.0993   8.1575
    10.1327  10.4853  10.6195  11.9700  12.4844  13.0246  14.0642  15.6037
    16.8882  17.7891  19.4667

     occupation numbers 
     1.0000   1.0000   1.0000   1.0000   1.0000   1.0000   1.0000   1.0000
     1.0000   1.0000   1.0000   1.0000   1.0000   1.0000   1.0000   1.0000
     1.0094   1.0740   0.9170   0.0000   0.0000   0.0000   0.0000   0.0000
     0.0000   0.0000   0.0000

          k = 0.1250 0.5052 0.0000 (  2661 PWs)   bands (ev):

   -84.2033 -47.5380 -47.5043 -47.3961 -22.2947  -8.2183  -7.2245  -7.1124
    -5.7818  -5.4400   4.0511   5.1219   5.9655   6.5636   6.8940   7.6716
     9.9765  10.3346  10.5718  12.0032  12.5314  12.6569  14.0002  16.7822
    17.2695  17.7103  20.9257

     occupation numbers 
     1.0000   1.0000   1.0000   1.0000   1.0000   1.0000   1.0000   1.0000
     1.0000   1.0000   1.0000   1.0000   1.0000   1.0000   1.0000   1.0000
     1.0009   1.0610   0.9977   0.0000   0.0000   0.0000   0.0000   0.0000
     0.0000   0.0000   0.0000

          k = 0.1250 0.5052 0.1401 (  2664 PWs)   bands (ev):

   -84.2033 -47.5380 -47.5043 -47.3961 -22.2947  -8.2178  -7.2366  -7.1011
    -5.7820  -5.4404   4.1022   5.0898   5.9619   6.6074   6.8803   7.5634
    10.0155  10.3274  10.5847  12.0180  12.5151  12.6883  14.0430  16.6711
    17.1759  17.7394  20.9776

     occupation numbers 
     1.0000   1.0000   1.0000   1.0000   1.0000   1.0000   1.0000   1.0000
     1.0000   1.0000   1.0000   1.0000   1.0000   1.0000   1.0000   1.0000
     1.0018   1.0585   0.9786   0.0000   0.0000   0.0000   0.0000   0.0000
     0.0000   0.0000   0.0000

          k = 0.2500 0.4330 0.0000 (  2661 PWs)   bands (ev):

   -84.2033 -47.5318 -47.5105 -47.3961 -22.2960  -8.1685  -7.1693  -6.9668
    -6.1077  -5.4334   4.5218   4.9106   5.7125   6.4457   6.8143   7.7207
    10.1130  10.3781  10.6518  12.2655  12.3988  13.5703  14.0616  15.6111
    16.5463  17.4024  21.1730

     occupation numbers 
     1.0000   1.0000   1.0000   1.0000   1.0000   1.0000   1.0000   1.0000
     1.0000   1.0000   1.0000   1.0000   1.0000   1.0000   1.0000   1.0000
     1.0073   1.0745   0.8475   0.0000   0.0000   0.0000   0.0000   0.0000
     0.0000   0.0000   0.0000

          k = 0.2500 0.4330 0.1401 (  2664 PWs)   bands (ev):

   -84.2033 -47.5318 -47.5104 -47.3962 -22.2959  -8.1648  -7.2110  -6.9255
    -6.1102  -5.4347   4.5352   4.9304   5.7277   6.4155   6.7780   7.7385
    10.1086  10.3714  10.6927  12.0958  12.3888  13.6600  14.1326  15.6064
    16.5568  17.3341  21.2798

     occupation numbers 
     1.0000   1.0000   1.0000   1.0000   1.0000   1.0000   1.0000   1.0000
     1.0000   1.0000   1.0000   1.0000   1.0000   1.0000   1.0000   1.0000
     1.0069   1.0727   0.7465   0.0000   0.0000   0.0000   0.0000   0.0000
     0.0000   0.0000   0.0000

          k = 0.2500 0.5774 0.0000 (  2661 PWs)   bands (ev):

   -84.2028 -47.5323 -47.5171 -47.3952 -22.2236  -8.0710  -7.1256  -6.9868
    -6.3881  -5.4174   4.3902   4.9619   5.4746   6.5406   6.9582   7.3954
     9.9463  10.4954  10.6330  12.2791  12.3822  13.7084  14.2394  15.5847
    16.5809  17.4896  21.7291

     occupation numbers 
     1.0000   1.0000   1.0000   1.0000   1.0000   1.0000   1.0000   1.0000
     1.0000   1.0000   1.0000   1.0000   1.0000   1.0000   1.0000   1.0000
     1.0005   1.0695   0.8892   0.0000   0.0000   0.0000   0.0000   0.0000
     0.0000   0.0000   0.0000

          k = 0.2500 0.5774 0.1401 (  2673 PWs)   bands (ev):

   -84.2029 -47.5323 -47.5172 -47.3953 -22.2236  -8.0695  -7.1309  -6.9825
    -6.3903  -5.4178   4.4245   4.9866   5.5114   6.4974   6.9220   7.3381
     9.9629  10.4880  10.6702  12.1547  12.3417  13.7087  14.4047  15.6288
    16.6559  17.3615  21.9704

     occupation numbers 
     1.0000   1.0000   1.0000   1.0000   1.0000   1.0000   1.0000   1.0000
     1.0000   1.0000   1.0000   1.0000   1.0000   1.0000   1.0000   1.0000
     1.0007   1.0729   0.8036   0.0000   0.0000   0.0000   0.0000   0.0000
     0.0000   0.0000   0.0000

          k = 0.0000-0.1443 0.1401 (  2670 PWs)   bands (ev):

   -84.2076 -47.4946 -47.4884 -47.4034 -22.8492  -9.1279  -7.3687  -5.6475
    -5.3514  -5.0344   4.8729   5.2320   5.6040   7.6407   8.1421   8.2297
     9.9331  10.0956  10.7310  11.9805  12.6226  12.9473  14.5156  15.0016
    16.0893  17.2318  18.9804

     occupation numbers 
     1.0000   1.0000   1.0000   1.0000   1.0000   1.0000   1.0000   1.0000
     1.0000   1.0000   1.0000   1.0000   1.0000   1.0000   1.0000   1.0000
     1.0004   1.0058   0.6430   0.0000   0.0000   0.0000   0.0000   0.0000
     0.0000   0.0000   0.0000

          k = 0.0000-0.2887 0.1401 (  2656 PWs)   bands (ev):

   -84.2058 -47.5144 -47.4931 -47.4003 -22.6290  -8.7160  -7.3095  -6.3046
    -5.5336  -5.2468   4.7863   5.1613   5.8104   6.4598   7.6510   8.4260
    10.0101  10.4091  10.7135  11.8563  12.6446  12.8244  14.1474  15.5037
    16.8074  17.5881  18.4849

     occupation numbers 
     1.0000   1.0000   1.0000   1.0000   1.0000   1.0000   1.0000   1.0000
     1.0000   1.0000   1.0000   1.0000   1.0000   1.0000   1.0000   1.0000
     1.0016   1.0812   0.6908   0.0000   0.0000   0.0000   0.0000   0.0000
     0.0000   0.0000   0.0000

          k = 0.0000-0.4330 0.1401 (  2668 PWs)   bands (ev):

   -84.2041 -47.5342 -47.4979 -47.3974 -22.3950  -8.3272  -7.3469  -6.9659
    -5.4666  -5.4488   4.1813   5.1420   5.9718   6.3643   7.3463   7.9261
     9.9356  10.3587  10.5904  11.8084  12.2119  12.8589  13.9802  16.5614
    17.4791  18.1090  19.5905

     occupation numbers 
     1.0000   1.0000   1.0000   1.0000   1.0000   1.0000   1.0000   1.0000
     1.0000   1.0000   1.0000   1.0000   1.0000   1.0000   1.0000   1.0000
     1.0005   1.0689   0.9694   0.0000   0.0000   0.0000   0.0000   0.0000
     0.0000   0.0000   0.0000

          k =-0.1250-0.3608 0.1401 (  2658 PWs)   bands (ev):

   -84.2046 -47.5255 -47.4994 -47.3982 -22.4657  -8.4233  -7.2893  -6.7151
    -5.5770  -5.4746   4.6153   5.1007   5.8641   6.3186   7.0917   8.2317
    10.1051  10.4797  10.6265  12.0295  12.4987  12.8777  14.1083  15.6148
    16.7768  17.7681  19.4698

     occupation numbers 
     1.0000   1.0000   1.0000   1.0000   1.0000   1.0000   1.0000   1.0000
     1.0000   1.0000   1.0000   1.0000   1.0000   1.0000   1.0000   1.0000
     1.0066   1.0761   0.9028   0.0000   0.0000   0.0000   0.0000   0.0000
     0.0000   0.0000   0.0000

          k =-0.1250-0.5052 0.1401 (  2664 PWs)   bands (ev):

   -84.2033 -47.5379 -47.5043 -47.3961 -22.2947  -8.2121  -7.2846  -7.0595
    -5.7827  -5.4377   4.0788   5.0991   5.9694   6.5592   6.8844   7.6489
     9.9894  10.3278  10.6023  12.1346  12.3769  12.6527  14.0668  16.6531
    17.1704  17.6673  21.0033

     occupation numbers 
     1.0000   1.0000   1.0000   1.0000   1.0000   1.0000   1.0000   1.0000
     1.0000   1.0000   1.0000   1.0000   1.0000   1.0000   1.0000   1.0000
     1.0012   1.0586   0.9492   0.0000   0.0000   0.0000   0.0000   0.0000
     0.0000   0.0000   0.0000

 ------ SPIN DOWN ----------


          k = 0.0000 0.0000 0.0000 (  2625 PWs)   bands (ev):

   -84.3875 -47.6393 -47.6393 -47.6229 -22.9369  -9.2732  -7.5275  -5.5713
    -4.9430  -4.9430   4.4675   5.4689   5.4689   7.9934   8.6554   8.6554
     9.5972   9.5972  10.2177  11.4883  12.9530  12.9530  14.0761  15.5588
    15.5588  17.8215  19.0259

     occupation numbers 
     1.0000   1.0000   1.0000   1.0000   1.0000   1.0000   1.0000   1.0000
     1.0000   1.0000   1.0000   1.0000   1.0000   1.0000   1.0000   1.0000
     1.0000   1.0000   1.0245   0.0000   0.0000   0.0000   0.0000   0.0000
     0.0000   0.0000   0.0000

          k = 0.0000 0.0000 0.1401 (  2690 PWs)   bands (ev):

   -84.3876 -47.6395 -47.6395 -47.6232 -22.9369  -9.3067  -7.4223  -5.6627
    -4.9431  -4.9431   4.6564   5.4703   5.4703   7.5781   8.6494   8.6494
     9.5978   9.5978  10.4286  11.5348  12.9650  12.9650  14.3212  15.5486
    15.5487  17.1540  20.1807

     occupation numbers 
     1.0000   1.0000   1.0000   1.0000   1.0000   1.0000   1.0000   1.0000
     1.0000   1.0000   1.0000   1.0000   1.0000   1.0000   1.0000   1.0000
     1.0000   1.0000   1.0831   0.0000   0.0000   0.0000   0.0000   0.0000
     0.0000   0.0000   0.0000

          k = 0.0000 0.1443 0.0000 (  2661 PWs)   bands (ev):

   -84.3868 -47.6476 -47.6414 -47.6219 -22.8494  -9.1150  -7.4724  -5.5822
    -5.3502  -5.0344   4.6783   5.2382   5.5601   7.6078   8.1984   8.3029
     9.8214   9.9731  10.3988  11.9665  12.5282  12.8649  14.4164  14.9846
    16.0974  17.3475  19.2987

     occupation numbers 
     1.0000   1.0000   1.0000   1.0000   1.0000   1.0000   1.0000   1.0000
     1.0000   1.0000   1.0000   1.0000   1.0000   1.0000   1.0000   1.0000
     1.0000   1.0009   1.0794   0.0000   0.0000   0.0000   0.0000   0.0000
     0.0000   0.0000   0.0000

          k = 0.0000 0.1443 0.1401 (  2670 PWs)   bands (ev):

   -84.3868 -47.6476 -47.6414 -47.6219 -22.8494  -9.1448  -7.3856  -5.6497
    -5.3534  -5.0344   4.8156   5.2010   5.5620   7.6327   8.0608   8.1937
     9.8074   9.9721  10.5407  11.9022  12.5888  12.8720  14.5418  14.9928
    16.0963  17.2197  18.8850

     occupation numbers 
     1.0000   1.0000   1.0000   1.0000   1.0000   1.0000   1.0000   1.0000
     1.0000   1.0000   1.0000   1.0000   1.0000   1.0000   1.0000   1.0000
     1.0000   1.0009   1.0353   0.0000   0.0000   0.0000   0.0000   0.0000
     0.0000   0.0000   0.0000

          k = 0.0000 0.2887 0.0000 (  2664 PWs)   bands (ev):

   -84.3851 -47.6673 -47.6461 -47.6189 -22.6293  -8.7171  -7.3550  -6.3235
    -5.5041  -5.2468   4.8084   5.1415   5.7712   6.2975   7.6165   8.3398
     9.8879  10.2774  10.5198  11.9499  12.5107  12.7492  14.2046  15.5514
    16.7356  17.5898  18.4903

     occupation numbers 
     1.0000   1.0000   1.0000   1.0000   1.0000   1.0000   1.0000   1.0000
     1.0000   1.0000   1.0000   1.0000   1.0000   1.0000   1.0000   1.0000
     1.0002   1.0415   1.0540   0.0000   0.0000   0.0000   0.0000   0.0000
     0.0000   0.0000   0.0000

          k = 0.0000 0.2887 0.1401 (  2656 PWs)   bands (ev):

   -84.3851 -47.6672 -47.6461 -47.6189 -22.6292  -8.7353  -7.3171  -6.3119
    -5.5396  -5.2469   4.7536   5.1915   5.7742   6.3645   7.6110   8.3005
     9.8882  10.2752  10.5543  11.6711  12.7371  12.7581  14.1445  15.5108
    16.9615  17.5946  18.4795

     occupation numbers 
     1.0000   1.0000   1.0000   1.0000   1.0000   1.0000   1.0000   1.0000
     1.0000   1.0000   1.0000   1.0000   1.0000   1.0000   1.0000   1.0000
     1.0002   1.0408   1.0204   0.0000   0.0000   0.0000   0.0000   0.0000
     0.0000   0.0000   0.0000

          k = 0.0000 0.4330 0.0000 (  2668 PWs)   bands (ev):

   -84.3834 -47.6869 -47.6509 -47.6160 -22.3952  -8.3484  -7.2978  -7.0348
    -5.4663  -5.4488   4.1565   5.1787   5.9324   6.2707   7.3267   7.8342
     9.7548  10.2090  10.4097  11.7094  12.1885  12.7779  14.0241  16.8606
    17.4524  18.1301  19.5905

     occupation numbers 
     1.0000   1.0000   1.0000   1.0000   1.0000   1.0000   1.0000   1.0000
     1.0000   1.0000   1.0000   1.0000   1.0000   1.0000   1.0000   1.0000
     1.0000   1.0225   1.0813   0.0000   0.0000   0.0000   0.0000   0.0000
     0.0000   0.0000   0.0000

          k = 0.0000 0.4330 0.1401 (  2668 PWs)   bands (ev):

   -84.3834 -47.6869 -47.6509 -47.6160 -22.3952  -8.3521  -7.3100  -7.0127
    -5.4732  -5.4488   4.1998   5.1141   5.9379   6.3375   7.3171   7.7444
     9.7949  10.2080  10.3988  11.6234  12.3925  12.7938  13.8964  16.7820
    17.4893  18.1028  19.5940

     occupation numbers 
     1.0000   1.0000   1.0000   1.0000   1.0000   1.0000   1.0000   1.0000
     1.0000   1.0000   1.0000   1.0000   1.0000   1.0000   1.0000   1.0000
     1.0000   1.0222   1.0794   0.0000   0.0000   0.0000   0.0000   0.0000
     0.0000   0.0000   0.0000

          k = 0.0000-0.5774 0.0000 (  2658 PWs)   bands (ev):

   -84.3826 -47.6950 -47.6528 -47.6147 -22.2937  -8.2883  -7.2794  -7.1995
    -5.5297  -5.4481   3.7469   5.2583   5.9656   6.4457   7.2876   7.5690
     9.6170  10.1056  10.3338  11.4431  12.2511  12.8219  13.8808  17.1201
    18.0028  18.5187  20.7018

     occupation numbers 
     1.0000   1.0000   1.0000   1.0000   1.0000   1.0000   1.0000   1.0000
     1.0000   1.0000   1.0000   1.0000   1.0000   1.0000   1.0000   1.0000
     1.0000   1.0067   1.0607   0.0001   0.0000   0.0000   0.0000   0.0000
     0.0000   0.0000   0.0000

          k = 0.0000-0.5774 0.1401 (  2664 PWs)   bands (ev):

   -84.3827 -47.6950 -47.6528 -47.6147 -22.2936  -8.2859  -7.2970  -7.1874
    -5.5297  -5.4448   3.7949   5.1876   5.9711   6.5381   7.2777   7.4119
     9.6588  10.1058  10.3502  11.5008  12.3804  12.8392  13.7758  16.7762
    17.9677  18.5166  21.3838

     occupation numbers 
     1.0000   1.0000   1.0000   1.0000   1.0000   1.0000   1.0000   1.0000
     1.0000   1.0000   1.0000   1.0000   1.0000   1.0000   1.0000   1.0000
     1.0000   1.0067   1.0662   0.0000   0.0000   0.0000   0.0000   0.0000
     0.0000   0.0000   0.0000

          k = 0.1250 0.2165 0.0000 (  2673 PWs)   bands (ev):

   -84.3856 -47.6607 -47.6457 -47.6199 -22.6952  -8.8355  -7.3851  -6.0229
    -5.5123  -5.2421   4.9361   5.0609   5.6688   6.6997   7.5354   8.4413
     9.9513  10.2644  10.5089  12.1925  12.4648  12.8954  14.1444  14.8601
    16.8514  17.3988  18.3745

     occupation numbers 
     1.0000   1.0000   1.0000   1.0000   1.0000   1.0000   1.0000   1.0000
     1.0000   1.0000   1.0000   1.0000   1.0000   1.0000   1.0000   1.0000
     1.0006   1.0374   1.0617   0.0000   0.0000   0.0000   0.0000   0.0000
     0.0000   0.0000   0.0000

          k = 0.1250 0.2165 0.1401 (  2654 PWs)   bands (ev):

   -84.3856 -47.6606 -47.6456 -47.6197 -22.6952  -8.8569  -7.3345  -6.0147
    -5.5542  -5.2432   4.8880   5.1013   5.6669   6.7848   7.5379   8.3981
     9.9420  10.2418  10.5471  11.9462  12.5507  13.0039  14.1550  14.8050
    16.9719  17.4115  18.3848

     occupation numbers 
     1.0000   1.0000   1.0000   1.0000   1.0000   1.0000   1.0000   1.0000
     1.0000   1.0000   1.0000   1.0000   1.0000   1.0000   1.0000   1.0000
     1.0005   1.0308   1.0285   0.0000   0.0000   0.0000   0.0000   0.0000
     0.0000   0.0000   0.0000

          k = 0.1250 0.3608 0.0000 (  2648 PWs)   bands (ev):

   -84.3839 -47.6781 -47.6523 -47.6168 -22.4659  -8.4370  -7.2850  -6.7553
    -5.5772  -5.4642   4.6246   5.0961   5.8567   6.1659   7.0692   8.1179
     9.9546  10.3031  10.4651  12.0484  12.4628  12.8717  14.0429  15.6426
    16.8750  17.7219  19.4512

     occupation numbers 
     1.0000   1.0000   1.0000   1.0000   1.0000   1.0000   1.0000   1.0000
     1.0000   1.0000   1.0000   1.0000   1.0000   1.0000   1.0000   1.0000
     1.0006   1.0501   1.0803   0.0000   0.0000   0.0000   0.0000   0.0000
     0.0000   0.0000   0.0000

          k = 0.1250 0.3608 0.1401 (  2658 PWs)   bands (ev):

   -84.3839 -47.6782 -47.6524 -47.6168 -22.4659  -8.4437  -7.2888  -6.7312
    -5.5771  -5.4786   4.6193   5.0753   5.8415   6.2337   7.0663   8.1256
     9.9582  10.3095  10.4583  11.8988  12.4168  13.0089  14.0514  15.5985
    16.8797  17.7855  19.4644

     occupation numbers 
     1.0000   1.0000   1.0000   1.0000   1.0000   1.0000   1.0000   1.0000
     1.0000   1.0000   1.0000   1.0000   1.0000   1.0000   1.0000   1.0000
     1.0007   1.0523   1.0816   0.0000   0.0000   0.0000   0.0000   0.0000
     0.0000   0.0000   0.0000

          k = 0.1250 0.5052 0.0000 (  2661 PWs)   bands (ev):

   -84.3827 -47.6906 -47.6572 -47.6147 -22.2949  -8.2319  -7.2377  -7.1230
    -5.7820  -5.4408   4.0249   5.0984   5.9317   6.5186   6.8686   7.6384
     9.7557  10.1745  10.4182  11.9559  12.4889  12.5897  13.9842  16.7757
    17.2633  17.7051  20.9191

     occupation numbers 
     1.0000   1.0000   1.0000   1.0000   1.0000   1.0000   1.0000   1.0000
     1.0000   1.0000   1.0000   1.0000   1.0000   1.0000   1.0000   1.0000
     1.0000   1.0155   1.0823   0.0000   0.0000   0.0000   0.0000   0.0000
     0.0000   0.0000   0.0000

          k = 0.1250 0.5052 0.1401 (  2664 PWs)   bands (ev):

   -84.3827 -47.6906 -47.6572 -47.6148 -22.2949  -8.2315  -7.2490  -7.1125
    -5.7821  -5.4412   4.0757   5.0667   5.9286   6.5619   6.8551   7.5297
     9.7882  10.1681  10.4355  11.9770  12.4468  12.6377  14.0305  16.6659
    17.1720  17.7343  20.9707

     occupation numbers 
     1.0000   1.0000   1.0000   1.0000   1.0000   1.0000   1.0000   1.0000
     1.0000   1.0000   1.0000   1.0000   1.0000   1.0000   1.0000   1.0000
     1.0000   1.0144   1.0833   0.0000   0.0000   0.0000   0.0000   0.0000
     0.0000   0.0000   0.0000

          k = 0.2500 0.4330 0.0000 (  2661 PWs)   bands (ev):

   -84.3827 -47.6844 -47.6633 -47.6147 -22.2962  -8.1838  -7.1881  -6.9698
    -6.1081  -5.4343   4.4966   4.8826   5.6884   6.4011   6.7779   7.6882
     9.8691  10.2200  10.5202  12.1866  12.3213  13.5677  14.0538  15.6054
    16.5401  17.3941  21.1649

     occupation numbers 
     1.0000   1.0000   1.0000   1.0000   1.0000   1.0000   1.0000   1.0000
     1.0000   1.0000   1.0000   1.0000   1.0000   1.0000   1.0000   1.0000
     1.0001   1.0250   1.0537   0.0000   0.0000   0.0000   0.0000   0.0000
     0.0000   0.0000   0.0000

          k = 0.2500 0.4330 0.1401 (  2664 PWs)   bands (ev):

   -84.3827 -47.6845 -47.6632 -47.6148 -22.2962  -8.1801  -7.2273  -6.9310
    -6.1106  -5.4355   4.5099   4.9024   5.7035   6.3717   6.7432   7.7041
     9.8641  10.2121  10.5610  12.0236  12.3100  13.6558  14.1221  15.6003
    16.5520  17.3275  21.2713

     occupation numbers 
     1.0000   1.0000   1.0000   1.0000   1.0000   1.0000   1.0000   1.0000
     1.0000   1.0000   1.0000   1.0000   1.0000   1.0000   1.0000   1.0000
     1.0001   1.0232   1.0121   0.0000   0.0000   0.0000   0.0000   0.0000
     0.0000   0.0000   0.0000

          k = 0.2500 0.5774 0.0000 (  2661 PWs)   bands (ev):

   -84.3822 -47.6850 -47.6699 -47.6139 -22.2238  -8.0858  -7.1441  -6.9905
    -6.3893  -5.4178   4.3653   4.9370   5.4512   6.5041   6.9215   7.3625
     9.6855  10.3473  10.4940  12.2001  12.3061  13.7042  14.2327  15.5790
    16.5749  17.4811  21.7219

     occupation numbers 
     1.0000   1.0000   1.0000   1.0000   1.0000   1.0000   1.0000   1.0000
     1.0000   1.0000   1.0000   1.0000   1.0000   1.0000   1.0000   1.0000
     1.0000   1.0652   1.0702   0.0000   0.0000   0.0000   0.0000   0.0000
     0.0000   0.0000   0.0000

          k = 0.2500 0.5774 0.1401 (  2673 PWs)   bands (ev):

   -84.3822 -47.6850 -47.6700 -47.6140 -22.2238  -8.0843  -7.1488  -6.9868
    -6.3914  -5.4182   4.3994   4.9616   5.4882   6.4615   6.8867   7.3037
     9.7000  10.3403  10.5311  12.0801  12.2639  13.7052  14.3955  15.6224
    16.6496  17.3574  21.9631

     occupation numbers 
     1.0000   1.0000   1.0000   1.0000   1.0000   1.0000   1.0000   1.0000
     1.0000   1.0000   1.0000   1.0000   1.0000   1.0000   1.0000   1.0000
     1.0000   1.0629   1.0445   0.0000   0.0000   0.0000   0.0000   0.0000
     0.0000   0.0000   0.0000

          k = 0.0000-0.1443 0.1401 (  2670 PWs)   bands (ev):

   -84.3868 -47.6476 -47.6414 -47.6219 -22.8494  -9.1446  -7.3864  -5.6500
    -5.3520  -5.0344   4.8169   5.1903   5.5607   7.6090   8.1128   8.1973
     9.8009   9.9710  10.5190  11.9578  12.5526  12.8727  14.5002  14.9982
    16.0889  17.2169  18.9668

     occupation numbers 
     1.0000   1.0000   1.0000   1.0000   1.0000   1.0000   1.0000   1.0000
     1.0000   1.0000   1.0000   1.0000   1.0000   1.0000   1.0000   1.0000
     1.0000   1.0008   1.0546   0.0000   0.0000   0.0000   0.0000   0.0000
     0.0000   0.0000   0.0000

          k = 0.0000-0.2887 0.1401 (  2656 PWs)   bands (ev):

   -84.3851 -47.6672 -47.6461 -47.6189 -22.6292  -8.7327  -7.3276  -6.3053
    -5.5359  -5.2468   4.7513   5.1183   5.7711   6.4177   7.6173   8.3946
     9.8636  10.2747  10.5070  11.7874  12.6233  12.7534  14.1342  15.4981
    16.7978  17.5880  18.4832

     occupation numbers 
     1.0000   1.0000   1.0000   1.0000   1.0000   1.0000   1.0000   1.0000
     1.0000   1.0000   1.0000   1.0000   1.0000   1.0000   1.0000   1.0000
     1.0001   1.0406   1.0629   0.0000   0.0000   0.0000   0.0000   0.0000
     0.0000   0.0000   0.0000

          k = 0.0000-0.4330 0.1401 (  2668 PWs)   bands (ev):

   -84.3834 -47.6869 -47.6509 -47.6160 -22.3952  -8.3426  -7.3603  -6.9740
    -5.4679  -5.4488   4.1528   5.1180   5.9343   6.3143   7.3235   7.8891
     9.7554  10.2072  10.4032  11.7870  12.1457  12.7888  13.9627  16.5544
    17.4733  18.1073  19.5905

     occupation numbers 
     1.0000   1.0000   1.0000   1.0000   1.0000   1.0000   1.0000   1.0000
     1.0000   1.0000   1.0000   1.0000   1.0000   1.0000   1.0000   1.0000
     1.0000   1.0220   1.0802   0.0000   0.0000   0.0000   0.0000   0.0000
     0.0000   0.0000   0.0000

          k =-0.1250-0.3608 0.1401 (  2658 PWs)   bands (ev):

   -84.3839 -47.6782 -47.6524 -47.6168 -22.4659  -8.4398  -7.3064  -6.7181
    -5.5771  -5.4761   4.5847   5.0713   5.8270   6.2715   7.0586   8.1988
     9.9308  10.3037  10.4659  11.9564  12.4288  12.8688  14.0926  15.6096
    16.7681  17.7648  19.4680

     occupation numbers 
     1.0000   1.0000   1.0000   1.0000   1.0000   1.0000   1.0000   1.0000
     1.0000   1.0000   1.0000   1.0000   1.0000   1.0000   1.0000   1.0000
     1.0004   1.0503   1.0801   0.0000   0.0000   0.0000   0.0000   0.0000
     0.0000   0.0000   0.0000

          k =-0.1250-0.5052 0.1401 (  2664 PWs)   bands (ev):

   -84.3827 -47.6906 -47.6572 -47.6148 -22.2949  -8.2257  -7.2969  -7.0709
    -5.7828  -5.4385   4.0523   5.0761   5.9358   6.5155   6.8587   7.6138
     9.7643  10.1670  10.4520  12.0890  12.3324  12.5866  14.0513  16.6471
    17.1662  17.6630  20.9969

     occupation numbers 
     1.0000   1.0000   1.0000   1.0000   1.0000   1.0000   1.0000   1.0000
     1.0000   1.0000   1.0000   1.0000   1.0000   1.0000   1.0000   1.0000
     1.0000   1.0143   1.0824   0.0000   0.0000   0.0000   0.0000   0.0000
     0.0000   0.0000   0.0000

     the Fermi energy is    10.8208 ev

!    total energy              =    -573.02670419 Ry
     total all-electron energy =     -4292.137541 Ry
     estimated scf accuracy    <       0.00000003 Ry
     smearing contrib. (-TS)   =       0.00684151 Ry
     internal energy E=F+TS    =    -573.03354570 Ry

     The total energy is F=E-TS. E is the sum of the following terms:
     one-electron contribution =    -373.29440965 Ry
     hartree contribution      =     207.64166305 Ry
     xc contribution           =     -56.90280730 Ry
     ewald contribution        =    -188.29719514 Ry
     one-center paw contrib.   =    -162.18079666 Ry
      -> PAW hartree energy AE =     311.77729100 Ry
      -> PAW hartree energy PS =    -310.41060697 Ry
      -> PAW xc energy AE      =    -217.22224726 Ry
      -> PAW xc energy PS      =      53.67476656 Ry
      -> total E_H with PAW    =     209.00834708 Ry
      -> total E_XC with PAW   =    -220.45028799 Ry

     total magnetization       =    -0.19 Bohr mag/cell
     absolute magnetization    =     0.19 Bohr mag/cell

     convergence has been achieved in  21 iterations

     Forces acting on atoms (cartesian axes, Ry/au):

     atom    1 type  1   force =     0.00000000    0.00000000    0.04838300
     atom    2 type  2   force =    -0.00000000   -0.00000000    0.01435739
     atom    3 type  2   force =     0.00000000    0.00000000   -0.05016733
     atom    4 type  3   force =    -0.00000000   -0.00000000   -0.01257307
     The non-local contrib.  to forces
     atom    1 type  1   force =     0.00000000    0.00000000   -0.06998052
     atom    2 type  2   force =     0.00000000    0.00000000   -0.78694438
     atom    3 type  2   force =     0.00000000   -0.00000000    0.37426548
     atom    4 type  3   force =     0.00000000    0.00000000   -0.07783382
     The ionic contribution  to forces
     atom    1 type  1   force =    -0.00000000   -0.00000000   10.96866924
     atom    2 type  2   force =     0.00000000   -0.00000000   29.16721164
     atom    3 type  2   force =    -0.00000000    0.00000000  -22.07965166
     atom    4 type  3   force =     0.00000000   -0.00000000  -18.05622922
     The local contribution  to forces
     atom    1 type  1   force =    -0.00000000   -0.00000000  -10.85019532
     atom    2 type  2   force =     0.00000001   -0.00000001  -28.37239810
     atom    3 type  2   force =    -0.00000001    0.00000001   21.65850329
     atom    4 type  3   force =     0.00000000    0.00000000   18.11760692
     The core correction contribution to forces
     atom    1 type  1   force =     0.00000000   -0.00000000   -0.00017741
     atom    2 type  2   force =    -0.00000000    0.00000000    0.00660556
     atom    3 type  2   force =     0.00000000   -0.00000000   -0.00314212
     atom    4 type  3   force =     0.00000000    0.00000000    0.00387601
     The Hubbard contrib.    to forces
     atom    1 type  1   force =     0.00000000    0.00000000    0.00000000
     atom    2 type  2   force =     0.00000000    0.00000000    0.00000000
     atom    3 type  2   force =     0.00000000    0.00000000    0.00000000
     atom    4 type  3   force =     0.00000000    0.00000000    0.00000000
     The SCF correction term to forces
     atom    1 type  1   force =     0.00000000   -0.00000000    0.00013958
     atom    2 type  2   force =    -0.00000000    0.00000000   -0.00004475
     atom    3 type  2   force =     0.00000000   -0.00000000   -0.00006976
     atom    4 type  3   force =     0.00000000   -0.00000000    0.00007960

     Total force =     0.072263     Total SCF correction =     0.000181

     Writing all to output data dir ./out/pw.save/ :
     XML data file, charge density, pseudopotentials, collected wavefunctions
 
     init_run     :     13.84s CPU      3.56s WALL (       1 calls)
     electrons    :    119.18s CPU     32.36s WALL (       1 calls)
     forces       :      0.61s CPU      0.55s WALL (       1 calls)

     Called by init_run:
     wfcinit      :      0.25s CPU      0.41s WALL (       1 calls)
     wfcinit:atom :      0.04s CPU      0.05s WALL (      50 calls)
     wfcinit:wfcr :      0.16s CPU      0.28s WALL (      50 calls)
     potinit      :     12.98s CPU      2.46s WALL (       1 calls)
     hinit0       :      0.51s CPU      0.51s WALL (       1 calls)

     Called by electrons:
     c_bands      :     13.64s CPU     13.78s WALL (      21 calls)
     sum_band     :      2.64s CPU      2.62s WALL (      21 calls)
     v_of_rho     :      0.34s CPU      0.18s WALL (      22 calls)
     v_h          :      0.25s CPU      0.03s WALL (      22 calls)
     v_xc         :      0.10s CPU      0.15s WALL (      23 calls)
     newd         :      0.67s CPU      0.59s WALL (      22 calls)
                                        0.59s GPU  (      22 calls)
     PAW_pot      :    106.11s CPU     15.41s WALL (      22 calls)
     mix_rho      :      0.58s CPU      0.56s WALL (      21 calls)

     Called by c_bands:
     init_us_2    :      0.87s CPU      0.85s WALL (    2200 calls)
     cegterg      :     12.03s CPU     12.22s WALL (    1050 calls)

     Called by sum_band:
     sum_band:wei :      0.04s CPU      0.04s WALL (      21 calls)
                                        0.04s GPU  (      21 calls)
     sum_band:loo :      1.41s CPU      1.39s WALL (      21 calls)
                                        1.39s GPU  (      21 calls)
     sum_band:buf :      0.15s CPU      0.18s WALL (    1050 calls)
                                        0.16s GPU  (    1050 calls)
     sum_band:ini :      0.41s CPU      0.42s WALL (    1050 calls)
                                        0.41s GPU  (    1050 calls)
     sum_band:cal :      0.04s CPU      0.06s WALL (    1050 calls)
                                        0.05s GPU  (    1050 calls)
     sum_band:bec :      0.22s CPU      0.24s WALL (    1050 calls)
                                        0.23s GPU  (    1050 calls)
     addusdens    :      1.06s CPU      1.06s WALL (      21 calls)
                                        1.06s GPU  (      21 calls)
     addusd:skk   :      0.00s CPU      0.00s WALL (      63 calls)
                                        0.00s GPU  (      63 calls)

     Called by *egterg:
     cdiaghg      :      4.23s CPU      4.46s WALL (    5000 calls)
                                        4.40s GPU  (    5000 calls)
     cegterg:over :      0.89s CPU      0.93s WALL (    3950 calls)
     cegterg:upda :      0.68s CPU      0.69s WALL (    3950 calls)
     cegterg:last :      0.12s CPU      0.12s WALL (    2027 calls)
     h_psi        :      4.22s CPU      4.36s WALL (    5050 calls)
                                        4.30s GPU  (    5050 calls)
     s_psi        :      0.73s CPU      0.78s WALL (    5050 calls)
     g_psi        :      0.02s CPU      0.09s WALL (    3950 calls)
                                        0.04s GPU  (    3950 calls)

     Called by h_psi:
     h_psi:calbec :      0.15s CPU      0.28s WALL (    5050 calls)
                                        0.22s GPU  (    5050 calls)
     vloc_psi     :      2.90s CPU      2.94s WALL (    5050 calls)
                                        2.88s GPU  (    5050 calls)
     add_vuspsi   :      0.67s CPU      0.80s WALL (    5050 calls)
                                        0.74s GPU  (    5050 calls)

     General routines
     calbec       :      0.16s CPU      0.20s WALL (    6300 calls)
     fft          :      3.45s CPU      0.88s WALL (     563 calls)
                                        0.02s GPU  (     519 calls)
     ffts         :      4.55s CPU      0.81s WALL (     766 calls)
                                        0.02s GPU  (     722 calls)
     fftw         :      0.27s CPU      0.97s WALL (   16506 calls)
                                        0.79s GPU  (   16506 calls)
     interpolate  :      8.10s CPU      1.65s WALL (      44 calls)
 
     Parallel routines

     PAW routines
     PAW_pot      :    106.11s CPU     15.41s WALL (      22 calls)
     PAW_symme    :      0.01s CPU      0.01s WALL (      43 calls)
 
     PWSCF        :   2m14.61s CPU     37.09s WALL

 
   This run was terminated on:   5:37:46  12Jul2026            

=------------------------------------------------------------------------------=
   JOB DONE.
=------------------------------------------------------------------------------=
Warning: ieee_divide_by_zero is signaling
Warning: ieee_inexact is signaling
FORTRAN STOP
