
     Program PWSCF v.7.3.1 starts on 12Jul2026 at  2:51:36 

     This program is part of the open-source Quantum ESPRESSO suite
     for quantum simulation of materials; please cite
         "P. Giannozzi et al., J. Phys.:Condens. Matter 21 395502 (2009);
         "P. Giannozzi et al., J. Phys.:Condens. Matter 29 465901 (2017);
         "P. Giannozzi et al., J. Chem. Phys. 152 154105 (2020);
          URL http://www.quantum-espresso.org", 
     in publications or presentations arising from this work. More details at
     http://www.quantum-espresso.org/quote

     Parallel version (MPI & OpenMP), running on      14 processor cores
     Number of MPI processes:                 1
     Threads/MPI process:                    14

     MPI processes distributed on     1 nodes
     839223 MiB available memory on the printing compute node when the environment starts
 
     Reading input from pw.in

     Current dimensions of program PWSCF are:
     Max number of different atomic species (ntypx) = 10
     Max number of k-points (npk) =  40000
     Max angular momentum in pseudopotentials (lmaxx) =  4
     file Co.pbe-spn-kjpaw_psl.0.3.1.UPF: wavefunction(s)  3P 3D renormalized
     file O.pbe-n-kjpaw_psl.1.0.0.UPF: wavefunction(s)  2S 2P renormalized
     file Na.pbe-spn-kjpaw_psl.1.0.0.UPF: wavefunction(s)  2P renormalized

     Atomic positions and unit cell read from directory:
     ../Na_1x1_c5.5_d0.00/out/pw.save/
 
 
     Subspace diagonalization in iterative solution of the eigenvalue problem:
     a serial algorithm will be used

 
     G-vector sticks info
     --------------------
     sticks:   dense  smooth     PW     G-vecs:    dense   smooth      PW
     Sum         979     499    151                47419    16845    2855
 
     Using Slab Decomposition
 


     bravais-lattice index     =            4
     lattice parameter (alat)  =       5.4575  a.u.
     unit-cell volume          =     268.0923 (a.u.)^3
     number of atoms/cell      =            4
     number of atomic types    =            3
     number of electrons       =        38.00
     number of Kohn-Sham states=           27
     kinetic-energy cutoff     =      60.0000  Ry
     charge density cutoff     =     480.0000  Ry
     Exchange-correlation= SLA  PW   PBX  PBC
                           (   1   4   3   4   0   0   0)

     GPU acceleration is ACTIVE.  1 visible GPUs per MPI rank
     GPU-aware MPI enabled


     GPU used by master process:

        Device Number: 0
        Device name: NVIDIA A100-SXM4-80GB
        Compute capability : 80
        Ratio of single to double precision performance  : 2
        Memory Clock Rate (KHz): 1593000
        Memory Bus Width (bits): 5120
        Peak Memory Bandwidth (GB/s): ******

     celldm(1)=   5.457529  celldm(2)=   0.000000  celldm(3)=   1.904432
     celldm(4)=   0.000000  celldm(5)=   0.000000  celldm(6)=   0.000000

     crystal axes: (cart. coord. in units of alat)
               a(1) = (   1.000000   0.000000   0.000000 )  
               a(2) = (  -0.500000   0.866025   0.000000 )  
               a(3) = (   0.000000   0.000000   1.904432 )  

     reciprocal axes: (cart. coord. in units 2 pi/alat)
               b(1) = (  1.000000  0.577350 -0.000000 )  
               b(2) = (  0.000000  1.154701  0.000000 )  
               b(3) = (  0.000000 -0.000000  0.525091 )  


     PseudoPot. # 1 for Co read from file:
     ../../pseudo/Co.pbe-spn-kjpaw_psl.0.3.1.UPF
     MD5 check sum: 3c0a43779828c046024e4f3be63f8e67
     Pseudo is Projector augmented-wave + core cor, Zval = 17.0
     Generated using &quot;atomic&quot; code by A. Dal Corso  v.6.2.2
     Shape of augmentation charge: PSQ
     Using radial grid of 1193 points,  6 beta functions with: 
                l(1) =   0
                l(2) =   0
                l(3) =   1
                l(4) =   1
                l(5) =   2
                l(6) =   2
     Q(r) pseudized with 0 coefficients 


     PseudoPot. # 2 for O  read from file:
     ../../pseudo/O.pbe-n-kjpaw_psl.1.0.0.UPF
     MD5 check sum: e99d9cef9b487d1ca56f5b95ecd0fd7a
     Pseudo is Projector augmented-wave + core cor, Zval =  6.0
     Generated using &quot;atomic&quot; code by A. Dal Corso  v.6.3
     Shape of augmentation charge: PSQ
     Using radial grid of 1095 points,  4 beta functions with: 
                l(1) =   0
                l(2) =   0
                l(3) =   1
                l(4) =   1
     Q(r) pseudized with 0 coefficients 


     PseudoPot. # 3 for Na read from file:
     ../../pseudo/Na.pbe-spn-kjpaw_psl.1.0.0.UPF
     MD5 check sum: 05b4deb74e3932c23ab016979dc8b5d4
     Pseudo is Projector augmented-wave + core cor, Zval =  9.0
     Generated using &quot;atomic&quot; code by A. Dal Corso  v.6.3
     Shape of augmentation charge: PSQ
     Using radial grid of 1121 points,  4 beta functions with: 
                l(1) =   0
                l(2) =   0
                l(3) =   1
                l(4) =   1
     Q(r) pseudized with 0 coefficients 


     atomic species   valence    mass     pseudopotential
     Co               17.00    58.93300     Co( 1.00)
     O                 6.00    15.99900     O ( 1.00)
     Na                9.00    22.98977     Na( 1.00)

     Starting magnetic structure 
     atomic species   magnetization
     Co              0.300
     O               0.000
     Na              0.000

     12 Sym. Ops., with inversion, found


                                    s                        frac. trans.

      isym =  1     identity                                     

 cryst.   s( 1) = (     1          0          0      )
                  (     0          1          0      )
                  (     0          0          1      )

 cart.    s( 1) = (  1.0000000  0.0000000  0.0000000 )
                  (  0.0000000  1.0000000  0.0000000 )
                  (  0.0000000  0.0000000  1.0000000 )


      isym =  2     180 deg rotation - cart. axis [1,0,0]        

 cryst.   s( 2) = (     1          0          0      )
                  (    -1         -1          0      )
                  (     0          0         -1      )

 cart.    s( 2) = (  1.0000000  0.0000000  0.0000000 )
                  (  0.0000000 -1.0000000  0.0000000 )
                  (  0.0000000  0.0000000 -1.0000000 )


      isym =  3     120 deg rotation - cryst. axis [0,0,1]       

 cryst.   s( 3) = (     0          1          0      )
                  (    -1         -1          0      )
                  (     0          0          1      )

 cart.    s( 3) = ( -0.5000000 -0.8660254  0.0000000 )
                  (  0.8660254 -0.5000000  0.0000000 )
                  (  0.0000000  0.0000000  1.0000000 )


      isym =  4     120 deg rotation - cryst. axis [0,0,-1]      

 cryst.   s( 4) = (    -1         -1          0      )
                  (     1          0          0      )
                  (     0          0          1      )

 cart.    s( 4) = ( -0.5000000  0.8660254  0.0000000 )
                  ( -0.8660254 -0.5000000  0.0000000 )
                  (  0.0000000  0.0000000  1.0000000 )


      isym =  5     180 deg rotation - cryst. axis [0,1,0]       

 cryst.   s( 5) = (    -1         -1          0      )
                  (     0          1          0      )
                  (     0          0         -1      )

 cart.    s( 5) = ( -0.5000000 -0.8660254  0.0000000 )
                  ( -0.8660254  0.5000000  0.0000000 )
                  (  0.0000000  0.0000000 -1.0000000 )


      isym =  6     180 deg rotation - cryst. axis [1,1,0]       

 cryst.   s( 6) = (     0          1          0      )
                  (     1          0          0      )
                  (     0          0         -1      )

 cart.    s( 6) = ( -0.5000000  0.8660254  0.0000000 )
                  (  0.8660254  0.5000000  0.0000000 )
                  (  0.0000000  0.0000000 -1.0000000 )


      isym =  7     inversion                                    

 cryst.   s( 7) = (    -1          0          0      )
                  (     0         -1          0      )
                  (     0          0         -1      )

 cart.    s( 7) = ( -1.0000000  0.0000000  0.0000000 )
                  (  0.0000000 -1.0000000  0.0000000 )
                  (  0.0000000  0.0000000 -1.0000000 )


      isym =  8     inv. 180 deg rotation - cart. axis [1,0,0]   

 cryst.   s( 8) = (    -1          0          0      )
                  (     1          1          0      )
                  (     0          0          1      )

 cart.    s( 8) = ( -1.0000000  0.0000000  0.0000000 )
                  (  0.0000000  1.0000000  0.0000000 )
                  (  0.0000000  0.0000000  1.0000000 )


      isym =  9     inv. 120 deg rotation - cryst. axis [0,0,1]  

 cryst.   s( 9) = (     0         -1          0      )
                  (     1          1          0      )
                  (     0          0         -1      )

 cart.    s( 9) = (  0.5000000  0.8660254  0.0000000 )
                  ( -0.8660254  0.5000000  0.0000000 )
                  (  0.0000000  0.0000000 -1.0000000 )


      isym = 10     inv. 120 deg rotation - cryst. axis [0,0,-1] 

 cryst.   s(10) = (     1          1          0      )
                  (    -1          0          0      )
                  (     0          0         -1      )

 cart.    s(10) = (  0.5000000 -0.8660254  0.0000000 )
                  (  0.8660254  0.5000000  0.0000000 )
                  (  0.0000000  0.0000000 -1.0000000 )


      isym = 11     inv. 180 deg rotation - cryst. axis [0,1,0]  

 cryst.   s(11) = (     1          1          0      )
                  (     0         -1          0      )
                  (     0          0          1      )

 cart.    s(11) = (  0.5000000  0.8660254  0.0000000 )
                  (  0.8660254 -0.5000000  0.0000000 )
                  (  0.0000000  0.0000000  1.0000000 )


      isym = 12     inv. 180 deg rotation - cryst. axis [1,1,0]  

 cryst.   s(12) = (     0         -1          0      )
                  (    -1          0          0      )
                  (     0          0          1      )

 cart.    s(12) = (  0.5000000 -0.8660254  0.0000000 )
                  ( -0.8660254 -0.5000000  0.0000000 )
                  (  0.0000000  0.0000000  1.0000000 )


     point group D_3d (-3m) 
     there are  6 classes
     the character table:

       E     2C3   3C2'  i     2S6   3s_d 
A_1g   1.00  1.00  1.00  1.00  1.00  1.00
A_2g   1.00  1.00 -1.00  1.00  1.00 -1.00
E_g    2.00 -1.00  0.00  2.00 -1.00  0.00
A_1u   1.00  1.00  1.00 -1.00 -1.00 -1.00
A_2u   1.00  1.00 -1.00 -1.00 -1.00  1.00
E_u    2.00 -1.00  0.00 -2.00  1.00  0.00

     the symmetry operations in each class and the name of the first element:

     E        1
          identity                                               
     2C3      3    4
          120 deg rotation - cryst. axis [0,0,1]                 
     3C2'     2    5    6
          180 deg rotation - cart. axis [1,0,0]                  
     i        7
          inversion                                              
     2S6      9   10
          inv. 120 deg rotation - cryst. axis [0,0,1]            
     3s_d     8   11   12
          inv. 180 deg rotation - cart. axis [1,0,0]             

   Cartesian axes

     site n.     atom                  positions (alat units)
         1        Co     tau(   1) = (   0.0000000   0.0000000   0.0000000  )
         2        O      tau(   2) = (  -0.0000000   0.5773503   0.3324100  )
         3        O      tau(   3) = (   0.5000000   0.2886751   1.5720222  )
         4        Na     tau(   4) = (   0.0000000   0.0000000   0.9522161  )

   Crystallographic axes

     site n.     atom                  positions (cryst. coord.)
         1        Co     tau(   1) = (  0.0000000  0.0000000  0.0000000  )
         2        O      tau(   2) = (  0.3333333  0.6666667  0.1745455  )
         3        O      tau(   3) = (  0.6666667  0.3333333  0.8254545  )
         4        Na     tau(   4) = (  0.0000000  0.0000000  0.5000000  )

     number of k points=   449  Marzari-Vanderbilt smearing, width (Ry)=  0.0200
                       cart. coord. in units 2pi/alat
        k(    1) = (   0.0000000   0.0000000   0.0000000), wk =   0.0002170
        k(    2) = (   0.0000000   0.0000000   0.0656364), wk =   0.0004340
        k(    3) = (   0.0000000   0.0000000   0.1312727), wk =   0.0004340
        k(    4) = (   0.0000000   0.0000000   0.1969091), wk =   0.0004340
        k(    5) = (   0.0000000   0.0000000  -0.2625455), wk =   0.0002170
        k(    6) = (   0.0000000   0.0481125   0.0000000), wk =   0.0013021
        k(    7) = (   0.0000000   0.0481125   0.0656364), wk =   0.0013021
        k(    8) = (   0.0000000   0.0481125   0.1312727), wk =   0.0013021
        k(    9) = (   0.0000000   0.0481125   0.1969091), wk =   0.0013021
        k(   10) = (   0.0000000   0.0481125  -0.2625455), wk =   0.0013021
        k(   11) = (   0.0000000   0.0962250   0.0000000), wk =   0.0013021
        k(   12) = (   0.0000000   0.0962250   0.0656364), wk =   0.0013021
        k(   13) = (   0.0000000   0.0962250   0.1312727), wk =   0.0013021
        k(   14) = (   0.0000000   0.0962250   0.1969091), wk =   0.0013021
        k(   15) = (   0.0000000   0.0962250  -0.2625455), wk =   0.0013021
        k(   16) = (   0.0000000   0.1443376   0.0000000), wk =   0.0013021
        k(   17) = (   0.0000000   0.1443376   0.0656364), wk =   0.0013021
        k(   18) = (   0.0000000   0.1443376   0.1312727), wk =   0.0013021
        k(   19) = (   0.0000000   0.1443376   0.1969091), wk =   0.0013021
        k(   20) = (   0.0000000   0.1443376  -0.2625455), wk =   0.0013021
        k(   21) = (   0.0000000   0.1924501   0.0000000), wk =   0.0013021
        k(   22) = (   0.0000000   0.1924501   0.0656364), wk =   0.0013021
        k(   23) = (   0.0000000   0.1924501   0.1312727), wk =   0.0013021
        k(   24) = (   0.0000000   0.1924501   0.1969091), wk =   0.0013021
        k(   25) = (   0.0000000   0.1924501  -0.2625455), wk =   0.0013021
        k(   26) = (   0.0000000   0.2405626   0.0000000), wk =   0.0013021
        k(   27) = (   0.0000000   0.2405626   0.0656364), wk =   0.0013021
        k(   28) = (   0.0000000   0.2405626   0.1312727), wk =   0.0013021
        k(   29) = (   0.0000000   0.2405626   0.1969091), wk =   0.0013021
        k(   30) = (   0.0000000   0.2405626  -0.2625455), wk =   0.0013021
        k(   31) = (   0.0000000   0.2886751   0.0000000), wk =   0.0013021
        k(   32) = (   0.0000000   0.2886751   0.0656364), wk =   0.0013021
        k(   33) = (   0.0000000   0.2886751   0.1312727), wk =   0.0013021
        k(   34) = (   0.0000000   0.2886751   0.1969091), wk =   0.0013021
        k(   35) = (   0.0000000   0.2886751  -0.2625455), wk =   0.0013021
        k(   36) = (   0.0000000   0.3367877   0.0000000), wk =   0.0013021
        k(   37) = (   0.0000000   0.3367877   0.0656364), wk =   0.0013021
        k(   38) = (   0.0000000   0.3367877   0.1312727), wk =   0.0013021
        k(   39) = (   0.0000000   0.3367877   0.1969091), wk =   0.0013021
        k(   40) = (   0.0000000   0.3367877  -0.2625455), wk =   0.0013021
        k(   41) = (   0.0000000   0.3849002   0.0000000), wk =   0.0013021
        k(   42) = (   0.0000000   0.3849002   0.0656364), wk =   0.0013021
        k(   43) = (   0.0000000   0.3849002   0.1312727), wk =   0.0013021
        k(   44) = (   0.0000000   0.3849002   0.1969091), wk =   0.0013021
        k(   45) = (   0.0000000   0.3849002  -0.2625455), wk =   0.0013021
        k(   46) = (   0.0000000   0.4330127   0.0000000), wk =   0.0013021
        k(   47) = (   0.0000000   0.4330127   0.0656364), wk =   0.0013021
        k(   48) = (   0.0000000   0.4330127   0.1312727), wk =   0.0013021
        k(   49) = (   0.0000000   0.4330127   0.1969091), wk =   0.0013021
        k(   50) = (   0.0000000   0.4330127  -0.2625455), wk =   0.0013021
        k(   51) = (   0.0000000   0.4811252   0.0000000), wk =   0.0013021
        k(   52) = (   0.0000000   0.4811252   0.0656364), wk =   0.0013021
        k(   53) = (   0.0000000   0.4811252   0.1312727), wk =   0.0013021
        k(   54) = (   0.0000000   0.4811252   0.1969091), wk =   0.0013021
        k(   55) = (   0.0000000   0.4811252  -0.2625455), wk =   0.0013021
        k(   56) = (   0.0000000   0.5292377   0.0000000), wk =   0.0013021
        k(   57) = (   0.0000000   0.5292377   0.0656364), wk =   0.0013021
        k(   58) = (   0.0000000   0.5292377   0.1312727), wk =   0.0013021
        k(   59) = (   0.0000000   0.5292377   0.1969091), wk =   0.0013021
        k(   60) = (   0.0000000   0.5292377  -0.2625455), wk =   0.0013021
        k(   61) = (   0.0000000  -0.5773503   0.0000000), wk =   0.0006510
        k(   62) = (   0.0000000  -0.5773503   0.0656364), wk =   0.0013021
        k(   63) = (   0.0000000  -0.5773503   0.1312727), wk =   0.0013021
        k(   64) = (   0.0000000  -0.5773503   0.1969091), wk =   0.0013021
        k(   65) = (   0.0000000  -0.5773503  -0.2625455), wk =   0.0006510
        k(   66) = (   0.0416667   0.0721688   0.0000000), wk =   0.0013021
        k(   67) = (   0.0416667   0.0721688   0.0656364), wk =   0.0026042
        k(   68) = (   0.0416667   0.0721688   0.1312727), wk =   0.0026042
        k(   69) = (   0.0416667   0.0721688   0.1969091), wk =   0.0026042
        k(   70) = (   0.0416667   0.0721688  -0.2625455), wk =   0.0013021
        k(   71) = (   0.0416667   0.1202813   0.0000000), wk =   0.0026042
        k(   72) = (   0.0416667   0.1202813   0.0656364), wk =   0.0026042
        k(   73) = (   0.0416667   0.1202813   0.1312727), wk =   0.0026042
        k(   74) = (   0.0416667   0.1202813   0.1969091), wk =   0.0026042
        k(   75) = (   0.0416667   0.1202813  -0.2625455), wk =   0.0026042
        k(   76) = (   0.0416667   0.1683938   0.0000000), wk =   0.0026042
        k(   77) = (   0.0416667   0.1683938   0.0656364), wk =   0.0026042
        k(   78) = (   0.0416667   0.1683938   0.1312727), wk =   0.0026042
        k(   79) = (   0.0416667   0.1683938   0.1969091), wk =   0.0026042
        k(   80) = (   0.0416667   0.1683938  -0.2625455), wk =   0.0026042
        k(   81) = (   0.0416667   0.2165064   0.0000000), wk =   0.0026042
        k(   82) = (   0.0416667   0.2165064   0.0656364), wk =   0.0026042
        k(   83) = (   0.0416667   0.2165064   0.1312727), wk =   0.0026042
        k(   84) = (   0.0416667   0.2165064   0.1969091), wk =   0.0026042
        k(   85) = (   0.0416667   0.2165064  -0.2625455), wk =   0.0026042
        k(   86) = (   0.0416667   0.2646189   0.0000000), wk =   0.0026042
        k(   87) = (   0.0416667   0.2646189   0.0656364), wk =   0.0026042
        k(   88) = (   0.0416667   0.2646189   0.1312727), wk =   0.0026042
        k(   89) = (   0.0416667   0.2646189   0.1969091), wk =   0.0026042
        k(   90) = (   0.0416667   0.2646189  -0.2625455), wk =   0.0026042
        k(   91) = (   0.0416667   0.3127314   0.0000000), wk =   0.0026042
        k(   92) = (   0.0416667   0.3127314   0.0656364), wk =   0.0026042
        k(   93) = (   0.0416667   0.3127314   0.1312727), wk =   0.0026042
        k(   94) = (   0.0416667   0.3127314   0.1969091), wk =   0.0026042
        k(   95) = (   0.0416667   0.3127314  -0.2625455), wk =   0.0026042
        k(   96) = (   0.0416667   0.3608439   0.0000000), wk =   0.0026042
        k(   97) = (   0.0416667   0.3608439   0.0656364), wk =   0.0026042
        k(   98) = (   0.0416667   0.3608439   0.1312727), wk =   0.0026042
        k(   99) = (   0.0416667   0.3608439   0.1969091), wk =   0.0026042
        k(  100) = (   0.0416667   0.3608439  -0.2625455), wk =   0.0026042
        k(  101) = (   0.0416667   0.4089564   0.0000000), wk =   0.0026042
        k(  102) = (   0.0416667   0.4089564   0.0656364), wk =   0.0026042
        k(  103) = (   0.0416667   0.4089564   0.1312727), wk =   0.0026042
        k(  104) = (   0.0416667   0.4089564   0.1969091), wk =   0.0026042
        k(  105) = (   0.0416667   0.4089564  -0.2625455), wk =   0.0026042
        k(  106) = (   0.0416667   0.4570690   0.0000000), wk =   0.0026042
        k(  107) = (   0.0416667   0.4570690   0.0656364), wk =   0.0026042
        k(  108) = (   0.0416667   0.4570690   0.1312727), wk =   0.0026042
        k(  109) = (   0.0416667   0.4570690   0.1969091), wk =   0.0026042
        k(  110) = (   0.0416667   0.4570690  -0.2625455), wk =   0.0026042
        k(  111) = (   0.0416667   0.5051815   0.0000000), wk =   0.0026042
        k(  112) = (   0.0416667   0.5051815   0.0656364), wk =   0.0026042
        k(  113) = (   0.0416667   0.5051815   0.1312727), wk =   0.0026042
        k(  114) = (   0.0416667   0.5051815   0.1969091), wk =   0.0026042
        k(  115) = (   0.0416667   0.5051815  -0.2625455), wk =   0.0026042
        k(  116) = (   0.0416667   0.5532940   0.0000000), wk =   0.0026042
        k(  117) = (   0.0416667   0.5532940   0.0656364), wk =   0.0026042
        k(  118) = (   0.0416667   0.5532940   0.1312727), wk =   0.0026042
        k(  119) = (   0.0416667   0.5532940   0.1969091), wk =   0.0026042
        k(  120) = (   0.0416667   0.5532940  -0.2625455), wk =   0.0026042
        k(  121) = (   0.0833333   0.1443376   0.0000000), wk =   0.0013021
        k(  122) = (   0.0833333   0.1443376   0.0656364), wk =   0.0026042
        k(  123) = (   0.0833333   0.1443376   0.1312727), wk =   0.0026042
        k(  124) = (   0.0833333   0.1443376   0.1969091), wk =   0.0026042
        k(  125) = (   0.0833333   0.1443376  -0.2625455), wk =   0.0013021
        k(  126) = (   0.0833333   0.1924501   0.0000000), wk =   0.0026042
        k(  127) = (   0.0833333   0.1924501   0.0656364), wk =   0.0026042
        k(  128) = (   0.0833333   0.1924501   0.1312727), wk =   0.0026042
        k(  129) = (   0.0833333   0.1924501   0.1969091), wk =   0.0026042
        k(  130) = (   0.0833333   0.1924501  -0.2625455), wk =   0.0026042
        k(  131) = (   0.0833333   0.2405626   0.0000000), wk =   0.0026042
        k(  132) = (   0.0833333   0.2405626   0.0656364), wk =   0.0026042
        k(  133) = (   0.0833333   0.2405626   0.1312727), wk =   0.0026042
        k(  134) = (   0.0833333   0.2405626   0.1969091), wk =   0.0026042
        k(  135) = (   0.0833333   0.2405626  -0.2625455), wk =   0.0026042
        k(  136) = (   0.0833333   0.2886751   0.0000000), wk =   0.0026042
        k(  137) = (   0.0833333   0.2886751   0.0656364), wk =   0.0026042
        k(  138) = (   0.0833333   0.2886751   0.1312727), wk =   0.0026042
        k(  139) = (   0.0833333   0.2886751   0.1969091), wk =   0.0026042
        k(  140) = (   0.0833333   0.2886751  -0.2625455), wk =   0.0026042
        k(  141) = (   0.0833333   0.3367877   0.0000000), wk =   0.0026042
        k(  142) = (   0.0833333   0.3367877   0.0656364), wk =   0.0026042
        k(  143) = (   0.0833333   0.3367877   0.1312727), wk =   0.0026042
        k(  144) = (   0.0833333   0.3367877   0.1969091), wk =   0.0026042
        k(  145) = (   0.0833333   0.3367877  -0.2625455), wk =   0.0026042
        k(  146) = (   0.0833333   0.3849002   0.0000000), wk =   0.0026042
        k(  147) = (   0.0833333   0.3849002   0.0656364), wk =   0.0026042
        k(  148) = (   0.0833333   0.3849002   0.1312727), wk =   0.0026042
        k(  149) = (   0.0833333   0.3849002   0.1969091), wk =   0.0026042
        k(  150) = (   0.0833333   0.3849002  -0.2625455), wk =   0.0026042
        k(  151) = (   0.0833333   0.4330127   0.0000000), wk =   0.0026042
        k(  152) = (   0.0833333   0.4330127   0.0656364), wk =   0.0026042
        k(  153) = (   0.0833333   0.4330127   0.1312727), wk =   0.0026042
        k(  154) = (   0.0833333   0.4330127   0.1969091), wk =   0.0026042
        k(  155) = (   0.0833333   0.4330127  -0.2625455), wk =   0.0026042
        k(  156) = (   0.0833333   0.4811252   0.0000000), wk =   0.0026042
        k(  157) = (   0.0833333   0.4811252   0.0656364), wk =   0.0026042
        k(  158) = (   0.0833333   0.4811252   0.1312727), wk =   0.0026042
        k(  159) = (   0.0833333   0.4811252   0.1969091), wk =   0.0026042
        k(  160) = (   0.0833333   0.4811252  -0.2625455), wk =   0.0026042
        k(  161) = (   0.0833333   0.5292377   0.0000000), wk =   0.0026042
        k(  162) = (   0.0833333   0.5292377   0.0656364), wk =   0.0026042
        k(  163) = (   0.0833333   0.5292377   0.1312727), wk =   0.0026042
        k(  164) = (   0.0833333   0.5292377   0.1969091), wk =   0.0026042
        k(  165) = (   0.0833333   0.5292377  -0.2625455), wk =   0.0026042
        k(  166) = (   0.0833333   0.5773503   0.0000000), wk =   0.0013021
        k(  167) = (   0.0833333   0.5773503   0.0656364), wk =   0.0026042
        k(  168) = (   0.0833333   0.5773503   0.1312727), wk =   0.0026042
        k(  169) = (   0.0833333   0.5773503   0.1969091), wk =   0.0026042
        k(  170) = (   0.0833333   0.5773503  -0.2625455), wk =   0.0013021
        k(  171) = (   0.1250000   0.2165064   0.0000000), wk =   0.0013021
        k(  172) = (   0.1250000   0.2165064   0.0656364), wk =   0.0026042
        k(  173) = (   0.1250000   0.2165064   0.1312727), wk =   0.0026042
        k(  174) = (   0.1250000   0.2165064   0.1969091), wk =   0.0026042
        k(  175) = (   0.1250000   0.2165064  -0.2625455), wk =   0.0013021
        k(  176) = (   0.1250000   0.2646189   0.0000000), wk =   0.0026042
        k(  177) = (   0.1250000   0.2646189   0.0656364), wk =   0.0026042
        k(  178) = (   0.1250000   0.2646189   0.1312727), wk =   0.0026042
        k(  179) = (   0.1250000   0.2646189   0.1969091), wk =   0.0026042
        k(  180) = (   0.1250000   0.2646189  -0.2625455), wk =   0.0026042
        k(  181) = (   0.1250000   0.3127314   0.0000000), wk =   0.0026042
        k(  182) = (   0.1250000   0.3127314   0.0656364), wk =   0.0026042
        k(  183) = (   0.1250000   0.3127314   0.1312727), wk =   0.0026042
        k(  184) = (   0.1250000   0.3127314   0.1969091), wk =   0.0026042
        k(  185) = (   0.1250000   0.3127314  -0.2625455), wk =   0.0026042
        k(  186) = (   0.1250000   0.3608439   0.0000000), wk =   0.0026042
        k(  187) = (   0.1250000   0.3608439   0.0656364), wk =   0.0026042
        k(  188) = (   0.1250000   0.3608439   0.1312727), wk =   0.0026042
        k(  189) = (   0.1250000   0.3608439   0.1969091), wk =   0.0026042
        k(  190) = (   0.1250000   0.3608439  -0.2625455), wk =   0.0026042
        k(  191) = (   0.1250000   0.4089564   0.0000000), wk =   0.0026042
        k(  192) = (   0.1250000   0.4089564   0.0656364), wk =   0.0026042
        k(  193) = (   0.1250000   0.4089564   0.1312727), wk =   0.0026042
        k(  194) = (   0.1250000   0.4089564   0.1969091), wk =   0.0026042
        k(  195) = (   0.1250000   0.4089564  -0.2625455), wk =   0.0026042
        k(  196) = (   0.1250000   0.4570690   0.0000000), wk =   0.0026042
        k(  197) = (   0.1250000   0.4570690   0.0656364), wk =   0.0026042
        k(  198) = (   0.1250000   0.4570690   0.1312727), wk =   0.0026042
        k(  199) = (   0.1250000   0.4570690   0.1969091), wk =   0.0026042
        k(  200) = (   0.1250000   0.4570690  -0.2625455), wk =   0.0026042
        k(  201) = (   0.1250000   0.5051815   0.0000000), wk =   0.0026042
        k(  202) = (   0.1250000   0.5051815   0.0656364), wk =   0.0026042
        k(  203) = (   0.1250000   0.5051815   0.1312727), wk =   0.0026042
        k(  204) = (   0.1250000   0.5051815   0.1969091), wk =   0.0026042
        k(  205) = (   0.1250000   0.5051815  -0.2625455), wk =   0.0026042
        k(  206) = (   0.1250000   0.5532940   0.0000000), wk =   0.0026042
        k(  207) = (   0.1250000   0.5532940   0.0656364), wk =   0.0026042
        k(  208) = (   0.1250000   0.5532940   0.1312727), wk =   0.0026042
        k(  209) = (   0.1250000   0.5532940   0.1969091), wk =   0.0026042
        k(  210) = (   0.1250000   0.5532940  -0.2625455), wk =   0.0026042
        k(  211) = (   0.1666667   0.2886751   0.0000000), wk =   0.0013021
        k(  212) = (   0.1666667   0.2886751   0.0656364), wk =   0.0026042
        k(  213) = (   0.1666667   0.2886751   0.1312727), wk =   0.0026042
        k(  214) = (   0.1666667   0.2886751   0.1969091), wk =   0.0026042
        k(  215) = (   0.1666667   0.2886751  -0.2625455), wk =   0.0013021
        k(  216) = (   0.1666667   0.3367877   0.0000000), wk =   0.0026042
        k(  217) = (   0.1666667   0.3367877   0.0656364), wk =   0.0026042
        k(  218) = (   0.1666667   0.3367877   0.1312727), wk =   0.0026042
        k(  219) = (   0.1666667   0.3367877   0.1969091), wk =   0.0026042
        k(  220) = (   0.1666667   0.3367877  -0.2625455), wk =   0.0026042
        k(  221) = (   0.1666667   0.3849002   0.0000000), wk =   0.0026042
        k(  222) = (   0.1666667   0.3849002   0.0656364), wk =   0.0026042
        k(  223) = (   0.1666667   0.3849002   0.1312727), wk =   0.0026042
        k(  224) = (   0.1666667   0.3849002   0.1969091), wk =   0.0026042
        k(  225) = (   0.1666667   0.3849002  -0.2625455), wk =   0.0026042
        k(  226) = (   0.1666667   0.4330127   0.0000000), wk =   0.0026042
        k(  227) = (   0.1666667   0.4330127   0.0656364), wk =   0.0026042
        k(  228) = (   0.1666667   0.4330127   0.1312727), wk =   0.0026042
        k(  229) = (   0.1666667   0.4330127   0.1969091), wk =   0.0026042
        k(  230) = (   0.1666667   0.4330127  -0.2625455), wk =   0.0026042
        k(  231) = (   0.1666667   0.4811252   0.0000000), wk =   0.0026042
        k(  232) = (   0.1666667   0.4811252   0.0656364), wk =   0.0026042
        k(  233) = (   0.1666667   0.4811252   0.1312727), wk =   0.0026042
        k(  234) = (   0.1666667   0.4811252   0.1969091), wk =   0.0026042
        k(  235) = (   0.1666667   0.4811252  -0.2625455), wk =   0.0026042
        k(  236) = (   0.1666667   0.5292377   0.0000000), wk =   0.0026042
        k(  237) = (   0.1666667   0.5292377   0.0656364), wk =   0.0026042
        k(  238) = (   0.1666667   0.5292377   0.1312727), wk =   0.0026042
        k(  239) = (   0.1666667   0.5292377   0.1969091), wk =   0.0026042
        k(  240) = (   0.1666667   0.5292377  -0.2625455), wk =   0.0026042
        k(  241) = (   0.1666667   0.5773503   0.0000000), wk =   0.0013021
        k(  242) = (   0.1666667   0.5773503   0.0656364), wk =   0.0026042
        k(  243) = (   0.1666667   0.5773503   0.1312727), wk =   0.0026042
        k(  244) = (   0.1666667   0.5773503   0.1969091), wk =   0.0026042
        k(  245) = (   0.1666667   0.5773503  -0.2625455), wk =   0.0013021
        k(  246) = (   0.2083333   0.3608439   0.0000000), wk =   0.0013021
        k(  247) = (   0.2083333   0.3608439   0.0656364), wk =   0.0026042
        k(  248) = (   0.2083333   0.3608439   0.1312727), wk =   0.0026042
        k(  249) = (   0.2083333   0.3608439   0.1969091), wk =   0.0026042
        k(  250) = (   0.2083333   0.3608439  -0.2625455), wk =   0.0013021
        k(  251) = (   0.2083333   0.4089564   0.0000000), wk =   0.0026042
        k(  252) = (   0.2083333   0.4089564   0.0656364), wk =   0.0026042
        k(  253) = (   0.2083333   0.4089564   0.1312727), wk =   0.0026042
        k(  254) = (   0.2083333   0.4089564   0.1969091), wk =   0.0026042
        k(  255) = (   0.2083333   0.4089564  -0.2625455), wk =   0.0026042
        k(  256) = (   0.2083333   0.4570690   0.0000000), wk =   0.0026042
        k(  257) = (   0.2083333   0.4570690   0.0656364), wk =   0.0026042
        k(  258) = (   0.2083333   0.4570690   0.1312727), wk =   0.0026042
        k(  259) = (   0.2083333   0.4570690   0.1969091), wk =   0.0026042
        k(  260) = (   0.2083333   0.4570690  -0.2625455), wk =   0.0026042
        k(  261) = (   0.2083333   0.5051815   0.0000000), wk =   0.0026042
        k(  262) = (   0.2083333   0.5051815   0.0656364), wk =   0.0026042
        k(  263) = (   0.2083333   0.5051815   0.1312727), wk =   0.0026042
        k(  264) = (   0.2083333   0.5051815   0.1969091), wk =   0.0026042
        k(  265) = (   0.2083333   0.5051815  -0.2625455), wk =   0.0026042
        k(  266) = (   0.2083333   0.5532940   0.0000000), wk =   0.0026042
        k(  267) = (   0.2083333   0.5532940   0.0656364), wk =   0.0026042
        k(  268) = (   0.2083333   0.5532940   0.1312727), wk =   0.0026042
        k(  269) = (   0.2083333   0.5532940   0.1969091), wk =   0.0026042
        k(  270) = (   0.2083333   0.5532940  -0.2625455), wk =   0.0026042
        k(  271) = (   0.2500000   0.4330127   0.0000000), wk =   0.0013021
        k(  272) = (   0.2500000   0.4330127   0.0656364), wk =   0.0026042
        k(  273) = (   0.2500000   0.4330127   0.1312727), wk =   0.0026042
        k(  274) = (   0.2500000   0.4330127   0.1969091), wk =   0.0026042
        k(  275) = (   0.2500000   0.4330127  -0.2625455), wk =   0.0013021
        k(  276) = (   0.2500000   0.4811252   0.0000000), wk =   0.0026042
        k(  277) = (   0.2500000   0.4811252   0.0656364), wk =   0.0026042
        k(  278) = (   0.2500000   0.4811252   0.1312727), wk =   0.0026042
        k(  279) = (   0.2500000   0.4811252   0.1969091), wk =   0.0026042
        k(  280) = (   0.2500000   0.4811252  -0.2625455), wk =   0.0026042
        k(  281) = (   0.2500000   0.5292377   0.0000000), wk =   0.0026042
        k(  282) = (   0.2500000   0.5292377   0.0656364), wk =   0.0026042
        k(  283) = (   0.2500000   0.5292377   0.1312727), wk =   0.0026042
        k(  284) = (   0.2500000   0.5292377   0.1969091), wk =   0.0026042
        k(  285) = (   0.2500000   0.5292377  -0.2625455), wk =   0.0026042
        k(  286) = (   0.2500000   0.5773503   0.0000000), wk =   0.0013021
        k(  287) = (   0.2500000   0.5773503   0.0656364), wk =   0.0026042
        k(  288) = (   0.2500000   0.5773503   0.1312727), wk =   0.0026042
        k(  289) = (   0.2500000   0.5773503   0.1969091), wk =   0.0026042
        k(  290) = (   0.2500000   0.5773503  -0.2625455), wk =   0.0013021
        k(  291) = (   0.2916667   0.5051815   0.0000000), wk =   0.0013021
        k(  292) = (   0.2916667   0.5051815   0.0656364), wk =   0.0026042
        k(  293) = (   0.2916667   0.5051815   0.1312727), wk =   0.0026042
        k(  294) = (   0.2916667   0.5051815   0.1969091), wk =   0.0026042
        k(  295) = (   0.2916667   0.5051815  -0.2625455), wk =   0.0013021
        k(  296) = (   0.2916667   0.5532940   0.0000000), wk =   0.0026042
        k(  297) = (   0.2916667   0.5532940   0.0656364), wk =   0.0026042
        k(  298) = (   0.2916667   0.5532940   0.1312727), wk =   0.0026042
        k(  299) = (   0.2916667   0.5532940   0.1969091), wk =   0.0026042
        k(  300) = (   0.2916667   0.5532940  -0.2625455), wk =   0.0026042
        k(  301) = (   0.3333333   0.5773503   0.0000000), wk =   0.0004340
        k(  302) = (   0.3333333   0.5773503   0.0656364), wk =   0.0008681
        k(  303) = (   0.3333333   0.5773503   0.1312727), wk =   0.0008681
        k(  304) = (   0.3333333   0.5773503   0.1969091), wk =   0.0008681
        k(  305) = (   0.3333333   0.5773503  -0.2625455), wk =   0.0004340
        k(  306) = (   0.0000000   0.0481125  -0.0656364), wk =   0.0013021
        k(  307) = (   0.0000000   0.0481125  -0.1312727), wk =   0.0013021
        k(  308) = (   0.0000000   0.0481125  -0.1969091), wk =   0.0013021
        k(  309) = (   0.0000000   0.0962250  -0.0656364), wk =   0.0013021
        k(  310) = (   0.0000000   0.0962250  -0.1312727), wk =   0.0013021
        k(  311) = (   0.0000000   0.0962250  -0.1969091), wk =   0.0013021
        k(  312) = (   0.0000000   0.1443376  -0.0656364), wk =   0.0013021
        k(  313) = (   0.0000000   0.1443376  -0.1312727), wk =   0.0013021
        k(  314) = (   0.0000000   0.1443376  -0.1969091), wk =   0.0013021
        k(  315) = (   0.0000000   0.1924501  -0.0656364), wk =   0.0013021
        k(  316) = (   0.0000000   0.1924501  -0.1312727), wk =   0.0013021
        k(  317) = (   0.0000000   0.1924501  -0.1969091), wk =   0.0013021
        k(  318) = (   0.0000000   0.2405626  -0.0656364), wk =   0.0013021
        k(  319) = (   0.0000000   0.2405626  -0.1312727), wk =   0.0013021
        k(  320) = (   0.0000000   0.2405626  -0.1969091), wk =   0.0013021
        k(  321) = (   0.0000000   0.2886751  -0.0656364), wk =   0.0013021
        k(  322) = (   0.0000000   0.2886751  -0.1312727), wk =   0.0013021
        k(  323) = (   0.0000000   0.2886751  -0.1969091), wk =   0.0013021
        k(  324) = (   0.0000000   0.3367877  -0.0656364), wk =   0.0013021
        k(  325) = (   0.0000000   0.3367877  -0.1312727), wk =   0.0013021
        k(  326) = (   0.0000000   0.3367877  -0.1969091), wk =   0.0013021
        k(  327) = (   0.0000000   0.3849002  -0.0656364), wk =   0.0013021
        k(  328) = (   0.0000000   0.3849002  -0.1312727), wk =   0.0013021
        k(  329) = (   0.0000000   0.3849002  -0.1969091), wk =   0.0013021
        k(  330) = (   0.0000000   0.4330127  -0.0656364), wk =   0.0013021
        k(  331) = (   0.0000000   0.4330127  -0.1312727), wk =   0.0013021
        k(  332) = (   0.0000000   0.4330127  -0.1969091), wk =   0.0013021
        k(  333) = (   0.0000000   0.4811252  -0.0656364), wk =   0.0013021
        k(  334) = (   0.0000000   0.4811252  -0.1312727), wk =   0.0013021
        k(  335) = (   0.0000000   0.4811252  -0.1969091), wk =   0.0013021
        k(  336) = (   0.0000000   0.5292377  -0.0656364), wk =   0.0013021
        k(  337) = (   0.0000000   0.5292377  -0.1312727), wk =   0.0013021
        k(  338) = (   0.0000000   0.5292377  -0.1969091), wk =   0.0013021
        k(  339) = (  -0.0416667   0.1202813  -0.0656364), wk =   0.0026042
        k(  340) = (  -0.0416667   0.1202813  -0.1312727), wk =   0.0026042
        k(  341) = (  -0.0416667   0.1202813  -0.1969091), wk =   0.0026042
        k(  342) = (  -0.0416667   0.1683938  -0.0656364), wk =   0.0026042
        k(  343) = (  -0.0416667   0.1683938  -0.1312727), wk =   0.0026042
        k(  344) = (  -0.0416667   0.1683938  -0.1969091), wk =   0.0026042
        k(  345) = (  -0.0416667   0.2165064  -0.0656364), wk =   0.0026042
        k(  346) = (  -0.0416667   0.2165064  -0.1312727), wk =   0.0026042
        k(  347) = (  -0.0416667   0.2165064  -0.1969091), wk =   0.0026042
        k(  348) = (  -0.0416667   0.2646189  -0.0656364), wk =   0.0026042
        k(  349) = (  -0.0416667   0.2646189  -0.1312727), wk =   0.0026042
        k(  350) = (  -0.0416667   0.2646189  -0.1969091), wk =   0.0026042
        k(  351) = (  -0.0416667   0.3127314  -0.0656364), wk =   0.0026042
        k(  352) = (  -0.0416667   0.3127314  -0.1312727), wk =   0.0026042
        k(  353) = (  -0.0416667   0.3127314  -0.1969091), wk =   0.0026042
        k(  354) = (  -0.0416667   0.3608439  -0.0656364), wk =   0.0026042
        k(  355) = (  -0.0416667   0.3608439  -0.1312727), wk =   0.0026042
        k(  356) = (  -0.0416667   0.3608439  -0.1969091), wk =   0.0026042
        k(  357) = (  -0.0416667   0.4089564  -0.0656364), wk =   0.0026042
        k(  358) = (  -0.0416667   0.4089564  -0.1312727), wk =   0.0026042
        k(  359) = (  -0.0416667   0.4089564  -0.1969091), wk =   0.0026042
        k(  360) = (  -0.0416667   0.4570690  -0.0656364), wk =   0.0026042
        k(  361) = (  -0.0416667   0.4570690  -0.1312727), wk =   0.0026042
        k(  362) = (  -0.0416667   0.4570690  -0.1969091), wk =   0.0026042
        k(  363) = (  -0.0416667   0.5051815  -0.0656364), wk =   0.0026042
        k(  364) = (  -0.0416667   0.5051815  -0.1312727), wk =   0.0026042
        k(  365) = (  -0.0416667   0.5051815  -0.1969091), wk =   0.0026042
        k(  366) = (  -0.0416667   0.5532940  -0.0656364), wk =   0.0026042
        k(  367) = (  -0.0416667   0.5532940  -0.1312727), wk =   0.0026042
        k(  368) = (  -0.0416667   0.5532940  -0.1969091), wk =   0.0026042
        k(  369) = (  -0.0833333   0.1924501  -0.0656364), wk =   0.0026042
        k(  370) = (  -0.0833333   0.1924501  -0.1312727), wk =   0.0026042
        k(  371) = (  -0.0833333   0.1924501  -0.1969091), wk =   0.0026042
        k(  372) = (  -0.0833333   0.2405626  -0.0656364), wk =   0.0026042
        k(  373) = (  -0.0833333   0.2405626  -0.1312727), wk =   0.0026042
        k(  374) = (  -0.0833333   0.2405626  -0.1969091), wk =   0.0026042
        k(  375) = (  -0.0833333   0.2886751  -0.0656364), wk =   0.0026042
        k(  376) = (  -0.0833333   0.2886751  -0.1312727), wk =   0.0026042
        k(  377) = (  -0.0833333   0.2886751  -0.1969091), wk =   0.0026042
        k(  378) = (  -0.0833333   0.3367877  -0.0656364), wk =   0.0026042
        k(  379) = (  -0.0833333   0.3367877  -0.1312727), wk =   0.0026042
        k(  380) = (  -0.0833333   0.3367877  -0.1969091), wk =   0.0026042
        k(  381) = (  -0.0833333   0.3849002  -0.0656364), wk =   0.0026042
        k(  382) = (  -0.0833333   0.3849002  -0.1312727), wk =   0.0026042
        k(  383) = (  -0.0833333   0.3849002  -0.1969091), wk =   0.0026042
        k(  384) = (  -0.0833333   0.4330127  -0.0656364), wk =   0.0026042
        k(  385) = (  -0.0833333   0.4330127  -0.1312727), wk =   0.0026042
        k(  386) = (  -0.0833333   0.4330127  -0.1969091), wk =   0.0026042
        k(  387) = (  -0.0833333   0.4811252  -0.0656364), wk =   0.0026042
        k(  388) = (  -0.0833333   0.4811252  -0.1312727), wk =   0.0026042
        k(  389) = (  -0.0833333   0.4811252  -0.1969091), wk =   0.0026042
        k(  390) = (  -0.0833333   0.5292377  -0.0656364), wk =   0.0026042
        k(  391) = (  -0.0833333   0.5292377  -0.1312727), wk =   0.0026042
        k(  392) = (  -0.0833333   0.5292377  -0.1969091), wk =   0.0026042
        k(  393) = (  -0.1250000   0.2646189  -0.0656364), wk =   0.0026042
        k(  394) = (  -0.1250000   0.2646189  -0.1312727), wk =   0.0026042
        k(  395) = (  -0.1250000   0.2646189  -0.1969091), wk =   0.0026042
        k(  396) = (  -0.1250000   0.3127314  -0.0656364), wk =   0.0026042
        k(  397) = (  -0.1250000   0.3127314  -0.1312727), wk =   0.0026042
        k(  398) = (  -0.1250000   0.3127314  -0.1969091), wk =   0.0026042
        k(  399) = (  -0.1250000   0.3608439  -0.0656364), wk =   0.0026042
        k(  400) = (  -0.1250000   0.3608439  -0.1312727), wk =   0.0026042
        k(  401) = (  -0.1250000   0.3608439  -0.1969091), wk =   0.0026042
        k(  402) = (  -0.1250000   0.4089564  -0.0656364), wk =   0.0026042
        k(  403) = (  -0.1250000   0.4089564  -0.1312727), wk =   0.0026042
        k(  404) = (  -0.1250000   0.4089564  -0.1969091), wk =   0.0026042
        k(  405) = (  -0.1250000   0.4570690  -0.0656364), wk =   0.0026042
        k(  406) = (  -0.1250000   0.4570690  -0.1312727), wk =   0.0026042
        k(  407) = (  -0.1250000   0.4570690  -0.1969091), wk =   0.0026042
        k(  408) = (  -0.1250000   0.5051815  -0.0656364), wk =   0.0026042
        k(  409) = (  -0.1250000   0.5051815  -0.1312727), wk =   0.0026042
        k(  410) = (  -0.1250000   0.5051815  -0.1969091), wk =   0.0026042
        k(  411) = (  -0.1250000   0.5532940  -0.0656364), wk =   0.0026042
        k(  412) = (  -0.1250000   0.5532940  -0.1312727), wk =   0.0026042
        k(  413) = (  -0.1250000   0.5532940  -0.1969091), wk =   0.0026042
        k(  414) = (  -0.1666667   0.3367877  -0.0656364), wk =   0.0026042
        k(  415) = (  -0.1666667   0.3367877  -0.1312727), wk =   0.0026042
        k(  416) = (  -0.1666667   0.3367877  -0.1969091), wk =   0.0026042
        k(  417) = (  -0.1666667   0.3849002  -0.0656364), wk =   0.0026042
        k(  418) = (  -0.1666667   0.3849002  -0.1312727), wk =   0.0026042
        k(  419) = (  -0.1666667   0.3849002  -0.1969091), wk =   0.0026042
        k(  420) = (  -0.1666667   0.4330127  -0.0656364), wk =   0.0026042
        k(  421) = (  -0.1666667   0.4330127  -0.1312727), wk =   0.0026042
        k(  422) = (  -0.1666667   0.4330127  -0.1969091), wk =   0.0026042
        k(  423) = (  -0.1666667   0.4811252  -0.0656364), wk =   0.0026042
        k(  424) = (  -0.1666667   0.4811252  -0.1312727), wk =   0.0026042
        k(  425) = (  -0.1666667   0.4811252  -0.1969091), wk =   0.0026042
        k(  426) = (  -0.1666667   0.5292377  -0.0656364), wk =   0.0026042
        k(  427) = (  -0.1666667   0.5292377  -0.1312727), wk =   0.0026042
        k(  428) = (  -0.1666667   0.5292377  -0.1969091), wk =   0.0026042
        k(  429) = (  -0.2083333   0.4089564  -0.0656364), wk =   0.0026042
        k(  430) = (  -0.2083333   0.4089564  -0.1312727), wk =   0.0026042
        k(  431) = (  -0.2083333   0.4089564  -0.1969091), wk =   0.0026042
        k(  432) = (  -0.2083333   0.4570690  -0.0656364), wk =   0.0026042
        k(  433) = (  -0.2083333   0.4570690  -0.1312727), wk =   0.0026042
        k(  434) = (  -0.2083333   0.4570690  -0.1969091), wk =   0.0026042
        k(  435) = (  -0.2083333   0.5051815  -0.0656364), wk =   0.0026042
        k(  436) = (  -0.2083333   0.5051815  -0.1312727), wk =   0.0026042
        k(  437) = (  -0.2083333   0.5051815  -0.1969091), wk =   0.0026042
        k(  438) = (  -0.2083333   0.5532940  -0.0656364), wk =   0.0026042
        k(  439) = (  -0.2083333   0.5532940  -0.1312727), wk =   0.0026042
        k(  440) = (  -0.2083333   0.5532940  -0.1969091), wk =   0.0026042
        k(  441) = (  -0.2500000   0.4811252  -0.0656364), wk =   0.0026042
        k(  442) = (  -0.2500000   0.4811252  -0.1312727), wk =   0.0026042
        k(  443) = (  -0.2500000   0.4811252  -0.1969091), wk =   0.0026042
        k(  444) = (  -0.2500000   0.5292377  -0.0656364), wk =   0.0026042
        k(  445) = (  -0.2500000   0.5292377  -0.1312727), wk =   0.0026042
        k(  446) = (  -0.2500000   0.5292377  -0.1969091), wk =   0.0026042
        k(  447) = (  -0.2916667   0.5532940  -0.0656364), wk =   0.0026042
        k(  448) = (  -0.2916667   0.5532940  -0.1312727), wk =   0.0026042
        k(  449) = (  -0.2916667   0.5532940  -0.1969091), wk =   0.0026042

                       cryst. coord.
        k(    1) = (   0.0000000   0.0000000   0.0000000), wk =   0.0002170
        k(    2) = (   0.0000000   0.0000000   0.1250000), wk =   0.0004340
        k(    3) = (   0.0000000   0.0000000   0.2500000), wk =   0.0004340
        k(    4) = (   0.0000000   0.0000000   0.3750000), wk =   0.0004340
        k(    5) = (   0.0000000   0.0000000  -0.5000000), wk =   0.0002170
        k(    6) = (   0.0000000   0.0416667   0.0000000), wk =   0.0013021
        k(    7) = (   0.0000000   0.0416667   0.1250000), wk =   0.0013021
        k(    8) = (   0.0000000   0.0416667   0.2500000), wk =   0.0013021
        k(    9) = (   0.0000000   0.0416667   0.3750000), wk =   0.0013021
        k(   10) = (   0.0000000   0.0416667  -0.5000000), wk =   0.0013021
        k(   11) = (   0.0000000   0.0833333   0.0000000), wk =   0.0013021
        k(   12) = (   0.0000000   0.0833333   0.1250000), wk =   0.0013021
        k(   13) = (   0.0000000   0.0833333   0.2500000), wk =   0.0013021
        k(   14) = (   0.0000000   0.0833333   0.3750000), wk =   0.0013021
        k(   15) = (   0.0000000   0.0833333  -0.5000000), wk =   0.0013021
        k(   16) = (   0.0000000   0.1250000   0.0000000), wk =   0.0013021
        k(   17) = (   0.0000000   0.1250000   0.1250000), wk =   0.0013021
        k(   18) = (   0.0000000   0.1250000   0.2500000), wk =   0.0013021
        k(   19) = (   0.0000000   0.1250000   0.3750000), wk =   0.0013021
        k(   20) = (   0.0000000   0.1250000  -0.5000000), wk =   0.0013021
        k(   21) = (   0.0000000   0.1666667   0.0000000), wk =   0.0013021
        k(   22) = (   0.0000000   0.1666667   0.1250000), wk =   0.0013021
        k(   23) = (   0.0000000   0.1666667   0.2500000), wk =   0.0013021
        k(   24) = (   0.0000000   0.1666667   0.3750000), wk =   0.0013021
        k(   25) = (   0.0000000   0.1666667  -0.5000000), wk =   0.0013021
        k(   26) = (   0.0000000   0.2083333   0.0000000), wk =   0.0013021
        k(   27) = (   0.0000000   0.2083333   0.1250000), wk =   0.0013021
        k(   28) = (   0.0000000   0.2083333   0.2500000), wk =   0.0013021
        k(   29) = (   0.0000000   0.2083333   0.3750000), wk =   0.0013021
        k(   30) = (   0.0000000   0.2083333  -0.5000000), wk =   0.0013021
        k(   31) = (   0.0000000   0.2500000   0.0000000), wk =   0.0013021
        k(   32) = (   0.0000000   0.2500000   0.1250000), wk =   0.0013021
        k(   33) = (   0.0000000   0.2500000   0.2500000), wk =   0.0013021
        k(   34) = (   0.0000000   0.2500000   0.3750000), wk =   0.0013021
        k(   35) = (   0.0000000   0.2500000  -0.5000000), wk =   0.0013021
        k(   36) = (   0.0000000   0.2916667   0.0000000), wk =   0.0013021
        k(   37) = (   0.0000000   0.2916667   0.1250000), wk =   0.0013021
        k(   38) = (   0.0000000   0.2916667   0.2500000), wk =   0.0013021
        k(   39) = (   0.0000000   0.2916667   0.3750000), wk =   0.0013021
        k(   40) = (   0.0000000   0.2916667  -0.5000000), wk =   0.0013021
        k(   41) = (   0.0000000   0.3333333   0.0000000), wk =   0.0013021
        k(   42) = (   0.0000000   0.3333333   0.1250000), wk =   0.0013021
        k(   43) = (   0.0000000   0.3333333   0.2500000), wk =   0.0013021
        k(   44) = (   0.0000000   0.3333333   0.3750000), wk =   0.0013021
        k(   45) = (   0.0000000   0.3333333  -0.5000000), wk =   0.0013021
        k(   46) = (   0.0000000   0.3750000   0.0000000), wk =   0.0013021
        k(   47) = (   0.0000000   0.3750000   0.1250000), wk =   0.0013021
        k(   48) = (   0.0000000   0.3750000   0.2500000), wk =   0.0013021
        k(   49) = (   0.0000000   0.3750000   0.3750000), wk =   0.0013021
        k(   50) = (   0.0000000   0.3750000  -0.5000000), wk =   0.0013021
        k(   51) = (   0.0000000   0.4166667   0.0000000), wk =   0.0013021
        k(   52) = (   0.0000000   0.4166667   0.1250000), wk =   0.0013021
        k(   53) = (   0.0000000   0.4166667   0.2500000), wk =   0.0013021
        k(   54) = (   0.0000000   0.4166667   0.3750000), wk =   0.0013021
        k(   55) = (   0.0000000   0.4166667  -0.5000000), wk =   0.0013021
        k(   56) = (   0.0000000   0.4583333   0.0000000), wk =   0.0013021
        k(   57) = (   0.0000000   0.4583333   0.1250000), wk =   0.0013021
        k(   58) = (   0.0000000   0.4583333   0.2500000), wk =   0.0013021
        k(   59) = (   0.0000000   0.4583333   0.3750000), wk =   0.0013021
        k(   60) = (   0.0000000   0.4583333  -0.5000000), wk =   0.0013021
        k(   61) = (   0.0000000  -0.5000000   0.0000000), wk =   0.0006510
        k(   62) = (   0.0000000  -0.5000000   0.1250000), wk =   0.0013021
        k(   63) = (   0.0000000  -0.5000000   0.2500000), wk =   0.0013021
        k(   64) = (   0.0000000  -0.5000000   0.3750000), wk =   0.0013021
        k(   65) = (   0.0000000  -0.5000000  -0.5000000), wk =   0.0006510
        k(   66) = (   0.0416667   0.0416667   0.0000000), wk =   0.0013021
        k(   67) = (   0.0416667   0.0416667   0.1250000), wk =   0.0026042
        k(   68) = (   0.0416667   0.0416667   0.2500000), wk =   0.0026042
        k(   69) = (   0.0416667   0.0416667   0.3750000), wk =   0.0026042
        k(   70) = (   0.0416667   0.0416667  -0.5000000), wk =   0.0013021
        k(   71) = (   0.0416667   0.0833333   0.0000000), wk =   0.0026042
        k(   72) = (   0.0416667   0.0833333   0.1250000), wk =   0.0026042
        k(   73) = (   0.0416667   0.0833333   0.2500000), wk =   0.0026042
        k(   74) = (   0.0416667   0.0833333   0.3750000), wk =   0.0026042
        k(   75) = (   0.0416667   0.0833333  -0.5000000), wk =   0.0026042
        k(   76) = (   0.0416667   0.1250000   0.0000000), wk =   0.0026042
        k(   77) = (   0.0416667   0.1250000   0.1250000), wk =   0.0026042
        k(   78) = (   0.0416667   0.1250000   0.2500000), wk =   0.0026042
        k(   79) = (   0.0416667   0.1250000   0.3750000), wk =   0.0026042
        k(   80) = (   0.0416667   0.1250000  -0.5000000), wk =   0.0026042
        k(   81) = (   0.0416667   0.1666667   0.0000000), wk =   0.0026042
        k(   82) = (   0.0416667   0.1666667   0.1250000), wk =   0.0026042
        k(   83) = (   0.0416667   0.1666667   0.2500000), wk =   0.0026042
        k(   84) = (   0.0416667   0.1666667   0.3750000), wk =   0.0026042
        k(   85) = (   0.0416667   0.1666667  -0.5000000), wk =   0.0026042
        k(   86) = (   0.0416667   0.2083333   0.0000000), wk =   0.0026042
        k(   87) = (   0.0416667   0.2083333   0.1250000), wk =   0.0026042
        k(   88) = (   0.0416667   0.2083333   0.2500000), wk =   0.0026042
        k(   89) = (   0.0416667   0.2083333   0.3750000), wk =   0.0026042
        k(   90) = (   0.0416667   0.2083333  -0.5000000), wk =   0.0026042
        k(   91) = (   0.0416667   0.2500000   0.0000000), wk =   0.0026042
        k(   92) = (   0.0416667   0.2500000   0.1250000), wk =   0.0026042
        k(   93) = (   0.0416667   0.2500000   0.2500000), wk =   0.0026042
        k(   94) = (   0.0416667   0.2500000   0.3750000), wk =   0.0026042
        k(   95) = (   0.0416667   0.2500000  -0.5000000), wk =   0.0026042
        k(   96) = (   0.0416667   0.2916667   0.0000000), wk =   0.0026042
        k(   97) = (   0.0416667   0.2916667   0.1250000), wk =   0.0026042
        k(   98) = (   0.0416667   0.2916667   0.2500000), wk =   0.0026042
        k(   99) = (   0.0416667   0.2916667   0.3750000), wk =   0.0026042
        k(  100) = (   0.0416667   0.2916667  -0.5000000), wk =   0.0026042
        k(  101) = (   0.0416667   0.3333333   0.0000000), wk =   0.0026042
        k(  102) = (   0.0416667   0.3333333   0.1250000), wk =   0.0026042
        k(  103) = (   0.0416667   0.3333333   0.2500000), wk =   0.0026042
        k(  104) = (   0.0416667   0.3333333   0.3750000), wk =   0.0026042
        k(  105) = (   0.0416667   0.3333333  -0.5000000), wk =   0.0026042
        k(  106) = (   0.0416667   0.3750000   0.0000000), wk =   0.0026042
        k(  107) = (   0.0416667   0.3750000   0.1250000), wk =   0.0026042
        k(  108) = (   0.0416667   0.3750000   0.2500000), wk =   0.0026042
        k(  109) = (   0.0416667   0.3750000   0.3750000), wk =   0.0026042
        k(  110) = (   0.0416667   0.3750000  -0.5000000), wk =   0.0026042
        k(  111) = (   0.0416667   0.4166667   0.0000000), wk =   0.0026042
        k(  112) = (   0.0416667   0.4166667   0.1250000), wk =   0.0026042
        k(  113) = (   0.0416667   0.4166667   0.2500000), wk =   0.0026042
        k(  114) = (   0.0416667   0.4166667   0.3750000), wk =   0.0026042
        k(  115) = (   0.0416667   0.4166667  -0.5000000), wk =   0.0026042
        k(  116) = (   0.0416667   0.4583333   0.0000000), wk =   0.0026042
        k(  117) = (   0.0416667   0.4583333   0.1250000), wk =   0.0026042
        k(  118) = (   0.0416667   0.4583333   0.2500000), wk =   0.0026042
        k(  119) = (   0.0416667   0.4583333   0.3750000), wk =   0.0026042
        k(  120) = (   0.0416667   0.4583333  -0.5000000), wk =   0.0026042
        k(  121) = (   0.0833333   0.0833333   0.0000000), wk =   0.0013021
        k(  122) = (   0.0833333   0.0833333   0.1250000), wk =   0.0026042
        k(  123) = (   0.0833333   0.0833333   0.2500000), wk =   0.0026042
        k(  124) = (   0.0833333   0.0833333   0.3750000), wk =   0.0026042
        k(  125) = (   0.0833333   0.0833333  -0.5000000), wk =   0.0013021
        k(  126) = (   0.0833333   0.1250000   0.0000000), wk =   0.0026042
        k(  127) = (   0.0833333   0.1250000   0.1250000), wk =   0.0026042
        k(  128) = (   0.0833333   0.1250000   0.2500000), wk =   0.0026042
        k(  129) = (   0.0833333   0.1250000   0.3750000), wk =   0.0026042
        k(  130) = (   0.0833333   0.1250000  -0.5000000), wk =   0.0026042
        k(  131) = (   0.0833333   0.1666667   0.0000000), wk =   0.0026042
        k(  132) = (   0.0833333   0.1666667   0.1250000), wk =   0.0026042
        k(  133) = (   0.0833333   0.1666667   0.2500000), wk =   0.0026042
        k(  134) = (   0.0833333   0.1666667   0.3750000), wk =   0.0026042
        k(  135) = (   0.0833333   0.1666667  -0.5000000), wk =   0.0026042
        k(  136) = (   0.0833333   0.2083333   0.0000000), wk =   0.0026042
        k(  137) = (   0.0833333   0.2083333   0.1250000), wk =   0.0026042
        k(  138) = (   0.0833333   0.2083333   0.2500000), wk =   0.0026042
        k(  139) = (   0.0833333   0.2083333   0.3750000), wk =   0.0026042
        k(  140) = (   0.0833333   0.2083333  -0.5000000), wk =   0.0026042
        k(  141) = (   0.0833333   0.2500000   0.0000000), wk =   0.0026042
        k(  142) = (   0.0833333   0.2500000   0.1250000), wk =   0.0026042
        k(  143) = (   0.0833333   0.2500000   0.2500000), wk =   0.0026042
        k(  144) = (   0.0833333   0.2500000   0.3750000), wk =   0.0026042
        k(  145) = (   0.0833333   0.2500000  -0.5000000), wk =   0.0026042
        k(  146) = (   0.0833333   0.2916667   0.0000000), wk =   0.0026042
        k(  147) = (   0.0833333   0.2916667   0.1250000), wk =   0.0026042
        k(  148) = (   0.0833333   0.2916667   0.2500000), wk =   0.0026042
        k(  149) = (   0.0833333   0.2916667   0.3750000), wk =   0.0026042
        k(  150) = (   0.0833333   0.2916667  -0.5000000), wk =   0.0026042
        k(  151) = (   0.0833333   0.3333333   0.0000000), wk =   0.0026042
        k(  152) = (   0.0833333   0.3333333   0.1250000), wk =   0.0026042
        k(  153) = (   0.0833333   0.3333333   0.2500000), wk =   0.0026042
        k(  154) = (   0.0833333   0.3333333   0.3750000), wk =   0.0026042
        k(  155) = (   0.0833333   0.3333333  -0.5000000), wk =   0.0026042
        k(  156) = (   0.0833333   0.3750000   0.0000000), wk =   0.0026042
        k(  157) = (   0.0833333   0.3750000   0.1250000), wk =   0.0026042
        k(  158) = (   0.0833333   0.3750000   0.2500000), wk =   0.0026042
        k(  159) = (   0.0833333   0.3750000   0.3750000), wk =   0.0026042
        k(  160) = (   0.0833333   0.3750000  -0.5000000), wk =   0.0026042
        k(  161) = (   0.0833333   0.4166667   0.0000000), wk =   0.0026042
        k(  162) = (   0.0833333   0.4166667   0.1250000), wk =   0.0026042
        k(  163) = (   0.0833333   0.4166667   0.2500000), wk =   0.0026042
        k(  164) = (   0.0833333   0.4166667   0.3750000), wk =   0.0026042
        k(  165) = (   0.0833333   0.4166667  -0.5000000), wk =   0.0026042
        k(  166) = (   0.0833333   0.4583333   0.0000000), wk =   0.0013021
        k(  167) = (   0.0833333   0.4583333   0.1250000), wk =   0.0026042
        k(  168) = (   0.0833333   0.4583333   0.2500000), wk =   0.0026042
        k(  169) = (   0.0833333   0.4583333   0.3750000), wk =   0.0026042
        k(  170) = (   0.0833333   0.4583333  -0.5000000), wk =   0.0013021
        k(  171) = (   0.1250000   0.1250000   0.0000000), wk =   0.0013021
        k(  172) = (   0.1250000   0.1250000   0.1250000), wk =   0.0026042
        k(  173) = (   0.1250000   0.1250000   0.2500000), wk =   0.0026042
        k(  174) = (   0.1250000   0.1250000   0.3750000), wk =   0.0026042
        k(  175) = (   0.1250000   0.1250000  -0.5000000), wk =   0.0013021
        k(  176) = (   0.1250000   0.1666667   0.0000000), wk =   0.0026042
        k(  177) = (   0.1250000   0.1666667   0.1250000), wk =   0.0026042
        k(  178) = (   0.1250000   0.1666667   0.2500000), wk =   0.0026042
        k(  179) = (   0.1250000   0.1666667   0.3750000), wk =   0.0026042
        k(  180) = (   0.1250000   0.1666667  -0.5000000), wk =   0.0026042
        k(  181) = (   0.1250000   0.2083333   0.0000000), wk =   0.0026042
        k(  182) = (   0.1250000   0.2083333   0.1250000), wk =   0.0026042
        k(  183) = (   0.1250000   0.2083333   0.2500000), wk =   0.0026042
        k(  184) = (   0.1250000   0.2083333   0.3750000), wk =   0.0026042
        k(  185) = (   0.1250000   0.2083333  -0.5000000), wk =   0.0026042
        k(  186) = (   0.1250000   0.2500000   0.0000000), wk =   0.0026042
        k(  187) = (   0.1250000   0.2500000   0.1250000), wk =   0.0026042
        k(  188) = (   0.1250000   0.2500000   0.2500000), wk =   0.0026042
        k(  189) = (   0.1250000   0.2500000   0.3750000), wk =   0.0026042
        k(  190) = (   0.1250000   0.2500000  -0.5000000), wk =   0.0026042
        k(  191) = (   0.1250000   0.2916667   0.0000000), wk =   0.0026042
        k(  192) = (   0.1250000   0.2916667   0.1250000), wk =   0.0026042
        k(  193) = (   0.1250000   0.2916667   0.2500000), wk =   0.0026042
        k(  194) = (   0.1250000   0.2916667   0.3750000), wk =   0.0026042
        k(  195) = (   0.1250000   0.2916667  -0.5000000), wk =   0.0026042
        k(  196) = (   0.1250000   0.3333333   0.0000000), wk =   0.0026042
        k(  197) = (   0.1250000   0.3333333   0.1250000), wk =   0.0026042
        k(  198) = (   0.1250000   0.3333333   0.2500000), wk =   0.0026042
        k(  199) = (   0.1250000   0.3333333   0.3750000), wk =   0.0026042
        k(  200) = (   0.1250000   0.3333333  -0.5000000), wk =   0.0026042
        k(  201) = (   0.1250000   0.3750000   0.0000000), wk =   0.0026042
        k(  202) = (   0.1250000   0.3750000   0.1250000), wk =   0.0026042
        k(  203) = (   0.1250000   0.3750000   0.2500000), wk =   0.0026042
        k(  204) = (   0.1250000   0.3750000   0.3750000), wk =   0.0026042
        k(  205) = (   0.1250000   0.3750000  -0.5000000), wk =   0.0026042
        k(  206) = (   0.1250000   0.4166667   0.0000000), wk =   0.0026042
        k(  207) = (   0.1250000   0.4166667   0.1250000), wk =   0.0026042
        k(  208) = (   0.1250000   0.4166667   0.2500000), wk =   0.0026042
        k(  209) = (   0.1250000   0.4166667   0.3750000), wk =   0.0026042
        k(  210) = (   0.1250000   0.4166667  -0.5000000), wk =   0.0026042
        k(  211) = (   0.1666667   0.1666667   0.0000000), wk =   0.0013021
        k(  212) = (   0.1666667   0.1666667   0.1250000), wk =   0.0026042
        k(  213) = (   0.1666667   0.1666667   0.2500000), wk =   0.0026042
        k(  214) = (   0.1666667   0.1666667   0.3750000), wk =   0.0026042
        k(  215) = (   0.1666667   0.1666667  -0.5000000), wk =   0.0013021
        k(  216) = (   0.1666667   0.2083333   0.0000000), wk =   0.0026042
        k(  217) = (   0.1666667   0.2083333   0.1250000), wk =   0.0026042
        k(  218) = (   0.1666667   0.2083333   0.2500000), wk =   0.0026042
        k(  219) = (   0.1666667   0.2083333   0.3750000), wk =   0.0026042
        k(  220) = (   0.1666667   0.2083333  -0.5000000), wk =   0.0026042
        k(  221) = (   0.1666667   0.2500000   0.0000000), wk =   0.0026042
        k(  222) = (   0.1666667   0.2500000   0.1250000), wk =   0.0026042
        k(  223) = (   0.1666667   0.2500000   0.2500000), wk =   0.0026042
        k(  224) = (   0.1666667   0.2500000   0.3750000), wk =   0.0026042
        k(  225) = (   0.1666667   0.2500000  -0.5000000), wk =   0.0026042
        k(  226) = (   0.1666667   0.2916667   0.0000000), wk =   0.0026042
        k(  227) = (   0.1666667   0.2916667   0.1250000), wk =   0.0026042
        k(  228) = (   0.1666667   0.2916667   0.2500000), wk =   0.0026042
        k(  229) = (   0.1666667   0.2916667   0.3750000), wk =   0.0026042
        k(  230) = (   0.1666667   0.2916667  -0.5000000), wk =   0.0026042
        k(  231) = (   0.1666667   0.3333333   0.0000000), wk =   0.0026042
        k(  232) = (   0.1666667   0.3333333   0.1250000), wk =   0.0026042
        k(  233) = (   0.1666667   0.3333333   0.2500000), wk =   0.0026042
        k(  234) = (   0.1666667   0.3333333   0.3750000), wk =   0.0026042
        k(  235) = (   0.1666667   0.3333333  -0.5000000), wk =   0.0026042
        k(  236) = (   0.1666667   0.3750000   0.0000000), wk =   0.0026042
        k(  237) = (   0.1666667   0.3750000   0.1250000), wk =   0.0026042
        k(  238) = (   0.1666667   0.3750000   0.2500000), wk =   0.0026042
        k(  239) = (   0.1666667   0.3750000   0.3750000), wk =   0.0026042
        k(  240) = (   0.1666667   0.3750000  -0.5000000), wk =   0.0026042
        k(  241) = (   0.1666667   0.4166667   0.0000000), wk =   0.0013021
        k(  242) = (   0.1666667   0.4166667   0.1250000), wk =   0.0026042
        k(  243) = (   0.1666667   0.4166667   0.2500000), wk =   0.0026042
        k(  244) = (   0.1666667   0.4166667   0.3750000), wk =   0.0026042
        k(  245) = (   0.1666667   0.4166667  -0.5000000), wk =   0.0013021
        k(  246) = (   0.2083333   0.2083333   0.0000000), wk =   0.0013021
        k(  247) = (   0.2083333   0.2083333   0.1250000), wk =   0.0026042
        k(  248) = (   0.2083333   0.2083333   0.2500000), wk =   0.0026042
        k(  249) = (   0.2083333   0.2083333   0.3750000), wk =   0.0026042
        k(  250) = (   0.2083333   0.2083333  -0.5000000), wk =   0.0013021
        k(  251) = (   0.2083333   0.2500000   0.0000000), wk =   0.0026042
        k(  252) = (   0.2083333   0.2500000   0.1250000), wk =   0.0026042
        k(  253) = (   0.2083333   0.2500000   0.2500000), wk =   0.0026042
        k(  254) = (   0.2083333   0.2500000   0.3750000), wk =   0.0026042
        k(  255) = (   0.2083333   0.2500000  -0.5000000), wk =   0.0026042
        k(  256) = (   0.2083333   0.2916667   0.0000000), wk =   0.0026042
        k(  257) = (   0.2083333   0.2916667   0.1250000), wk =   0.0026042
        k(  258) = (   0.2083333   0.2916667   0.2500000), wk =   0.0026042
        k(  259) = (   0.2083333   0.2916667   0.3750000), wk =   0.0026042
        k(  260) = (   0.2083333   0.2916667  -0.5000000), wk =   0.0026042
        k(  261) = (   0.2083333   0.3333333   0.0000000), wk =   0.0026042
        k(  262) = (   0.2083333   0.3333333   0.1250000), wk =   0.0026042
        k(  263) = (   0.2083333   0.3333333   0.2500000), wk =   0.0026042
        k(  264) = (   0.2083333   0.3333333   0.3750000), wk =   0.0026042
        k(  265) = (   0.2083333   0.3333333  -0.5000000), wk =   0.0026042
        k(  266) = (   0.2083333   0.3750000   0.0000000), wk =   0.0026042
        k(  267) = (   0.2083333   0.3750000   0.1250000), wk =   0.0026042
        k(  268) = (   0.2083333   0.3750000   0.2500000), wk =   0.0026042
        k(  269) = (   0.2083333   0.3750000   0.3750000), wk =   0.0026042
        k(  270) = (   0.2083333   0.3750000  -0.5000000), wk =   0.0026042
        k(  271) = (   0.2500000   0.2500000   0.0000000), wk =   0.0013021
        k(  272) = (   0.2500000   0.2500000   0.1250000), wk =   0.0026042
        k(  273) = (   0.2500000   0.2500000   0.2500000), wk =   0.0026042
        k(  274) = (   0.2500000   0.2500000   0.3750000), wk =   0.0026042
        k(  275) = (   0.2500000   0.2500000  -0.5000000), wk =   0.0013021
        k(  276) = (   0.2500000   0.2916667   0.0000000), wk =   0.0026042
        k(  277) = (   0.2500000   0.2916667   0.1250000), wk =   0.0026042
        k(  278) = (   0.2500000   0.2916667   0.2500000), wk =   0.0026042
        k(  279) = (   0.2500000   0.2916667   0.3750000), wk =   0.0026042
        k(  280) = (   0.2500000   0.2916667  -0.5000000), wk =   0.0026042
        k(  281) = (   0.2500000   0.3333333   0.0000000), wk =   0.0026042
        k(  282) = (   0.2500000   0.3333333   0.1250000), wk =   0.0026042
        k(  283) = (   0.2500000   0.3333333   0.2500000), wk =   0.0026042
        k(  284) = (   0.2500000   0.3333333   0.3750000), wk =   0.0026042
        k(  285) = (   0.2500000   0.3333333  -0.5000000), wk =   0.0026042
        k(  286) = (   0.2500000   0.3750000   0.0000000), wk =   0.0013021
        k(  287) = (   0.2500000   0.3750000   0.1250000), wk =   0.0026042
        k(  288) = (   0.2500000   0.3750000   0.2500000), wk =   0.0026042
        k(  289) = (   0.2500000   0.3750000   0.3750000), wk =   0.0026042
        k(  290) = (   0.2500000   0.3750000  -0.5000000), wk =   0.0013021
        k(  291) = (   0.2916667   0.2916667   0.0000000), wk =   0.0013021
        k(  292) = (   0.2916667   0.2916667   0.1250000), wk =   0.0026042
        k(  293) = (   0.2916667   0.2916667   0.2500000), wk =   0.0026042
        k(  294) = (   0.2916667   0.2916667   0.3750000), wk =   0.0026042
        k(  295) = (   0.2916667   0.2916667  -0.5000000), wk =   0.0013021
        k(  296) = (   0.2916667   0.3333333   0.0000000), wk =   0.0026042
        k(  297) = (   0.2916667   0.3333333   0.1250000), wk =   0.0026042
        k(  298) = (   0.2916667   0.3333333   0.2500000), wk =   0.0026042
        k(  299) = (   0.2916667   0.3333333   0.3750000), wk =   0.0026042
        k(  300) = (   0.2916667   0.3333333  -0.5000000), wk =   0.0026042
        k(  301) = (   0.3333333   0.3333333   0.0000000), wk =   0.0004340
        k(  302) = (   0.3333333   0.3333333   0.1250000), wk =   0.0008681
        k(  303) = (   0.3333333   0.3333333   0.2500000), wk =   0.0008681
        k(  304) = (   0.3333333   0.3333333   0.3750000), wk =   0.0008681
        k(  305) = (   0.3333333   0.3333333  -0.5000000), wk =   0.0004340
        k(  306) = (   0.0000000   0.0416667  -0.1250000), wk =   0.0013021
        k(  307) = (   0.0000000   0.0416667  -0.2500000), wk =   0.0013021
        k(  308) = (   0.0000000   0.0416667  -0.3750000), wk =   0.0013021
        k(  309) = (   0.0000000   0.0833333  -0.1250000), wk =   0.0013021
        k(  310) = (   0.0000000   0.0833333  -0.2500000), wk =   0.0013021
        k(  311) = (   0.0000000   0.0833333  -0.3750000), wk =   0.0013021
        k(  312) = (   0.0000000   0.1250000  -0.1250000), wk =   0.0013021
        k(  313) = (   0.0000000   0.1250000  -0.2500000), wk =   0.0013021
        k(  314) = (   0.0000000   0.1250000  -0.3750000), wk =   0.0013021
        k(  315) = (   0.0000000   0.1666667  -0.1250000), wk =   0.0013021
        k(  316) = (   0.0000000   0.1666667  -0.2500000), wk =   0.0013021
        k(  317) = (   0.0000000   0.1666667  -0.3750000), wk =   0.0013021
        k(  318) = (   0.0000000   0.2083333  -0.1250000), wk =   0.0013021
        k(  319) = (   0.0000000   0.2083333  -0.2500000), wk =   0.0013021
        k(  320) = (   0.0000000   0.2083333  -0.3750000), wk =   0.0013021
        k(  321) = (   0.0000000   0.2500000  -0.1250000), wk =   0.0013021
        k(  322) = (   0.0000000   0.2500000  -0.2500000), wk =   0.0013021
        k(  323) = (   0.0000000   0.2500000  -0.3750000), wk =   0.0013021
        k(  324) = (   0.0000000   0.2916667  -0.1250000), wk =   0.0013021
        k(  325) = (   0.0000000   0.2916667  -0.2500000), wk =   0.0013021
        k(  326) = (   0.0000000   0.2916667  -0.3750000), wk =   0.0013021
        k(  327) = (   0.0000000   0.3333333  -0.1250000), wk =   0.0013021
        k(  328) = (   0.0000000   0.3333333  -0.2500000), wk =   0.0013021
        k(  329) = (   0.0000000   0.3333333  -0.3750000), wk =   0.0013021
        k(  330) = (   0.0000000   0.3750000  -0.1250000), wk =   0.0013021
        k(  331) = (   0.0000000   0.3750000  -0.2500000), wk =   0.0013021
        k(  332) = (   0.0000000   0.3750000  -0.3750000), wk =   0.0013021
        k(  333) = (   0.0000000   0.4166667  -0.1250000), wk =   0.0013021
        k(  334) = (   0.0000000   0.4166667  -0.2500000), wk =   0.0013021
        k(  335) = (   0.0000000   0.4166667  -0.3750000), wk =   0.0013021
        k(  336) = (   0.0000000   0.4583333  -0.1250000), wk =   0.0013021
        k(  337) = (   0.0000000   0.4583333  -0.2500000), wk =   0.0013021
        k(  338) = (   0.0000000   0.4583333  -0.3750000), wk =   0.0013021
        k(  339) = (  -0.0416667   0.1250000  -0.1250000), wk =   0.0026042
        k(  340) = (  -0.0416667   0.1250000  -0.2500000), wk =   0.0026042
        k(  341) = (  -0.0416667   0.1250000  -0.3750000), wk =   0.0026042
        k(  342) = (  -0.0416667   0.1666667  -0.1250000), wk =   0.0026042
        k(  343) = (  -0.0416667   0.1666667  -0.2500000), wk =   0.0026042
        k(  344) = (  -0.0416667   0.1666667  -0.3750000), wk =   0.0026042
        k(  345) = (  -0.0416667   0.2083333  -0.1250000), wk =   0.0026042
        k(  346) = (  -0.0416667   0.2083333  -0.2500000), wk =   0.0026042
        k(  347) = (  -0.0416667   0.2083333  -0.3750000), wk =   0.0026042
        k(  348) = (  -0.0416667   0.2500000  -0.1250000), wk =   0.0026042
        k(  349) = (  -0.0416667   0.2500000  -0.2500000), wk =   0.0026042
        k(  350) = (  -0.0416667   0.2500000  -0.3750000), wk =   0.0026042
        k(  351) = (  -0.0416667   0.2916667  -0.1250000), wk =   0.0026042
        k(  352) = (  -0.0416667   0.2916667  -0.2500000), wk =   0.0026042
        k(  353) = (  -0.0416667   0.2916667  -0.3750000), wk =   0.0026042
        k(  354) = (  -0.0416667   0.3333333  -0.1250000), wk =   0.0026042
        k(  355) = (  -0.0416667   0.3333333  -0.2500000), wk =   0.0026042
        k(  356) = (  -0.0416667   0.3333333  -0.3750000), wk =   0.0026042
        k(  357) = (  -0.0416667   0.3750000  -0.1250000), wk =   0.0026042
        k(  358) = (  -0.0416667   0.3750000  -0.2500000), wk =   0.0026042
        k(  359) = (  -0.0416667   0.3750000  -0.3750000), wk =   0.0026042
        k(  360) = (  -0.0416667   0.4166667  -0.1250000), wk =   0.0026042
        k(  361) = (  -0.0416667   0.4166667  -0.2500000), wk =   0.0026042
        k(  362) = (  -0.0416667   0.4166667  -0.3750000), wk =   0.0026042
        k(  363) = (  -0.0416667   0.4583333  -0.1250000), wk =   0.0026042
        k(  364) = (  -0.0416667   0.4583333  -0.2500000), wk =   0.0026042
        k(  365) = (  -0.0416667   0.4583333  -0.3750000), wk =   0.0026042
        k(  366) = (  -0.0416667   0.5000000  -0.1250000), wk =   0.0026042
        k(  367) = (  -0.0416667   0.5000000  -0.2500000), wk =   0.0026042
        k(  368) = (  -0.0416667   0.5000000  -0.3750000), wk =   0.0026042
        k(  369) = (  -0.0833333   0.2083333  -0.1250000), wk =   0.0026042
        k(  370) = (  -0.0833333   0.2083333  -0.2500000), wk =   0.0026042
        k(  371) = (  -0.0833333   0.2083333  -0.3750000), wk =   0.0026042
        k(  372) = (  -0.0833333   0.2500000  -0.1250000), wk =   0.0026042
        k(  373) = (  -0.0833333   0.2500000  -0.2500000), wk =   0.0026042
        k(  374) = (  -0.0833333   0.2500000  -0.3750000), wk =   0.0026042
        k(  375) = (  -0.0833333   0.2916667  -0.1250000), wk =   0.0026042
        k(  376) = (  -0.0833333   0.2916667  -0.2500000), wk =   0.0026042
        k(  377) = (  -0.0833333   0.2916667  -0.3750000), wk =   0.0026042
        k(  378) = (  -0.0833333   0.3333333  -0.1250000), wk =   0.0026042
        k(  379) = (  -0.0833333   0.3333333  -0.2500000), wk =   0.0026042
        k(  380) = (  -0.0833333   0.3333333  -0.3750000), wk =   0.0026042
        k(  381) = (  -0.0833333   0.3750000  -0.1250000), wk =   0.0026042
        k(  382) = (  -0.0833333   0.3750000  -0.2500000), wk =   0.0026042
        k(  383) = (  -0.0833333   0.3750000  -0.3750000), wk =   0.0026042
        k(  384) = (  -0.0833333   0.4166667  -0.1250000), wk =   0.0026042
        k(  385) = (  -0.0833333   0.4166667  -0.2500000), wk =   0.0026042
        k(  386) = (  -0.0833333   0.4166667  -0.3750000), wk =   0.0026042
        k(  387) = (  -0.0833333   0.4583333  -0.1250000), wk =   0.0026042
        k(  388) = (  -0.0833333   0.4583333  -0.2500000), wk =   0.0026042
        k(  389) = (  -0.0833333   0.4583333  -0.3750000), wk =   0.0026042
        k(  390) = (  -0.0833333   0.5000000  -0.1250000), wk =   0.0026042
        k(  391) = (  -0.0833333   0.5000000  -0.2500000), wk =   0.0026042
        k(  392) = (  -0.0833333   0.5000000  -0.3750000), wk =   0.0026042
        k(  393) = (  -0.1250000   0.2916667  -0.1250000), wk =   0.0026042
        k(  394) = (  -0.1250000   0.2916667  -0.2500000), wk =   0.0026042
        k(  395) = (  -0.1250000   0.2916667  -0.3750000), wk =   0.0026042
        k(  396) = (  -0.1250000   0.3333333  -0.1250000), wk =   0.0026042
        k(  397) = (  -0.1250000   0.3333333  -0.2500000), wk =   0.0026042
        k(  398) = (  -0.1250000   0.3333333  -0.3750000), wk =   0.0026042
        k(  399) = (  -0.1250000   0.3750000  -0.1250000), wk =   0.0026042
        k(  400) = (  -0.1250000   0.3750000  -0.2500000), wk =   0.0026042
        k(  401) = (  -0.1250000   0.3750000  -0.3750000), wk =   0.0026042
        k(  402) = (  -0.1250000   0.4166667  -0.1250000), wk =   0.0026042
        k(  403) = (  -0.1250000   0.4166667  -0.2500000), wk =   0.0026042
        k(  404) = (  -0.1250000   0.4166667  -0.3750000), wk =   0.0026042
        k(  405) = (  -0.1250000   0.4583333  -0.1250000), wk =   0.0026042
        k(  406) = (  -0.1250000   0.4583333  -0.2500000), wk =   0.0026042
        k(  407) = (  -0.1250000   0.4583333  -0.3750000), wk =   0.0026042
        k(  408) = (  -0.1250000   0.5000000  -0.1250000), wk =   0.0026042
        k(  409) = (  -0.1250000   0.5000000  -0.2500000), wk =   0.0026042
        k(  410) = (  -0.1250000   0.5000000  -0.3750000), wk =   0.0026042
        k(  411) = (  -0.1250000   0.5416667  -0.1250000), wk =   0.0026042
        k(  412) = (  -0.1250000   0.5416667  -0.2500000), wk =   0.0026042
        k(  413) = (  -0.1250000   0.5416667  -0.3750000), wk =   0.0026042
        k(  414) = (  -0.1666667   0.3750000  -0.1250000), wk =   0.0026042
        k(  415) = (  -0.1666667   0.3750000  -0.2500000), wk =   0.0026042
        k(  416) = (  -0.1666667   0.3750000  -0.3750000), wk =   0.0026042
        k(  417) = (  -0.1666667   0.4166667  -0.1250000), wk =   0.0026042
        k(  418) = (  -0.1666667   0.4166667  -0.2500000), wk =   0.0026042
        k(  419) = (  -0.1666667   0.4166667  -0.3750000), wk =   0.0026042
        k(  420) = (  -0.1666667   0.4583333  -0.1250000), wk =   0.0026042
        k(  421) = (  -0.1666667   0.4583333  -0.2500000), wk =   0.0026042
        k(  422) = (  -0.1666667   0.4583333  -0.3750000), wk =   0.0026042
        k(  423) = (  -0.1666667   0.5000000  -0.1250000), wk =   0.0026042
        k(  424) = (  -0.1666667   0.5000000  -0.2500000), wk =   0.0026042
        k(  425) = (  -0.1666667   0.5000000  -0.3750000), wk =   0.0026042
        k(  426) = (  -0.1666667   0.5416667  -0.1250000), wk =   0.0026042
        k(  427) = (  -0.1666667   0.5416667  -0.2500000), wk =   0.0026042
        k(  428) = (  -0.1666667   0.5416667  -0.3750000), wk =   0.0026042
        k(  429) = (  -0.2083333   0.4583333  -0.1250000), wk =   0.0026042
        k(  430) = (  -0.2083333   0.4583333  -0.2500000), wk =   0.0026042
        k(  431) = (  -0.2083333   0.4583333  -0.3750000), wk =   0.0026042
        k(  432) = (  -0.2083333   0.5000000  -0.1250000), wk =   0.0026042
        k(  433) = (  -0.2083333   0.5000000  -0.2500000), wk =   0.0026042
        k(  434) = (  -0.2083333   0.5000000  -0.3750000), wk =   0.0026042
        k(  435) = (  -0.2083333   0.5416667  -0.1250000), wk =   0.0026042
        k(  436) = (  -0.2083333   0.5416667  -0.2500000), wk =   0.0026042
        k(  437) = (  -0.2083333   0.5416667  -0.3750000), wk =   0.0026042
        k(  438) = (  -0.2083333   0.5833333  -0.1250000), wk =   0.0026042
        k(  439) = (  -0.2083333   0.5833333  -0.2500000), wk =   0.0026042
        k(  440) = (  -0.2083333   0.5833333  -0.3750000), wk =   0.0026042
        k(  441) = (  -0.2500000   0.5416667  -0.1250000), wk =   0.0026042
        k(  442) = (  -0.2500000   0.5416667  -0.2500000), wk =   0.0026042
[...]
     1.0000   1.0000   1.0001   0.0000   0.0000   0.0000   0.0000   0.0000
     0.0000   0.0000   0.0000

          k =-0.1667 0.4811-0.0656 (  2095 PWs)   bands (ev):

   -84.8202 -48.1724 -48.1428 -47.9828 -41.9705 -14.0944 -13.9292 -13.8193
    -8.3108  -7.9769   3.6308   4.3859   5.4007   5.6934   6.0861   6.9335
     9.4201   9.7198  10.0309  11.8082  11.9533  16.8123  19.1193  21.6014
    22.3464  23.5847  24.7715

     occupation numbers 
     1.0000   1.0000   1.0000   1.0000   1.0000   1.0000   1.0000   1.0000
     1.0000   1.0000   1.0000   1.0000   1.0000   1.0000   1.0000   1.0000
     1.0000   1.0000   1.0002   0.0000   0.0000   0.0000   0.0000   0.0000
     0.0000   0.0000   0.0000

          k =-0.1667 0.4811-0.1313 (  2108 PWs)   bands (ev):

   -84.8203 -48.1724 -48.1429 -47.9830 -41.9705 -14.0943 -13.9293 -13.8206
    -8.3128  -7.9741   3.6221   4.3481   5.4114   5.7348   6.0994   6.9427
     9.4245   9.7213  10.0073  11.8643  11.9438  16.6912  19.1483  21.3536
    22.4915  23.5125  24.9145

     occupation numbers 
     1.0000   1.0000   1.0000   1.0000   1.0000   1.0000   1.0000   1.0000
     1.0000   1.0000   1.0000   1.0000   1.0000   1.0000   1.0000   1.0000
     1.0000   1.0000   1.0001   0.0000   0.0000   0.0000   0.0000   0.0000
     0.0000   0.0000   0.0000

          k =-0.1667 0.4811-0.1969 (  2102 PWs)   bands (ev):

   -84.8202 -48.1724 -48.1428 -47.9830 -41.9705 -14.0941 -13.9292 -13.8214
    -8.3100  -7.9765   3.6230   4.3051   5.4077   5.7861   6.1020   6.9720
     9.4237   9.7241   9.9901  11.8644  11.9624  16.6480  19.1013  21.1535
    22.4443  23.5320  24.7995

     occupation numbers 
     1.0000   1.0000   1.0000   1.0000   1.0000   1.0000   1.0000   1.0000
     1.0000   1.0000   1.0000   1.0000   1.0000   1.0000   1.0000   1.0000
     1.0000   1.0000   1.0001   0.0000   0.0000   0.0000   0.0000   0.0000
     0.0000   0.0000   0.0000

          k =-0.1667 0.5292-0.0656 (  2104 PWs)   bands (ev):

   -84.8200 -48.1744 -48.1441 -47.9825 -41.9690 -14.1042 -13.9354 -13.8153
    -8.2005  -8.0205   3.5080   4.4070   5.4481   5.7068   6.1491   6.7634
     9.3525   9.7366  10.0148  11.8522  11.9515  17.2433  18.6940  21.4880
    22.3348  23.7780  24.6983

     occupation numbers 
     1.0000   1.0000   1.0000   1.0000   1.0000   1.0000   1.0000   1.0000
     1.0000   1.0000   1.0000   1.0000   1.0000   1.0000   1.0000   1.0000
     1.0000   1.0000   1.0001   0.0000   0.0000   0.0000   0.0000   0.0000
     0.0000   0.0000   0.0000

          k =-0.1667 0.5292-0.1313 (  2111 PWs)   bands (ev):

   -84.8200 -48.1744 -48.1441 -47.9826 -41.9690 -14.1041 -13.9355 -13.8164
    -8.2056  -8.0149   3.5084   4.3717   5.4687   5.6989   6.1743   6.7856
     9.3543   9.7387   9.9973  11.8921  11.9632  17.1132  18.6823  21.2403
    22.6073  23.5262  24.9692

     occupation numbers 
     1.0000   1.0000   1.0000   1.0000   1.0000   1.0000   1.0000   1.0000
     1.0000   1.0000   1.0000   1.0000   1.0000   1.0000   1.0000   1.0000
     1.0000   1.0000   1.0001   0.0000   0.0000   0.0000   0.0000   0.0000
     0.0000   0.0000   0.0000

          k =-0.1667 0.5292-0.1969 (  2107 PWs)   bands (ev):

   -84.8200 -48.1744 -48.1441 -47.9826 -41.9689 -14.1039 -13.9354 -13.8172
    -8.2054  -8.0147   3.5143   4.3331   5.4721   5.7092   6.1870   6.8220
     9.3536   9.7418   9.9828  11.9035  11.9884  17.0579  18.5873  21.0851
    22.6822  23.4028  24.8528

     occupation numbers 
     1.0000   1.0000   1.0000   1.0000   1.0000   1.0000   1.0000   1.0000
     1.0000   1.0000   1.0000   1.0000   1.0000   1.0000   1.0000   1.0000
     1.0000   1.0000   1.0001   0.0000   0.0000   0.0000   0.0000   0.0000
     0.0000   0.0000   0.0000

          k =-0.2083 0.4090-0.0656 (  2095 PWs)   bands (ev):

   -84.8206 -48.1674 -48.1424 -47.9835 -41.9732 -14.0686 -13.9282 -13.8263
    -8.4582  -7.9409   4.0338   4.2426   5.2819   5.5553   6.0377   7.2200
     9.5171   9.7457  10.0754  11.6920  11.8738  16.4086  19.6373  21.8822
    22.2799  23.3909  24.8418

     occupation numbers 
     1.0000   1.0000   1.0000   1.0000   1.0000   1.0000   1.0000   1.0000
     1.0000   1.0000   1.0000   1.0000   1.0000   1.0000   1.0000   1.0000
     1.0000   1.0000   1.0004   0.0000   0.0000   0.0000   0.0000   0.0000
     0.0000   0.0000   0.0000

          k =-0.2083 0.4090-0.1313 (  2100 PWs)   bands (ev):

   -84.8206 -48.1674 -48.1424 -47.9836 -41.9731 -14.0685 -13.9281 -13.8276
    -8.4551  -7.9432   4.0016   4.2110   5.2950   5.6525   6.0251   7.2200
     9.5277   9.7458  10.0405  11.7392  11.8541  16.3356  19.7175  21.6596
    22.0553  23.6875  24.7820

     occupation numbers 
     1.0000   1.0000   1.0000   1.0000   1.0000   1.0000   1.0000   1.0000
     1.0000   1.0000   1.0000   1.0000   1.0000   1.0000   1.0000   1.0000
     1.0000   1.0000   1.0002   0.0000   0.0000   0.0000   0.0000   0.0000
     0.0000   0.0000   0.0000

          k =-0.2083 0.4090-0.1969 (  2108 PWs)   bands (ev):

   -84.8206 -48.1675 -48.1424 -47.9837 -41.9731 -14.0685 -13.9282 -13.8288
    -8.4506  -7.9470   3.9767   4.1788   5.3041   5.7521   6.0048   7.2267
     9.5362   9.7461  10.0092  11.7831  11.8237  16.2907  19.7769  21.4282
    21.9047  23.7492  24.6193

     occupation numbers 
     1.0000   1.0000   1.0000   1.0000   1.0000   1.0000   1.0000   1.0000
     1.0000   1.0000   1.0000   1.0000   1.0000   1.0000   1.0000   1.0000
     1.0000   1.0000   1.0001   0.0000   0.0000   0.0000   0.0000   0.0000
     0.0000   0.0000   0.0000

          k =-0.2083 0.4571-0.0656 (  2095 PWs)   bands (ev):

   -84.8202 -48.1698 -48.1453 -47.9829 -41.9705 -14.0804 -13.9432 -13.8195
    -8.3263  -7.9620   3.8531   4.2838   5.2280   5.7133   6.0130   6.9942
     9.4560   9.7364  10.0758  11.7217  11.8943  16.8283  19.3213  21.8084
    22.4390  23.3668  24.6605

     occupation numbers 
     1.0000   1.0000   1.0000   1.0000   1.0000   1.0000   1.0000   1.0000
     1.0000   1.0000   1.0000   1.0000   1.0000   1.0000   1.0000   1.0000
     1.0000   1.0000   1.0004   0.0000   0.0000   0.0000   0.0000   0.0000
     0.0000   0.0000   0.0000

          k =-0.2083 0.4571-0.1313 (  2106 PWs)   bands (ev):

   -84.8203 -48.1699 -48.1454 -47.9829 -41.9705 -14.0804 -13.9434 -13.8206
    -8.3267  -7.9610   3.8403   4.2511   5.2475   5.7590   6.0176   6.9959
     9.4622   9.7386  10.0473  11.7782  11.8866  16.7135  19.3568  21.6296
    22.2686  23.5420  24.7773

     occupation numbers 
     1.0000   1.0000   1.0000   1.0000   1.0000   1.0000   1.0000   1.0000
     1.0000   1.0000   1.0000   1.0000   1.0000   1.0000   1.0000   1.0000
     1.0000   1.0000   1.0003   0.0000   0.0000   0.0000   0.0000   0.0000
     0.0000   0.0000   0.0000

          k =-0.2083 0.4571-0.1969 (  2112 PWs)   bands (ev):

   -84.8203 -48.1699 -48.1454 -47.9830 -41.9705 -14.0803 -13.9435 -13.8217
    -8.3245  -7.9627   3.8373   4.2125   5.2584   5.8132   6.0121   7.0089
     9.4653   9.7417  10.0235  11.8257  11.8709  16.6440  19.3488  21.4463
    22.1205  23.5581  24.7164

     occupation numbers 
     1.0000   1.0000   1.0000   1.0000   1.0000   1.0000   1.0000   1.0000
     1.0000   1.0000   1.0000   1.0000   1.0000   1.0000   1.0000   1.0000
     1.0000   1.0000   1.0002   0.0000   0.0000   0.0000   0.0000   0.0000
     0.0000   0.0000   0.0000

          k =-0.2083 0.5052-0.0656 (  2100 PWs)   bands (ev):

   -84.8200 -48.1715 -48.1475 -47.9824 -41.9687 -14.0882 -13.9546 -13.8146
    -8.2158  -7.9925   3.7186   4.3224   5.1925   5.7884   6.0786   6.7906
     9.3762   9.7719  10.0603  11.7695  11.8823  17.2560  18.9515  21.6558
    22.5626  23.4676  24.5847

     occupation numbers 
     1.0000   1.0000   1.0000   1.0000   1.0000   1.0000   1.0000   1.0000
     1.0000   1.0000   1.0000   1.0000   1.0000   1.0000   1.0000   1.0000
     1.0000   1.0000   1.0003   0.0000   0.0000   0.0000   0.0000   0.0000
     0.0000   0.0000   0.0000

          k =-0.2083 0.5052-0.1313 (  2108 PWs)   bands (ev):

   -84.8200 -48.1715 -48.1476 -47.9825 -41.9687 -14.0881 -13.9547 -13.8157
    -8.2189  -7.9890   3.7157   4.2945   5.2145   5.7841   6.1057   6.7956
     9.3804   9.7746  10.0384  11.8216  11.8914  17.1217  18.9438  21.4548
    22.6008  23.4126  24.7992

     occupation numbers 
     1.0000   1.0000   1.0000   1.0000   1.0000   1.0000   1.0000   1.0000
     1.0000   1.0000   1.0000   1.0000   1.0000   1.0000   1.0000   1.0000
     1.0000   1.0000   1.0002   0.0000   0.0000   0.0000   0.0000   0.0000
     0.0000   0.0000   0.0000

          k =-0.2083 0.5052-0.1969 (  2112 PWs)   bands (ev):

   -84.8200 -48.1715 -48.1476 -47.9826 -41.9687 -14.0880 -13.9548 -13.8166
    -8.2183  -7.9893   3.7197   4.2618   5.2289   5.7919   6.1180   6.8129
     9.3823   9.7780  10.0199  11.8593  11.9022  17.0404  18.8801  21.2921
    22.5185  23.3816  24.7194

     occupation numbers 
     1.0000   1.0000   1.0000   1.0000   1.0000   1.0000   1.0000   1.0000
     1.0000   1.0000   1.0000   1.0000   1.0000   1.0000   1.0000   1.0000
     1.0000   1.0000   1.0001   0.0000   0.0000   0.0000   0.0000   0.0000
     0.0000   0.0000   0.0000

          k =-0.2083 0.5533-0.0656 (  2098 PWs)   bands (ev):

   -84.8198 -48.1723 -48.1486 -47.9821 -41.9677 -14.0920 -13.9606 -13.8121
    -8.1328  -8.0335   3.6500   4.3425   5.1743   5.8081   6.1631   6.6572
     9.3257   9.8055  10.0433  11.8257  11.8394  17.6401  18.5964  21.5331
    22.5767  23.6727  24.5342

     occupation numbers 
     1.0000   1.0000   1.0000   1.0000   1.0000   1.0000   1.0000   1.0000
     1.0000   1.0000   1.0000   1.0000   1.0000   1.0000   1.0000   1.0000
     1.0000   1.0000   1.0002   0.0000   0.0000   0.0000   0.0000   0.0000
     0.0000   0.0000   0.0000

          k =-0.2083 0.5533-0.1313 (  2108 PWs)   bands (ev):

   -84.8198 -48.1723 -48.1487 -47.9823 -41.9677 -14.0918 -13.9608 -13.8132
    -8.1384  -8.0278   3.6531   4.3170   5.1956   5.7887   6.1870   6.6694
     9.3292   9.8074  10.0264  11.8559  11.8734  17.5092  18.5531  21.3175
    22.7874  23.4009  24.8191

     occupation numbers 
     1.0000   1.0000   1.0000   1.0000   1.0000   1.0000   1.0000   1.0000
     1.0000   1.0000   1.0000   1.0000   1.0000   1.0000   1.0000   1.0000
     1.0000   1.0000   1.0002   0.0000   0.0000   0.0000   0.0000   0.0000
     0.0000   0.0000   0.0000

          k =-0.2083 0.5533-0.1969 (  2114 PWs)   bands (ev):

   -84.8199 -48.1723 -48.1488 -47.9823 -41.9677 -14.0918 -13.9610 -13.8140
    -8.1407  -8.0254   3.6588   4.2897   5.2157   5.7729   6.2028   6.6879
     9.3321   9.8098  10.0104  11.8899  11.8997  17.4226  18.4575  21.1791
    22.8459  23.2227  24.6844

     occupation numbers 
     1.0000   1.0000   1.0000   1.0000   1.0000   1.0000   1.0000   1.0000
     1.0000   1.0000   1.0000   1.0000   1.0000   1.0000   1.0000   1.0000
     1.0000   1.0000   1.0001   0.0000   0.0000   0.0000   0.0000   0.0000
     0.0000   0.0000   0.0000

          k =-0.2500 0.4811-0.0656 (  2100 PWs)   bands (ev):

   -84.8200 -48.1694 -48.1500 -47.9823 -41.9685 -14.0765 -13.9681 -13.8143
    -8.2222  -7.9796   3.9238   4.2210   5.0075   5.8620   6.0164   6.8152
     9.3864   9.7919  10.0908  11.6883  11.8680  17.2839  19.0988  21.7044
    22.5782  23.5465  24.4443

     occupation numbers 
     1.0000   1.0000   1.0000   1.0000   1.0000   1.0000   1.0000   1.0000
     1.0000   1.0000   1.0000   1.0000   1.0000   1.0000   1.0000   1.0000
     1.0000   1.0000   1.0006   0.0000   0.0000   0.0000   0.0000   0.0000
     0.0000   0.0000   0.0000

          k =-0.2500 0.4811-0.1313 (  2105 PWs)   bands (ev):

   -84.8200 -48.1694 -48.1500 -47.9824 -41.9685 -14.0764 -13.9682 -13.8152
    -8.2236  -7.9780   3.9212   4.1935   5.0300   5.8705   6.0342   6.8129
     9.3914   9.7948  10.0673  11.7356  11.8841  17.1559  19.0922  21.5197
    22.4583  23.6104  24.6462

     occupation numbers 
     1.0000   1.0000   1.0000   1.0000   1.0000   1.0000   1.0000   1.0000
     1.0000   1.0000   1.0000   1.0000   1.0000   1.0000   1.0000   1.0000
     1.0000   1.0000   1.0004   0.0000   0.0000   0.0000   0.0000   0.0000
     0.0000   0.0000   0.0000

          k =-0.2500 0.4811-0.1969 (  2110 PWs)   bands (ev):

   -84.8200 -48.1694 -48.1500 -47.9825 -41.9685 -14.0763 -13.9682 -13.8162
    -8.2237  -7.9777   3.9248   4.1614   5.0511   5.8797   6.0473   6.8159
     9.3955   9.7982  10.0454  11.7869  11.8912  17.0515  19.0579  21.3651
    22.3479  23.4952  24.6296

     occupation numbers 
     1.0000   1.0000   1.0000   1.0000   1.0000   1.0000   1.0000   1.0000
     1.0000   1.0000   1.0000   1.0000   1.0000   1.0000   1.0000   1.0000
     1.0000   1.0000   1.0002   0.0000   0.0000   0.0000   0.0000   0.0000
     0.0000   0.0000   0.0000

          k =-0.2500 0.5292-0.0656 (  2102 PWs)   bands (ev):

   -84.8198 -48.1694 -48.1525 -47.9820 -41.9673 -14.0758 -13.9818 -13.8110
    -8.1384  -8.0080   3.8615   4.2684   4.9040   5.9148   6.1245   6.6323
     9.3233   9.8505  10.0690  11.7298  11.8282  17.6874  18.7867  21.5354
    22.7750  23.6134  24.4361

     occupation numbers 
     1.0000   1.0000   1.0000   1.0000   1.0000   1.0000   1.0000   1.0000
     1.0000   1.0000   1.0000   1.0000   1.0000   1.0000   1.0000   1.0000
     1.0000   1.0000   1.0004   0.0000   0.0000   0.0000   0.0000   0.0000
     0.0000   0.0000   0.0000

          k =-0.2500 0.5292-0.1313 (  2105 PWs)   bands (ev):

   -84.8198 -48.1694 -48.1525 -47.9821 -41.9672 -14.0756 -13.9818 -13.8119
    -8.1414  -8.0049   3.8620   4.2484   4.9269   5.9015   6.1497   6.6263
     9.3289   9.8516  10.0508  11.7734  11.8583  17.5528  18.7442  21.3390
    22.8140  23.4941  24.6413

     occupation numbers 
     1.0000   1.0000   1.0000   1.0000   1.0000   1.0000   1.0000   1.0000
     1.0000   1.0000   1.0000   1.0000   1.0000   1.0000   1.0000   1.0000
     1.0000   1.0000   1.0003   0.0000   0.0000   0.0000   0.0000   0.0000
     0.0000   0.0000   0.0000

          k =-0.2500 0.5292-0.1969 (  2107 PWs)   bands (ev):

   -84.8198 -48.1694 -48.1526 -47.9822 -41.9672 -14.0755 -13.9819 -13.8127
    -8.1424  -8.0040   3.8664   4.2252   4.9498   5.8920   6.1640   6.6280
     9.3338   9.8531  10.0338  11.8169  11.8854  17.4482  18.6679  21.1851
    22.7696  23.3602  24.4975

     occupation numbers 
     1.0000   1.0000   1.0000   1.0000   1.0000   1.0000   1.0000   1.0000
     1.0000   1.0000   1.0000   1.0000   1.0000   1.0000   1.0000   1.0000
     1.0000   1.0000   1.0002   0.0000   0.0000   0.0000   0.0000   0.0000
     0.0000   0.0000   0.0000

          k =-0.2917 0.5533-0.0656 (  2108 PWs)   bands (ev):

   -84.8197 -48.1663 -48.1576 -47.9819 -41.9664 -14.0577 -14.0093 -13.8089
    -8.0822  -8.0247   4.0514   4.2318   4.6125   6.0571   6.1626   6.4721
     9.2843   9.9329  10.0502  11.7171  11.7778  18.0732  18.6048  21.3622
    22.9486  23.9126  24.3537

     occupation numbers 
     1.0000   1.0000   1.0000   1.0000   1.0000   1.0000   1.0000   1.0000
     1.0000   1.0000   1.0000   1.0000   1.0000   1.0000   1.0000   1.0000
     1.0000   1.0000   1.0003   0.0000   0.0000   0.0000   0.0000   0.0000
     0.0000   0.0000   0.0000

          k =-0.2917 0.5533-0.1313 (  2100 PWs)   bands (ev):

   -84.8196 -48.1662 -48.1575 -47.9819 -41.9663 -14.0574 -14.0091 -13.8096
    -8.0841  -8.0231   4.0506   4.2165   4.6392   6.0533   6.1825   6.4473
     9.2917   9.9301  10.0367  11.7599  11.8180  17.9508  18.5296  21.1628
    23.0116  23.7300  24.4211

     occupation numbers 
     1.0000   1.0000   1.0000   1.0000   1.0000   1.0000   1.0000   1.0000
     1.0000   1.0000   1.0000   1.0000   1.0000   1.0000   1.0000   1.0000
     1.0000   1.0000   1.0002   0.0000   0.0000   0.0000   0.0000   0.0000
     0.0000   0.0000   0.0000

          k =-0.2917 0.5533-0.1969 (  2101 PWs)   bands (ev):

   -84.8196 -48.1662 -48.1575 -47.9819 -41.9663 -14.0573 -14.0092 -13.8103
    -8.0853  -8.0221   4.0501   4.1998   4.6697   6.0440   6.1977   6.4299
     9.2989   9.9275  10.0236  11.8054  11.8561  17.8392  18.4407  21.0063
    23.0348  23.4832  24.1775

     occupation numbers 
     1.0000   1.0000   1.0000   1.0000   1.0000   1.0000   1.0000   1.0000
     1.0000   1.0000   1.0000   1.0000   1.0000   1.0000   1.0000   1.0000
     1.0000   1.0000   1.0002   0.0000   0.0000   0.0000   0.0000   0.0000
     0.0000   0.0000   0.0000

     the Fermi energy is    10.9630 ev
     (compare with:    10.9493 eV, computed in scf)

     Writing all to output data dir ../Na_1x1_c5.5_d0.00/out/pw.save/ :
     XML data file, pseudopotentials, collected wavefunctions
 
     init_run     :     10.52s CPU      2.28s WALL (       1 calls)
     electrons    :    182.53s CPU    180.20s WALL (       1 calls)

     Called by init_run:
     wfcinit      :      0.00s CPU      0.00s WALL (       1 calls)
     wfcinit:atom :      0.74s CPU      0.77s WALL (     898 calls)
     wfcinit:wfcr :      2.21s CPU      2.20s WALL (     898 calls)
     potinit      :      9.86s CPU      1.58s WALL (       1 calls)
     hinit0       :      0.44s CPU      0.43s WALL (       1 calls)

     Called by electrons:
     c_bands      :    182.49s CPU    180.16s WALL (       1 calls)
     v_of_rho     :      0.02s CPU      0.06s WALL (       1 calls)
     v_h          :      0.01s CPU      0.00s WALL (       1 calls)
     v_xc         :      0.01s CPU      0.06s WALL (       1 calls)
     newd         :      0.05s CPU      0.07s WALL (       1 calls)
                                        0.07s GPU  (       1 calls)
     PAW_pot      :      4.59s CPU      0.58s WALL (       1 calls)

     Called by c_bands:
     init_us_2    :      0.33s CPU      0.38s WALL (     898 calls)
     cegterg      :    178.30s CPU    175.89s WALL (    3540 calls)

     Called by sum_band:

     Called by *egterg:
     cdiaghg      :     63.39s CPU     65.22s WALL (   63194 calls)
                                       64.40s GPU  (   63194 calls)
     cegterg:over :     11.09s CPU     11.40s WALL (   62296 calls)
     cegterg:upda :     15.23s CPU     15.39s WALL (   62296 calls)
     cegterg:last :      2.93s CPU      2.91s WALL (   32414 calls)
     h_psi        :     60.31s CPU     58.01s WALL (   66734 calls)
                                       57.16s GPU  (   66734 calls)
     s_psi        :     10.86s CPU     11.24s WALL (   66734 calls)
     g_psi        :      0.33s CPU      1.55s WALL (   62296 calls)
                                        0.73s GPU  (   62296 calls)

     Called by h_psi:
     h_psi:calbec :      1.60s CPU      3.46s WALL (   66734 calls)
                                        2.58s GPU  (   66734 calls)
     vloc_psi     :     41.29s CPU     38.32s WALL (   66734 calls)
                                       37.46s GPU  (   66734 calls)
     add_vuspsi   :      9.71s CPU     11.30s WALL (   66734 calls)
                                       10.41s GPU  (   66734 calls)

     General routines
     calbec       :      1.43s CPU      1.52s WALL (   66734 calls)
     fft          :      3.20s CPU      0.60s WALL (      23 calls)
                                        0.00s GPU  (      21 calls)
     ffts         :      2.04s CPU      0.34s WALL (       2 calls)
     fftw         :      3.69s CPU     10.29s WALL (  195134 calls)
                                        7.87s GPU  (  195134 calls)
     interpolate  :      5.25s CPU      0.94s WALL (       2 calls)
     davcio       :      1.09s CPU      0.25s WALL (    1796 calls)
 
     Parallel routines

     PAW routines
     PAW_pot      :      4.59s CPU      0.58s WALL (       1 calls)
 
     PWSCF        :   3m20.34s CPU   3m 3.70s WALL

 
   This run was terminated on:   2:54:40  12Jul2026            

=------------------------------------------------------------------------------=
   JOB DONE.
=------------------------------------------------------------------------------=
Warning: ieee_divide_by_zero is signaling
Warning: ieee_inexact is signaling
FORTRAN STOP
