
     Program PWSCF v.7.3.1 starts on 12Jul2026 at  5:38:41 

     This program is part of the open-source Quantum ESPRESSO suite
     for quantum simulation of materials; please cite
         "P. Giannozzi et al., J. Phys.:Condens. Matter 21 395502 (2009);
         "P. Giannozzi et al., J. Phys.:Condens. Matter 29 465901 (2017);
         "P. Giannozzi et al., J. Chem. Phys. 152 154105 (2020);
          URL http://www.quantum-espresso.org", 
     in publications or presentations arising from this work. More details at
     http://www.quantum-espresso.org/quote

     Parallel version (MPI & OpenMP), running on      14 processor cores
     Number of MPI processes:                 1
     Threads/MPI process:                    14

     MPI processes distributed on     1 nodes
     1345678 MiB available memory on the printing compute node when the environment starts
 
     Reading input from pw.in

     Current dimensions of program PWSCF are:
     Max number of different atomic species (ntypx) = 10
     Max number of k-points (npk) =  40000
     Max angular momentum in pseudopotentials (lmaxx) =  4
     file Co.pbe-spn-kjpaw_psl.0.3.1.UPF: wavefunction(s)  3P 3D renormalized
     file O.pbe-n-kjpaw_psl.1.0.0.UPF: wavefunction(s)  2S 2P renormalized
     file K.pbe-spn-kjpaw_psl.1.0.0.UPF: wavefunction(s)  3S renormalized
 
     Subspace diagonalization in iterative solution of the eigenvalue problem:
     a serial algorithm will be used

 
     G-vector sticks info
     --------------------
     sticks:   dense  smooth     PW     G-vecs:    dense   smooth      PW
     Sum        1003     499    151                73353    26017    4261
 
     Using Slab Decomposition
 


     bravais-lattice index     =            4
     lattice parameter (alat)  =       5.4802  a.u.
     unit-cell volume          =     412.8597 (a.u.)^3
     number of atoms/cell      =            4
     number of atomic types    =            3
     number of electrons       =        38.00
     number of Kohn-Sham states=           27
     kinetic-energy cutoff     =      60.0000  Ry
     charge density cutoff     =     480.0000  Ry
     scf convergence threshold =      1.0E-07
     mixing beta               =       0.3000
     number of iterations used =            8  local-TF  mixing
     Exchange-correlation= SLA  PW   PBX  PBC
                           (   1   4   3   4   0   0   0)

     GPU acceleration is ACTIVE.  1 visible GPUs per MPI rank
     GPU-aware MPI enabled


     GPU used by master process:

        Device Number: 0
        Device name: NVIDIA A100-SXM4-80GB
        Compute capability : 80
        Ratio of single to double precision performance  : 2
        Memory Clock Rate (KHz): 1593000
        Memory Bus Width (bits): 5120
        Peak Memory Bandwidth (GB/s): ******

     celldm(1)=   5.480206  celldm(2)=   0.000000  celldm(3)=   2.896552
     celldm(4)=   0.000000  celldm(5)=   0.000000  celldm(6)=   0.000000

     crystal axes: (cart. coord. in units of alat)
               a(1) = (   1.000000   0.000000   0.000000 )  
               a(2) = (  -0.500000   0.866025   0.000000 )  
               a(3) = (   0.000000   0.000000   2.896552 )  

     reciprocal axes: (cart. coord. in units 2 pi/alat)
               b(1) = (  1.000000  0.577350 -0.000000 )  
               b(2) = (  0.000000  1.154701  0.000000 )  
               b(3) = (  0.000000 -0.000000  0.345238 )  


     PseudoPot. # 1 for Co read from file:
     ../../pseudo/Co.pbe-spn-kjpaw_psl.0.3.1.UPF
     MD5 check sum: 3c0a43779828c046024e4f3be63f8e67
     Pseudo is Projector augmented-wave + core cor, Zval = 17.0
     Generated using &quot;atomic&quot; code by A. Dal Corso  v.6.2.2
     Shape of augmentation charge: PSQ
     Using radial grid of 1193 points,  6 beta functions with: 
                l(1) =   0
                l(2) =   0
                l(3) =   1
                l(4) =   1
                l(5) =   2
                l(6) =   2
     Q(r) pseudized with 0 coefficients 


     PseudoPot. # 2 for O  read from file:
     ../../pseudo/O.pbe-n-kjpaw_psl.1.0.0.UPF
     MD5 check sum: e99d9cef9b487d1ca56f5b95ecd0fd7a
     Pseudo is Projector augmented-wave + core cor, Zval =  6.0
     Generated using &quot;atomic&quot; code by A. Dal Corso  v.6.3
     Shape of augmentation charge: PSQ
     Using radial grid of 1095 points,  4 beta functions with: 
                l(1) =   0
                l(2) =   0
                l(3) =   1
                l(4) =   1
     Q(r) pseudized with 0 coefficients 


     PseudoPot. # 3 for K  read from file:
     ../../pseudo/K.pbe-spn-kjpaw_psl.1.0.0.UPF
     MD5 check sum: 34cc42130a09071ebe376fd42eb21491
     Pseudo is Projector augmented-wave + core cor, Zval =  9.0
     Generated using &quot;atomic&quot; code by A. Dal Corso  v.6.2.2
     Shape of augmentation charge: PSQ
     Using radial grid of 1165 points,  6 beta functions with: 
                l(1) =   0
                l(2) =   0
                l(3) =   1
                l(4) =   1
                l(5) =   2
                l(6) =   2
     Q(r) pseudized with 0 coefficients 


     atomic species   valence    mass     pseudopotential
     Co               17.00    58.93300     Co( 1.00)
     O                 6.00    15.99900     O ( 1.00)
     K                 9.00    39.09830     K ( 1.00)

     Starting magnetic structure 
     atomic species   magnetization
     Co              0.300
     O               0.000
     K               0.000

      6 Sym. Ops. (no inversion) found


                                    s                        frac. trans.

      isym =  1     identity                                     

 cryst.   s( 1) = (     1          0          0      )
                  (     0          1          0      )
                  (     0          0          1      )

 cart.    s( 1) = (  1.0000000  0.0000000  0.0000000 )
                  (  0.0000000  1.0000000  0.0000000 )
                  (  0.0000000  0.0000000  1.0000000 )


      isym =  2     120 deg rotation - cryst. axis [0,0,1]       

 cryst.   s( 2) = (     0          1          0      )
                  (    -1         -1          0      )
                  (     0          0          1      )

 cart.    s( 2) = ( -0.5000000 -0.8660254  0.0000000 )
                  (  0.8660254 -0.5000000  0.0000000 )
                  (  0.0000000  0.0000000  1.0000000 )


      isym =  3     120 deg rotation - cryst. axis [0,0,-1]      

 cryst.   s( 3) = (    -1         -1          0      )
                  (     1          0          0      )
                  (     0          0          1      )

 cart.    s( 3) = ( -0.5000000  0.8660254  0.0000000 )
                  ( -0.8660254 -0.5000000  0.0000000 )
                  (  0.0000000  0.0000000  1.0000000 )


      isym =  4     inv. 180 deg rotation - cart. axis [1,0,0]   

 cryst.   s( 4) = (    -1          0          0      )
                  (     1          1          0      )
                  (     0          0          1      )

 cart.    s( 4) = ( -1.0000000  0.0000000  0.0000000 )
                  (  0.0000000  1.0000000  0.0000000 )
                  (  0.0000000  0.0000000  1.0000000 )


      isym =  5     inv. 180 deg rotation - cryst. axis [0,1,0]  

 cryst.   s( 5) = (     1          1          0      )
                  (     0         -1          0      )
                  (     0          0          1      )

 cart.    s( 5) = (  0.5000000  0.8660254  0.0000000 )
                  (  0.8660254 -0.5000000  0.0000000 )
                  (  0.0000000  0.0000000  1.0000000 )


      isym =  6     inv. 180 deg rotation - cryst. axis [1,1,0]  

 cryst.   s( 6) = (     0         -1          0      )
                  (    -1          0          0      )
                  (     0          0          1      )

 cart.    s( 6) = (  0.5000000 -0.8660254  0.0000000 )
                  ( -0.8660254 -0.5000000  0.0000000 )
                  (  0.0000000  0.0000000  1.0000000 )


     point group C_3v (3m)  
     there are  3 classes
     the character table:

       E     2C3   3s_v 
A_1    1.00  1.00  1.00
A_2    1.00  1.00 -1.00
E      2.00 -1.00  0.00

     the symmetry operations in each class and the name of the first element:

     E        1
          identity                                               
     2C3      2    3
          120 deg rotation - cryst. axis [0,0,1]                 
     3s_v     4    5    6
          inv. 180 deg rotation - cart. axis [1,0,0]             

   Cartesian axes

     site n.     atom                  positions (alat units)
         1        Co     tau(   1) = (   0.0000000   0.0000000   0.0000000  )
         2        O      tau(   2) = (  -0.0000000   0.5773503   0.3310345  )
         3        O      tau(   3) = (   0.5000000   0.2886751   2.5655172  )
         4        K      tau(   4) = (   0.0000000   0.0000000   1.7931034  )

   Crystallographic axes

     site n.     atom                  positions (cryst. coord.)
         1        Co     tau(   1) = (  0.0000000  0.0000000  0.0000000  )
         2        O      tau(   2) = (  0.3333333  0.6666667  0.1142857  )
         3        O      tau(   3) = (  0.6666667  0.3333333  0.8857143  )
         4        K      tau(   4) = (  0.0000000  0.0000000  0.6190476  )

     number of k points=    25  Marzari-Vanderbilt smearing, width (Ry)=  0.0200
                       cart. coord. in units 2pi/alat
        k(    1) = (   0.0000000   0.0000000   0.0000000), wk =   0.0052083
        k(    2) = (   0.0000000   0.0000000   0.1150794), wk =   0.0104167
        k(    3) = (   0.0000000   0.1443376   0.0000000), wk =   0.0312500
        k(    4) = (   0.0000000   0.1443376   0.1150794), wk =   0.0312500
        k(    5) = (   0.0000000   0.2886751   0.0000000), wk =   0.0312500
        k(    6) = (   0.0000000   0.2886751   0.1150794), wk =   0.0312500
        k(    7) = (   0.0000000   0.4330127   0.0000000), wk =   0.0312500
        k(    8) = (   0.0000000   0.4330127   0.1150794), wk =   0.0312500
        k(    9) = (   0.0000000  -0.5773503   0.0000000), wk =   0.0156250
        k(   10) = (   0.0000000  -0.5773503   0.1150794), wk =   0.0312500
        k(   11) = (   0.1250000   0.2165064   0.0000000), wk =   0.0312500
        k(   12) = (   0.1250000   0.2165064   0.1150794), wk =   0.0625000
        k(   13) = (   0.1250000   0.3608439   0.0000000), wk =   0.0625000
        k(   14) = (   0.1250000   0.3608439   0.1150794), wk =   0.0625000
        k(   15) = (   0.1250000   0.5051815   0.0000000), wk =   0.0625000
        k(   16) = (   0.1250000   0.5051815   0.1150794), wk =   0.0625000
        k(   17) = (   0.2500000   0.4330127   0.0000000), wk =   0.0312500
        k(   18) = (   0.2500000   0.4330127   0.1150794), wk =   0.0625000
        k(   19) = (   0.2500000   0.5773503   0.0000000), wk =   0.0312500
        k(   20) = (   0.2500000   0.5773503   0.1150794), wk =   0.0625000
        k(   21) = (   0.0000000  -0.1443376   0.1150794), wk =   0.0312500
        k(   22) = (   0.0000000  -0.2886751   0.1150794), wk =   0.0312500
        k(   23) = (   0.0000000  -0.4330127   0.1150794), wk =   0.0312500
        k(   24) = (  -0.1250000  -0.3608439   0.1150794), wk =   0.0625000
        k(   25) = (  -0.1250000  -0.5051815   0.1150794), wk =   0.0625000

                       cryst. coord.
        k(    1) = (   0.0000000   0.0000000   0.0000000), wk =   0.0052083
        k(    2) = (   0.0000000   0.0000000   0.3333333), wk =   0.0104167
        k(    3) = (   0.0000000   0.1250000   0.0000000), wk =   0.0312500
        k(    4) = (   0.0000000   0.1250000   0.3333333), wk =   0.0312500
        k(    5) = (   0.0000000   0.2500000   0.0000000), wk =   0.0312500
        k(    6) = (   0.0000000   0.2500000   0.3333333), wk =   0.0312500
        k(    7) = (   0.0000000   0.3750000   0.0000000), wk =   0.0312500
        k(    8) = (   0.0000000   0.3750000   0.3333333), wk =   0.0312500
        k(    9) = (   0.0000000  -0.5000000   0.0000000), wk =   0.0156250
        k(   10) = (   0.0000000  -0.5000000   0.3333333), wk =   0.0312500
        k(   11) = (   0.1250000   0.1250000   0.0000000), wk =   0.0312500
        k(   12) = (   0.1250000   0.1250000   0.3333333), wk =   0.0625000
        k(   13) = (   0.1250000   0.2500000   0.0000000), wk =   0.0625000
        k(   14) = (   0.1250000   0.2500000   0.3333333), wk =   0.0625000
        k(   15) = (   0.1250000   0.3750000   0.0000000), wk =   0.0625000
        k(   16) = (   0.1250000   0.3750000   0.3333333), wk =   0.0625000
        k(   17) = (   0.2500000   0.2500000   0.0000000), wk =   0.0312500
        k(   18) = (   0.2500000   0.2500000   0.3333333), wk =   0.0625000
        k(   19) = (   0.2500000   0.3750000   0.0000000), wk =   0.0312500
        k(   20) = (   0.2500000   0.3750000   0.3333333), wk =   0.0625000
        k(   21) = (   0.0000000  -0.1250000   0.3333333), wk =   0.0312500
        k(   22) = (   0.0000000  -0.2500000   0.3333333), wk =   0.0312500
        k(   23) = (   0.0000000  -0.3750000   0.3333333), wk =   0.0312500
        k(   24) = (  -0.1250000  -0.2500000   0.3333333), wk =   0.0625000
        k(   25) = (  -0.1250000  -0.3750000   0.3333333), wk =   0.0625000

     Dense  grid:    73353 G-vectors     FFT dimensions: (  40,  40, 120)

     Smooth grid:    26017 G-vectors     FFT dimensions: (  27,  27,  80)

     Dynamical RAM for                 wfc:       1.33 MB

     Dynamical RAM for     wfc (w. buffer):      68.08 MB

     Dynamical RAM for           str. fact:       3.36 MB

     Dynamical RAM for           local pot:       0.00 MB

     Dynamical RAM for          nlocal pot:       2.57 MB

     Dynamical RAM for                qrad:       5.27 MB

     Dynamical RAM for          rho,v,vnew:      15.50 MB

     Dynamical RAM for               rhoin:       5.17 MB

     Dynamical RAM for            rho*nmix:      35.82 MB

     Dynamical RAM for           G-vectors:       4.40 MB

     Dynamical RAM for          h,s,v(r/c):       0.13 MB

     Dynamical RAM for          <psi|beta>:       0.02 MB

     Dynamical RAM for                 psi:       2.67 MB

     Dynamical RAM for                hpsi:       2.67 MB

     Dynamical RAM for                spsi:       2.67 MB

     Dynamical RAM for      wfcinit/wfcrot:       2.69 MB

     Dynamical RAM for           addusdens:     211.54 MB

     Dynamical RAM for          addusforce:     213.80 MB

     Estimated static dynamical RAM per process >     117.61 MB

     Estimated max dynamical RAM per process >     367.23 MB

     Check: negative core charge=   -0.000007
     Generating pointlists ...
     new r_m :   0.2745 (alat units)  1.5045 (a.u.) for type    1
     new r_m :   0.2745 (alat units)  1.5045 (a.u.) for type    2
     new r_m :   0.3978 (alat units)  2.1800 (a.u.) for type    3

     Initial potential from superposition of free atoms

     starting charge      37.9809, renormalised to      38.0000
     Starting wfcs are   26 randomized atomic wfcs +    1 random wfcs
     Checking if some PAW data can be deallocated... 

     total cpu time spent up to now is        4.2 secs

     Self-consistent Calculation
[tb_dev] Currently allocated     6.58E-01 Mbytes, locked:    0 /   6
[tb_pin] Currently allocated     0.00E+00 Mbytes, locked:    0 /   0

     iteration #  1     ecut=    60.00 Ry     beta= 0.30
     Davidson diagonalization with overlap

---- Real-time Memory Report at c_bands before calling an iterative solver
           698 MiB given to the printing process from OS
             0 MiB allocation reported by mallinfo(arena+hblkhd)
       1359332 MiB available memory on the node where the printing process lives
     GPU memory used/free/total (MiB): 1060 / 80090 / 81151
------------------
     ethr =  1.00E-02,  avg # of iterations =  8.6

     total cpu time spent up to now is        6.4 secs

     total energy              =    -572.79066461 Ry
     estimated scf accuracy    <       1.72417346 Ry

     total magnetization       =     4.00 Bohr mag/cell
     absolute magnetization    =     4.00 Bohr mag/cell
[tb_dev] Currently allocated     3.05E-05 Mbytes, locked:    0 /   2
[tb_pin] Currently allocated     0.00E+00 Mbytes, locked:    0 /   0

     iteration #  2     ecut=    60.00 Ry     beta= 0.30
     Davidson diagonalization with overlap

---- Real-time Memory Report at c_bands before calling an iterative solver
           743 MiB given to the printing process from OS
             0 MiB allocation reported by mallinfo(arena+hblkhd)
       1357395 MiB available memory on the node where the printing process lives
     GPU memory used/free/total (MiB): 1078 / 80072 / 81151
------------------
     ethr =  4.54E-03,  avg # of iterations =  2.0

     total cpu time spent up to now is        7.8 secs

     total energy              =    -572.75471735 Ry
     estimated scf accuracy    <       0.69070966 Ry

     total magnetization       =     3.95 Bohr mag/cell
     absolute magnetization    =     3.95 Bohr mag/cell
[tb_dev] Currently allocated     3.05E-05 Mbytes, locked:    0 /   2
[tb_pin] Currently allocated     0.00E+00 Mbytes, locked:    0 /   0

     iteration #  3     ecut=    60.00 Ry     beta= 0.30
     Davidson diagonalization with overlap

---- Real-time Memory Report at c_bands before calling an iterative solver
           747 MiB given to the printing process from OS
             0 MiB allocation reported by mallinfo(arena+hblkhd)
       1356093 MiB available memory on the node where the printing process lives
     GPU memory used/free/total (MiB): 1078 / 80072 / 81151
------------------
     ethr =  1.82E-03,  avg # of iterations =  2.4

     total cpu time spent up to now is        9.3 secs

     total energy              =    -573.01553318 Ry
     estimated scf accuracy    <       1.32297015 Ry

     total magnetization       =     1.40 Bohr mag/cell
     absolute magnetization    =     1.57 Bohr mag/cell
[tb_dev] Currently allocated     3.05E-05 Mbytes, locked:    0 /   2
[tb_pin] Currently allocated     0.00E+00 Mbytes, locked:    0 /   0

     iteration #  4     ecut=    60.00 Ry     beta= 0.30
     Davidson diagonalization with overlap

---- Real-time Memory Report at c_bands before calling an iterative solver
           748 MiB given to the printing process from OS
             0 MiB allocation reported by mallinfo(arena+hblkhd)
       1354876 MiB available memory on the node where the printing process lives
     GPU memory used/free/total (MiB): 1078 / 80072 / 81151
------------------
     ethr =  1.82E-03,  avg # of iterations =  1.5

     total cpu time spent up to now is       10.6 secs

     total energy              =    -573.02439213 Ry
     estimated scf accuracy    <       2.89974751 Ry

     total magnetization       =     0.79 Bohr mag/cell
     absolute magnetization    =     1.16 Bohr mag/cell
[tb_dev] Currently allocated     3.05E-05 Mbytes, locked:    0 /   2
[tb_pin] Currently allocated     0.00E+00 Mbytes, locked:    0 /   0

     iteration #  5     ecut=    60.00 Ry     beta= 0.30
     Davidson diagonalization with overlap

---- Real-time Memory Report at c_bands before calling an iterative solver
           749 MiB given to the printing process from OS
             0 MiB allocation reported by mallinfo(arena+hblkhd)
       1353790 MiB available memory on the node where the printing process lives
     GPU memory used/free/total (MiB): 1078 / 80072 / 81151
------------------
     ethr =  1.82E-03,  avg # of iterations =  1.4

     total cpu time spent up to now is       11.9 secs

     total energy              =    -572.68131640 Ry
     estimated scf accuracy    <       2.23882842 Ry

     total magnetization       =     0.71 Bohr mag/cell
     absolute magnetization    =     1.15 Bohr mag/cell
[tb_dev] Currently allocated     3.05E-05 Mbytes, locked:    0 /   2
[tb_pin] Currently allocated     0.00E+00 Mbytes, locked:    0 /   0

     iteration #  6     ecut=    60.00 Ry     beta= 0.30
     Davidson diagonalization with overlap

---- Real-time Memory Report at c_bands before calling an iterative solver
           750 MiB given to the printing process from OS
             0 MiB allocation reported by mallinfo(arena+hblkhd)
       1352787 MiB available memory on the node where the printing process lives
     GPU memory used/free/total (MiB): 1078 / 80072 / 81151
------------------
     ethr =  1.82E-03,  avg # of iterations =  2.3

     total cpu time spent up to now is       13.3 secs

     total energy              =    -572.92673983 Ry
     estimated scf accuracy    <       0.12056329 Ry

     total magnetization       =     0.37 Bohr mag/cell
     absolute magnetization    =     0.66 Bohr mag/cell
[tb_dev] Currently allocated     3.05E-05 Mbytes, locked:    0 /   2
[tb_pin] Currently allocated     0.00E+00 Mbytes, locked:    0 /   0

     iteration #  7     ecut=    60.00 Ry     beta= 0.30
     Davidson diagonalization with overlap

---- Real-time Memory Report at c_bands before calling an iterative solver
           752 MiB given to the printing process from OS
             0 MiB allocation reported by mallinfo(arena+hblkhd)
       1351781 MiB available memory on the node where the printing process lives
     GPU memory used/free/total (MiB): 1078 / 80072 / 81151
------------------
     ethr =  3.17E-04,  avg # of iterations =  8.1

     total cpu time spent up to now is       15.4 secs

     total energy              =    -572.90718039 Ry
     estimated scf accuracy    <       0.04675827 Ry

     total magnetization       =     0.20 Bohr mag/cell
     absolute magnetization    =     0.50 Bohr mag/cell
[tb_dev] Currently allocated     3.05E-05 Mbytes, locked:    0 /   2
[tb_pin] Currently allocated     0.00E+00 Mbytes, locked:    0 /   0

     iteration #  8     ecut=    60.00 Ry     beta= 0.30
     Davidson diagonalization with overlap

---- Real-time Memory Report at c_bands before calling an iterative solver
           753 MiB given to the printing process from OS
             0 MiB allocation reported by mallinfo(arena+hblkhd)
       1349202 MiB available memory on the node where the printing process lives
     GPU memory used/free/total (MiB): 1078 / 80072 / 81151
------------------
     c_bands:  1 eigenvalues not converged
     c_bands:  2 eigenvalues not converged
     c_bands:  1 eigenvalues not converged
     ethr =  1.23E-04,  avg # of iterations =  9.5

     total cpu time spent up to now is       17.7 secs

     total energy              =    -572.86914932 Ry
     estimated scf accuracy    <       0.71552994 Ry

     total magnetization       =    -0.89 Bohr mag/cell
     absolute magnetization    =     0.90 Bohr mag/cell
[tb_dev] Currently allocated     3.05E-05 Mbytes, locked:    0 /   2
[tb_pin] Currently allocated     0.00E+00 Mbytes, locked:    0 /   0

     iteration #  9     ecut=    60.00 Ry     beta= 0.30
     Davidson diagonalization with overlap

---- Real-time Memory Report at c_bands before calling an iterative solver
           757 MiB given to the printing process from OS
             0 MiB allocation reported by mallinfo(arena+hblkhd)
       1345471 MiB available memory on the node where the printing process lives
     GPU memory used/free/total (MiB): 1078 / 80072 / 81151
------------------
     ethr =  1.23E-04,  avg # of iterations =  2.1

     total cpu time spent up to now is       19.1 secs

     total energy              =    -572.94905891 Ry
     estimated scf accuracy    <       0.09451338 Ry

     total magnetization       =     0.16 Bohr mag/cell
     absolute magnetization    =     0.34 Bohr mag/cell
[tb_dev] Currently allocated     3.05E-05 Mbytes, locked:    0 /   2
[tb_pin] Currently allocated     0.00E+00 Mbytes, locked:    0 /   0

     iteration # 10     ecut=    60.00 Ry     beta= 0.30
     Davidson diagonalization with overlap

---- Real-time Memory Report at c_bands before calling an iterative solver
           760 MiB given to the printing process from OS
             0 MiB allocation reported by mallinfo(arena+hblkhd)
       1342862 MiB available memory on the node where the printing process lives
     GPU memory used/free/total (MiB): 1078 / 80072 / 81151
------------------
     ethr =  1.23E-04,  avg # of iterations =  1.4

     total cpu time spent up to now is       20.4 secs

     total energy              =    -572.95199761 Ry
     estimated scf accuracy    <       0.03599150 Ry

     total magnetization       =     0.22 Bohr mag/cell
     absolute magnetization    =     0.34 Bohr mag/cell
[tb_dev] Currently allocated     3.05E-05 Mbytes, locked:    0 /   2
[tb_pin] Currently allocated     0.00E+00 Mbytes, locked:    0 /   0

     iteration # 11     ecut=    60.00 Ry     beta= 0.30
     Davidson diagonalization with overlap

---- Real-time Memory Report at c_bands before calling an iterative solver
           760 MiB given to the printing process from OS
             0 MiB allocation reported by mallinfo(arena+hblkhd)
       1339902 MiB available memory on the node where the printing process lives
     GPU memory used/free/total (MiB): 1078 / 80072 / 81151
------------------
     ethr =  9.47E-05,  avg # of iterations =  1.0

     total cpu time spent up to now is       21.7 secs

     total energy              =    -572.95094998 Ry
     estimated scf accuracy    <       0.03870127 Ry

     total magnetization       =     0.17 Bohr mag/cell
     absolute magnetization    =     0.26 Bohr mag/cell
[tb_dev] Currently allocated     3.05E-05 Mbytes, locked:    0 /   2
[tb_pin] Currently allocated     0.00E+00 Mbytes, locked:    0 /   0

     iteration # 12     ecut=    60.00 Ry     beta= 0.30
     Davidson diagonalization with overlap

---- Real-time Memory Report at c_bands before calling an iterative solver
           760 MiB given to the printing process from OS
             0 MiB allocation reported by mallinfo(arena+hblkhd)
       1359718 MiB available memory on the node where the printing process lives
     GPU memory used/free/total (MiB): 1078 / 80072 / 81151
------------------
     ethr =  9.47E-05,  avg # of iterations =  1.0

     total cpu time spent up to now is       23.0 secs

     total energy              =    -572.95019523 Ry
     estimated scf accuracy    <       0.02074269 Ry

     total magnetization       =     0.09 Bohr mag/cell
     absolute magnetization    =     0.14 Bohr mag/cell
[tb_dev] Currently allocated     3.05E-05 Mbytes, locked:    0 /   2
[tb_pin] Currently allocated     0.00E+00 Mbytes, locked:    0 /   0

     iteration # 13     ecut=    60.00 Ry     beta= 0.30
     Davidson diagonalization with overlap

---- Real-time Memory Report at c_bands before calling an iterative solver
           760 MiB given to the printing process from OS
             0 MiB allocation reported by mallinfo(arena+hblkhd)
       1358446 MiB available memory on the node where the printing process lives
     GPU memory used/free/total (MiB): 1078 / 80072 / 81151
------------------
     ethr =  5.46E-05,  avg # of iterations =  1.3

     total cpu time spent up to now is       24.3 secs

     total energy              =    -572.95062632 Ry
     estimated scf accuracy    <       0.00550705 Ry

     total magnetization       =     0.01 Bohr mag/cell
     absolute magnetization    =     0.06 Bohr mag/cell
[tb_dev] Currently allocated     3.05E-05 Mbytes, locked:    0 /   2
[tb_pin] Currently allocated     0.00E+00 Mbytes, locked:    0 /   0

     iteration # 14     ecut=    60.00 Ry     beta= 0.30
     Davidson diagonalization with overlap

---- Real-time Memory Report at c_bands before calling an iterative solver
           760 MiB given to the printing process from OS
             0 MiB allocation reported by mallinfo(arena+hblkhd)
       1357371 MiB available memory on the node where the printing process lives
     GPU memory used/free/total (MiB): 1078 / 80072 / 81151
------------------
     c_bands:  1 eigenvalues not converged
     ethr =  1.45E-05,  avg # of iterations =  2.6

     total cpu time spent up to now is       25.8 secs

     total energy              =    -572.95047900 Ry
     estimated scf accuracy    <       0.00359386 Ry

     total magnetization       =    -0.00 Bohr mag/cell
     absolute magnetization    =     0.05 Bohr mag/cell
[tb_dev] Currently allocated     3.05E-05 Mbytes, locked:    0 /   2
[tb_pin] Currently allocated     0.00E+00 Mbytes, locked:    0 /   0

     iteration # 15     ecut=    60.00 Ry     beta= 0.30
     Davidson diagonalization with overlap

---- Real-time Memory Report at c_bands before calling an iterative solver
           760 MiB given to the printing process from OS
             0 MiB allocation reported by mallinfo(arena+hblkhd)
       1356179 MiB available memory on the node where the printing process lives
     GPU memory used/free/total (MiB): 1078 / 80072 / 81151
------------------
     ethr =  9.46E-06,  avg # of iterations =  1.8

     total cpu time spent up to now is       27.1 secs

     total energy              =    -572.95053509 Ry
     estimated scf accuracy    <       0.00124749 Ry

     total magnetization       =    -0.06 Bohr mag/cell
     absolute magnetization    =     0.06 Bohr mag/cell
[tb_dev] Currently allocated     3.05E-05 Mbytes, locked:    0 /   2
[tb_pin] Currently allocated     0.00E+00 Mbytes, locked:    0 /   0

     iteration # 16     ecut=    60.00 Ry     beta= 0.30
     Davidson diagonalization with overlap

---- Real-time Memory Report at c_bands before calling an iterative solver
           760 MiB given to the printing process from OS
             0 MiB allocation reported by mallinfo(arena+hblkhd)
       1354974 MiB available memory on the node where the printing process lives
     GPU memory used/free/total (MiB): 1078 / 80072 / 81151
------------------
     c_bands:  1 eigenvalues not converged
     c_bands:  1 eigenvalues not converged
     c_bands:  1 eigenvalues not converged
     ethr =  3.28E-06,  avg # of iterations =  3.9

     total cpu time spent up to now is       28.7 secs

     total energy              =    -572.95067761 Ry
     estimated scf accuracy    <       0.00013463 Ry

     total magnetization       =    -0.13 Bohr mag/cell
     absolute magnetization    =     0.13 Bohr mag/cell
[tb_dev] Currently allocated     3.05E-05 Mbytes, locked:    0 /   2
[tb_pin] Currently allocated     0.00E+00 Mbytes, locked:    0 /   0

     iteration # 17     ecut=    60.00 Ry     beta= 0.30
     Davidson diagonalization with overlap

---- Real-time Memory Report at c_bands before calling an iterative solver
           760 MiB given to the printing process from OS
             0 MiB allocation reported by mallinfo(arena+hblkhd)
       1353550 MiB available memory on the node where the printing process lives
     GPU memory used/free/total (MiB): 1078 / 80072 / 81151
------------------
     c_bands:  1 eigenvalues not converged
     c_bands:  1 eigenvalues not converged
     c_bands:  1 eigenvalues not converged
     ethr =  3.54E-07,  avg # of iterations =  7.8

     total cpu time spent up to now is       30.8 secs

     total energy              =    -572.95071790 Ry
     estimated scf accuracy    <       0.00033801 Ry

     total magnetization       =    -0.12 Bohr mag/cell
     absolute magnetization    =     0.12 Bohr mag/cell
[tb_dev] Currently allocated     3.05E-05 Mbytes, locked:    0 /   2
[tb_pin] Currently allocated     0.00E+00 Mbytes, locked:    0 /   0

     iteration # 18     ecut=    60.00 Ry     beta= 0.30
     Davidson diagonalization with overlap

---- Real-time Memory Report at c_bands before calling an iterative solver
           760 MiB given to the printing process from OS
             0 MiB allocation reported by mallinfo(arena+hblkhd)
       1351665 MiB available memory on the node where the printing process lives
     GPU memory used/free/total (MiB): 1078 / 80072 / 81151
------------------
     ethr =  3.54E-07,  avg # of iterations =  1.9

     total cpu time spent up to now is       32.1 secs

     total energy              =    -572.95048396 Ry
     estimated scf accuracy    <       0.00008208 Ry

     total magnetization       =    -0.14 Bohr mag/cell
     absolute magnetization    =     0.15 Bohr mag/cell
[tb_dev] Currently allocated     3.05E-05 Mbytes, locked:    0 /   2
[tb_pin] Currently allocated     0.00E+00 Mbytes, locked:    0 /   0

     iteration # 19     ecut=    60.00 Ry     beta= 0.30
     Davidson diagonalization with overlap

---- Real-time Memory Report at c_bands before calling an iterative solver
           760 MiB given to the printing process from OS
             0 MiB allocation reported by mallinfo(arena+hblkhd)
       1349855 MiB available memory on the node where the printing process lives
     GPU memory used/free/total (MiB): 1078 / 80072 / 81151
------------------
     ethr =  2.16E-07,  avg # of iterations =  2.9

     total cpu time spent up to now is       33.6 secs

     total energy              =    -572.95065637 Ry
     estimated scf accuracy    <       0.00053363 Ry

     total magnetization       =    -0.03 Bohr mag/cell
     absolute magnetization    =     0.04 Bohr mag/cell
[tb_dev] Currently allocated     3.05E-05 Mbytes, locked:    0 /   2
[tb_pin] Currently allocated     0.00E+00 Mbytes, locked:    0 /   0

     iteration # 20     ecut=    60.00 Ry     beta= 0.30
     Davidson diagonalization with overlap

---- Real-time Memory Report at c_bands before calling an iterative solver
           760 MiB given to the printing process from OS
             0 MiB allocation reported by mallinfo(arena+hblkhd)
       1348471 MiB available memory on the node where the printing process lives
     GPU memory used/free/total (MiB): 1078 / 80072 / 81151
------------------
     ethr =  2.16E-07,  avg # of iterations =  1.3

     total cpu time spent up to now is       34.9 secs

     total energy              =    -572.95068876 Ry
     estimated scf accuracy    <       0.00005832 Ry

     total magnetization       =    -0.07 Bohr mag/cell
     absolute magnetization    =     0.07 Bohr mag/cell
[tb_dev] Currently allocated     3.05E-05 Mbytes, locked:    0 /   2
[tb_pin] Currently allocated     0.00E+00 Mbytes, locked:    0 /   0

     iteration # 21     ecut=    60.00 Ry     beta= 0.30
     Davidson diagonalization with overlap

---- Real-time Memory Report at c_bands before calling an iterative solver
           760 MiB given to the printing process from OS
             0 MiB allocation reported by mallinfo(arena+hblkhd)
       1346505 MiB available memory on the node where the printing process lives
     GPU memory used/free/total (MiB): 1078 / 80072 / 81151
------------------
     ethr =  1.53E-07,  avg # of iterations =  1.1

     total cpu time spent up to now is       36.2 secs

     total energy              =    -572.95069438 Ry
     estimated scf accuracy    <       0.00006007 Ry

     total magnetization       =    -0.05 Bohr mag/cell
     absolute magnetization    =     0.05 Bohr mag/cell
[tb_dev] Currently allocated     3.05E-05 Mbytes, locked:    0 /   2
[tb_pin] Currently allocated     0.00E+00 Mbytes, locked:    0 /   0

     iteration # 22     ecut=    60.00 Ry     beta= 0.30
     Davidson diagonalization with overlap

---- Real-time Memory Report at c_bands before calling an iterative solver
           760 MiB given to the printing process from OS
             0 MiB allocation reported by mallinfo(arena+hblkhd)
       1344025 MiB available memory on the node where the printing process lives
     GPU memory used/free/total (MiB): 1078 / 80072 / 81151
------------------
     ethr =  1.53E-07,  avg # of iterations =  1.0

     total cpu time spent up to now is       37.4 secs

     total energy              =    -572.95069392 Ry
     estimated scf accuracy    <       0.00007035 Ry

     total magnetization       =    -0.05 Bohr mag/cell
     absolute magnetization    =     0.05 Bohr mag/cell
[tb_dev] Currently allocated     3.05E-05 Mbytes, locked:    0 /   2
[tb_pin] Currently allocated     0.00E+00 Mbytes, locked:    0 /   0

     iteration # 23     ecut=    60.00 Ry     beta= 0.30
     Davidson diagonalization with overlap

---- Real-time Memory Report at c_bands before calling an iterative solver
           760 MiB given to the printing process from OS
             0 MiB allocation reported by mallinfo(arena+hblkhd)
       1341759 MiB available memory on the node where the printing process lives
     GPU memory used/free/total (MiB): 1078 / 80072 / 81151
------------------
     ethr =  1.53E-07,  avg # of iterations =  1.1

     total cpu time spent up to now is       38.7 secs

     total energy              =    -572.95068867 Ry
     estimated scf accuracy    <       0.00007247 Ry

     total magnetization       =    -0.05 Bohr mag/cell
     absolute magnetization    =     0.05 Bohr mag/cell
[tb_dev] Currently allocated     3.05E-05 Mbytes, locked:    0 /   2
[tb_pin] Currently allocated     0.00E+00 Mbytes, locked:    0 /   0

     iteration # 24     ecut=    60.00 Ry     beta= 0.30
     Davidson diagonalization with overlap

---- Real-time Memory Report at c_bands before calling an iterative solver
           760 MiB given to the printing process from OS
             0 MiB allocation reported by mallinfo(arena+hblkhd)
       1358760 MiB available memory on the node where the printing process lives
     GPU memory used/free/total (MiB): 1078 / 80072 / 81151
------------------
     ethr =  1.53E-07,  avg # of iterations =  1.0

     total cpu time spent up to now is       40.0 secs

     total energy              =    -572.95069255 Ry
     estimated scf accuracy    <       0.00003647 Ry

     total magnetization       =    -0.04 Bohr mag/cell
     absolute magnetization    =     0.04 Bohr mag/cell
[tb_dev] Currently allocated     3.05E-05 Mbytes, locked:    0 /   2
[tb_pin] Currently allocated     0.00E+00 Mbytes, locked:    0 /   0

     iteration # 25     ecut=    60.00 Ry     beta= 0.30
     Davidson diagonalization with overlap

---- Real-time Memory Report at c_bands before calling an iterative solver
           760 MiB given to the printing process from OS
             0 MiB allocation reported by mallinfo(arena+hblkhd)
       1358525 MiB available memory on the node where the printing process lives
     GPU memory used/free/total (MiB): 1078 / 80072 / 81151
------------------
     ethr =  9.60E-08,  avg # of iterations =  1.0

     total cpu time spent up to now is       41.2 secs

     total energy              =    -572.95067811 Ry
     estimated scf accuracy    <       0.00003649 Ry

     total magnetization       =    -0.05 Bohr mag/cell
     absolute magnetization    =     0.05 Bohr mag/cell
[tb_dev] Currently allocated     3.05E-05 Mbytes, locked:    0 /   2
[tb_pin] Currently allocated     0.00E+00 Mbytes, locked:    0 /   0

     iteration # 26     ecut=    60.00 Ry     beta= 0.30
     Davidson diagonalization with overlap

---- Real-time Memory Report at c_bands before calling an iterative solver
           760 MiB given to the printing process from OS
             0 MiB allocation reported by mallinfo(arena+hblkhd)
       1357555 MiB available memory on the node where the printing process lives
     GPU memory used/free/total (MiB): 1078 / 80072 / 81151
------------------
     ethr =  9.60E-08,  avg # of iterations =  1.2

     total cpu time spent up to now is       42.5 secs

     total energy              =    -572.95069208 Ry
     estimated scf accuracy    <       0.00001128 Ry

     total magnetization       =    -0.02 Bohr mag/cell
     absolute magnetization    =     0.03 Bohr mag/cell
[tb_dev] Currently allocated     3.05E-05 Mbytes, locked:    0 /   2
[tb_pin] Currently allocated     0.00E+00 Mbytes, locked:    0 /   0

     iteration # 27     ecut=    60.00 Ry     beta= 0.30
     Davidson diagonalization with overlap

---- Real-time Memory Report at c_bands before calling an iterative solver
           760 MiB given to the printing process from OS
             0 MiB allocation reported by mallinfo(arena+hblkhd)
       1356367 MiB available memory on the node where the printing process lives
     GPU memory used/free/total (MiB): 1078 / 80072 / 81151
------------------
     ethr =  2.97E-08,  avg # of iterations =  2.6

     total cpu time spent up to now is       44.0 secs

     total energy              =    -572.95070086 Ry
     estimated scf accuracy    <       0.00000198 Ry

     total magnetization       =    -0.01 Bohr mag/cell
     absolute magnetization    =     0.01 Bohr mag/cell
[tb_dev] Currently allocated     3.05E-05 Mbytes, locked:    0 /   2
[tb_pin] Currently allocated     0.00E+00 Mbytes, locked:    0 /   0

     iteration # 28     ecut=    60.00 Ry     beta= 0.30
     Davidson diagonalization with overlap

---- Real-time Memory Report at c_bands before calling an iterative solver
           760 MiB given to the printing process from OS
             0 MiB allocation reported by mallinfo(arena+hblkhd)
       1356277 MiB available memory on the node where the printing process lives
     GPU memory used/free/total (MiB): 1078 / 80072 / 81151
------------------
     ethr =  5.20E-09,  avg # of iterations =  6.5

     total cpu time spent up to now is       46.0 secs

     total energy              =    -572.95070251 Ry
     estimated scf accuracy    <       0.00000084 Ry

     total magnetization       =    -0.01 Bohr mag/cell
     absolute magnetization    =     0.01 Bohr mag/cell
[tb_dev] Currently allocated     3.05E-05 Mbytes, locked:    0 /   2
[tb_pin] Currently allocated     0.00E+00 Mbytes, locked:    0 /   0

     iteration # 29     ecut=    60.00 Ry     beta= 0.30
     Davidson diagonalization with overlap

---- Real-time Memory Report at c_bands before calling an iterative solver
           760 MiB given to the printing process from OS
             0 MiB allocation reported by mallinfo(arena+hblkhd)
       1354397 MiB available memory on the node where the printing process lives
     GPU memory used/free/total (MiB): 1078 / 80072 / 81151
------------------
     ethr =  2.21E-09,  avg # of iterations =  2.4

     total cpu time spent up to now is       47.4 secs

     total energy              =    -572.95070305 Ry
     estimated scf accuracy    <       0.00000038 Ry

     total magnetization       =    -0.00 Bohr mag/cell
     absolute magnetization    =     0.01 Bohr mag/cell
[tb_dev] Currently allocated     3.05E-05 Mbytes, locked:    0 /   2
[tb_pin] Currently allocated     0.00E+00 Mbytes, locked:    0 /   0

     iteration # 30     ecut=    60.00 Ry     beta= 0.30
     Davidson diagonalization with overlap

---- Real-time Memory Report at c_bands before calling an iterative solver
           760 MiB given to the printing process from OS
             0 MiB allocation reported by mallinfo(arena+hblkhd)
       1353097 MiB available memory on the node where the printing process lives
     GPU memory used/free/total (MiB): 1078 / 80072 / 81151
------------------
     ethr =  1.00E-09,  avg # of iterations =  4.5

     total cpu time spent up to now is       49.1 secs

     total energy              =    -572.95070346 Ry
     estimated scf accuracy    <       0.00000013 Ry

     total magnetization       =    -0.00 Bohr mag/cell
     absolute magnetization    =     0.00 Bohr mag/cell
[tb_dev] Currently allocated     3.05E-05 Mbytes, locked:    0 /   2
[tb_pin] Currently allocated     0.00E+00 Mbytes, locked:    0 /   0

     iteration # 31     ecut=    60.00 Ry     beta= 0.30
     Davidson diagonalization with overlap

---- Real-time Memory Report at c_bands before calling an iterative solver
           760 MiB given to the printing process from OS
             0 MiB allocation reported by mallinfo(arena+hblkhd)
       1351825 MiB available memory on the node where the printing process lives
     GPU memory used/free/total (MiB): 1078 / 80072 / 81151
------------------
     ethr =  3.41E-10,  avg # of iterations =  2.8
 
     Magnetic moment per site  (integrated on atomic sphere of radius R)
     atom   1 (R=0.275)  charge= 14.1510  magn= -0.0021
     atom   2 (R=0.275)  charge=  5.2211  magn= -0.0003
     atom   3 (R=0.275)  charge=  5.2957  magn= -0.0002
     atom   4 (R=0.398)  charge=  7.6753  magn= -0.0001

     total cpu time spent up to now is       50.6 secs

     End of self-consistent calculation

 ------ SPIN UP ------------


          k = 0.0000 0.0000 0.0000 (  3279 PWs)   bands (ev):

   -86.9084 -50.1516 -50.1516 -50.1345 -25.9421 -11.4775  -9.6362  -8.7576
    -7.9314  -7.9314   2.3294   3.1423   3.1423   5.7110   6.4579   6.4579
     7.1371   7.1371   7.1642   8.4018   9.7416  10.6078  10.6078  12.5028
    12.5028  14.0735  15.6671

     occupation numbers 
     1.0000   1.0000   1.0000   1.0000   1.0000   1.0000   1.0000   1.0000
     1.0000   1.0000   1.0000   1.0000   1.0000   1.0000   1.0000   1.0000
     1.0000   1.0000   1.0000   0.1517   0.0000   0.0000   0.0000   0.0000
     0.0000   0.0000   0.0000

          k = 0.0000 0.0000 0.1151 (  3249 PWs)   bands (ev):

   -86.9084 -50.1515 -50.1515 -50.1344 -25.9421 -11.4793  -9.6253  -8.7681
    -7.9314  -7.9314   2.3697   3.1423   3.1423   5.4789   6.4578   6.4578
     7.1371   7.1371   7.5147   8.2672   9.7903  10.6085  10.6085  12.5023
    12.5024  13.6489  16.2425

     occupation numbers 
     1.0000   1.0000   1.0000   1.0000   1.0000   1.0000   1.0000   1.0000
     1.0000   1.0000   1.0000   1.0000   1.0000   1.0000   1.0000   1.0000
     1.0000   1.0000   1.0035   0.4248   0.0000   0.0000   0.0000   0.0000
     0.0000   0.0000   0.0000

          k = 0.0000 0.1443 0.0000 (  3241 PWs)   bands (ev):

   -86.9077 -50.1595 -50.1534 -50.1332 -25.8549 -11.3163  -9.5863  -8.7372
    -8.3622  -8.0225   2.4815   2.9569   3.2376   5.4347   5.9499   6.0693
     7.3941   7.5625   7.6049   8.5084  10.0478  10.2348  10.5113  11.8853
    13.0538  13.8444  15.5326

     occupation numbers 
     1.0000   1.0000   1.0000   1.0000   1.0000   1.0000   1.0000   1.0000
     1.0000   1.0000   1.0000   1.0000   1.0000   1.0000   1.0000   1.0000
     1.0005   1.0068   1.0116   0.0489   0.0000   0.0000   0.0000   0.0000
     0.0000   0.0000   0.0000

          k = 0.0000 0.1443 0.1151 (  3236 PWs)   bands (ev):

   -86.9077 -50.1595 -50.1534 -50.1332 -25.8549 -11.3179  -9.5772  -8.7457
    -8.3621  -8.0225   2.5065   2.9542   3.2377   5.4467   5.9145   5.9498
     7.3768   7.5625   7.9134   8.3431  10.0167  10.3043  10.5116  11.8856
    13.0537  13.7901  15.1803

     occupation numbers 
     1.0000   1.0000   1.0000   1.0000   1.0000   1.0000   1.0000   1.0000
     1.0000   1.0000   1.0000   1.0000   1.0000   1.0000   1.0000   1.0000
     1.0003   1.0067   1.0817   0.2507   0.0000   0.0000   0.0000   0.0000
     0.0000   0.0000   0.0000

          k = 0.0000 0.2887 0.0000 (  3230 PWs)   bands (ev):

   -86.9060 -50.1790 -50.1579 -50.1303 -25.6359 -10.9064  -9.5208  -9.3075
    -8.6329  -8.2343   2.4593   2.9822   3.4595   4.1671   5.3679   6.2593
     7.5184   7.8603   8.1114   8.7230   9.5307  10.2343  10.3851  12.1750
    13.0498  14.5685  15.3705

     occupation numbers 
     1.0000   1.0000   1.0000   1.0000   1.0000   1.0000   1.0000   1.0000
     1.0000   1.0000   1.0000   1.0000   1.0000   1.0000   1.0000   1.0000
     1.0036   1.0804   0.8389   0.0021   0.0000   0.0000   0.0000   0.0000
     0.0000   0.0000   0.0000

          k = 0.0000 0.2887 0.1151 (  3236 PWs)   bands (ev):

   -86.9060 -50.1789 -50.1581 -50.1303 -25.6359 -10.9073  -9.5193  -9.3042
    -8.6370  -8.2343   2.4522   2.9911   3.4595   4.1799   5.3677   6.2385
     7.5084   7.8602   8.1915   8.5573   9.7060  10.1472  10.3855  12.1712
    13.1655  14.5688  15.3694

     occupation numbers 
     1.0000   1.0000   1.0000   1.0000   1.0000   1.0000   1.0000   1.0000
     1.0000   1.0000   1.0000   1.0000   1.0000   1.0000   1.0000   1.0000
     1.0031   1.0804   0.6301   0.0264   0.0000   0.0000   0.0000   0.0000
     0.0000   0.0000   0.0000

          k = 0.0000 0.4330 0.0000 (  3242 PWs)   bands (ev):

   -86.9043 -50.1984 -50.1628 -50.1274 -25.4031 -10.5832 -10.0903  -9.3970
    -8.5287  -8.4358   1.9351   2.9063   3.6309   4.1753   5.1005   5.7475
     7.4329   7.7603   7.9877   8.5768   9.4856  10.1614  10.4129  12.8765
    14.0115  14.9587  16.5805

     occupation numbers 
     1.0000   1.0000   1.0000   1.0000   1.0000   1.0000   1.0000   1.0000
     1.0000   1.0000   1.0000   1.0000   1.0000   1.0000   1.0000   1.0000
     1.0009   1.0505   1.0439   0.0203   0.0000   0.0000   0.0000   0.0000
     0.0000   0.0000   0.0000

          k = 0.0000 0.4330 0.1151 (  3243 PWs)   bands (ev):

   -86.9043 -50.1984 -50.1628 -50.1274 -25.4031 -10.5832 -10.0911  -9.3954
    -8.5295  -8.4358   1.9381   2.9007   3.6311   4.1835   5.1002   5.7318
     7.4418   7.7602   7.9830   8.5581   9.7259   9.9118  10.4140  12.9327
    13.9988  14.9562  16.5482

     occupation numbers 
     1.0000   1.0000   1.0000   1.0000   1.0000   1.0000   1.0000   1.0000
     1.0000   1.0000   1.0000   1.0000   1.0000   1.0000   1.0000   1.0000
     1.0011   1.0505   1.0480   0.0261   0.0000   0.0000   0.0000   0.0000
     0.0000   0.0000   0.0000

          k = 0.0000-0.5774 0.0000 (  3254 PWs)   bands (ev):

   -86.9036 -50.2065 -50.1647 -50.1263 -25.3021 -10.7482 -10.0403  -9.3944
    -8.5164  -8.4772   1.5470   3.0065   3.6677   4.3502   5.0781   5.4344
     7.2949   7.6363   7.9138   8.3251   9.5160  10.2832  10.4584  13.2877
    14.6822  14.8094  16.8312

     occupation numbers 
     1.0000   1.0000   1.0000   1.0000   1.0000   1.0000   1.0000   1.0000
     1.0000   1.0000   1.0000   1.0000   1.0000   1.0000   1.0000   1.0000
     1.0001   1.0166   1.0816   0.2877   0.0000   0.0000   0.0000   0.0000
     0.0000   0.0000   0.0000

          k = 0.0000-0.5774 0.1151 (  3256 PWs)   bands (ev):

   -86.9036 -50.2065 -50.1647 -50.1263 -25.3021 -10.7481 -10.0405  -9.3945
    -8.5164  -8.4770   1.5505   3.0005   3.6679   4.3605   5.0777   5.4091
     7.3015   7.6363   7.9193   8.3306   9.6281  10.1767  10.4596  13.2099
    14.6655  14.8061  17.1286

     occupation numbers 
     1.0000   1.0000   1.0000   1.0000   1.0000   1.0000   1.0000   1.0000
     1.0000   1.0000   1.0000   1.0000   1.0000   1.0000   1.0000   1.0000
     1.0001   1.0166   1.0806   0.2761   0.0000   0.0000   0.0000   0.0000
     0.0000   0.0000   0.0000

          k = 0.1250 0.2165 0.0000 (  3241 PWs)   bands (ev):

   -86.9065 -50.1724 -50.1576 -50.1311 -25.7015 -11.0294  -9.5170  -9.0257
    -8.6531  -8.2327   2.5451   2.9523   3.3611   4.5578   5.2727   6.3333
     7.5403   7.8644   8.0837   8.7029   9.7605  10.2391  10.8049  11.0794
    13.3153  14.3159  15.2441

     occupation numbers 
     1.0000   1.0000   1.0000   1.0000   1.0000   1.0000   1.0000   1.0000
     1.0000   1.0000   1.0000   1.0000   1.0000   1.0000   1.0000   1.0000
     1.0050   1.0811   0.9001   0.0029   0.0000   0.0000   0.0000   0.0000
     0.0000   0.0000   0.0000

          k = 0.1250 0.2165 0.1151 (  3233 PWs)   bands (ev):

   -86.9065 -50.1724 -50.1576 -50.1311 -25.7015 -11.0306  -9.5121  -9.0249
    -8.6581  -8.2327   2.5415   2.9589   3.3608   4.5755   5.2729   6.2964
     7.5340   7.8380   8.1802   8.6039   9.8470  10.2000  10.8106  11.0754
    13.4034  14.3168  15.2470

     occupation numbers 
     1.0000   1.0000   1.0000   1.0000   1.0000   1.0000   1.0000   1.0000
     1.0000   1.0000   1.0000   1.0000   1.0000   1.0000   1.0000   1.0000
     1.0046   1.0756   0.6613   0.0139   0.0000   0.0000   0.0000   0.0000
     0.0000   0.0000   0.0000

          k = 0.1250 0.3608 0.0000 (  3230 PWs)   bands (ev):

   -86.9048 -50.1898 -50.1642 -50.1283 -25.4734 -10.6201  -9.8274  -9.3983
    -8.5764  -8.5414   2.3478   2.8614   3.5682   4.0547   4.8302   6.0593
     7.5814   7.8905   8.0783   9.2097   9.6238  10.0872  10.2573  12.3134
    12.9907  14.4449  16.1459

     occupation numbers 
     1.0000   1.0000   1.0000   1.0000   1.0000   1.0000   1.0000   1.0000
     1.0000   1.0000   1.0000   1.0000   1.0000   1.0000   1.0000   1.0000
     1.0086   1.0833   0.9112   0.0000   0.0000   0.0000   0.0000   0.0000
     0.0000   0.0000   0.0000

          k = 0.1250 0.3608 0.1151 (  3231 PWs)   bands (ev):

   -86.9048 -50.1898 -50.1642 -50.1282 -25.4734 -10.6204  -9.8289  -9.3949
    -8.5771  -8.5424   2.3456   2.8602   3.5671   4.0640   4.8303   6.0613
     7.5815   7.8933   8.0774   9.1073   9.7699   9.9822  10.3021  12.3057
    13.0265  14.4597  16.1221

     occupation numbers 
     1.0000   1.0000   1.0000   1.0000   1.0000   1.0000   1.0000   1.0000
     1.0000   1.0000   1.0000   1.0000   1.0000   1.0000   1.0000   1.0000
     1.0086   1.0833   0.9130   0.0000   0.0000   0.0000   0.0000   0.0000
     0.0000   0.0000   0.0000

          k = 0.1250 0.5052 0.0000 (  3243 PWs)   bands (ev):

   -86.9036 -50.2021 -50.1691 -50.1262 -25.3033 -10.5936 -10.0331  -9.3717
    -8.7762  -8.4746   1.8178   2.8705   3.6321   4.4008   4.6543   5.5249
     7.4047   7.7130   8.0261   9.0106   9.6638  10.1239  10.3592  13.1377
    13.7585  14.2243  16.9712

     occupation numbers 
     1.0000   1.0000   1.0000   1.0000   1.0000   1.0000   1.0000   1.0000
     1.0000   1.0000   1.0000   1.0000   1.0000   1.0000   1.0000   1.0000
     1.0006   1.0352   0.9999   0.0000   0.0000   0.0000   0.0000   0.0000
     0.0000   0.0000   0.0000

          k = 0.1250 0.5052 0.1151 (  3244 PWs)   bands (ev):

   -86.9036 -50.2021 -50.1690 -50.1262 -25.3033 -10.5935 -10.0334  -9.3714
    -8.7762  -8.4747   1.8214   2.8676   3.6319   4.4048   4.6547   5.5078
     7.4104   7.7112   8.0318   9.0073   9.7545  10.0096  10.3966  13.1184
    13.7507  14.2227  17.0240

     occupation numbers 
     1.0000   1.0000   1.0000   1.0000   1.0000   1.0000   1.0000   1.0000
     1.0000   1.0000   1.0000   1.0000   1.0000   1.0000   1.0000   1.0000
     1.0006   1.0346   0.9918   0.0000   0.0000   0.0000   0.0000   0.0000
     0.0000   0.0000   0.0000

          k = 0.2500 0.4330 0.0000 (  3245 PWs)   bands (ev):

   -86.9036 -50.1960 -50.1751 -50.1263 -25.3045 -10.4278  -9.9522  -9.3559
    -9.1118  -8.4723   2.2592   2.6986   3.4258   4.1533   4.6338   5.5961
     7.4945   7.7670   8.1528   9.7302   9.8637  10.1069  10.5251  12.3116
    13.0802  13.5934  16.9350

     occupation numbers 
     1.0000   1.0000   1.0000   1.0000   1.0000   1.0000   1.0000   1.0000
     1.0000   1.0000   1.0000   1.0000   1.0000   1.0000   1.0000   1.0000
     1.0026   1.0529   0.7353   0.0000   0.0000   0.0000   0.0000   0.0000
     0.0000   0.0000   0.0000

          k = 0.2500 0.4330 0.1151 (  3234 PWs)   bands (ev):

   -86.9036 -50.1960 -50.1750 -50.1262 -25.3045 -10.4275  -9.9533  -9.3548
    -9.1121  -8.4725   2.2596   2.7004   3.4269   4.1507   4.6289   5.6010
     7.4923   7.7646   8.1676   9.5792   9.8899  10.2582  10.5036  12.3052
    13.0755  13.5780  16.9933

     occupation numbers 
     1.0000   1.0000   1.0000   1.0000   1.0000   1.0000   1.0000   1.0000
     1.0000   1.0000   1.0000   1.0000   1.0000   1.0000   1.0000   1.0000
     1.0025   1.0520   0.6958   0.0000   0.0000   0.0000   0.0000   0.0000
     0.0000   0.0000   0.0000

          k = 0.2500 0.5774 0.0000 (  3233 PWs)   bands (ev):

   -86.9031 -50.1965 -50.1816 -50.1253 -25.2326 -10.3787  -9.9181  -9.4118
    -9.3180  -8.4337   2.1548   2.7541   3.2161   4.2357   4.7867   5.2365
     7.2925   7.9045   8.1248   9.7514   9.8600  10.4423  10.6057  12.2432
    13.0307  13.9578  17.8258

     occupation numbers 
     1.0000   1.0000   1.0000   1.0000   1.0000   1.0000   1.0000   1.0000
     1.0000   1.0000   1.0000   1.0000   1.0000   1.0000   1.0000   1.0000
     1.0001   1.0828   0.8067   0.0000   0.0000   0.0000   0.0000   0.0000
     0.0000   0.0000   0.0000

          k = 0.2500 0.5774 0.1151 (  3249 PWs)   bands (ev):

   -86.9031 -50.1965 -50.1817 -50.1254 -25.2326 -10.3786  -9.9182  -9.4115
    -9.3183  -8.4337   2.1570   2.7559   3.2188   4.2319   4.7833   5.2305
     7.2941   7.9026   8.1344   9.6839   9.8605  10.4557  10.6647  12.2617
    13.0402  13.9331  17.7861

     occupation numbers 
     1.0000   1.0000   1.0000   1.0000   1.0000   1.0000   1.0000   1.0000
     1.0000   1.0000   1.0000   1.0000   1.0000   1.0000   1.0000   1.0000
     1.0001   1.0829   0.7830   0.0000   0.0000   0.0000   0.0000   0.0000
     0.0000   0.0000   0.0000

          k = 0.0000-0.1443 0.1151 (  3236 PWs)   bands (ev):

   -86.9077 -50.1595 -50.1534 -50.1332 -25.8549 -11.3179  -9.5772  -8.7457
    -8.3621  -8.0225   2.5073   2.9520   3.2376   5.4352   5.9385   5.9499
     7.3694   7.5624   7.8855   8.3763  10.0125  10.2872  10.5117  11.8881
    13.0533  13.7952  15.2305

     occupation numbers 
     1.0000   1.0000   1.0000   1.0000   1.0000   1.0000   1.0000   1.0000
     1.0000   1.0000   1.0000   1.0000   1.0000   1.0000   1.0000   1.0000
     1.0003   1.0067   1.0832   0.1907   0.0000   0.0000   0.0000   0.0000
     0.0000   0.0000   0.0000

          k = 0.0000-0.2887 0.1151 (  3236 PWs)   bands (ev):

   -86.9060 -50.1789 -50.1581 -50.1303 -25.6359 -10.9072  -9.5206  -9.3032
    -8.6368  -8.2343   2.4535   2.9804   3.4594   4.1883   5.3679   6.2620
     7.5028   7.8602   8.1182   8.6662   9.5823  10.2129  10.3852  12.1745
    13.0966  14.5684  15.3700

     occupation numbers 
     1.0000   1.0000   1.0000   1.0000   1.0000   1.0000   1.0000   1.0000
     1.0000   1.0000   1.0000   1.0000   1.0000   1.0000   1.0000   1.0000
     1.0029   1.0804   0.8228   0.0054   0.0000   0.0000   0.0000   0.0000
     0.0000   0.0000   0.0000

          k = 0.0000-0.4330 0.1151 (  3243 PWs)   bands (ev):

   -86.9043 -50.1984 -50.1628 -50.1274 -25.4031 -10.5827 -10.0921  -9.3952
    -8.5291  -8.4358   1.9342   2.9014   3.6310   4.1783   5.1004   5.7588
     7.4338   7.7602   7.9826   8.5873   9.4884  10.1399  10.4136  12.8035
    14.0125  14.9567  16.9010

     occupation numbers 
     1.0000   1.0000   1.0000   1.0000   1.0000   1.0000   1.0000   1.0000
     1.0000   1.0000   1.0000   1.0000   1.0000   1.0000   1.0000   1.0000
     1.0010   1.0505   1.0483   0.0175   0.0000   0.0000   0.0000   0.0000
     0.0000   0.0000   0.0000

          k =-0.1250-0.3608 0.1151 (  3231 PWs)   bands (ev):

   -86.9048 -50.1898 -50.1642 -50.1282 -25.4734 -10.6201  -9.8296  -9.3945
    -8.5770  -8.5423   2.3431   2.8594   3.5649   4.0690   4.8283   6.0761
     7.5753   7.8907   8.0780   9.1483   9.6487  10.0054  10.3593  12.3115
    12.9752  14.4539  16.1738

     occupation numbers 
     1.0000   1.0000   1.0000   1.0000   1.0000   1.0000   1.0000   1.0000
     1.0000   1.0000   1.0000   1.0000   1.0000   1.0000   1.0000   1.0000
     1.0080   1.0833   0.9117   0.0000   0.0000   0.0000   0.0000   0.0000
     0.0000   0.0000   0.0000

          k =-0.1250-0.5052 0.1151 (  3244 PWs)   bands (ev):

   -86.9036 -50.2021 -50.1690 -50.1262 -25.3033 -10.5933 -10.0339  -9.3713
    -8.7763  -8.4745   1.8197   2.8685   3.6324   4.3986   4.6540   5.5224
     7.4048   7.7107   8.0384   9.0273   9.6505  10.0761  10.4112  13.0938
    13.7421  14.2094  17.1043

     occupation numbers 
     1.0000   1.0000   1.0000   1.0000   1.0000   1.0000   1.0000   1.0000
     1.0000   1.0000   1.0000   1.0000   1.0000   1.0000   1.0000   1.0000
     1.0006   1.0345   0.9821   0.0000   0.0000   0.0000   0.0000   0.0000
     0.0000   0.0000   0.0000

 ------ SPIN DOWN ----------


          k = 0.0000 0.0000 0.0000 (  3279 PWs)   bands (ev):

   -86.9109 -50.1536 -50.1536 -50.1377 -25.9422 -11.4780  -9.6368  -8.7578
    -7.9315  -7.9315   2.3295   3.1417   3.1417   5.7109   6.4572   6.4572
     7.1316   7.1316   7.1633   8.4031   9.7410  10.6071  10.6071  12.5024
    12.5024  14.0732  15.6672

     occupation numbers 
     1.0000   1.0000   1.0000   1.0000   1.0000   1.0000   1.0000   1.0000
     1.0000   1.0000   1.0000   1.0000   1.0000   1.0000   1.0000   1.0000
     1.0000   1.0000   1.0000   0.1499   0.0000   0.0000   0.0000   0.0000
     0.0000   0.0000   0.0000

          k = 0.0000 0.0000 0.1151 (  3249 PWs)   bands (ev):

   -86.9109 -50.1534 -50.1534 -50.1377 -25.9422 -11.4798  -9.6258  -8.7683
    -7.9315  -7.9315   2.3698   3.1418   3.1418   5.4786   6.4571   6.4571
     7.1316   7.1316   7.5138   8.2685   9.7898  10.6077  10.6077  12.5019
    12.5019  13.6488  15.9976

     occupation numbers 
     1.0000   1.0000   1.0000   1.0000   1.0000   1.0000   1.0000   1.0000
     1.0000   1.0000   1.0000   1.0000   1.0000   1.0000   1.0000   1.0000
     1.0000   1.0000   1.0034   0.4214   0.0000   0.0000   0.0000   0.0000
     0.0000   0.0000   0.0000

          k = 0.0000 0.1443 0.0000 (  3241 PWs)   bands (ev):

   -86.9102 -50.1615 -50.1553 -50.1364 -25.8551 -11.3167  -9.5868  -8.7374
    -8.3624  -8.0226   2.4816   2.9565   3.2371   5.4334   5.9481   6.0690
     7.3896   7.5583   7.6043   8.5091  10.0471  10.2342  10.5104  11.8848
    13.0533  13.8442  15.5328

     occupation numbers 
     1.0000   1.0000   1.0000   1.0000   1.0000   1.0000   1.0000   1.0000
     1.0000   1.0000   1.0000   1.0000   1.0000   1.0000   1.0000   1.0000
     1.0004   1.0064   1.0115   0.0485   0.0000   0.0000   0.0000   0.0000
     0.0000   0.0000   0.0000

          k = 0.0000 0.1443 0.1151 (  3236 PWs)   bands (ev):

   -86.9101 -50.1614 -50.1553 -50.1364 -25.8551 -11.3184  -9.5777  -8.7459
    -8.3623  -8.0226   2.5066   2.9537   3.2371   5.4454   5.9141   5.9480
     7.3726   7.5582   7.9123   8.3440  10.0162  10.3036  10.5107  11.8850
    13.0533  13.7899  15.1803

     occupation numbers 
     1.0000   1.0000   1.0000   1.0000   1.0000   1.0000   1.0000   1.0000
     1.0000   1.0000   1.0000   1.0000   1.0000   1.0000   1.0000   1.0000
     1.0003   1.0064   1.0818   0.2490   0.0000   0.0000   0.0000   0.0000
     0.0000   0.0000   0.0000

          k = 0.0000 0.2887 0.0000 (  3230 PWs)   bands (ev):

   -86.9084 -50.1809 -50.1599 -50.1336 -25.6360 -10.9068  -9.5214  -9.3078
    -8.6331  -8.2344   2.4591   2.9819   3.4587   4.1663   5.3662   6.2589
     7.5149   7.8567   8.1117   8.7221   9.5299  10.2336  10.3836  12.1743
    13.0497  14.5681  15.3704

     occupation numbers 
     1.0000   1.0000   1.0000   1.0000   1.0000   1.0000   1.0000   1.0000
     1.0000   1.0000   1.0000   1.0000   1.0000   1.0000   1.0000   1.0000
     1.0035   1.0798   0.8383   0.0021   0.0000   0.0000   0.0000   0.0000
     0.0000   0.0000   0.0000

          k = 0.0000 0.2887 0.1151 (  3236 PWs)   bands (ev):

   -86.9084 -50.1809 -50.1600 -50.1336 -25.6360 -10.9078  -9.5198  -9.3045
    -8.6372  -8.2344   2.4520   2.9908   3.4587   4.1791   5.3660   6.2380
     7.5050   7.8566   8.1920   8.5561   9.7052  10.1465  10.3840  12.1705
    13.1653  14.5691  15.6392

     occupation numbers 
     1.0000   1.0000   1.0000   1.0000   1.0000   1.0000   1.0000   1.0000
     1.0000   1.0000   1.0000   1.0000   1.0000   1.0000   1.0000   1.0000
     1.0030   1.0797   0.6289   0.0268   0.0000   0.0000   0.0000   0.0000
     0.0000   0.0000   0.0000

          k = 0.0000 0.4330 0.0000 (  3242 PWs)   bands (ev):

   -86.9067 -50.2003 -50.1647 -50.1307 -25.4032 -10.5836 -10.0907  -9.3977
    -8.5288  -8.4359   1.9344   2.9059   3.6297   4.1751   5.0994   5.7471
     7.4315   7.7571   7.9860   8.5758   9.4846  10.1607  10.4106  12.8762
    14.0109  14.9586  16.5804

     occupation numbers 
     1.0000   1.0000   1.0000   1.0000   1.0000   1.0000   1.0000   1.0000
     1.0000   1.0000   1.0000   1.0000   1.0000   1.0000   1.0000   1.0000
     1.0009   1.0495   1.0454   0.0206   0.0000   0.0000   0.0000   0.0000
     0.0000   0.0000   0.0000

          k = 0.0000 0.4330 0.1151 (  3243 PWs)   bands (ev):

   -86.9067 -50.2003 -50.1647 -50.1306 -25.4032 -10.5836 -10.0915  -9.3961
    -8.5296  -8.4359   1.9374   2.9003   3.6298   4.1834   5.0990   5.7314
     7.4405   7.7571   7.9813   8.5571   9.7251   9.9111  10.4117  12.9325
    13.9981  14.9560  16.5482

     occupation numbers 
     1.0000   1.0000   1.0000   1.0000   1.0000   1.0000   1.0000   1.0000
     1.0000   1.0000   1.0000   1.0000   1.0000   1.0000   1.0000   1.0000
     1.0011   1.0495   1.0494   0.0265   0.0000   0.0000   0.0000   0.0000
     0.0000   0.0000   0.0000

          k = 0.0000-0.5774 0.0000 (  3254 PWs)   bands (ev):

   -86.9060 -50.2084 -50.1666 -50.1295 -25.3022 -10.7485 -10.0407  -9.3952
    -8.5166  -8.4774   1.5461   3.0062   3.6662   4.3500   5.0773   5.4340
     7.2950   7.6334   7.9109   8.3240   9.5149  10.2825  10.4559  13.2874
    14.6814  14.8093  16.8311

     occupation numbers 
     1.0000   1.0000   1.0000   1.0000   1.0000   1.0000   1.0000   1.0000
     1.0000   1.0000   1.0000   1.0000   1.0000   1.0000   1.0000   1.0000
     1.0001   1.0161   1.0821   0.2899   0.0000   0.0000   0.0000   0.0000
     0.0000   0.0000   0.0000

          k = 0.0000-0.5774 0.1151 (  3256 PWs)   bands (ev):

   -86.9060 -50.2084 -50.1667 -50.1295 -25.3022 -10.7484 -10.0409  -9.3952
    -8.5166  -8.4772   1.5496   3.0003   3.6664   4.3603   5.0769   5.4087
     7.3017   7.6334   7.9163   8.3295   9.6272  10.1760  10.4570  13.2096
    14.6648  14.8060  17.1284

     occupation numbers 
     1.0000   1.0000   1.0000   1.0000   1.0000   1.0000   1.0000   1.0000
     1.0000   1.0000   1.0000   1.0000   1.0000   1.0000   1.0000   1.0000
     1.0001   1.0161   1.0812   0.2783   0.0000   0.0000   0.0000   0.0000
     0.0000   0.0000   0.0000

          k = 0.1250 0.2165 0.0000 (  3241 PWs)   bands (ev):

   -86.9089 -50.1743 -50.1595 -50.1344 -25.7016 -11.0298  -9.5176  -9.0259
    -8.6533  -8.2329   2.5449   2.9520   3.3604   4.5570   5.2706   6.3330
     7.5364   7.8606   8.0841   8.7023   9.7596  10.2380  10.8043  11.0788
    13.3150  14.3155  15.2441

     occupation numbers 
     1.0000   1.0000   1.0000   1.0000   1.0000   1.0000   1.0000   1.0000
     1.0000   1.0000   1.0000   1.0000   1.0000   1.0000   1.0000   1.0000
     1.0047   1.0805   0.8993   0.0030   0.0000   0.0000   0.0000   0.0000
     0.0000   0.0000   0.0000

          k = 0.1250 0.2165 0.1151 (  3233 PWs)   bands (ev):

   -86.9089 -50.1743 -50.1595 -50.1344 -25.7016 -11.0310  -9.5127  -9.0251
    -8.6583  -8.2329   2.5413   2.9587   3.3601   4.5746   5.2708   6.2961
     7.5301   7.8345   8.1808   8.6028   9.8461  10.1989  10.8100  11.0747
    13.4031  14.3164  15.2467

     occupation numbers 
     1.0000   1.0000   1.0000   1.0000   1.0000   1.0000   1.0000   1.0000
     1.0000   1.0000   1.0000   1.0000   1.0000   1.0000   1.0000   1.0000
     1.0043   1.0747   0.6597   0.0141   0.0000   0.0000   0.0000   0.0000
     0.0000   0.0000   0.0000

          k = 0.1250 0.3608 0.0000 (  3230 PWs)   bands (ev):

   -86.9072 -50.1917 -50.1661 -50.1315 -25.4735 -10.6205  -9.8277  -9.3989
    -8.5765  -8.5416   2.3472   2.8607   3.5674   4.0545   4.8286   6.0589
     7.5788   7.8895   8.0759   9.2086   9.6227  10.0855  10.2563  12.3128
    12.9905  14.4447  16.1461

     occupation numbers 
     1.0000   1.0000   1.0000   1.0000   1.0000   1.0000   1.0000   1.0000
     1.0000   1.0000   1.0000   1.0000   1.0000   1.0000   1.0000   1.0000
     1.0083   1.0833   0.9159   0.0000   0.0000   0.0000   0.0000   0.0000
     0.0000   0.0000   0.0000

          k = 0.1250 0.3608 0.1151 (  3231 PWs)   bands (ev):

   -86.9072 -50.1917 -50.1661 -50.1315 -25.4735 -10.6208  -9.8292  -9.3956
    -8.5772  -8.5425   2.3451   2.8595   3.5664   4.0637   4.8288   6.0608
     7.5789   7.8924   8.0750   9.1061   9.7687   9.9810  10.3008  12.3051
    13.0262  14.4595  16.1219

     occupation numbers 
     1.0000   1.0000   1.0000   1.0000   1.0000   1.0000   1.0000   1.0000
     1.0000   1.0000   1.0000   1.0000   1.0000   1.0000   1.0000   1.0000
     1.0084   1.0833   0.9178   0.0000   0.0000   0.0000   0.0000   0.0000
     0.0000   0.0000   0.0000

          k = 0.1250 0.5052 0.0000 (  3243 PWs)   bands (ev):

   -86.9060 -50.2040 -50.1710 -50.1295 -25.3034 -10.5939 -10.0335  -9.3724
    -8.7764  -8.4747   1.8170   2.8698   3.6312   4.4005   4.6533   5.5245
     7.4056   7.7102   8.0226   9.0096   9.6625  10.1222  10.3577  13.1374
    13.7579  14.2241  16.9712

     occupation numbers 
     1.0000   1.0000   1.0000   1.0000   1.0000   1.0000   1.0000   1.0000
     1.0000   1.0000   1.0000   1.0000   1.0000   1.0000   1.0000   1.0000
     1.0006   1.0343   1.0047   0.0000   0.0000   0.0000   0.0000   0.0000
     0.0000   0.0000   0.0000

          k = 0.1250 0.5052 0.1151 (  3244 PWs)   bands (ev):

   -86.9060 -50.2040 -50.1710 -50.1295 -25.3034 -10.5938 -10.0338  -9.3721
    -8.7764  -8.4748   1.8206   2.8669   3.6310   4.4045   4.6537   5.5073
     7.4114   7.7084   8.0283   9.0063   9.7531  10.0084  10.3949  13.1180
    13.7501  14.2225  17.0239

     occupation numbers 
     1.0000   1.0000   1.0000   1.0000   1.0000   1.0000   1.0000   1.0000
     1.0000   1.0000   1.0000   1.0000   1.0000   1.0000   1.0000   1.0000
     1.0006   1.0338   0.9969   0.0000   0.0000   0.0000   0.0000   0.0000
     0.0000   0.0000   0.0000

          k = 0.2500 0.4330 0.0000 (  3245 PWs)   bands (ev):

   -86.9060 -50.1979 -50.1770 -50.1295 -25.3047 -10.4282  -9.9526  -9.3566
    -9.1121  -8.4724   2.2582   2.6979   3.4251   4.1526   4.6331   5.5957
     7.4961   7.7639   8.1492   9.7282   9.8621  10.1056  10.5242  12.3109
    13.0799  13.5933  16.9349

     occupation numbers 
     1.0000   1.0000   1.0000   1.0000   1.0000   1.0000   1.0000   1.0000
     1.0000   1.0000   1.0000   1.0000   1.0000   1.0000   1.0000   1.0000
     1.0026   1.0518   0.7448   0.0000   0.0000   0.0000   0.0000   0.0000
     0.0000   0.0000   0.0000

          k = 0.2500 0.4330 0.1151 (  3234 PWs)   bands (ev):

   -86.9060 -50.1979 -50.1770 -50.1294 -25.3047 -10.4278  -9.9537  -9.3554
    -9.1123  -8.4726   2.2587   2.6997   3.4263   4.1501   4.6282   5.6006
     7.4939   7.7616   8.1639   9.5774   9.8882  10.2568  10.5026  12.3046
    13.0751  13.5779  16.9932

     occupation numbers 
     1.0000   1.0000   1.0000   1.0000   1.0000   1.0000   1.0000   1.0000
     1.0000   1.0000   1.0000   1.0000   1.0000   1.0000   1.0000   1.0000
     1.0025   1.0510   0.7056   0.0000   0.0000   0.0000   0.0000   0.0000
     0.0000   0.0000   0.0000

          k = 0.2500 0.5774 0.0000 (  3233 PWs)   bands (ev):

   -86.9055 -50.1984 -50.1836 -50.1286 -25.2327 -10.3790  -9.9184  -9.4121
    -9.3187  -8.4338   2.1538   2.7531   3.2156   4.2350   4.7862   5.2360
     7.2943   7.9017   8.1210   9.7497   9.8579  10.4411  10.6048  12.2426
    13.0303  13.9578  17.9377

     occupation numbers 
     1.0000   1.0000   1.0000   1.0000   1.0000   1.0000   1.0000   1.0000
     1.0000   1.0000   1.0000   1.0000   1.0000   1.0000   1.0000   1.0000
     1.0001   1.0830   0.8160   0.0000   0.0000   0.0000   0.0000   0.0000
     0.0000   0.0000   0.0000

          k = 0.2500 0.5774 0.1151 (  3249 PWs)   bands (ev):

   -86.9055 -50.1985 -50.1836 -50.1287 -25.2327 -10.3789  -9.9186  -9.4117
    -9.3190  -8.4338   2.1560   2.7549   3.2182   4.2313   4.7828   5.2300
     7.2959   7.8998   8.1305   9.6820   9.8586  10.4546  10.6636  12.2611
    13.0398  13.9330  17.7857

     occupation numbers 
     1.0000   1.0000   1.0000   1.0000   1.0000   1.0000   1.0000   1.0000
     1.0000   1.0000   1.0000   1.0000   1.0000   1.0000   1.0000   1.0000
     1.0001   1.0831   0.7926   0.0000   0.0000   0.0000   0.0000   0.0000
     0.0000   0.0000   0.0000

          k = 0.0000-0.1443 0.1151 (  3236 PWs)   bands (ev):

   -86.9102 -50.1614 -50.1553 -50.1364 -25.8551 -11.3184  -9.5778  -8.7459
    -8.3622  -8.0226   2.5074   2.9516   3.2371   5.4339   5.9381   5.9480
     7.3650   7.5582   7.8849   8.3769  10.0119  10.2866  10.5108  11.8875
    13.0529  13.7950  15.2305

     occupation numbers 
     1.0000   1.0000   1.0000   1.0000   1.0000   1.0000   1.0000   1.0000
     1.0000   1.0000   1.0000   1.0000   1.0000   1.0000   1.0000   1.0000
     1.0003   1.0064   1.0832   0.1897   0.0000   0.0000   0.0000   0.0000
     0.0000   0.0000   0.0000

          k = 0.0000-0.2887 0.1151 (  3236 PWs)   bands (ev):

   -86.9084 -50.1809 -50.1600 -50.1336 -25.6360 -10.9077  -9.5211  -9.3035
    -8.6370  -8.2344   2.4532   2.9801   3.4586   4.1875   5.3661   6.2616
     7.4992   7.8566   8.1187   8.6651   9.5816  10.2123  10.3837  12.1738
    13.0964  14.5680  15.3699

     occupation numbers 
     1.0000   1.0000   1.0000   1.0000   1.0000   1.0000   1.0000   1.0000
     1.0000   1.0000   1.0000   1.0000   1.0000   1.0000   1.0000   1.0000
     1.0027   1.0797   0.8216   0.0055   0.0000   0.0000   0.0000   0.0000
     0.0000   0.0000   0.0000

          k = 0.0000-0.4330 0.1151 (  3243 PWs)   bands (ev):

   -86.9067 -50.2003 -50.1647 -50.1306 -25.4032 -10.5830 -10.0925  -9.3959
    -8.5292  -8.4359   1.9334   2.9011   3.6297   4.1782   5.0993   5.7584
     7.4325   7.7571   7.9808   8.5864   9.4875  10.1392  10.4114  12.8033
    14.0118  14.9565  16.5914

     occupation numbers 
     1.0000   1.0000   1.0000   1.0000   1.0000   1.0000   1.0000   1.0000
     1.0000   1.0000   1.0000   1.0000   1.0000   1.0000   1.0000   1.0000
     1.0009   1.0495   1.0498   0.0178   0.0000   0.0000   0.0000   0.0000
     0.0000   0.0000   0.0000

          k =-0.1250-0.3608 0.1151 (  3231 PWs)   bands (ev):

   -86.9072 -50.1917 -50.1661 -50.1315 -25.4735 -10.6206  -9.8299  -9.3951
    -8.5771  -8.5425   2.3425   2.8587   3.5641   4.0687   4.8268   6.0757
     7.5727   7.8898   8.0756   9.1471   9.6476  10.0040  10.3581  12.3109
    12.9750  14.4537  16.1738

     occupation numbers 
     1.0000   1.0000   1.0000   1.0000   1.0000   1.0000   1.0000   1.0000
     1.0000   1.0000   1.0000   1.0000   1.0000   1.0000   1.0000   1.0000
     1.0077   1.0833   0.9166   0.0000   0.0000   0.0000   0.0000   0.0000
     0.0000   0.0000   0.0000

          k =-0.1250-0.5052 0.1151 (  3244 PWs)   bands (ev):

   -86.9060 -50.2040 -50.1710 -50.1295 -25.3034 -10.5936 -10.0342  -9.3720
    -8.7765  -8.4746   1.8188   2.8679   3.6316   4.3982   4.6530   5.5220
     7.4057   7.7079   8.0348   9.0263   9.6491  10.0746  10.4096  13.0934
    13.7415  14.2092  17.1041

     occupation numbers 
     1.0000   1.0000   1.0000   1.0000   1.0000   1.0000   1.0000   1.0000
     1.0000   1.0000   1.0000   1.0000   1.0000   1.0000   1.0000   1.0000
     1.0006   1.0337   0.9875   0.0000   0.0000   0.0000   0.0000   0.0000
     0.0000   0.0000   0.0000

     the Fermi energy is     8.2767 ev

!    total energy              =    -572.95070354 Ry
     total all-electron energy =     -4292.061540 Ry
     estimated scf accuracy    <       0.00000009 Ry
     smearing contrib. (-TS)   =       0.00477153 Ry
     internal energy E=F+TS    =    -572.95547507 Ry

     The total energy is F=E-TS. E is the sum of the following terms:
     one-electron contribution =    -536.91641780 Ry
     hartree contribution      =     285.85148987 Ry
     xc contribution           =     -56.74846946 Ry
     ewald contribution        =    -102.95127839 Ry
     one-center paw contrib.   =    -162.19079929 Ry
      -> PAW hartree energy AE =     310.37566204 Ry
      -> PAW hartree energy PS =    -309.01638527 Ry
      -> PAW xc energy AE      =    -217.06538356 Ry
      -> PAW xc energy PS      =      53.51530750 Ry
      -> total E_H with PAW    =     287.21076665 Ry
      -> total E_XC with PAW   =    -220.29854552 Ry

     total magnetization       =    -0.00 Bohr mag/cell
     absolute magnetization    =     0.00 Bohr mag/cell

     convergence has been achieved in  31 iterations

     Forces acting on atoms (cartesian axes, Ry/au):

     atom    1 type  1   force =     0.00000000    0.00000000    0.05702945
     atom    2 type  2   force =     0.00000000    0.00000000   -0.03272770
     atom    3 type  2   force =     0.00000000    0.00000000   -0.05786095
     atom    4 type  3   force =     0.00000000    0.00000000    0.03355920
     The non-local contrib.  to forces
     atom    1 type  1   force =    -0.00000000   -0.00000000   -0.00314328
     atom    2 type  2   force =     0.00000000    0.00000000   -1.12082606
     atom    3 type  2   force =     0.00000000    0.00000000    0.39152567
     atom    4 type  3   force =     0.00000000    0.00000000    0.02375638
     The ionic contribution  to forces
     atom    1 type  1   force =    -0.00000000   -0.00000000   17.74802368
     atom    2 type  2   force =     0.00000000   -0.00000000   37.03166105
     atom    3 type  2   force =    -0.00000000    0.00000000  -24.88796987
     atom    4 type  3   force =     0.00000000   -0.00000000  -29.89171486
     The local contribution  to forces
     atom    1 type  1   force =    -0.00000000   -0.00000000  -17.68786797
     atom    2 type  2   force =     0.00000001   -0.00000001  -35.95372615
     atom    3 type  2   force =    -0.00000001    0.00000001   24.44133340
     atom    4 type  3   force =     0.00000000   -0.00000000   29.90030678
     The core correction contribution to forces
     atom    1 type  1   force =     0.00000000   -0.00000000   -0.00050912
     atom    2 type  2   force =    -0.00000000    0.00000000    0.00990381
     atom    3 type  2   force =     0.00000000   -0.00000000   -0.00293197
     atom    4 type  3   force =    -0.00000000    0.00000000    0.00101044
     The Hubbard contrib.    to forces
     atom    1 type  1   force =     0.00000000    0.00000000    0.00000000
     atom    2 type  2   force =     0.00000000    0.00000000    0.00000000
     atom    3 type  2   force =     0.00000000    0.00000000    0.00000000
     atom    4 type  3   force =     0.00000000    0.00000000    0.00000000
     The SCF correction term to forces
     atom    1 type  1   force =     0.00000000    0.00000000    0.00050853
     atom    2 type  2   force =    -0.00000000    0.00000000    0.00024203
     atom    3 type  2   force =     0.00000000   -0.00000000    0.00016420
     atom    4 type  3   force =     0.00000000   -0.00000000    0.00018284

     Total force =     0.093795     Total SCF correction =     0.000614

     Writing all to output data dir ./out/pw.save/ :
     XML data file, charge density, pseudopotentials, collected wavefunctions
 
     init_run     :     14.78s CPU      3.60s WALL (       1 calls)
     electrons    :    189.02s CPU     46.42s WALL (       1 calls)
     forces       :      0.79s CPU      0.55s WALL (       1 calls)

     Called by init_run:
     wfcinit      :      0.25s CPU      0.32s WALL (       1 calls)
     wfcinit:atom :      0.05s CPU      0.05s WALL (      50 calls)
     wfcinit:wfcr :      0.15s CPU      0.19s WALL (      50 calls)
     potinit      :     13.90s CPU      2.61s WALL (       1 calls)
     hinit0       :      0.53s CPU      0.52s WALL (       1 calls)

     Called by electrons:
     c_bands      :     17.31s CPU     17.45s WALL (      31 calls)
     sum_band     :      3.99s CPU      3.98s WALL (      31 calls)
     v_of_rho     :      0.52s CPU      0.26s WALL (      32 calls)
     v_h          :      0.36s CPU      0.05s WALL (      32 calls)
     v_xc         :      0.16s CPU      0.21s WALL (      33 calls)
     newd         :      0.98s CPU      0.79s WALL (      32 calls)
                                        0.79s GPU  (      32 calls)
     PAW_pot      :    170.05s CPU     23.61s WALL (      32 calls)
     mix_rho      :      1.01s CPU      1.00s WALL (      31 calls)

     Called by c_bands:
     init_us_2    :      1.24s CPU      1.21s WALL (    3200 calls)
     cegterg      :     14.79s CPU     14.96s WALL (    1550 calls)

     Called by sum_band:
     sum_band:wei :      0.05s CPU      0.05s WALL (      31 calls)
                                        0.05s GPU  (      31 calls)
     sum_band:loo :      2.12s CPU      2.10s WALL (      31 calls)
                                        2.10s GPU  (      31 calls)
     sum_band:buf :      0.28s CPU      0.31s WALL (    1550 calls)
                                        0.29s GPU  (    1550 calls)
     sum_band:ini :      0.59s CPU      0.60s WALL (    1550 calls)
                                        0.58s GPU  (    1550 calls)
     sum_band:cal :      0.06s CPU      0.09s WALL (    1550 calls)
                                        0.07s GPU  (    1550 calls)
     sum_band:bec :      0.33s CPU      0.36s WALL (    1550 calls)
                                        0.34s GPU  (    1550 calls)
     addusdens    :      1.60s CPU      1.61s WALL (      31 calls)
                                        1.61s GPU  (      31 calls)
     addusd:skk   :      0.00s CPU      0.01s WALL (      93 calls)
                                        0.01s GPU  (      93 calls)

     Called by *egterg:
     cdiaghg      :      5.16s CPU      5.34s WALL (    6053 calls)
                                        5.27s GPU  (    6053 calls)
     cegterg:over :      1.10s CPU      1.14s WALL (    4503 calls)
     cegterg:upda :      0.84s CPU      0.85s WALL (    4503 calls)
     cegterg:last :      0.14s CPU      0.14s WALL (    2549 calls)
     h_psi        :      5.44s CPU      5.57s WALL (    6103 calls)
                                        5.50s GPU  (    6103 calls)
     s_psi        :      0.92s CPU      0.96s WALL (    6103 calls)
     g_psi        :      0.02s CPU      0.11s WALL (    4503 calls)
                                        0.06s GPU  (    4503 calls)

     Called by h_psi:
     h_psi:calbec :      0.18s CPU      0.34s WALL (    6103 calls)
                                        0.26s GPU  (    6103 calls)
     vloc_psi     :      3.79s CPU      3.83s WALL (    6103 calls)
                                        3.76s GPU  (    6103 calls)
     add_vuspsi   :      0.83s CPU      0.98s WALL (    6103 calls)
                                        0.91s GPU  (    6103 calls)

     General routines
     calbec       :      0.20s CPU      0.23s WALL (    7853 calls)
     fft          :      4.09s CPU      1.01s WALL (     813 calls)
                                        0.03s GPU  (     749 calls)
     ffts         :      4.60s CPU      0.85s WALL (    1264 calls)
                                        0.03s GPU  (    1200 calls)
     fftw         :      0.34s CPU      1.37s WALL (   21608 calls)
                                        1.13s GPU  (   21608 calls)
     interpolate  :      8.92s CPU      1.81s WALL (      64 calls)
 
     Parallel routines

     PAW routines
     PAW_pot      :    170.05s CPU     23.61s WALL (      32 calls)
     PAW_symme    :      0.01s CPU      0.01s WALL (      63 calls)
 
     PWSCF        :   3m25.61s CPU     51.21s WALL

 
   This run was terminated on:   5:39:33  12Jul2026            

=------------------------------------------------------------------------------=
   JOB DONE.
=------------------------------------------------------------------------------=
Warning: ieee_divide_by_zero is signaling
Warning: ieee_inexact is signaling
FORTRAN STOP
