
     Program PWSCF v.7.3.1 starts on 12Jul2026 at  7:11:55 

     This program is part of the open-source Quantum ESPRESSO suite
     for quantum simulation of materials; please cite
         "P. Giannozzi et al., J. Phys.:Condens. Matter 21 395502 (2009);
         "P. Giannozzi et al., J. Phys.:Condens. Matter 29 465901 (2017);
         "P. Giannozzi et al., J. Chem. Phys. 152 154105 (2020);
          URL http://www.quantum-espresso.org", 
     in publications or presentations arising from this work. More details at
     http://www.quantum-espresso.org/quote

     Parallel version (MPI & OpenMP), running on      14 processor cores
     Number of MPI processes:                 1
     Threads/MPI process:                    14

     MPI processes distributed on     1 nodes
     702767 MiB available memory on the printing compute node when the environment starts
 
     Reading input from pw.in

     Current dimensions of program PWSCF are:
     Max number of different atomic species (ntypx) = 10
     Max number of k-points (npk) =  40000
     Max angular momentum in pseudopotentials (lmaxx) =  4
     file Co.pbe-spn-kjpaw_psl.0.3.1.UPF: wavefunction(s)  3P 3D renormalized
     file O.pbe-n-kjpaw_psl.1.0.0.UPF: wavefunction(s)  2S 2P renormalized
     file Na.pbe-spn-kjpaw_psl.1.0.0.UPF: wavefunction(s)  2P renormalized
 
     Subspace diagonalization in iterative solution of the eigenvalue problem:
     a serial algorithm will be used

 
     G-vector sticks info
     --------------------
     sticks:   dense  smooth     PW     G-vecs:    dense   smooth      PW
     Sum        2941    1483    421               256907    90927   13645
 
     Using Slab Decomposition
 


     bravais-lattice index     =            4
     lattice parameter (alat)  =       9.4527  a.u.
     unit-cell volume          =    1447.6983 (a.u.)^3
     number of atoms/cell      =           10
     number of atomic types    =            3
     number of electrons       =        96.00
     number of Kohn-Sham states=           64
     kinetic-energy cutoff     =      60.0000  Ry
     charge density cutoff     =     480.0000  Ry
     scf convergence threshold =      1.0E-07
     mixing beta               =       0.3000
     number of iterations used =            8  local-TF  mixing
     Exchange-correlation= SLA  PW   PBX  PBC
                           (   1   4   3   4   0   0   0)

     GPU acceleration is ACTIVE.  1 visible GPUs per MPI rank
     GPU-aware MPI enabled


     GPU used by master process:

        Device Number: 0
        Device name: NVIDIA A100-SXM4-80GB
        Compute capability : 80
        Ratio of single to double precision performance  : 2
        Memory Clock Rate (KHz): 1593000
        Memory Bus Width (bits): 5120
        Peak Memory Bandwidth (GB/s): ******

     celldm(1)=   9.452718  celldm(2)=   0.000000  celldm(3)=   1.979144
     celldm(4)=   0.000000  celldm(5)=   0.000000  celldm(6)=   0.000000

     crystal axes: (cart. coord. in units of alat)
               a(1) = (   1.000000   0.000000   0.000000 )  
               a(2) = (  -0.500000   0.866025   0.000000 )  
               a(3) = (   0.000000   0.000000   1.979144 )  

     reciprocal axes: (cart. coord. in units 2 pi/alat)
               b(1) = (  1.000000  0.577350 -0.000000 )  
               b(2) = (  0.000000  1.154701  0.000000 )  
               b(3) = (  0.000000 -0.000000  0.505269 )  


     PseudoPot. # 1 for Co read from file:
     ../../pseudo/Co.pbe-spn-kjpaw_psl.0.3.1.UPF
     MD5 check sum: 3c0a43779828c046024e4f3be63f8e67
     Pseudo is Projector augmented-wave + core cor, Zval = 17.0
     Generated using &quot;atomic&quot; code by A. Dal Corso  v.6.2.2
     Shape of augmentation charge: PSQ
     Using radial grid of 1193 points,  6 beta functions with: 
                l(1) =   0
                l(2) =   0
                l(3) =   1
                l(4) =   1
                l(5) =   2
                l(6) =   2
     Q(r) pseudized with 0 coefficients 


     PseudoPot. # 2 for O  read from file:
     ../../pseudo/O.pbe-n-kjpaw_psl.1.0.0.UPF
     MD5 check sum: e99d9cef9b487d1ca56f5b95ecd0fd7a
     Pseudo is Projector augmented-wave + core cor, Zval =  6.0
     Generated using &quot;atomic&quot; code by A. Dal Corso  v.6.3
     Shape of augmentation charge: PSQ
     Using radial grid of 1095 points,  4 beta functions with: 
                l(1) =   0
                l(2) =   0
                l(3) =   1
                l(4) =   1
     Q(r) pseudized with 0 coefficients 


     PseudoPot. # 3 for Na read from file:
     ../../pseudo/Na.pbe-spn-kjpaw_psl.1.0.0.UPF
     MD5 check sum: 05b4deb74e3932c23ab016979dc8b5d4
     Pseudo is Projector augmented-wave + core cor, Zval =  9.0
     Generated using &quot;atomic&quot; code by A. Dal Corso  v.6.3
     Shape of augmentation charge: PSQ
     Using radial grid of 1121 points,  4 beta functions with: 
                l(1) =   0
                l(2) =   0
                l(3) =   1
                l(4) =   1
     Q(r) pseudized with 0 coefficients 


     atomic species   valence    mass     pseudopotential
     Co               17.00    58.93300     Co( 1.00)
     O                 6.00    15.99900     O ( 1.00)
     Na                9.00    22.98977     Na( 1.00)

     Starting magnetic structure 
     atomic species   magnetization
     Co              0.300
     O               0.000
     Na              0.000

     12 Sym. Ops., with inversion, found


                                    s                        frac. trans.

      isym =  1     identity                                     

 cryst.   s( 1) = (     1          0          0      )
                  (     0          1          0      )
                  (     0          0          1      )

 cart.    s( 1) = (  1.0000000  0.0000000  0.0000000 )
                  (  0.0000000  1.0000000  0.0000000 )
                  (  0.0000000  0.0000000  1.0000000 )


      isym =  2     180 deg rotation - cart. axis [0,1,0]        

 cryst.   s( 2) = (    -1          0          0      )
                  (     1          1          0      )
                  (     0          0         -1      )

 cart.    s( 2) = ( -1.0000000  0.0000000  0.0000000 )
                  (  0.0000000  1.0000000  0.0000000 )
                  (  0.0000000  0.0000000 -1.0000000 )


      isym =  3     120 deg rotation - cryst. axis [0,0,1]       

 cryst.   s( 3) = (     0          1          0      )
                  (    -1         -1          0      )
                  (     0          0          1      )

 cart.    s( 3) = ( -0.5000000 -0.8660254  0.0000000 )
                  (  0.8660254 -0.5000000  0.0000000 )
                  (  0.0000000  0.0000000  1.0000000 )


      isym =  4     120 deg rotation - cryst. axis [0,0,-1]      

 cryst.   s( 4) = (    -1         -1          0      )
                  (     1          0          0      )
                  (     0          0          1      )

 cart.    s( 4) = ( -0.5000000  0.8660254  0.0000000 )
                  ( -0.8660254 -0.5000000  0.0000000 )
                  (  0.0000000  0.0000000  1.0000000 )


      isym =  5     180 deg rotation - cryst. axis [1,-1,0]      

 cryst.   s( 5) = (     0         -1          0      )
                  (    -1          0          0      )
                  (     0          0         -1      )

 cart.    s( 5) = (  0.5000000 -0.8660254  0.0000000 )
                  ( -0.8660254 -0.5000000  0.0000000 )
                  (  0.0000000  0.0000000 -1.0000000 )


      isym =  6     180 deg rotation - cryst. axis [2,1,0]       

 cryst.   s( 6) = (     1          1          0      )
                  (     0         -1          0      )
                  (     0          0         -1      )

 cart.    s( 6) = (  0.5000000  0.8660254  0.0000000 )
                  (  0.8660254 -0.5000000  0.0000000 )
                  (  0.0000000  0.0000000 -1.0000000 )


      isym =  7     inversion                                    

 cryst.   s( 7) = (    -1          0          0      )
                  (     0         -1          0      )
                  (     0          0         -1      )

 cart.    s( 7) = ( -1.0000000  0.0000000  0.0000000 )
                  (  0.0000000 -1.0000000  0.0000000 )
                  (  0.0000000  0.0000000 -1.0000000 )


      isym =  8     inv. 180 deg rotation - cart. axis [0,1,0]   

 cryst.   s( 8) = (     1          0          0      )
                  (    -1         -1          0      )
                  (     0          0          1      )

 cart.    s( 8) = (  1.0000000  0.0000000  0.0000000 )
                  (  0.0000000 -1.0000000  0.0000000 )
                  (  0.0000000  0.0000000  1.0000000 )


      isym =  9     inv. 120 deg rotation - cryst. axis [0,0,1]  

 cryst.   s( 9) = (     0         -1          0      )
                  (     1          1          0      )
                  (     0          0         -1      )

 cart.    s( 9) = (  0.5000000  0.8660254  0.0000000 )
                  ( -0.8660254  0.5000000  0.0000000 )
                  (  0.0000000  0.0000000 -1.0000000 )


      isym = 10     inv. 120 deg rotation - cryst. axis [0,0,-1] 

 cryst.   s(10) = (     1          1          0      )
                  (    -1          0          0      )
                  (     0          0         -1      )

 cart.    s(10) = (  0.5000000 -0.8660254  0.0000000 )
                  (  0.8660254  0.5000000  0.0000000 )
                  (  0.0000000  0.0000000 -1.0000000 )


      isym = 11     inv. 180 deg rotation - cryst. axis [1,-1,0] 

 cryst.   s(11) = (     0          1          0      )
                  (     1          0          0      )
                  (     0          0          1      )

 cart.    s(11) = ( -0.5000000  0.8660254  0.0000000 )
                  (  0.8660254  0.5000000  0.0000000 )
                  (  0.0000000  0.0000000  1.0000000 )


      isym = 12     inv. 180 deg rotation - cryst. axis [2,1,0]  

 cryst.   s(12) = (    -1         -1          0      )
                  (     0          1          0      )
                  (     0          0          1      )

 cart.    s(12) = ( -0.5000000 -0.8660254  0.0000000 )
                  ( -0.8660254  0.5000000  0.0000000 )
                  (  0.0000000  0.0000000  1.0000000 )


     point group D_3d (-3m) 
     there are  6 classes
     the character table:

       E     2C3   3C2'  i     2S6   3s_d 
A_1g   1.00  1.00  1.00  1.00  1.00  1.00
A_2g   1.00  1.00 -1.00  1.00  1.00 -1.00
E_g    2.00 -1.00  0.00  2.00 -1.00  0.00
A_1u   1.00  1.00  1.00 -1.00 -1.00 -1.00
A_2u   1.00  1.00 -1.00 -1.00 -1.00  1.00
E_u    2.00 -1.00  0.00 -2.00  1.00  0.00

     the symmetry operations in each class and the name of the first element:

     E        1
          identity                                               
     2C3      3    4
          120 deg rotation - cryst. axis [0,0,1]                 
     3C2'     2    6    5
          180 deg rotation - cart. axis [0,1,0]                  
     i        7
          inversion                                              
     2S6      9   10
          inv. 120 deg rotation - cryst. axis [0,0,1]            
     3s_d     8   12   11
          inv. 180 deg rotation - cart. axis [0,1,0]             

   Cartesian axes

     site n.     atom                  positions (alat units)
         1        Co     tau(   1) = (   0.0000000   0.0000000   0.0000000  )
         2        Co     tau(   2) = (  -0.0000000   0.5773503   0.0000000  )
         3        Co     tau(   3) = (   0.5000000   0.2886751   0.0000000  )
         4        O      tau(   4) = (   0.1666667   0.2886751   0.2039118  )
         5        O      tau(   5) = (   0.6666667   0.0000000   0.2039118  )
         6        O      tau(   6) = (  -0.3333333   0.5773503   0.2039118  )
         7        O      tau(   7) = (   0.3333333   0.0000000   1.7752321  )
         8        O      tau(   8) = (   0.3333333   0.5773503   1.7752321  )
         9        O      tau(   9) = (  -0.1666667   0.2886751   1.7752321  )
        10        Na     tau(  10) = (   0.0000000   0.0000000   0.9895720  )

   Crystallographic axes

     site n.     atom                  positions (cryst. coord.)
         1        Co     tau(   1) = (  0.0000000  0.0000000  0.0000000  )
         2        Co     tau(   2) = (  0.3333333  0.6666667  0.0000000  )
         3        Co     tau(   3) = (  0.6666667  0.3333333  0.0000000  )
         4        O      tau(   4) = (  0.3333333  0.3333333  0.1030303  )
         5        O      tau(   5) = (  0.6666667  0.0000000  0.1030303  )
         6        O      tau(   6) = (  0.0000000  0.6666667  0.1030303  )
         7        O      tau(   7) = (  0.3333333  0.0000000  0.8969697  )
         8        O      tau(   8) = (  0.6666667  0.6666667  0.8969697  )
         9        O      tau(   9) = ( -0.0000000  0.3333333  0.8969697  )
        10        Na     tau(  10) = (  0.0000000  0.0000000  0.5000000  )

     number of k points=    14  Marzari-Vanderbilt smearing, width (Ry)=  0.0200
                       cart. coord. in units 2pi/alat
        k(    1) = (   0.0000000   0.0000000   0.0000000), wk =   0.0138889
        k(    2) = (   0.0000000   0.0000000  -0.2526345), wk =   0.0138889
        k(    3) = (   0.0000000   0.1924501   0.0000000), wk =   0.0833333
        k(    4) = (   0.0000000   0.1924501  -0.2526345), wk =   0.0833333
        k(    5) = (   0.0000000   0.3849002   0.0000000), wk =   0.0833333
        k(    6) = (   0.0000000   0.3849002  -0.2526345), wk =   0.0833333
        k(    7) = (   0.0000000  -0.5773503   0.0000000), wk =   0.0416667
        k(    8) = (   0.0000000  -0.5773503  -0.2526345), wk =   0.0416667
        k(    9) = (   0.1666667   0.2886751   0.0000000), wk =   0.0833333
        k(   10) = (   0.1666667   0.2886751  -0.2526345), wk =   0.0833333
        k(   11) = (   0.1666667   0.4811252   0.0000000), wk =   0.1666667
        k(   12) = (   0.1666667   0.4811252  -0.2526345), wk =   0.1666667
        k(   13) = (   0.3333333   0.5773503   0.0000000), wk =   0.0277778
        k(   14) = (   0.3333333   0.5773503  -0.2526345), wk =   0.0277778

                       cryst. coord.
        k(    1) = (   0.0000000   0.0000000   0.0000000), wk =   0.0138889
        k(    2) = (   0.0000000   0.0000000  -0.5000000), wk =   0.0138889
        k(    3) = (   0.0000000   0.1666667   0.0000000), wk =   0.0833333
        k(    4) = (   0.0000000   0.1666667  -0.5000000), wk =   0.0833333
        k(    5) = (   0.0000000   0.3333333   0.0000000), wk =   0.0833333
        k(    6) = (   0.0000000   0.3333333  -0.5000000), wk =   0.0833333
        k(    7) = (   0.0000000  -0.5000000   0.0000000), wk =   0.0416667
        k(    8) = (   0.0000000  -0.5000000  -0.5000000), wk =   0.0416667
        k(    9) = (   0.1666667   0.1666667   0.0000000), wk =   0.0833333
        k(   10) = (   0.1666667   0.1666667  -0.5000000), wk =   0.0833333
        k(   11) = (   0.1666667   0.3333333   0.0000000), wk =   0.1666667
        k(   12) = (   0.1666667   0.3333333  -0.5000000), wk =   0.1666667
        k(   13) = (   0.3333333   0.3333333   0.0000000), wk =   0.0277778
        k(   14) = (   0.3333333   0.3333333  -0.5000000), wk =   0.0277778

     Dense  grid:   256907 G-vectors     FFT dimensions: (  72,  72, 135)

     Smooth grid:    90927 G-vectors     FFT dimensions: (  48,  48,  96)

     Dynamical RAM for                 wfc:      11.10 MB

     Dynamical RAM for     wfc (w. buffer):     321.78 MB

     Dynamical RAM for           str. fact:      11.76 MB

     Dynamical RAM for           local pot:       0.00 MB

     Dynamical RAM for          nlocal pot:      19.07 MB

     Dynamical RAM for                qrad:       5.27 MB

     Dynamical RAM for          rho,v,vnew:      55.56 MB

     Dynamical RAM for               rhoin:      18.52 MB

     Dynamical RAM for            rho*nmix:     125.44 MB

     Dynamical RAM for           G-vectors:      15.39 MB

     Dynamical RAM for          h,s,v(r/c):       0.75 MB

     Dynamical RAM for          <psi|beta>:       0.11 MB

     Dynamical RAM for                 psi:      22.19 MB

     Dynamical RAM for                hpsi:      22.19 MB

     Dynamical RAM for                spsi:      22.19 MB

     Dynamical RAM for      wfcinit/wfcrot:      22.29 MB

     Dynamical RAM for           addusdens:     756.58 MB

     Dynamical RAM for          addusforce:     795.83 MB

     Estimated static dynamical RAM per process >     495.07 MB

     Estimated max dynamical RAM per process >       1.38 GB

     Check: negative core charge=   -0.000006
     Generating pointlists ...
     new r_m :   0.1612 (alat units)  1.5237 (a.u.) for type    1
     new r_m :   0.1612 (alat units)  1.5237 (a.u.) for type    2
     new r_m :   0.3520 (alat units)  3.3278 (a.u.) for type    3

     Initial potential from superposition of free atoms

     starting charge      95.9928, renormalised to      96.0000
     Starting wfcs are   59 randomized atomic wfcs +    5 random wfcs
     Checking if some PAW data can be deallocated... 

     total cpu time spent up to now is        5.4 secs

     Self-consistent Calculation
[tb_dev] Currently allocated     9.94E-01 Mbytes, locked:    0 /   6
[tb_pin] Currently allocated     0.00E+00 Mbytes, locked:    0 /   0

     iteration #  1     ecut=    60.00 Ry     beta= 0.30
     Davidson diagonalization with overlap

---- Real-time Memory Report at c_bands before calling an iterative solver
          1075 MiB given to the printing process from OS
             0 MiB allocation reported by mallinfo(arena+hblkhd)
        700492 MiB available memory on the node where the printing process lives
     GPU memory used/free/total (MiB): 1998 / 79152 / 81151
------------------
     ethr =  1.00E-02,  avg # of iterations = 10.8

     total cpu time spent up to now is        9.2 secs

     total energy              =   -1488.21750022 Ry
     estimated scf accuracy    <       6.57722677 Ry

     total magnetization       =    14.00 Bohr mag/cell
     absolute magnetization    =    14.00 Bohr mag/cell
[tb_dev] Currently allocated     7.63E-05 Mbytes, locked:    0 /   2
[tb_pin] Currently allocated     0.00E+00 Mbytes, locked:    0 /   0

     iteration #  2     ecut=    60.00 Ry     beta= 0.30
     Davidson diagonalization with overlap

---- Real-time Memory Report at c_bands before calling an iterative solver
          1136 MiB given to the printing process from OS
             0 MiB allocation reported by mallinfo(arena+hblkhd)
        699732 MiB available memory on the node where the printing process lives
     GPU memory used/free/total (MiB): 2084 / 79066 / 81151
------------------
     ethr =  6.85E-03,  avg # of iterations =  1.9

     total cpu time spent up to now is       11.7 secs

     total energy              =   -1488.60904856 Ry
     estimated scf accuracy    <       1.08144272 Ry

     total magnetization       =    10.85 Bohr mag/cell
     absolute magnetization    =    10.85 Bohr mag/cell
[tb_dev] Currently allocated     7.63E-05 Mbytes, locked:    0 /   2
[tb_pin] Currently allocated     0.00E+00 Mbytes, locked:    0 /   0

     iteration #  3     ecut=    60.00 Ry     beta= 0.30
     Davidson diagonalization with overlap

---- Real-time Memory Report at c_bands before calling an iterative solver
          1147 MiB given to the printing process from OS
             0 MiB allocation reported by mallinfo(arena+hblkhd)
        699678 MiB available memory on the node where the printing process lives
     GPU memory used/free/total (MiB): 2084 / 79066 / 81151
------------------
     ethr =  1.13E-03,  avg # of iterations =  4.2

     total cpu time spent up to now is       14.5 secs

     total energy              =   -1488.96615398 Ry
     estimated scf accuracy    <       2.50082982 Ry

     total magnetization       =     4.54 Bohr mag/cell
     absolute magnetization    =     5.00 Bohr mag/cell
[tb_dev] Currently allocated     7.63E-05 Mbytes, locked:    0 /   2
[tb_pin] Currently allocated     0.00E+00 Mbytes, locked:    0 /   0

     iteration #  4     ecut=    60.00 Ry     beta= 0.30
     Davidson diagonalization with overlap

---- Real-time Memory Report at c_bands before calling an iterative solver
          1159 MiB given to the printing process from OS
             0 MiB allocation reported by mallinfo(arena+hblkhd)
        699693 MiB available memory on the node where the printing process lives
     GPU memory used/free/total (MiB): 2084 / 79066 / 81151
------------------
     ethr =  1.13E-03,  avg # of iterations =  1.6

     total cpu time spent up to now is       16.9 secs

     total energy              =   -1488.94512598 Ry
     estimated scf accuracy    <       2.75368682 Ry

     total magnetization       =     4.45 Bohr mag/cell
     absolute magnetization    =     4.94 Bohr mag/cell
[tb_dev] Currently allocated     7.63E-05 Mbytes, locked:    0 /   2
[tb_pin] Currently allocated     0.00E+00 Mbytes, locked:    0 /   0

     iteration #  5     ecut=    60.00 Ry     beta= 0.30
     Davidson diagonalization with overlap

---- Real-time Memory Report at c_bands before calling an iterative solver
          1165 MiB given to the printing process from OS
             0 MiB allocation reported by mallinfo(arena+hblkhd)
        699661 MiB available memory on the node where the printing process lives
     GPU memory used/free/total (MiB): 2084 / 79066 / 81151
------------------
     ethr =  1.13E-03,  avg # of iterations =  1.1

     total cpu time spent up to now is       19.3 secs

     total energy              =   -1488.69486060 Ry
     estimated scf accuracy    <       2.25795747 Ry

     total magnetization       =     5.18 Bohr mag/cell
     absolute magnetization    =     5.44 Bohr mag/cell
[tb_dev] Currently allocated     7.63E-05 Mbytes, locked:    0 /   2
[tb_pin] Currently allocated     0.00E+00 Mbytes, locked:    0 /   0

     iteration #  6     ecut=    60.00 Ry     beta= 0.30
     Davidson diagonalization with overlap

---- Real-time Memory Report at c_bands before calling an iterative solver
          1179 MiB given to the printing process from OS
             0 MiB allocation reported by mallinfo(arena+hblkhd)
        699611 MiB available memory on the node where the printing process lives
     GPU memory used/free/total (MiB): 2084 / 79066 / 81151
------------------
     ethr =  1.13E-03,  avg # of iterations =  1.5

     total cpu time spent up to now is       21.7 secs

     total energy              =   -1488.72065205 Ry
     estimated scf accuracy    <       0.92395603 Ry

     total magnetization       =    12.33 Bohr mag/cell
     absolute magnetization    =    12.33 Bohr mag/cell
[tb_dev] Currently allocated     7.63E-05 Mbytes, locked:    0 /   2
[tb_pin] Currently allocated     0.00E+00 Mbytes, locked:    0 /   0

     iteration #  7     ecut=    60.00 Ry     beta= 0.30
     Davidson diagonalization with overlap

---- Real-time Memory Report at c_bands before calling an iterative solver
          1184 MiB given to the printing process from OS
             0 MiB allocation reported by mallinfo(arena+hblkhd)
        699590 MiB available memory on the node where the printing process lives
     GPU memory used/free/total (MiB): 2084 / 79066 / 81151
------------------
     ethr =  9.62E-04,  avg # of iterations =  1.9

     negative rho (up, down):  0.000E+00 5.083E-04

     total cpu time spent up to now is       24.2 secs

     total energy              =   -1489.07330120 Ry
     estimated scf accuracy    <       3.83067338 Ry

     total magnetization       =     4.66 Bohr mag/cell
     absolute magnetization    =     4.92 Bohr mag/cell
[tb_dev] Currently allocated     7.63E-05 Mbytes, locked:    0 /   2
[tb_pin] Currently allocated     0.00E+00 Mbytes, locked:    0 /   0

     iteration #  8     ecut=    60.00 Ry     beta= 0.30
     Davidson diagonalization with overlap

---- Real-time Memory Report at c_bands before calling an iterative solver
          1195 MiB given to the printing process from OS
             0 MiB allocation reported by mallinfo(arena+hblkhd)
        699593 MiB available memory on the node where the printing process lives
     GPU memory used/free/total (MiB): 2084 / 79066 / 81151
------------------
     ethr =  9.62E-04,  avg # of iterations =  1.4

     total cpu time spent up to now is       26.6 secs

     total energy              =   -1489.65045979 Ry
     estimated scf accuracy    <       5.67525664 Ry

     total magnetization       =     5.72 Bohr mag/cell
     absolute magnetization    =     5.99 Bohr mag/cell
[tb_dev] Currently allocated     7.63E-05 Mbytes, locked:    0 /   2
[tb_pin] Currently allocated     0.00E+00 Mbytes, locked:    0 /   0

     iteration #  9     ecut=    60.00 Ry     beta= 0.30
     Davidson diagonalization with overlap

---- Real-time Memory Report at c_bands before calling an iterative solver
          1204 MiB given to the printing process from OS
             0 MiB allocation reported by mallinfo(arena+hblkhd)
        699567 MiB available memory on the node where the printing process lives
     GPU memory used/free/total (MiB): 2084 / 79066 / 81151
------------------
     ethr =  9.62E-04,  avg # of iterations =  2.3

     negative rho (up, down):  0.000E+00 7.889E-04

     total cpu time spent up to now is       29.2 secs

     total energy              =   -1489.67589001 Ry
     estimated scf accuracy    <      11.29649220 Ry

     total magnetization       =     2.41 Bohr mag/cell
     absolute magnetization    =     2.91 Bohr mag/cell
[tb_dev] Currently allocated     7.63E-05 Mbytes, locked:    0 /   2
[tb_pin] Currently allocated     0.00E+00 Mbytes, locked:    0 /   0

     iteration # 10     ecut=    60.00 Ry     beta= 0.30
     Davidson diagonalization with overlap

---- Real-time Memory Report at c_bands before calling an iterative solver
          1207 MiB given to the printing process from OS
             0 MiB allocation reported by mallinfo(arena+hblkhd)
        699559 MiB available memory on the node where the printing process lives
     GPU memory used/free/total (MiB): 2084 / 79066 / 81151
------------------
     ethr =  9.62E-04,  avg # of iterations =  1.1

     total cpu time spent up to now is       31.6 secs

     total energy              =   -1488.46266236 Ry
     estimated scf accuracy    <      13.01611089 Ry

     total magnetization       =     3.88 Bohr mag/cell
     absolute magnetization    =     4.33 Bohr mag/cell
[tb_dev] Currently allocated     7.63E-05 Mbytes, locked:    0 /   2
[tb_pin] Currently allocated     0.00E+00 Mbytes, locked:    0 /   0

     iteration # 11     ecut=    60.00 Ry     beta= 0.30
     Davidson diagonalization with overlap

---- Real-time Memory Report at c_bands before calling an iterative solver
          1215 MiB given to the printing process from OS
             0 MiB allocation reported by mallinfo(arena+hblkhd)
        699568 MiB available memory on the node where the printing process lives
     GPU memory used/free/total (MiB): 2084 / 79066 / 81151
------------------
     ethr =  9.62E-04,  avg # of iterations =  3.6

     negative rho (up, down):  2.873E-02 4.730E-03

     total cpu time spent up to now is       34.4 secs

     total energy              =   -1487.42823383 Ry
     estimated scf accuracy    <       1.05272240 Ry

     total magnetization       =     1.05 Bohr mag/cell
     absolute magnetization    =     2.32 Bohr mag/cell
[tb_dev] Currently allocated     7.63E-05 Mbytes, locked:    0 /   2
[tb_pin] Currently allocated     0.00E+00 Mbytes, locked:    0 /   0

     iteration # 12     ecut=    60.00 Ry     beta= 0.30
     Davidson diagonalization with overlap

---- Real-time Memory Report at c_bands before calling an iterative solver
          1215 MiB given to the printing process from OS
             0 MiB allocation reported by mallinfo(arena+hblkhd)
        699564 MiB available memory on the node where the printing process lives
     GPU memory used/free/total (MiB): 2084 / 79066 / 81151
------------------
     ethr =  9.62E-04,  avg # of iterations =  5.3

     total cpu time spent up to now is       37.5 secs

     total energy              =   -1486.41757476 Ry
     estimated scf accuracy    <       5.36640265 Ry

     total magnetization       =   -14.29 Bohr mag/cell
     absolute magnetization    =    15.00 Bohr mag/cell
[tb_dev] Currently allocated     7.63E-05 Mbytes, locked:    0 /   2
[tb_pin] Currently allocated     0.00E+00 Mbytes, locked:    0 /   0

     iteration # 13     ecut=    60.00 Ry     beta= 0.30
     Davidson diagonalization with overlap

---- Real-time Memory Report at c_bands before calling an iterative solver
          1215 MiB given to the printing process from OS
             0 MiB allocation reported by mallinfo(arena+hblkhd)
        699564 MiB available memory on the node where the printing process lives
     GPU memory used/free/total (MiB): 2084 / 79066 / 81151
------------------
     ethr =  9.62E-04,  avg # of iterations =  4.1

     total cpu time spent up to now is       40.4 secs

     total energy              =   -1489.27306322 Ry
     estimated scf accuracy    <       1.65402354 Ry

     total magnetization       =     2.02 Bohr mag/cell
     absolute magnetization    =     2.41 Bohr mag/cell
[tb_dev] Currently allocated     7.63E-05 Mbytes, locked:    0 /   2
[tb_pin] Currently allocated     0.00E+00 Mbytes, locked:    0 /   0

     iteration # 14     ecut=    60.00 Ry     beta= 0.30
     Davidson diagonalization with overlap

---- Real-time Memory Report at c_bands before calling an iterative solver
          1215 MiB given to the printing process from OS
             0 MiB allocation reported by mallinfo(arena+hblkhd)
        699591 MiB available memory on the node where the printing process lives
     GPU memory used/free/total (MiB): 2084 / 79066 / 81151
------------------
     ethr =  9.62E-04,  avg # of iterations =  1.7

     total cpu time spent up to now is       42.9 secs

     total energy              =   -1489.16867611 Ry
     estimated scf accuracy    <       2.87055424 Ry

     total magnetization       =     2.05 Bohr mag/cell
     absolute magnetization    =     2.20 Bohr mag/cell
[tb_dev] Currently allocated     7.63E-05 Mbytes, locked:    0 /   2
[tb_pin] Currently allocated     0.00E+00 Mbytes, locked:    0 /   0

     iteration # 15     ecut=    60.00 Ry     beta= 0.30
     Davidson diagonalization with overlap

---- Real-time Memory Report at c_bands before calling an iterative solver
          1215 MiB given to the printing process from OS
             0 MiB allocation reported by mallinfo(arena+hblkhd)
        699580 MiB available memory on the node where the printing process lives
     GPU memory used/free/total (MiB): 2084 / 79066 / 81151
------------------
     ethr =  9.62E-04,  avg # of iterations =  1.9

     total cpu time spent up to now is       45.4 secs

     total energy              =   -1489.06640570 Ry
     estimated scf accuracy    <       1.99002825 Ry

     total magnetization       =     0.55 Bohr mag/cell
     absolute magnetization    =     1.72 Bohr mag/cell
[tb_dev] Currently allocated     7.63E-05 Mbytes, locked:    0 /   2
[tb_pin] Currently allocated     0.00E+00 Mbytes, locked:    0 /   0

     iteration # 16     ecut=    60.00 Ry     beta= 0.30
     Davidson diagonalization with overlap

---- Real-time Memory Report at c_bands before calling an iterative solver
          1217 MiB given to the printing process from OS
             0 MiB allocation reported by mallinfo(arena+hblkhd)
        699569 MiB available memory on the node where the printing process lives
     GPU memory used/free/total (MiB): 2084 / 79066 / 81151
------------------
     ethr =  9.62E-04,  avg # of iterations =  1.9

     total cpu time spent up to now is       47.9 secs

     total energy              =   -1489.14293508 Ry
     estimated scf accuracy    <       0.75955227 Ry

     total magnetization       =    -2.38 Bohr mag/cell
     absolute magnetization    =     3.08 Bohr mag/cell
[tb_dev] Currently allocated     7.63E-05 Mbytes, locked:    0 /   2
[tb_pin] Currently allocated     0.00E+00 Mbytes, locked:    0 /   0

     iteration # 17     ecut=    60.00 Ry     beta= 0.30
     Davidson diagonalization with overlap

---- Real-time Memory Report at c_bands before calling an iterative solver
          1217 MiB given to the printing process from OS
             0 MiB allocation reported by mallinfo(arena+hblkhd)
        699543 MiB available memory on the node where the printing process lives
     GPU memory used/free/total (MiB): 2084 / 79066 / 81151
------------------
     ethr =  7.91E-04,  avg # of iterations =  1.9

     total cpu time spent up to now is       50.4 secs

     total energy              =   -1489.06895671 Ry
     estimated scf accuracy    <       0.75499588 Ry

     total magnetization       =    -2.41 Bohr mag/cell
     absolute magnetization    =     2.96 Bohr mag/cell
[tb_dev] Currently allocated     7.63E-05 Mbytes, locked:    0 /   2
[tb_pin] Currently allocated     0.00E+00 Mbytes, locked:    0 /   0

     iteration # 18     ecut=    60.00 Ry     beta= 0.30
     Davidson diagonalization with overlap

---- Real-time Memory Report at c_bands before calling an iterative solver
          1217 MiB given to the printing process from OS
             0 MiB allocation reported by mallinfo(arena+hblkhd)
        699552 MiB available memory on the node where the printing process lives
     GPU memory used/free/total (MiB): 2084 / 79066 / 81151
------------------
     ethr =  7.86E-04,  avg # of iterations =  2.1

     total cpu time spent up to now is       52.9 secs

     total energy              =   -1489.07027570 Ry
     estimated scf accuracy    <       0.54166534 Ry

     total magnetization       =    -2.13 Bohr mag/cell
     absolute magnetization    =     3.79 Bohr mag/cell
[tb_dev] Currently allocated     7.63E-05 Mbytes, locked:    0 /   2
[tb_pin] Currently allocated     0.00E+00 Mbytes, locked:    0 /   0

     iteration # 19     ecut=    60.00 Ry     beta= 0.30
     Davidson diagonalization with overlap

---- Real-time Memory Report at c_bands before calling an iterative solver
          1217 MiB given to the printing process from OS
             0 MiB allocation reported by mallinfo(arena+hblkhd)
        699583 MiB available memory on the node where the printing process lives
     GPU memory used/free/total (MiB): 2084 / 79066 / 81151
------------------
     ethr =  5.64E-04,  avg # of iterations =  4.2

     total cpu time spent up to now is       55.7 secs

     total energy              =   -1489.09450986 Ry
     estimated scf accuracy    <       0.20933155 Ry

     total magnetization       =    -2.68 Bohr mag/cell
     absolute magnetization    =     2.81 Bohr mag/cell
[tb_dev] Currently allocated     7.63E-05 Mbytes, locked:    0 /   2
[tb_pin] Currently allocated     0.00E+00 Mbytes, locked:    0 /   0

     iteration # 20     ecut=    60.00 Ry     beta= 0.30
     Davidson diagonalization with overlap

---- Real-time Memory Report at c_bands before calling an iterative solver
          1217 MiB given to the printing process from OS
             0 MiB allocation reported by mallinfo(arena+hblkhd)
        699582 MiB available memory on the node where the printing process lives
     GPU memory used/free/total (MiB): 2084 / 79066 / 81151
------------------
     ethr =  2.18E-04,  avg # of iterations =  3.7

     total cpu time spent up to now is       58.4 secs

     total energy              =   -1489.08673061 Ry
     estimated scf accuracy    <       0.43908385 Ry

     total magnetization       =    -3.02 Bohr mag/cell
     absolute magnetization    =     3.13 Bohr mag/cell
[tb_dev] Currently allocated     7.63E-05 Mbytes, locked:    0 /   2
[tb_pin] Currently allocated     0.00E+00 Mbytes, locked:    0 /   0

     iteration # 21     ecut=    60.00 Ry     beta= 0.30
     Davidson diagonalization with overlap

---- Real-time Memory Report at c_bands before calling an iterative solver
          1217 MiB given to the printing process from OS
             0 MiB allocation reported by mallinfo(arena+hblkhd)
        699556 MiB available memory on the node where the printing process lives
     GPU memory used/free/total (MiB): 2084 / 79066 / 81151
------------------
     ethr =  2.18E-04,  avg # of iterations =  1.3

     total cpu time spent up to now is       61.0 secs

     total energy              =   -1489.10332064 Ry
     estimated scf accuracy    <       0.03984612 Ry

     total magnetization       =    -2.35 Bohr mag/cell
     absolute magnetization    =     2.70 Bohr mag/cell
[tb_dev] Currently allocated     7.63E-05 Mbytes, locked:    0 /   2
[tb_pin] Currently allocated     0.00E+00 Mbytes, locked:    0 /   0

     iteration # 22     ecut=    60.00 Ry     beta= 0.30
     Davidson diagonalization with overlap

---- Real-time Memory Report at c_bands before calling an iterative solver
          1217 MiB given to the printing process from OS
             0 MiB allocation reported by mallinfo(arena+hblkhd)
        699519 MiB available memory on the node where the printing process lives
     GPU memory used/free/total (MiB): 2084 / 79066 / 81151
------------------
     c_bands:  2 eigenvalues not converged
     c_bands:  1 eigenvalues not converged
     ethr =  4.15E-05,  avg # of iterations =  8.5

     total cpu time spent up to now is       64.3 secs

     total energy              =   -1489.10374161 Ry
     estimated scf accuracy    <       0.03673722 Ry

     total magnetization       =    -2.49 Bohr mag/cell
     absolute magnetization    =     2.72 Bohr mag/cell
[tb_dev] Currently allocated     7.63E-05 Mbytes, locked:    0 /   2
[tb_pin] Currently allocated     0.00E+00 Mbytes, locked:    0 /   0

     iteration # 23     ecut=    60.00 Ry     beta= 0.30
     Davidson diagonalization with overlap

---- Real-time Memory Report at c_bands before calling an iterative solver
          1217 MiB given to the printing process from OS
             0 MiB allocation reported by mallinfo(arena+hblkhd)
        699509 MiB available memory on the node where the printing process lives
     GPU memory used/free/total (MiB): 2084 / 79066 / 81151
------------------
     ethr =  3.83E-05,  avg # of iterations =  2.0

     total cpu time spent up to now is       66.8 secs

     total energy              =   -1489.10903003 Ry
     estimated scf accuracy    <       0.02044841 Ry

     total magnetization       =    -2.29 Bohr mag/cell
     absolute magnetization    =     2.44 Bohr mag/cell
[tb_dev] Currently allocated     7.63E-05 Mbytes, locked:    0 /   2
[tb_pin] Currently allocated     0.00E+00 Mbytes, locked:    0 /   0

     iteration # 24     ecut=    60.00 Ry     beta= 0.30
     Davidson diagonalization with overlap

---- Real-time Memory Report at c_bands before calling an iterative solver
          1217 MiB given to the printing process from OS
             0 MiB allocation reported by mallinfo(arena+hblkhd)
        699512 MiB available memory on the node where the printing process lives
     GPU memory used/free/total (MiB): 2084 / 79066 / 81151
------------------
     ethr =  2.13E-05,  avg # of iterations =  3.0

     total cpu time spent up to now is       69.4 secs

     total energy              =   -1489.11152942 Ry
     estimated scf accuracy    <       0.00194982 Ry

     total magnetization       =    -2.42 Bohr mag/cell
     absolute magnetization    =     2.54 Bohr mag/cell
[tb_dev] Currently allocated     7.63E-05 Mbytes, locked:    0 /   2
[tb_pin] Currently allocated     0.00E+00 Mbytes, locked:    0 /   0

     iteration # 25     ecut=    60.00 Ry     beta= 0.30
     Davidson diagonalization with overlap

---- Real-time Memory Report at c_bands before calling an iterative solver
          1217 MiB given to the printing process from OS
             0 MiB allocation reported by mallinfo(arena+hblkhd)
        699518 MiB available memory on the node where the printing process lives
     GPU memory used/free/total (MiB): 2084 / 79066 / 81151
------------------
     c_bands:  1 eigenvalues not converged
     c_bands:  1 eigenvalues not converged
     c_bands:  1 eigenvalues not converged
     c_bands:  1 eigenvalues not converged
     c_bands:  2 eigenvalues not converged
     c_bands:  2 eigenvalues not converged
     c_bands:  1 eigenvalues not converged
     c_bands:  2 eigenvalues not converged
     ethr =  2.03E-06,  avg # of iterations = 12.4

     total cpu time spent up to now is       73.3 secs

     total energy              =   -1489.11178914 Ry
     estimated scf accuracy    <       0.00146430 Ry

     total magnetization       =    -2.44 Bohr mag/cell
     absolute magnetization    =     2.56 Bohr mag/cell
[tb_dev] Currently allocated     7.63E-05 Mbytes, locked:    0 /   2
[tb_pin] Currently allocated     0.00E+00 Mbytes, locked:    0 /   0

     iteration # 26     ecut=    60.00 Ry     beta= 0.30
     Davidson diagonalization with overlap

---- Real-time Memory Report at c_bands before calling an iterative solver
          1217 MiB given to the printing process from OS
             0 MiB allocation reported by mallinfo(arena+hblkhd)
        699504 MiB available memory on the node where the printing process lives
     GPU memory used/free/total (MiB): 2084 / 79066 / 81151
------------------
     c_bands:  2 eigenvalues not converged
     ethr =  1.53E-06,  avg # of iterations =  5.9

     total cpu time spent up to now is       76.3 secs

     total energy              =   -1489.11235763 Ry
     estimated scf accuracy    <       0.00387960 Ry

     total magnetization       =    -2.43 Bohr mag/cell
     absolute magnetization    =     2.56 Bohr mag/cell
[tb_dev] Currently allocated     7.63E-05 Mbytes, locked:    0 /   2
[tb_pin] Currently allocated     0.00E+00 Mbytes, locked:    0 /   0

     iteration # 27     ecut=    60.00 Ry     beta= 0.30
     Davidson diagonalization with overlap

---- Real-time Memory Report at c_bands before calling an iterative solver
          1217 MiB given to the printing process from OS
             0 MiB allocation reported by mallinfo(arena+hblkhd)
        699527 MiB available memory on the node where the printing process lives
     GPU memory used/free/total (MiB): 2084 / 79066 / 81151
------------------
     ethr =  1.53E-06,  avg # of iterations =  1.7

     total cpu time spent up to now is       78.8 secs

     total energy              =   -1489.11258928 Ry
     estimated scf accuracy    <       0.00008333 Ry

     total magnetization       =    -2.44 Bohr mag/cell
     absolute magnetization    =     2.58 Bohr mag/cell
[tb_dev] Currently allocated     7.63E-05 Mbytes, locked:    0 /   2
[tb_pin] Currently allocated     0.00E+00 Mbytes, locked:    0 /   0

     iteration # 28     ecut=    60.00 Ry     beta= 0.30
     Davidson diagonalization with overlap

---- Real-time Memory Report at c_bands before calling an iterative solver
          1217 MiB given to the printing process from OS
             0 MiB allocation reported by mallinfo(arena+hblkhd)
        700201 MiB available memory on the node where the printing process lives
     GPU memory used/free/total (MiB): 2084 / 79066 / 81151
------------------
     ethr =  8.68E-08,  avg # of iterations = 10.3

     total cpu time spent up to now is       82.6 secs

     total energy              =   -1489.11267207 Ry
     estimated scf accuracy    <       0.00004002 Ry

     total magnetization       =    -2.44 Bohr mag/cell
     absolute magnetization    =     2.59 Bohr mag/cell
[tb_dev] Currently allocated     7.63E-05 Mbytes, locked:    0 /   2
[tb_pin] Currently allocated     0.00E+00 Mbytes, locked:    0 /   0

     iteration # 29     ecut=    60.00 Ry     beta= 0.30
     Davidson diagonalization with overlap

---- Real-time Memory Report at c_bands before calling an iterative solver
          1218 MiB given to the printing process from OS
             0 MiB allocation reported by mallinfo(arena+hblkhd)
        699820 MiB available memory on the node where the printing process lives
     GPU memory used/free/total (MiB): 2084 / 79066 / 81151
------------------
     ethr =  4.17E-08,  avg # of iterations =  2.8

     total cpu time spent up to now is       85.2 secs

     total energy              =   -1489.11267941 Ry
     estimated scf accuracy    <       0.00001347 Ry

     total magnetization       =    -2.44 Bohr mag/cell
     absolute magnetization    =     2.58 Bohr mag/cell
[tb_dev] Currently allocated     7.63E-05 Mbytes, locked:    0 /   2
[tb_pin] Currently allocated     0.00E+00 Mbytes, locked:    0 /   0

     iteration # 30     ecut=    60.00 Ry     beta= 0.30
     Davidson diagonalization with overlap

---- Real-time Memory Report at c_bands before calling an iterative solver
          1221 MiB given to the printing process from OS
             0 MiB allocation reported by mallinfo(arena+hblkhd)
        699464 MiB available memory on the node where the printing process lives
     GPU memory used/free/total (MiB): 2084 / 79066 / 81151
------------------
     ethr =  1.40E-08,  avg # of iterations =  7.1

     total cpu time spent up to now is       88.4 secs

     total energy              =   -1489.11268532 Ry
     estimated scf accuracy    <       0.00000626 Ry

     total magnetization       =    -2.44 Bohr mag/cell
     absolute magnetization    =     2.59 Bohr mag/cell
[tb_dev] Currently allocated     7.63E-05 Mbytes, locked:    0 /   2
[tb_pin] Currently allocated     0.00E+00 Mbytes, locked:    0 /   0

     iteration # 31     ecut=    60.00 Ry     beta= 0.30
     Davidson diagonalization with overlap

---- Real-time Memory Report at c_bands before calling an iterative solver
          1221 MiB given to the printing process from OS
             0 MiB allocation reported by mallinfo(arena+hblkhd)
        699340 MiB available memory on the node where the printing process lives
     GPU memory used/free/total (MiB): 2084 / 79066 / 81151
------------------
     ethr =  6.52E-09,  avg # of iterations =  3.5

     total cpu time spent up to now is       91.1 secs

     total energy              =   -1489.11268650 Ry
     estimated scf accuracy    <       0.00000098 Ry

     total magnetization       =    -2.44 Bohr mag/cell
     absolute magnetization    =     2.59 Bohr mag/cell
[tb_dev] Currently allocated     7.63E-05 Mbytes, locked:    0 /   2
[tb_pin] Currently allocated     0.00E+00 Mbytes, locked:    0 /   0

     iteration # 32     ecut=    60.00 Ry     beta= 0.30
     Davidson diagonalization with overlap

---- Real-time Memory Report at c_bands before calling an iterative solver
          1221 MiB given to the printing process from OS
             0 MiB allocation reported by mallinfo(arena+hblkhd)
        699340 MiB available memory on the node where the printing process lives
     GPU memory used/free/total (MiB): 2084 / 79066 / 81151
------------------
     ethr =  1.02E-09,  avg # of iterations =  8.4

     total cpu time spent up to now is       94.6 secs

     total energy              =   -1489.11268724 Ry
     estimated scf accuracy    <       0.00000040 Ry

     total magnetization       =    -2.44 Bohr mag/cell
     absolute magnetization    =     2.59 Bohr mag/cell
[tb_dev] Currently allocated     7.63E-05 Mbytes, locked:    0 /   2
[tb_pin] Currently allocated     0.00E+00 Mbytes, locked:    0 /   0

     iteration # 33     ecut=    60.00 Ry     beta= 0.30
     Davidson diagonalization with overlap

---- Real-time Memory Report at c_bands before calling an iterative solver
          1221 MiB given to the printing process from OS
             0 MiB allocation reported by mallinfo(arena+hblkhd)
        699336 MiB available memory on the node where the printing process lives
     GPU memory used/free/total (MiB): 2084 / 79066 / 81151
------------------
     ethr =  4.15E-10,  avg # of iterations =  2.5

     total cpu time spent up to now is       97.2 secs

     total energy              =   -1489.11268738 Ry
     estimated scf accuracy    <       0.00000016 Ry

     total magnetization       =    -2.44 Bohr mag/cell
     absolute magnetization    =     2.59 Bohr mag/cell
[tb_dev] Currently allocated     7.63E-05 Mbytes, locked:    0 /   2
[tb_pin] Currently allocated     0.00E+00 Mbytes, locked:    0 /   0

     iteration # 34     ecut=    60.00 Ry     beta= 0.30
     Davidson diagonalization with overlap

---- Real-time Memory Report at c_bands before calling an iterative solver
          1221 MiB given to the printing process from OS
             0 MiB allocation reported by mallinfo(arena+hblkhd)
        699314 MiB available memory on the node where the printing process lives
     GPU memory used/free/total (MiB): 2084 / 79066 / 81151
------------------
     ethr =  1.63E-10,  avg # of iterations =  5.5
 
     Magnetic moment per site  (integrated on atomic sphere of radius R)
     atom   1 (R=0.161)  charge= 14.1599  magn= -0.6541
     atom   2 (R=0.161)  charge= 14.1590  magn= -0.6525
     atom   3 (R=0.161)  charge= 14.1590  magn= -0.6525
     atom   4 (R=0.161)  charge=  5.2545  magn= -0.0606
     atom   5 (R=0.161)  charge=  5.2545  magn= -0.0606
     atom   6 (R=0.161)  charge=  5.2545  magn= -0.0606
     atom   7 (R=0.161)  charge=  5.2545  magn= -0.0606
     atom   8 (R=0.161)  charge=  5.2545  magn= -0.0606
     atom   9 (R=0.161)  charge=  5.2545  magn= -0.0606
     atom  10 (R=0.352)  charge=  8.1682  magn=  0.0283

     total cpu time spent up to now is      100.2 secs

     End of self-consistent calculation

 ------ SPIN UP ------------


          k = 0.0000 0.0000 0.0000 ( 11393 PWs)   bands (ev):

   -92.7298 -92.7248 -92.7230 -56.0123 -56.0123 -56.0112 -56.0112 -55.9735
   -55.9735 -55.9085 -55.9001 -55.8977 -52.3102 -24.2291 -24.2291 -24.1848
   -16.4588 -14.9021 -14.9021 -14.9019 -14.9019 -14.8425  -2.6762  -2.5260
    -2.5260  -2.5223  -2.5223  -2.1611  -2.1524  -2.0727  -2.0727  -0.6405
    -0.6405  -0.6370  -0.6370  -0.4382  -0.4281   0.6171   1.2142   1.2142
     1.3905   1.3905   1.8267   1.8283   1.9152   2.4204   2.4204   2.4210
     2.4210   2.7790   4.1382   4.1382   4.1436   4.1436   4.7655   4.7655
     6.0165   8.5012   9.1252   9.1252   9.8607   9.8607  10.4190  10.6718

     occupation numbers 
     1.0000   1.0000   1.0000   1.0000   1.0000   1.0000   1.0000   1.0000
     1.0000   1.0000   1.0000   1.0000   1.0000   1.0000   1.0000   1.0000
     1.0000   1.0000   1.0000   1.0000   1.0000   1.0000   1.0000   1.0000
     1.0000   1.0000   1.0000   1.0000   1.0000   1.0000   1.0000   1.0000
     1.0000   1.0000   1.0000   1.0000   1.0000   1.0000   1.0000   1.0000
     1.0000   1.0000   1.0264   1.0267   1.0538   0.4053   0.4053   0.4039
     0.4039   0.0089   0.0000   0.0000   0.0000   0.0000   0.0000   0.0000
     0.0000   0.0000   0.0000   0.0000   0.0000   0.0000   0.0000   0.0000

          k = 0.0000 0.0000-0.2526 ( 11446 PWs)   bands (ev):

   -92.7298 -92.7248 -92.7230 -56.0123 -56.0123 -56.0113 -56.0113 -55.9736
   -55.9736 -55.9086 -55.9003 -55.8979 -52.3102 -24.2292 -24.2292 -24.1850
   -16.4588 -14.9021 -14.9021 -14.9019 -14.9019 -14.8426  -2.6728  -2.5260
    -2.5260  -2.5223  -2.5223  -2.1610  -2.1524  -2.0727  -2.0727  -0.6405
    -0.6405  -0.6370  -0.6370  -0.4384  -0.4282   0.5463   1.2141   1.2141
     1.3905   1.3905   1.8269   1.8282   2.0961   2.4203   2.4203   2.4209
     2.4209   2.7121   4.1387   4.1387   4.1440   4.1440   4.7654   4.7654
     5.7568   9.1152   9.1152   9.4769   9.8508   9.8508  10.0558  10.6320

     occupation numbers 
     1.0000   1.0000   1.0000   1.0000   1.0000   1.0000   1.0000   1.0000
     1.0000   1.0000   1.0000   1.0000   1.0000   1.0000   1.0000   1.0000
     1.0000   1.0000   1.0000   1.0000   1.0000   1.0000   1.0000   1.0000
     1.0000   1.0000   1.0000   1.0000   1.0000   1.0000   1.0000   1.0000
     1.0000   1.0000   1.0000   1.0000   1.0000   1.0000   1.0000   1.0000
     1.0000   1.0000   1.0264   1.0267   1.0698   0.4055   0.4055   0.4042
     0.4042   0.0234   0.0000   0.0000   0.0000   0.0000   0.0000   0.0000
     0.0000   0.0000   0.0000   0.0000   0.0000   0.0000   0.0000   0.0000

          k = 0.0000 0.1925 0.0000 ( 11360 PWs)   bands (ev):

   -92.7293 -92.7250 -92.7232 -56.0203 -56.0179 -56.0019 -56.0008 -55.9783
   -55.9747 -55.9077 -55.9005 -55.8980 -52.3101 -24.2292 -24.2291 -24.1846
   -16.3607 -15.0320 -14.9546 -14.9026 -14.8528 -14.8356  -2.9464  -2.7284
    -2.5564  -2.5050  -2.4406  -2.2031  -2.0174  -1.7646  -1.5680  -0.9905
    -0.9527  -0.7232  -0.7006  -0.0607  -0.0138   0.4996   0.6382   0.8656
     1.6970   1.8162   1.8644   1.9250   2.1243   2.2153   2.2362   2.4619
     2.5191   2.8383   4.1010   4.1891   4.2095   4.2142   4.4961   4.6978
     6.2267   7.4088   8.4139   8.8118   9.1180  10.8733  10.9915  11.5499

     occupation numbers 
     1.0000   1.0000   1.0000   1.0000   1.0000   1.0000   1.0000   1.0000
     1.0000   1.0000   1.0000   1.0000   1.0000   1.0000   1.0000   1.0000
     1.0000   1.0000   1.0000   1.0000   1.0000   1.0000   1.0000   1.0000
     1.0000   1.0000   1.0000   1.0000   1.0000   1.0000   1.0000   1.0000
     1.0000   1.0000   1.0000   1.0000   1.0000   1.0000   1.0000   1.0000
     1.0058   1.0238   1.0369   1.0572   1.0516   0.9279   0.8855   0.3068
     0.1953   0.0035   0.0000   0.0000   0.0000   0.0000   0.0000   0.0000
     0.0000   0.0000   0.0000   0.0000   0.0000   0.0000   0.0000   0.0000

          k = 0.0000 0.1925-0.2526 ( 11384 PWs)   bands (ev):

   -92.7294 -92.7250 -92.7232 -56.0203 -56.0179 -56.0019 -56.0007 -55.9784
   -55.9748 -55.9078 -55.9005 -55.8981 -52.3102 -24.2292 -24.2291 -24.1847
   -16.3607 -15.0320 -14.9546 -14.9026 -14.8528 -14.8356  -2.9464  -2.7283
    -2.5534  -2.5050  -2.4406  -2.2036  -2.0174  -1.7646  -1.5680  -0.9906
    -0.9528  -0.7230  -0.7006  -0.0607  -0.0138   0.5003   0.6238   0.8199
     1.6973   1.8120   1.8644   1.9250   2.2154   2.2362   2.3024   2.4617
     2.5188   2.7532   4.1027   4.1898   4.2097   4.2138   4.5154   4.6958
     5.9948   7.4001   8.4053   9.0170   9.8474  10.3944  10.9576  11.0063

     occupation numbers 
     1.0000   1.0000   1.0000   1.0000   1.0000   1.0000   1.0000   1.0000
     1.0000   1.0000   1.0000   1.0000   1.0000   1.0000   1.0000   1.0000
     1.0000   1.0000   1.0000   1.0000   1.0000   1.0000   1.0000   1.0000
     1.0000   1.0000   1.0000   1.0000   1.0000   1.0000   1.0000   1.0000
     1.0000   1.0000   1.0000   1.0000   1.0000   1.0000   1.0000   1.0000
     1.0058   1.0228   1.0369   1.0572   0.9278   0.8856   0.7248   0.3072
     0.1957   0.0131   0.0000   0.0000   0.0000   0.0000   0.0000   0.0000
     0.0000   0.0000   0.0000   0.0000   0.0000   0.0000   0.0000   0.0000

          k = 0.0000 0.3849 0.0000 ( 11350 PWs)   bands (ev):

   -92.7283 -92.7256 -92.7236 -56.0263 -56.0156 -55.9924 -55.9913 -55.9901
   -55.9784 -55.9059 -55.9015 -55.8988 -52.3101 -24.2294 -24.2292 -24.1846
   -16.0885 -15.3197 -14.9945 -14.9526 -14.8209 -14.8203  -3.3523  -2.5811
    -2.5168  -2.4265  -2.2415  -2.2205  -1.9000  -1.5192  -1.3829  -0.9881
    -0.9815  -0.9729  -0.5087  -0.4763   0.0201   0.2225   0.5448   1.1327
     1.8164   1.8345   2.0055   2.0294   2.1858   2.2391   2.3651   2.5216
     2.6180   3.0044   4.0593   4.1131   4.1586   4.2618   4.4599   4.5018
     5.5361   6.7973   7.8215   8.3920   9.1955   9.7708  11.5437  11.7108

     occupation numbers 
     1.0000   1.0000   1.0000   1.0000   1.0000   1.0000   1.0000   1.0000
     1.0000   1.0000   1.0000   1.0000   1.0000   1.0000   1.0000   1.0000
     1.0000   1.0000   1.0000   1.0000   1.0000   1.0000   1.0000   1.0000
     1.0000   1.0000   1.0000   1.0000   1.0000   1.0000   1.0000   1.0000
     1.0000   1.0000   1.0000   1.0000   1.0000   1.0000   1.0000   1.0000
     1.0238   1.0284   1.0803   1.0831   0.9791   0.8794   0.5526   0.1912
     0.0740   0.0001   0.0000   0.0000   0.0000   0.0000   0.0000   0.0000
     0.0000   0.0000   0.0000   0.0000   0.0000   0.0000   0.0000   0.0000

          k = 0.0000 0.3849-0.2526 ( 11352 PWs)   bands (ev):

   -92.7283 -92.7256 -92.7236 -56.0262 -56.0155 -55.9925 -55.9912 -55.9901
   -55.9783 -55.9060 -55.9016 -55.8988 -52.3101 -24.2294 -24.2292 -24.1847
   -16.0885 -15.3197 -14.9945 -14.9525 -14.8209 -14.8203  -3.3522  -2.5811
    -2.5170  -2.4272  -2.2395  -2.2205  -1.9000  -1.5192  -1.3829  -0.9875
    -0.9812  -0.9730  -0.5087  -0.4752   0.0200   0.2228   0.5446   1.1062
     1.8163   1.8345   2.0057   2.0295   2.1767   2.2394   2.3650   2.5196
     2.7591   2.8923   4.1151   4.1223   4.1483   4.2616   4.4603   4.4882
     5.5370   6.6465   7.8183   8.3791   9.1983  10.4225  11.3803  11.5620

     occupation numbers 
     1.0000   1.0000   1.0000   1.0000   1.0000   1.0000   1.0000   1.0000
     1.0000   1.0000   1.0000   1.0000   1.0000   1.0000   1.0000   1.0000
     1.0000   1.0000   1.0000   1.0000   1.0000   1.0000   1.0000   1.0000
     1.0000   1.0000   1.0000   1.0000   1.0000   1.0000   1.0000   1.0000
     1.0000   1.0000   1.0000   1.0000   1.0000   1.0000   1.0000   1.0000
     1.0238   1.0284   1.0804   1.0831   0.9928   0.8788   0.5530   0.1945
     0.0121   0.0014   0.0000   0.0000   0.0000   0.0000   0.0000   0.0000
     0.0000   0.0000   0.0000   0.0000   0.0000   0.0000   0.0000   0.0000

          k = 0.0000-0.5774 0.0000 ( 11352 PWs)   bands (ev):

   -92.7273 -92.7264 -92.7239 -56.0283 -56.0057 -56.0046 -55.9868 -55.9849
   -55.9838 -55.9042 -55.9028 -55.8992 -52.3101 -24.2296 -24.2293 -24.1846
   -15.7083 -15.7071 -15.0093 -14.9785 -14.8117 -14.8110  -3.5001  -2.5418
    -2.5343  -2.1496  -2.1495  -2.0146  -1.7177  -1.7166  -1.6362  -1.0785
    -1.0653  -0.9680  -0.5804  -0.5788  -0.0905   0.3047   1.0312   1.0346
     1.6747   1.9008   1.9022   1.9397   2.3259   2.4087   2.4119   2.5762
     2.5840   3.7307   3.9782   3.9929   4.0912   4.2776   4.3036   4.3776
     4.6357   7.4629   7.6191   8.1458   8.1766  10.8625  11.0778  11.3377

     occupation numbers 
     1.0000   1.0000   1.0000   1.0000   1.0000   1.0000   1.0000   1.0000
     1.0000   1.0000   1.0000   1.0000   1.0000   1.0000   1.0000   1.0000
     1.0000   1.0000   1.0000   1.0000   1.0000   1.0000   1.0000   1.0000
     1.0000   1.0000   1.0000   1.0000   1.0000   1.0000   1.0000   1.0000
     1.0000   1.0000   1.0000   1.0000   1.0000   1.0000   1.0000   1.0000
     1.0043   1.0488   1.0493   1.0622   0.6611   0.4354   0.4270   0.1149
     0.1061   0.0000   0.0000   0.0000   0.0000   0.0000   0.0000   0.0000
     0.0000   0.0000   0.0000   0.0000   0.0000   0.0000   0.0000   0.0000

          k = 0.0000-0.5774-0.2526 ( 11344 PWs)   bands (ev):

   -92.7273 -92.7264 -92.7238 -56.0283 -56.0057 -56.0046 -55.9868 -55.9849
   -55.9838 -55.9042 -55.9029 -55.8991 -52.3101 -24.2296 -24.2292 -24.1846
   -15.7083 -15.7071 -15.0094 -14.9785 -14.8117 -14.8110  -3.5001  -2.5424
    -2.5347  -2.1495  -2.1493  -2.0146  -1.7173  -1.7158  -1.6362  -1.0770
    -1.0644  -0.9680  -0.5804  -0.5789  -0.0903   0.3053   1.0284   1.0302
     1.6746   1.9010   1.9024   1.9397   2.3258   2.4003   2.4074   2.5860
     2.5892   3.6426   3.8868   4.1420   4.2482   4.2508   4.2773   4.3400
     4.6357   7.4025   7.6202   8.0753   8.1589  11.1529  11.3366  11.4455

     occupation numbers 
     1.0000   1.0000   1.0000   1.0000   1.0000   1.0000   1.0000   1.0000
     1.0000   1.0000   1.0000   1.0000   1.0000   1.0000   1.0000   1.0000
     1.0000   1.0000   1.0000   1.0000   1.0000   1.0000   1.0000   1.0000
     1.0000   1.0000   1.0000   1.0000   1.0000   1.0000   1.0000   1.0000
     1.0000   1.0000   1.0000   1.0000   1.0000   1.0000   1.0000   1.0000
     1.0042   1.0489   1.0494   1.0622   0.6613   0.4573   0.4388   0.1041
     0.1007   0.0000   0.0000   0.0000   0.0000   0.0000   0.0000   0.0000
     0.0000   0.0000   0.0000   0.0000   0.0000   0.0000   0.0000   0.0000

          k = 0.1667 0.2887 0.0000 ( 11373 PWs)   bands (ev):

   -92.7286 -92.7254 -92.7235 -56.0214 -56.0212 -55.9939 -55.9937 -55.9872
   -55.9768 -55.9065 -55.9012 -55.8987 -52.3101 -24.2294 -24.2292 -24.1847
   -16.1756 -15.1361 -15.1357 -14.8549 -14.8548 -14.8249  -3.0197  -3.0197
    -2.3954  -2.3692  -2.3640  -2.3244  -1.9151  -1.4405  -1.4368  -0.9408
    -0.9371  -0.8144  -0.8085  -0.3417   0.2614   0.2631   0.3666   1.0493
     1.7765   1.9743   1.9746   2.0841   2.0844   2.0967   2.4664   2.4674
     2.4973   2.9231   4.1117   4.1618   4.1692   4.3021   4.3043   4.6207
     6.4595   6.6121   6.7349   9.4595   9.9086  10.1982  10.5307  10.6995

     occupation numbers 
     1.0000   1.0000   1.0000   1.0000   1.0000   1.0000   1.0000   1.0000
     1.0000   1.0000   1.0000   1.0000   1.0000   1.0000   1.0000   1.0000
     1.0000   1.0000   1.0000   1.0000   1.0000   1.0000   1.0000   1.0000
     1.0000   1.0000   1.0000   1.0000   1.0000   1.0000   1.0000   1.0000
     1.0000   1.0000   1.0000   1.0000   1.0000   1.0000   1.0000   1.0000
     1.0156   1.0731   1.0732   1.0751   1.0750   1.0695   0.2968   0.2946
     0.2342   0.0008   0.0000   0.0000   0.0000   0.0000   0.0000   0.0000
     0.0000   0.0000   0.0000   0.0000   0.0000   0.0000   0.0000   0.0000

          k = 0.1667 0.2887-0.2526 ( 11348 PWs)   bands (ev):

   -92.7286 -92.7254 -92.7235 -56.0213 -56.0211 -55.9938 -55.9936 -55.9872
   -55.9768 -55.9066 -55.9011 -55.8986 -52.3101 -24.2293 -24.2291 -24.1847
   -16.1756 -15.1361 -15.1357 -14.8549 -14.8548 -14.8250  -3.0197  -3.0197
    -2.3956  -2.3693  -2.3641  -2.3227  -1.9151  -1.4406  -1.4368  -0.9406
    -0.9369  -0.8142  -0.8084  -0.3407   0.2616   0.2632   0.3666   1.0146
     1.7696   1.9743   1.9747   2.0842   2.0844   2.0967   2.4658   2.4670
     2.6899   2.7776   4.1469   4.1629   4.1699   4.3020   4.3039   4.6207
     6.4345   6.4532   6.7296   9.9279  10.1328  10.1929  10.5690  10.7783

     occupation numbers 
     1.0000   1.0000   1.0000   1.0000   1.0000   1.0000   1.0000   1.0000
     1.0000   1.0000   1.0000   1.0000   1.0000   1.0000   1.0000   1.0000
     1.0000   1.0000   1.0000   1.0000   1.0000   1.0000   1.0000   1.0000
     1.0000   1.0000   1.0000   1.0000   1.0000   1.0000   1.0000   1.0000
     1.0000   1.0000   1.0000   1.0000   1.0000   1.0000   1.0000   1.0000
     1.0145   1.0731   1.0732   1.0750   1.0749   1.0695   0.2983   0.2955
     0.0313   0.0092   0.0000   0.0000   0.0000   0.0000   0.0000   0.0000
     0.0000   0.0000   0.0000   0.0000   0.0000   0.0000   0.0000   0.0000

          k = 0.1667 0.4811 0.0000 ( 11356 PWs)   bands (ev):

   -92.7274 -92.7261 -92.7239 -56.0242 -56.0143 -56.0013 -55.9870 -55.9865
   -55.9808 -55.9046 -55.9023 -55.8994 -52.3101 -24.2295 -24.2293 -24.1847
   -15.8496 -15.4675 -15.2049 -14.8700 -14.8205 -14.8146  -3.2736  -2.7612
    -2.5662  -2.2834  -2.1606  -2.0632  -1.7835  -1.5896  -1.5865  -1.1473
    -1.1344  -0.9731  -0.5140  -0.2452  -0.0804   0.3826   0.7271   1.0929
     1.7842   1.8423   1.9030   2.0298   2.2633   2.2647   2.3940   2.5083
     2.6683   3.4889   3.9032   4.0010   4.1776   4.3692   4.5019   4.5625
     4.9100   6.1921   7.3107   8.6436   9.8776   9.9813  10.5070  11.7359

     occupation numbers 
     1.0000   1.0000   1.0000   1.0000   1.0000   1.0000   1.0000   1.0000
     1.0000   1.0000   1.0000   1.0000   1.0000   1.0000   1.0000   1.0000
     1.0000   1.0000   1.0000   1.0000   1.0000   1.0000   1.0000   1.0000
     1.0000   1.0000   1.0000   1.0000   1.0000   1.0000   1.0000   1.0000
     1.0000   1.0000   1.0000   1.0000   1.0000   1.0000   1.0000   1.0000
     1.0170   1.0305   1.0496   1.0831   0.8240   0.8205   0.4742   0.2139
     0.0411   0.0000   0.0000   0.0000   0.0000   0.0000   0.0000   0.0000
     0.0000   0.0000   0.0000   0.0000   0.0000   0.0000   0.0000   0.0000

          k = 0.1667 0.4811-0.2526 ( 11352 PWs)   bands (ev):

   -92.7274 -92.7261 -92.7239 -56.0242 -56.0144 -56.0012 -55.9870 -55.9865
   -55.9807 -55.9046 -55.9023 -55.8994 -52.3101 -24.2295 -24.2292 -24.1847
   -15.8496 -15.4676 -15.2049 -14.8700 -14.8205 -14.8146  -3.2737  -2.7614
    -2.5667  -2.2835  -2.1607  -2.0624  -1.7833  -1.5897  -1.5864  -1.1458
    -1.1335  -0.9727  -0.5140  -0.2452  -0.0803   0.3829   0.7264   1.0853
     1.7841   1.8400   1.9030   2.0298   2.2612   2.2642   2.3938   2.5078
     2.6857   3.4244   3.9722   4.0058   4.1754   4.3744   4.4976   4.5627
     4.9263   6.1921   7.2203   8.6169   9.9122   9.9657  10.9228  12.1815

     occupation numbers 
     1.0000   1.0000   1.0000   1.0000   1.0000   1.0000   1.0000   1.0000
     1.0000   1.0000   1.0000   1.0000   1.0000   1.0000   1.0000   1.0000
     1.0000   1.0000   1.0000   1.0000   1.0000   1.0000   1.0000   1.0000
     1.0000   1.0000   1.0000   1.0000   1.0000   1.0000   1.0000   1.0000
     1.0000   1.0000   1.0000   1.0000   1.0000   1.0000   1.0000   1.0000
     1.0170   1.0298   1.0496   1.0831   0.8289   0.8218   0.4746   0.2148
     0.0330   0.0000   0.0000   0.0000   0.0000   0.0000   0.0000   0.0000
     0.0000   0.0000   0.0000   0.0000   0.0000   0.0000   0.0000   0.0000

          k = 0.3333 0.5774 0.0000 ( 11370 PWs)   bands (ev):

   -92.7266 -92.7266 -92.7242 -56.0151 -56.0143 -56.0143 -55.9841 -55.9832
   -55.9832 -55.9032 -55.9032 -55.9000 -52.3101 -24.2295 -24.2295 -24.1847
   -15.5249 -15.5234 -15.5234 -14.8243 -14.8236 -14.8236  -2.8640  -2.8615
    -2.8615  -2.1670  -2.1600  -2.1600  -1.6707  -1.6707  -1.6692  -1.2256
    -1.2083  -1.2083  -0.1167  -0.1167  -0.1151   0.7486   0.7486   0.7553
     1.8023   1.8045   1.8045   2.1673   2.1675   2.1675   2.5365   2.5425
     2.5425   3.8966   3.9491   3.9491   4.3266   4.5646   4.5646   4.5647
     4.8548   4.8548   7.7850   8.7289   8.7289  11.2359  11.6273  11.6274

     occupation numbers 
     1.0000   1.0000   1.0000   1.0000   1.0000   1.0000   1.0000   1.0000
     1.0000   1.0000   1.0000   1.0000   1.0000   1.0000   1.0000   1.0000
     1.0000   1.0000   1.0000   1.0000   1.0000   1.0000   1.0000   1.0000
     1.0000   1.0000   1.0000   1.0000   1.0000   1.0000   1.0000   1.0000
     1.0000   1.0000   1.0000   1.0000   1.0000   1.0000   1.0000   1.0000
     1.0207   1.0211   1.0211   1.0058   1.0056   1.0056   0.1675   0.1586
     0.1586   0.0000   0.0000   0.0000   0.0000   0.0000   0.0000   0.0000
     0.0000   0.0000   0.0000   0.0000   0.0000   0.0000   0.0000   0.0000

          k = 0.3333 0.5774-0.2526 ( 11340 PWs)   bands (ev):

   -92.7266 -92.7266 -92.7242 -56.0151 -56.0143 -56.0143 -55.9840 -55.9832
   -55.9832 -55.9032 -55.9032 -55.8999 -52.3101 -24.2294 -24.2294 -24.1846
   -15.5249 -15.5234 -15.5234 -14.8243 -14.8236 -14.8236  -2.8642  -2.8616
    -2.8616  -2.1673  -2.1602  -2.1602  -1.6707  -1.6707  -1.6691  -1.2238
    -1.2073  -1.2073  -0.1166  -0.1166  -0.1150   0.7480   0.7480   0.7542
     1.8014   1.8040   1.8040   2.1673   2.1675   2.1675   2.5377   2.5432
     2.5432   3.8447   3.9315   3.9315   4.3915   4.5646   4.5646   4.5647
     4.8818   4.8818   7.7569   8.6925   8.6925  11.3335  11.7969  11.7971

     occupation numbers 
     1.0000   1.0000   1.0000   1.0000   1.0000   1.0000   1.0000   1.0000
     1.0000   1.0000   1.0000   1.0000   1.0000   1.0000   1.0000   1.0000
     1.0000   1.0000   1.0000   1.0000   1.0000   1.0000   1.0000   1.0000
     1.0000   1.0000   1.0000   1.0000   1.0000   1.0000   1.0000   1.0000
     1.0000   1.0000   1.0000   1.0000   1.0000   1.0000   1.0000   1.0000
     1.0204   1.0210   1.0210   1.0058   1.0056   1.0056   0.1657   0.1576
     0.1576   0.0000   0.0000   0.0000   0.0000   0.0000   0.0000   0.0000
     0.0000   0.0000   0.0000   0.0000   0.0000   0.0000   0.0000   0.0000

 ------ SPIN DOWN ----------


          k = 0.0000 0.0000 0.0000 ( 11393 PWs)   bands (ev):

   -93.5259 -93.5206 -93.5205 -56.7732 -56.7653 -56.7634 -56.7432 -56.7432
   -56.7423 -56.7423 -56.7060 -56.7060 -52.3057 -24.2232 -24.2232 -24.1803
   -16.5587 -15.0112 -15.0112 -15.0110 -15.0110 -14.9486  -3.0026  -2.6962
    -2.6962  -2.6922  -2.6922  -2.3405  -2.3405  -2.2681  -2.2596  -0.9233
    -0.9233  -0.9203  -0.9203  -0.5174  -0.5079   0.4649   0.7275   0.7275
     0.7629   0.7635   1.1340   1.1340   1.7134   1.7703   1.7703   1.7734
     1.7734   2.1908   3.7963   3.7963   3.8009   3.8009   4.4292   4.4292
     6.0184   8.4307   9.1728   9.1728   9.9965   9.9965  10.4988  10.8663

     occupation numbers 
     1.0000   1.0000   1.0000   1.0000   1.0000   1.0000   1.0000   1.0000
     1.0000   1.0000   1.0000   1.0000   1.0000   1.0000   1.0000   1.0000
     1.0000   1.0000   1.0000   1.0000   1.0000   1.0000   1.0000   1.0000
     1.0000   1.0000   1.0000   1.0000   1.0000   1.0000   1.0000   1.0000
     1.0000   1.0000   1.0000   1.0000   1.0000   1.0000   1.0000   1.0000
     1.0000   1.0000   1.0000   1.0000   1.0072   1.0146   1.0146   1.0151
     1.0151   0.9712   0.0000   0.0000   0.0000   0.0000   0.0000   0.0000
     0.0000   0.0000   0.0000   0.0000   0.0000   0.0000   0.0000   0.0000

          k = 0.0000 0.0000-0.2526 ( 11446 PWs)   bands (ev):

   -93.5259 -93.5206 -93.5205 -56.7734 -56.7654 -56.7635 -56.7433 -56.7433
   -56.7423 -56.7423 -56.7060 -56.7060 -52.3057 -24.2233 -24.2233 -24.1805
   -16.5587 -15.0112 -15.0112 -15.0111 -15.0111 -14.9487  -3.0001  -2.6962
    -2.6962  -2.6922  -2.6922  -2.3405  -2.3405  -2.2680  -2.2595  -0.9233
    -0.9233  -0.9203  -0.9203  -0.5176  -0.5080   0.4095   0.7275   0.7275
     0.7629   0.7635   1.1339   1.1339   1.7702   1.7702   1.7734   1.7734
     1.8213   2.1858   3.7967   3.7967   3.8012   3.8012   4.4292   4.4292
     5.7494   9.1628   9.1628   9.4408   9.9774   9.9861   9.9861  10.6753

     occupation numbers 
     1.0000   1.0000   1.0000   1.0000   1.0000   1.0000   1.0000   1.0000
     1.0000   1.0000   1.0000   1.0000   1.0000   1.0000   1.0000   1.0000
     1.0000   1.0000   1.0000   1.0000   1.0000   1.0000   1.0000   1.0000
     1.0000   1.0000   1.0000   1.0000   1.0000   1.0000   1.0000   1.0000
     1.0000   1.0000   1.0000   1.0000   1.0000   1.0000   1.0000   1.0000
     1.0000   1.0000   1.0000   1.0000   1.0146   1.0146   1.0151   1.0151
     1.0250   0.9793   0.0000   0.0000   0.0000   0.0000   0.0000   0.0000
     0.0000   0.0000   0.0000   0.0000   0.0000   0.0000   0.0000   0.0000

          k = 0.0000 0.1925 0.0000 ( 11360 PWs)   bands (ev):

   -93.5255 -93.5208 -93.5207 -56.7725 -56.7656 -56.7637 -56.7510 -56.7487
   -56.7333 -56.7322 -56.7106 -56.7071 -52.3057 -24.2233 -24.2232 -24.1801
   -16.4609 -15.1393 -15.0621 -15.0128 -14.9630 -14.9422  -3.1062  -2.8829
    -2.8739  -2.6918  -2.5977  -2.4591  -2.2791  -1.8940  -1.7162  -1.1836
    -1.1604  -1.0227  -0.9894  -0.2276  -0.1819   0.2152   0.3028   0.6845
     0.8354   0.9079   1.1692   1.4346   1.5282   1.5517   1.8273   1.8441
     1.9152   2.3962   3.7615   3.8480   3.8586   3.8656   4.1581   4.3658
     6.2239   7.5028   8.4923   8.7703   9.2189  10.8785  11.0876  11.6091

     occupation numbers 
     1.0000   1.0000   1.0000   1.0000   1.0000   1.0000   1.0000   1.0000
     1.0000   1.0000   1.0000   1.0000   1.0000   1.0000   1.0000   1.0000
     1.0000   1.0000   1.0000   1.0000   1.0000   1.0000   1.0000   1.0000
     1.0000   1.0000   1.0000   1.0000   1.0000   1.0000   1.0000   1.0000
     1.0000   1.0000   1.0000   1.0000   1.0000   1.0000   1.0000   1.0000
     1.0000   1.0000   1.0000   1.0001   1.0004   1.0006   1.0265   1.0310
     1.0538   0.4683   0.0000   0.0000   0.0000   0.0000   0.0000   0.0000
     0.0000   0.0000   0.0000   0.0000   0.0000   0.0000   0.0000   0.0000

          k = 0.0000 0.1925-0.2526 ( 11384 PWs)   bands (ev):

   -93.5255 -93.5208 -93.5207 -56.7726 -56.7657 -56.7637 -56.7510 -56.7487
   -56.7333 -56.7322 -56.7106 -56.7072 -52.3057 -24.2233 -24.2232 -24.1802
   -16.4609 -15.1393 -15.0621 -15.0128 -14.9630 -14.9423  -3.1062  -2.8810
    -2.8736  -2.6918  -2.5977  -2.4595  -2.2791  -1.8939  -1.7162  -1.1837
    -1.1605  -1.0225  -0.9894  -0.2276  -0.1819   0.2154   0.3007   0.6391
     0.8353   0.9079   1.1693   1.4336   1.5283   1.5518   1.8439   1.9143
     1.9149   2.3901   3.7628   3.8482   3.8592   3.8653   4.1742   4.3640
     5.9888   7.4938   8.4835   9.1515   9.7756  10.3171  10.9893  11.0784

     occupation numbers 
     1.0000   1.0000   1.0000   1.0000   1.0000   1.0000   1.0000   1.0000
     1.0000   1.0000   1.0000   1.0000   1.0000   1.0000   1.0000   1.0000
     1.0000   1.0000   1.0000   1.0000   1.0000   1.0000   1.0000   1.0000
     1.0000   1.0000   1.0000   1.0000   1.0000   1.0000   1.0000   1.0000
     1.0000   1.0000   1.0000   1.0000   1.0000   1.0000   1.0000   1.0000
     1.0000   1.0000   1.0000   1.0001   1.0004   1.0006   1.0309   1.0535
     1.0537   0.4845   0.0000   0.0000   0.0000   0.0000   0.0000   0.0000
     0.0000   0.0000   0.0000   0.0000   0.0000   0.0000   0.0000   0.0000

          k = 0.0000 0.3849 0.0000 ( 11350 PWs)   bands (ev):

   -93.5243 -93.5216 -93.5210 -56.7708 -56.7666 -56.7645 -56.7566 -56.7464
   -56.7241 -56.7230 -56.7220 -56.7106 -52.3057 -24.2235 -24.2233 -24.1801
   -16.1897 -15.4248 -15.1007 -15.0632 -14.9308 -14.9285  -3.5155  -2.7320
    -2.7204  -2.6618  -2.5561  -2.3590  -2.1426  -1.6992  -1.5661  -1.3071
    -1.2985  -1.1818  -0.7032  -0.6408  -0.2771   0.0541   0.3578   0.8932
     0.9826   1.1769   1.2791   1.2923   1.3305   1.7043   1.7290   1.9116
     1.9666   2.9876   3.7112   3.7814   3.8083   3.8709   4.1470   4.1785
     5.6399   6.7920   7.9057   8.5301   9.1963   9.6933  11.5376  11.7031

     occupation numbers 
     1.0000   1.0000   1.0000   1.0000   1.0000   1.0000   1.0000   1.0000
     1.0000   1.0000   1.0000   1.0000   1.0000   1.0000   1.0000   1.0000
     1.0000   1.0000   1.0000   1.0000   1.0000   1.0000   1.0000   1.0000
     1.0000   1.0000   1.0000   1.0000   1.0000   1.0000   1.0000   1.0000
     1.0000   1.0000   1.0000   1.0000   1.0000   1.0000   1.0000   1.0000
     1.0000   1.0000   1.0000   1.0000   1.0000   1.0064   1.0089   1.0525
     1.0708   0.0002   0.0000   0.0000   0.0000   0.0000   0.0000   0.0000
     0.0000   0.0000   0.0000   0.0000   0.0000   0.0000   0.0000   0.0000

          k = 0.0000 0.3849-0.2526 ( 11352 PWs)   bands (ev):

   -93.5243 -93.5216 -93.5210 -56.7709 -56.7667 -56.7645 -56.7565 -56.7464
   -56.7242 -56.7230 -56.7220 -56.7106 -52.3057 -24.2234 -24.2233 -24.1802
   -16.1897 -15.4248 -15.1007 -15.0632 -14.9308 -14.9286  -3.5155  -2.7320
    -2.7206  -2.6624  -2.5545  -2.3589  -2.1426  -1.6992  -1.5661  -1.3069
    -1.2981  -1.1819  -0.7027  -0.6408  -0.2771   0.0544   0.3576   0.8932
     0.9612   1.1772   1.2796   1.2924   1.3306   1.7041   1.7243   1.9390
     1.9652   2.9693   3.7751   3.7870   3.8027   3.8708   4.1473   4.1645
     5.6389   6.6433   7.9021   8.5164   9.1996  10.3420  11.3040  11.5581

     occupation numbers 
     1.0000   1.0000   1.0000   1.0000   1.0000   1.0000   1.0000   1.0000
     1.0000   1.0000   1.0000   1.0000   1.0000   1.0000   1.0000   1.0000
     1.0000   1.0000   1.0000   1.0000   1.0000   1.0000   1.0000   1.0000
     1.0000   1.0000   1.0000   1.0000   1.0000   1.0000   1.0000   1.0000
     1.0000   1.0000   1.0000   1.0000   1.0000   1.0000   1.0000   1.0000
     1.0000   1.0000   1.0000   1.0000   1.0000   1.0064   1.0083   1.0620
     1.0704   0.0003   0.0000   0.0000   0.0000   0.0000   0.0000   0.0000
     0.0000   0.0000   0.0000   0.0000   0.0000   0.0000   0.0000   0.0000

          k = 0.0000-0.5774 0.0000 ( 11352 PWs)   bands (ev):

   -93.5229 -93.5229 -93.5211 -56.7691 -56.7680 -56.7649 -56.7585 -56.7369
   -56.7359 -56.7188 -56.7169 -56.7159 -52.3057 -24.2237 -24.2234 -24.1801
   -15.8112 -15.8100 -15.1151 -15.0893 -14.9210 -14.9203  -3.6652  -2.7589
    -2.7527  -2.3427  -2.3426  -2.1023  -1.9960  -1.9955  -1.8646  -1.3262
    -1.3156  -1.3130  -0.8255  -0.8252  -0.1691   0.1581   0.8358   0.8665
     0.8696   1.1630   1.1901   1.1912   1.5777   1.7308   1.7365   1.8946
     1.8955   3.6295   3.6419   3.7309   3.8733   3.8916   4.0432   4.3309
     4.3891   7.4559   7.7046   8.1482   8.3146  10.7924  10.9982  11.3328

     occupation numbers 
     1.0000   1.0000   1.0000   1.0000   1.0000   1.0000   1.0000   1.0000
     1.0000   1.0000   1.0000   1.0000   1.0000   1.0000   1.0000   1.0000
     1.0000   1.0000   1.0000   1.0000   1.0000   1.0000   1.0000   1.0000
     1.0000   1.0000   1.0000   1.0000   1.0000   1.0000   1.0000   1.0000
     1.0000   1.0000   1.0000   1.0000   1.0000   1.0000   1.0000   1.0000
     1.0000   1.0000   1.0000   1.0000   1.0009   1.0091   1.0097   1.0467
     1.0470   0.0000   0.0000   0.0000   0.0000   0.0000   0.0000   0.0000
     0.0000   0.0000   0.0000   0.0000   0.0000   0.0000   0.0000   0.0000

          k = 0.0000-0.5774-0.2526 ( 11344 PWs)   bands (ev):

   -93.5229 -93.5229 -93.5211 -56.7692 -56.7680 -56.7649 -56.7584 -56.7369
   -56.7359 -56.7187 -56.7169 -56.7159 -52.3057 -24.2237 -24.2233 -24.1801
   -15.8112 -15.8100 -15.1151 -15.0893 -14.9210 -14.9204  -3.6651  -2.7595
    -2.7530  -2.3425  -2.3425  -2.1023  -1.9953  -1.9951  -1.8646  -1.3255
    -1.3154  -1.3125  -0.8256  -0.8252  -0.1689   0.1587   0.8358   0.8646
     0.8665   1.1631   1.1906   1.1915   1.5776   1.7362   1.7396   1.8884
     1.8920   3.5104   3.6046   3.8711   3.9252   3.9265   3.9892   4.3308
     4.4064   7.3997   7.7048   8.0795   8.2959  11.0830  11.3318  11.3616

     occupation numbers 
     1.0000   1.0000   1.0000   1.0000   1.0000   1.0000   1.0000   1.0000
     1.0000   1.0000   1.0000   1.0000   1.0000   1.0000   1.0000   1.0000
     1.0000   1.0000   1.0000   1.0000   1.0000   1.0000   1.0000   1.0000
     1.0000   1.0000   1.0000   1.0000   1.0000   1.0000   1.0000   1.0000
     1.0000   1.0000   1.0000   1.0000   1.0000   1.0000   1.0000   1.0000
     1.0000   1.0000   1.0000   1.0000   1.0009   1.0097   1.0101   1.0446
     1.0458   0.0000   0.0000   0.0000   0.0000   0.0000   0.0000   0.0000
     0.0000   0.0000   0.0000   0.0000   0.0000   0.0000   0.0000   0.0000

          k = 0.1667 0.2887 0.0000 ( 11373 PWs)   bands (ev):

   -93.5247 -93.5212 -93.5211 -56.7713 -56.7663 -56.7643 -56.7520 -56.7518
   -56.7256 -56.7254 -56.7191 -56.7091 -52.3057 -24.2235 -24.2233 -24.1801
   -16.2765 -15.2426 -15.2422 -14.9651 -14.9650 -14.9324  -3.1859  -3.1855
    -2.6801  -2.5987  -2.5285  -2.5233  -2.1662  -1.6266  -1.6231  -1.2077
    -1.2025  -1.0254  -1.0215  -0.5758   0.0421   0.0768   0.0778   0.8835
     1.0504   1.0517   1.1932   1.3518   1.3522   1.6364   1.8623   1.8635
     1.9166   2.7858   3.7585   3.7945   3.8006   3.9761   3.9774   4.2991
     6.5416   6.6072   6.8640   9.3900   9.9087  10.2938  10.5304  10.8083

     occupation numbers 
     1.0000   1.0000   1.0000   1.0000   1.0000   1.0000   1.0000   1.0000
     1.0000   1.0000   1.0000   1.0000   1.0000   1.0000   1.0000   1.0000
     1.0000   1.0000   1.0000   1.0000   1.0000   1.0000   1.0000   1.0000
     1.0000   1.0000   1.0000   1.0000   1.0000   1.0000   1.0000   1.0000
     1.0000   1.0000   1.0000   1.0000   1.0000   1.0000   1.0000   1.0000
     1.0000   1.0000   1.0000   1.0000   1.0000   1.0024   1.0363   1.0367
     1.0543   0.0081   0.0000   0.0000   0.0000   0.0000   0.0000   0.0000
     0.0000   0.0000   0.0000   0.0000   0.0000   0.0000   0.0000   0.0000

          k = 0.1667 0.2887-0.2526 ( 11348 PWs)   bands (ev):

   -93.5247 -93.5212 -93.5211 -56.7714 -56.7662 -56.7643 -56.7519 -56.7517
   -56.7255 -56.7253 -56.7191 -56.7091 -52.3057 -24.2234 -24.2232 -24.1802
   -16.2765 -15.2426 -15.2421 -14.9650 -14.9650 -14.9325  -3.1859  -3.1855
    -2.6790  -2.5986  -2.5285  -2.5233  -2.1662  -1.6267  -1.6231  -1.2073
    -1.2023  -1.0254  -1.0215  -0.5753   0.0422   0.0770   0.0779   0.8589
     1.0505   1.0518   1.1865   1.3519   1.3523   1.6365   1.8619   1.8632
     1.9567   2.7800   3.7944   3.7952   3.8009   3.9763   3.9775   4.2991
     6.4313   6.5343   6.8580   9.9245  10.0892  10.2881  10.5697  10.8561

     occupation numbers 
     1.0000   1.0000   1.0000   1.0000   1.0000   1.0000   1.0000   1.0000
     1.0000   1.0000   1.0000   1.0000   1.0000   1.0000   1.0000   1.0000
     1.0000   1.0000   1.0000   1.0000   1.0000   1.0000   1.0000   1.0000
     1.0000   1.0000   1.0000   1.0000   1.0000   1.0000   1.0000   1.0000
     1.0000   1.0000   1.0000   1.0000   1.0000   1.0000   1.0000   1.0000
     1.0000   1.0000   1.0000   1.0000   1.0000   1.0024   1.0362   1.0366
     1.0678   0.0088   0.0000   0.0000   0.0000   0.0000   0.0000   0.0000
     0.0000   0.0000   0.0000   0.0000   0.0000   0.0000   0.0000   0.0000

          k = 0.1667 0.4811 0.0000 ( 11356 PWs)   bands (ev):

   -93.5234 -93.5221 -93.5214 -56.7695 -56.7674 -56.7651 -56.7546 -56.7452
   -56.7326 -56.7189 -56.7186 -56.7130 -52.3057 -24.2236 -24.2234 -24.1802
   -15.9519 -15.5718 -15.3109 -14.9798 -14.9303 -14.9234  -3.4457  -2.9592
    -2.7929  -2.4402  -2.3166  -2.2903  -2.0255  -1.8072  -1.8040  -1.4601
    -1.3857  -1.3087  -0.7224  -0.3838  -0.3531   0.2052   0.5454   0.9078
     1.0050   1.1896   1.2136   1.2830   1.4946   1.6678   1.7257   1.8572
     1.8690   3.4217   3.6195   3.6774   3.7807   4.0627   4.1935   4.2569
     5.0118   6.3064   7.3052   8.6445   9.8854  10.0749  10.4403  11.6714

     occupation numbers 
     1.0000   1.0000   1.0000   1.0000   1.0000   1.0000   1.0000   1.0000
     1.0000   1.0000   1.0000   1.0000   1.0000   1.0000   1.0000   1.0000
     1.0000   1.0000   1.0000   1.0000   1.0000   1.0000   1.0000   1.0000
     1.0000   1.0000   1.0000   1.0000   1.0000   1.0000   1.0000   1.0000
     1.0000   1.0000   1.0000   1.0000   1.0000   1.0000   1.0000   1.0000
     1.0000   1.0000   1.0000   1.0000   1.0002   1.0039   1.0085   1.0348
     1.0384   0.0000   0.0000   0.0000   0.0000   0.0000   0.0000   0.0000
     0.0000   0.0000   0.0000   0.0000   0.0000   0.0000   0.0000   0.0000

          k = 0.1667 0.4811-0.2526 ( 11352 PWs)   bands (ev):

   -93.5234 -93.5221 -93.5214 -56.7695 -56.7674 -56.7651 -56.7546 -56.7452
   -56.7326 -56.7189 -56.7185 -56.7129 -52.3057 -24.2236 -24.2233 -24.1802
   -15.9519 -15.5718 -15.3109 -14.9798 -14.9303 -14.9234  -3.4457  -2.9594
    -2.7933  -2.4404  -2.3159  -2.2904  -2.0254  -1.8071  -1.8040  -1.4594
    -1.3850  -1.3084  -0.7224  -0.3838  -0.3531   0.2055   0.5450   0.9036
     1.0051   1.1898   1.2109   1.2830   1.4952   1.6676   1.7252   1.8558
     1.8749   3.3392   3.6150   3.7706   3.7951   4.0651   4.1878   4.2570
     5.0223   6.3048   7.2188   8.6196   9.9148  10.0701  10.8513  12.0994

     occupation numbers 
     1.0000   1.0000   1.0000   1.0000   1.0000   1.0000   1.0000   1.0000
     1.0000   1.0000   1.0000   1.0000   1.0000   1.0000   1.0000   1.0000
     1.0000   1.0000   1.0000   1.0000   1.0000   1.0000   1.0000   1.0000
     1.0000   1.0000   1.0000   1.0000   1.0000   1.0000   1.0000   1.0000
     1.0000   1.0000   1.0000   1.0000   1.0000   1.0000   1.0000   1.0000
     1.0000   1.0000   1.0000   1.0000   1.0002   1.0038   1.0084   1.0343
     1.0402   0.0000   0.0000   0.0000   0.0000   0.0000   0.0000   0.0000
     0.0000   0.0000   0.0000   0.0000   0.0000   0.0000   0.0000   0.0000

          k = 0.3333 0.5774 0.0000 ( 11370 PWs)   bands (ev):

   -93.5223 -93.5223 -93.5222 -56.7682 -56.7682 -56.7656 -56.7457 -56.7457
   -56.7449 -56.7158 -56.7158 -56.7151 -52.3057 -24.2236 -24.2236 -24.1802
   -15.6289 -15.6274 -15.6274 -14.9339 -14.9333 -14.9333  -3.0652  -3.0635
    -3.0635  -2.3105  -2.3044  -2.3044  -1.8963  -1.8963  -1.8947  -1.5589
    -1.5436  -1.5436  -0.3346  -0.3346  -0.3329   0.5620   0.5620   0.5682
     1.1363   1.1363   1.1367   1.5348   1.5348   1.5364   1.7413   1.7455
     1.7455   3.5266   3.5553   3.5553   4.2623   4.2623   4.2627   4.3454
     4.9861   4.9861   7.7779   8.7308   8.7308  11.1955  11.5498  11.5498

     occupation numbers 
     1.0000   1.0000   1.0000   1.0000   1.0000   1.0000   1.0000   1.0000
     1.0000   1.0000   1.0000   1.0000   1.0000   1.0000   1.0000   1.0000
     1.0000   1.0000   1.0000   1.0000   1.0000   1.0000   1.0000   1.0000
     1.0000   1.0000   1.0000   1.0000   1.0000   1.0000   1.0000   1.0000
     1.0000   1.0000   1.0000   1.0000   1.0000   1.0000   1.0000   1.0000
     1.0000   1.0000   1.0000   1.0004   1.0004   1.0004   1.0103   1.0109
     1.0109   0.0000   0.0000   0.0000   0.0000   0.0000   0.0000   0.0000
     0.0000   0.0000   0.0000   0.0000   0.0000   0.0000   0.0000   0.0000

          k = 0.3333 0.5774-0.2526 ( 11340 PWs)   bands (ev):

   -93.5223 -93.5223 -93.5222 -56.7682 -56.7682 -56.7656 -56.7457 -56.7457
   -56.7449 -56.7158 -56.7158 -56.7151 -52.3057 -24.2235 -24.2235 -24.1801
   -15.6288 -15.6274 -15.6274 -14.9339 -14.9333 -14.9333  -3.0654  -3.0636
    -3.0636  -2.3108  -2.3046  -2.3046  -1.8963  -1.8963  -1.8947  -1.5576
    -1.5429  -1.5429  -0.3346  -0.3346  -0.3328   0.5618   0.5618   0.5677
     1.1361   1.1361   1.1365   1.5348   1.5348   1.5364   1.7418   1.7458
     1.7458   3.5019   3.5461   3.5461   4.2623   4.2623   4.2627   4.3804
     5.0033   5.0033   7.7539   8.6967   8.6967  11.3017  11.7367  11.7368

     occupation numbers 
     1.0000   1.0000   1.0000   1.0000   1.0000   1.0000   1.0000   1.0000
     1.0000   1.0000   1.0000   1.0000   1.0000   1.0000   1.0000   1.0000
     1.0000   1.0000   1.0000   1.0000   1.0000   1.0000   1.0000   1.0000
     1.0000   1.0000   1.0000   1.0000   1.0000   1.0000   1.0000   1.0000
     1.0000   1.0000   1.0000   1.0000   1.0000   1.0000   1.0000   1.0000
     1.0000   1.0000   1.0000   1.0004   1.0004   1.0004   1.0104   1.0109
     1.0109   0.0000   0.0000   0.0000   0.0000   0.0000   0.0000   0.0000
     0.0000   0.0000   0.0000   0.0000   0.0000   0.0000   0.0000   0.0000

     the Fermi energy is     2.4223 ev

!    total energy              =   -1489.11268750 Ry
     total all-electron energy =     -9588.347495 Ry
     estimated scf accuracy    <       0.00000009 Ry
     smearing contrib. (-TS)   =       0.00559558 Ry
     internal energy E=F+TS    =   -1489.11828308 Ry

     The total energy is F=E-TS. E is the sum of the following terms:
     one-electron contribution =   -2369.31922937 Ry
     hartree contribution      =    1211.37281124 Ry
     xc contribution           =    -150.13890711 Ry
     ewald contribution        =     154.48887807 Ry
     one-center paw contrib.   =    -335.52183591 Ry
      -> PAW hartree energy AE =     880.59200822 Ry
      -> PAW hartree energy PS =    -878.32152972 Ry
      -> PAW xc energy AE      =    -479.83516675 Ry
      -> PAW xc energy PS      =     142.04285234 Ry
      -> total E_H with PAW    =    1213.64328974 Ry
      -> total E_XC with PAW   =    -487.93122152 Ry

     total magnetization       =    -2.44 Bohr mag/cell
     absolute magnetization    =     2.59 Bohr mag/cell

     convergence has been achieved in  34 iterations

     Forces acting on atoms (cartesian axes, Ry/au):

     atom    1 type  1   force =     0.00000000    0.00000000    0.00000000
     atom    2 type  1   force =     0.00000000    0.00000000    0.00000000
     atom    3 type  1   force =     0.00000000    0.00000000   -0.00000000
     atom    4 type  2   force =    -0.00031189   -0.00054021   -0.05686839
     atom    5 type  2   force =     0.00062378   -0.00000000   -0.05686839
     atom    6 type  2   force =    -0.00031189    0.00054021   -0.05686839
     atom    7 type  2   force =    -0.00062378    0.00000000    0.05686839
     atom    8 type  2   force =     0.00031189    0.00054021    0.05686839
     atom    9 type  2   force =     0.00031189   -0.00054021    0.05686839
     atom   10 type  3   force =     0.00000000   -0.00000000    0.00000000
     The non-local contrib.  to forces
     atom    1 type  1   force =     0.00000000    0.00000000    0.00000000
     atom    2 type  1   force =    -0.00000000   -0.00000000    0.00000000
     atom    3 type  1   force =     0.00000000    0.00000000    0.00000000
     atom    4 type  2   force =    -0.00276416   -0.00478766   -1.22909998
     atom    5 type  2   force =     0.00552832   -0.00000000   -1.22909998
     atom    6 type  2   force =    -0.00276416    0.00478766   -1.22909998
     atom    7 type  2   force =    -0.00552832    0.00000000    1.22909998
     atom    8 type  2   force =     0.00276416    0.00478766    1.22909998
     atom    9 type  2   force =     0.00276416   -0.00478766    1.22909998
     atom   10 type  3   force =     0.00000000    0.00000000    0.00000000
     The ionic contribution  to forces
     atom    1 type  1   force =    -0.00000000   -0.00000000    0.00000000
     atom    2 type  1   force =     0.00000002   -0.00000001   -0.00000000
     atom    3 type  1   force =    -0.00000002    0.00000001   -0.00000000
     atom    4 type  2   force =     0.04614092    0.07991842   38.60265854
     atom    5 type  2   force =    -0.09228183   -0.00000000   38.60265855
     atom    6 type  2   force =     0.04614091   -0.07991841   38.60265855
     atom    7 type  2   force =     0.09228183    0.00000000  -38.60265855
     atom    8 type  2   force =    -0.04614092   -0.07991842  -38.60265854
     atom    9 type  2   force =    -0.04614091    0.07991841  -38.60265855
     atom   10 type  3   force =     0.00000000    0.00000000    0.00000000
     The local contribution  to forces
     atom    1 type  1   force =     0.00000000    0.00000000    0.00000000
     atom    2 type  1   force =     0.00000021   -0.00000012    0.00000000
     atom    3 type  1   force =    -0.00000021    0.00000012    0.00000000
     atom    4 type  2   force =    -0.04376572   -0.07580445  -37.44152499
     atom    5 type  2   force =     0.08753144   -0.00000000  -37.44152499
     atom    6 type  2   force =    -0.04376572    0.07580445  -37.44152499
     atom    7 type  2   force =    -0.08753144   -0.00000000   37.44152499
     atom    8 type  2   force =     0.04376572    0.07580445   37.44152499
     atom    9 type  2   force =     0.04376572   -0.07580445   37.44152499
     atom   10 type  3   force =     0.00000000    0.00000000    0.00000000
     The core correction contribution to forces
     atom    1 type  1   force =     0.00000000    0.00000000    0.00000000
     atom    2 type  1   force =     0.00000000   -0.00000000   -0.00000000
     atom    3 type  1   force =    -0.00000000    0.00000000   -0.00000000
     atom    4 type  2   force =     0.00002509    0.00004345    0.01108455
     atom    5 type  2   force =    -0.00005017    0.00000000    0.01108455
     atom    6 type  2   force =     0.00002509   -0.00004345    0.01108455
     atom    7 type  2   force =     0.00005017   -0.00000000   -0.01108455
     atom    8 type  2   force =    -0.00002509   -0.00004345   -0.01108455
     atom    9 type  2   force =    -0.00002509    0.00004345   -0.01108455
     atom   10 type  3   force =     0.00000000    0.00000000    0.00000000
     The Hubbard contrib.    to forces
     atom    1 type  1   force =     0.00000000    0.00000000    0.00000000
     atom    2 type  1   force =     0.00000000    0.00000000    0.00000000
     atom    3 type  1   force =     0.00000000    0.00000000    0.00000000
     atom    4 type  2   force =     0.00000000    0.00000000    0.00000000
     atom    5 type  2   force =     0.00000000    0.00000000    0.00000000
     atom    6 type  2   force =     0.00000000    0.00000000    0.00000000
     atom    7 type  2   force =     0.00000000    0.00000000    0.00000000
     atom    8 type  2   force =     0.00000000    0.00000000    0.00000000
     atom    9 type  2   force =     0.00000000    0.00000000    0.00000000
     atom   10 type  3   force =     0.00000000    0.00000000    0.00000000
     The SCF correction term to forces
     atom    1 type  1   force =     0.00000000    0.00000000    0.00000000
     atom    2 type  1   force =    -0.00000000    0.00000000    0.00000000
     atom    3 type  1   force =     0.00000000   -0.00000000    0.00000000
     atom    4 type  2   force =     0.00005199    0.00009004    0.00001349
     atom    5 type  2   force =    -0.00010397   -0.00000000    0.00001349
     atom    6 type  2   force =     0.00005199   -0.00009004    0.00001349
     atom    7 type  2   force =     0.00010397    0.00000000   -0.00001349
     atom    8 type  2   force =    -0.00005199   -0.00009004   -0.00001349
     atom    9 type  2   force =    -0.00005199    0.00009004   -0.00001349
     atom   10 type  3   force =     0.00000000    0.00000000   -0.00000000

     Total force =     0.139307     Total SCF correction =     0.000257

     Writing all to output data dir ./out/pw.save/ :
     XML data file, charge density, pseudopotentials, collected wavefunctions
 
     init_run     :     22.36s CPU      4.96s WALL (       1 calls)
     electrons    :    404.50s CPU     94.80s WALL (       1 calls)
     forces       :      0.84s CPU      0.77s WALL (       1 calls)

     Called by init_run:
     wfcinit      :      0.50s CPU      0.60s WALL (       1 calls)
     wfcinit:atom :      0.05s CPU      0.05s WALL (      28 calls)
     wfcinit:wfcr :      0.30s CPU      0.32s WALL (      28 calls)
     potinit      :     21.12s CPU      3.55s WALL (       1 calls)
     hinit0       :      0.57s CPU      0.55s WALL (       1 calls)

     Called by electrons:
     c_bands      :     35.65s CPU     35.96s WALL (      34 calls)
     sum_band     :      7.45s CPU      7.45s WALL (      34 calls)
     v_of_rho     :      0.87s CPU      0.54s WALL (      35 calls)
     v_h          :      0.51s CPU      0.13s WALL (      35 calls)
     v_xc         :      0.37s CPU      0.42s WALL (      36 calls)
     newd         :      0.83s CPU      0.74s WALL (      35 calls)
                                        0.74s GPU  (      35 calls)
     PAW_pot      :    366.82s CPU     48.85s WALL (      35 calls)
     mix_rho      :      1.96s CPU      1.95s WALL (      34 calls)

     Called by c_bands:
     init_us_2    :      1.21s CPU      1.19s WALL (    1960 calls)
     cegterg      :     27.32s CPU     27.45s WALL (     952 calls)

     Called by sum_band:
     sum_band:wei :      0.05s CPU      0.06s WALL (      34 calls)
                                        0.06s GPU  (      34 calls)
     sum_band:loo :      5.39s CPU      5.36s WALL (      34 calls)
                                        5.36s GPU  (      34 calls)
     sum_band:buf :      2.19s CPU      2.22s WALL (     952 calls)
                                        2.21s GPU  (     952 calls)
     sum_band:ini :      0.60s CPU      0.61s WALL (     952 calls)
                                        0.60s GPU  (     952 calls)
     sum_band:cal :      0.14s CPU      0.18s WALL (     952 calls)
                                        0.12s GPU  (     952 calls)
     sum_band:bec :      0.47s CPU      0.48s WALL (     952 calls)
                                        0.47s GPU  (     952 calls)
     addusdens    :      1.33s CPU      1.34s WALL (      34 calls)
                                        1.34s GPU  (      34 calls)
     addusd:skk   :      0.01s CPU      0.01s WALL (     102 calls)
                                        0.01s GPU  (     102 calls)

     Called by *egterg:
     cdiaghg      :     10.49s CPU     10.61s WALL (    4682 calls)
                                       10.56s GPU  (    4682 calls)
     cegterg:over :      1.24s CPU      1.26s WALL (    3730 calls)
     cegterg:upda :      1.41s CPU      1.41s WALL (    3730 calls)
     cegterg:last :      0.29s CPU      0.29s WALL (    1865 calls)
     h_psi        :     11.29s CPU     11.42s WALL (    4710 calls)
                                       11.36s GPU  (    4710 calls)
     s_psi        :      1.44s CPU      1.47s WALL (    4710 calls)
     g_psi        :      0.02s CPU      0.17s WALL (    3730 calls)
                                        0.13s GPU  (    3730 calls)

     Called by h_psi:
     h_psi:calbec :      0.22s CPU      0.47s WALL (    4710 calls)
                                        0.41s GPU  (    4710 calls)
     vloc_psi     :      8.94s CPU      8.97s WALL (    4710 calls)
                                        8.91s GPU  (    4710 calls)
     add_vuspsi   :      1.37s CPU      1.63s WALL (    4710 calls)
                                        1.57s GPU  (    4710 calls)

     General routines
     calbec       :      0.29s CPU      0.31s WALL (    5774 calls)
     fft          :      7.27s CPU      1.23s WALL (     888 calls)
                                        0.05s GPU  (     818 calls)
     ffts         :      3.65s CPU      0.97s WALL (    1669 calls)
                                        0.05s GPU  (    1599 calls)
     fftw         :      0.41s CPU      5.97s WALL (   26196 calls)
                                        5.68s GPU  (   26196 calls)
     interpolate  :     11.41s CPU      2.24s WALL (      70 calls)
 
     Parallel routines

     PAW routines
     PAW_pot      :    366.82s CPU     48.85s WALL (      35 calls)
     PAW_symme    :      0.07s CPU      0.03s WALL (      69 calls)
 
     PWSCF        :   7m 8.51s CPU   1m41.23s WALL

 
   This run was terminated on:   7:13:36  12Jul2026            

=------------------------------------------------------------------------------=
   JOB DONE.
=------------------------------------------------------------------------------=
Warning: ieee_divide_by_zero is signaling
Warning: ieee_inexact is signaling
FORTRAN STOP
