
     Program PROJWFC v.7.3.1 starts on 12Jul2026 at  6:28:49 

     This program is part of the open-source Quantum ESPRESSO suite
     for quantum simulation of materials; please cite
         "P. Giannozzi et al., J. Phys.:Condens. Matter 21 395502 (2009);
         "P. Giannozzi et al., J. Phys.:Condens. Matter 29 465901 (2017);
         "P. Giannozzi et al., J. Chem. Phys. 152 154105 (2020);
          URL http://www.quantum-espresso.org", 
     in publications or presentations arising from this work. More details at
     http://www.quantum-espresso.org/quote

     Serial version
     1359579 MiB available memory on the printing compute node when the environment starts


     Reading xml data from directory:

     ./out/pw.save/
     file Co.pbe-spn-kjpaw_psl.0.3.1.UPF: wavefunction(s)  3P 3D renormalized
     file O.pbe-n-kjpaw_psl.1.0.0.UPF: wavefunction(s)  2S 2P renormalized
     file Na.pbe-spn-kjpaw_psl.1.0.0.UPF: wavefunction(s)  2P renormalized

     IMPORTANT: XC functional enforced from input :
     Exchange-correlation= PBE
                           (   1   4   3   4   0   0   0)
     Any further DFT definition will be discarded
     Please, verify this is what you really want


     G-vector sticks info
     --------------------
     sticks:   dense  smooth     PW     G-vecs:    dense   smooth      PW
     Sum         979     499    151                47419    16845    2771

     Using Slab Decomposition


     Check: negative core charge=   -0.000009

     Gaussian broadening (read from input): ngauss,degauss=   0    0.020000


     Calling projwave .... 

  Problem Sizes 
  natomwfc =           23
  nbnd     =           27
  nkstot   =          120
  npwx     =         2129
  nkb      =           42


     Atomic states used for projection
     (read from pseudopotential files):

     state #   1: atom   1 (Co ), wfc  1 (l=0 m= 1)
     state #   2: atom   1 (Co ), wfc  2 (l=0 m= 1)
     state #   3: atom   1 (Co ), wfc  3 (l=1 m= 1)
     state #   4: atom   1 (Co ), wfc  3 (l=1 m= 2)
     state #   5: atom   1 (Co ), wfc  3 (l=1 m= 3)
     state #   6: atom   1 (Co ), wfc  4 (l=2 m= 1)
     state #   7: atom   1 (Co ), wfc  4 (l=2 m= 2)
     state #   8: atom   1 (Co ), wfc  4 (l=2 m= 3)
     state #   9: atom   1 (Co ), wfc  4 (l=2 m= 4)
     state #  10: atom   1 (Co ), wfc  4 (l=2 m= 5)
     state #  11: atom   2 (O  ), wfc  1 (l=0 m= 1)
     state #  12: atom   2 (O  ), wfc  2 (l=1 m= 1)
     state #  13: atom   2 (O  ), wfc  2 (l=1 m= 2)
     state #  14: atom   2 (O  ), wfc  2 (l=1 m= 3)
     state #  15: atom   3 (O  ), wfc  1 (l=0 m= 1)
     state #  16: atom   3 (O  ), wfc  2 (l=1 m= 1)
     state #  17: atom   3 (O  ), wfc  2 (l=1 m= 2)
     state #  18: atom   3 (O  ), wfc  2 (l=1 m= 3)
     state #  19: atom   4 (Na ), wfc  1 (l=0 m= 1)
     state #  20: atom   4 (Na ), wfc  2 (l=0 m= 1)
     state #  21: atom   4 (Na ), wfc  3 (l=1 m= 1)
     state #  22: atom   4 (Na ), wfc  3 (l=1 m= 2)
     state #  23: atom   4 (Na ), wfc  3 (l=1 m= 3)

 k =   0.0000000000  0.0000000000  0.0000000000
==== e(   1) =   -84.82546 eV ==== 
     psi = 0.960*[#   1]+0.027*[#  20]+0.005*[#  12]+0.005*[#  16]+0.002*[#   2]
          
    |psi|^2 = 1.000
==== e(   2) =   -48.12114 eV ==== 
     psi = 0.499*[#   4]+0.499*[#   5]
    |psi|^2 = 1.000
==== e(   3) =   -48.12114 eV ==== 
     psi = 0.499*[#   4]+0.499*[#   5]
    |psi|^2 = 1.000
==== e(   4) =   -47.99200 eV ==== 
     psi = 0.998*[#   3]+0.001*[#  11]+0.001*[#  15]
    |psi|^2 = 1.000
==== e(   5) =   -42.00637 eV ==== 
     psi = 0.963*[#  19]+0.031*[#  20]+0.002*[#   2]+0.001*[#  12]+0.001*[#  16]
          
    |psi|^2 = 1.000
==== e(   6) =   -13.91428 eV ==== 
     psi = 0.985*[#  21]+0.006*[#  11]+0.006*[#  15]+0.001*[#  12]+0.001*[#  16]
          
    |psi|^2 = 1.000
==== e(   7) =   -13.82192 eV ==== 
     psi = 0.500*[#  22]+0.500*[#  23]
    |psi|^2 = 1.000
==== e(   8) =   -13.82192 eV ==== 
     psi = 0.500*[#  22]+0.500*[#  23]
    |psi|^2 = 1.000
==== e(   9) =    -9.75005 eV ==== 
     psi = 0.295*[#  11]+0.295*[#  15]+0.237*[#   2]+0.138*[#  20]+0.013*[#   1]
          +0.006*[#  12]+0.006*[#  16]+0.005*[#  19]+0.004*[#   6]
    |psi|^2 = 0.999
==== e(  10) =    -7.86759 eV ==== 
     psi = 0.488*[#  11]+0.488*[#  15]+0.012*[#  21]+0.002*[#   3]+0.002*[#  12]
          +0.002*[#  16]
    |psi|^2 = 0.994
==== e(  11) =     3.53454 eV ==== 
     psi = 0.324*[#  12]+0.324*[#  16]+0.182*[#   6]+0.116*[#  20]+0.032*[#   2]
          +0.009*[#  19]+0.005*[#  11]+0.005*[#  15]+0.001*[#   1]
    |psi|^2 = 0.999
==== e(  12) =     4.90323 eV ==== 
     psi = 0.167*[#   9]+0.167*[#  10]+0.139*[#  13]+0.139*[#  14]+0.139*[#  17]
          +0.139*[#  18]+0.054*[#   7]+0.054*[#   8]
    |psi|^2 = 0.998
==== e(  13) =     4.90323 eV ==== 
     psi = 0.167*[#   9]+0.167*[#  10]+0.139*[#  13]+0.139*[#  14]+0.139*[#  17]
          +0.139*[#  18]+0.054*[#   7]+0.054*[#   8]
    |psi|^2 = 0.998
==== e(  14) =     7.54631 eV ==== 
     psi = 0.488*[#  12]+0.488*[#  16]+0.003*[#  11]+0.003*[#  15]+0.002*[#  21]
          
    |psi|^2 = 0.983
==== e(  15) =     8.08264 eV ==== 
     psi = 0.248*[#  13]+0.248*[#  14]+0.248*[#  17]+0.248*[#  18]
    |psi|^2 = 0.994
==== e(  16) =     8.08264 eV ==== 
     psi = 0.248*[#  13]+0.248*[#  14]+0.248*[#  17]+0.248*[#  18]
    |psi|^2 = 0.994
==== e(  17) =     9.10598 eV ==== 
     psi = 0.346*[#   7]+0.346*[#   8]+0.151*[#   9]+0.151*[#  10]
    |psi|^2 = 0.998
==== e(  18) =     9.10598 eV ==== 
     psi = 0.346*[#   7]+0.346*[#   8]+0.151*[#   9]+0.151*[#  10]
    |psi|^2 = 0.998
==== e(  19) =     9.96882 eV ==== 
     psi = 0.794*[#   6]+0.055*[#  12]+0.055*[#  16]+0.049*[#  20]+0.043*[#   2]
          
    |psi|^2 = 0.997
==== e(  20) =    12.47382 eV ==== 
     psi = 0.181*[#   9]+0.181*[#  10]+0.109*[#  13]+0.109*[#  14]+0.109*[#  17]
          +0.109*[#  18]+0.098*[#   7]+0.098*[#   8]
    |psi|^2 = 0.994
==== e(  21) =    12.47382 eV ==== 
     psi = 0.181*[#   9]+0.181*[#  10]+0.109*[#  13]+0.109*[#  14]+0.109*[#  17]
          +0.109*[#  18]+0.098*[#   7]+0.098*[#   8]
    |psi|^2 = 0.994
==== e(  22) =    12.90674 eV ==== 
     psi = 0.573*[#  20]+0.134*[#  11]+0.134*[#  15]+0.037*[#  12]+0.037*[#  16]
          +0.022*[#   1]+0.021*[#  19]+0.016*[#   2]+0.005*[#   6]
    |psi|^2 = 0.981
==== e(  23) =    18.17152 eV ==== 
     psi = 0.006*[#  12]+0.006*[#  16]+0.002*[#  11]+0.002*[#  15]
    |psi|^2 = 0.016
==== e(  24) =    19.47671 eV ==== 
     psi = 0.592*[#   2]+0.061*[#  11]+0.061*[#  15]+0.057*[#  12]+0.057*[#  16]
          +0.035*[#  20]+0.014*[#   6]+0.002*[#   1]
    |psi|^2 = 0.879
==== e(  25) =    25.58230 eV ==== 
     psi = 0.001*[#  12]+0.001*[#  16]
    |psi|^2 = 0.002
==== e(  26) =    27.76357 eV ==== 

    |psi|^2 = 0.002
==== e(  27) =    27.76357 eV ==== 

    |psi|^2 = 0.002

 k =   0.0227272727  0.0131215970  0.0000000000
==== e(   1) =   -84.82543 eV ==== 
     psi = 0.960*[#   1]+0.027*[#  20]+0.005*[#  12]+0.005*[#  16]+0.002*[#   2]
          
    |psi|^2 = 1.000
==== e(   2) =   -48.12146 eV ==== 
     psi = 0.499*[#   4]+0.499*[#   5]
    |psi|^2 = 1.000
==== e(   3) =   -48.12122 eV ==== 
     psi = 0.499*[#   4]+0.499*[#   5]
    |psi|^2 = 1.000
==== e(   4) =   -47.99198 eV ==== 
     psi = 0.998*[#   3]
    |psi|^2 = 1.000
==== e(   5) =   -42.00620 eV ==== 
     psi = 0.963*[#  19]+0.031*[#  20]+0.002*[#   2]+0.001*[#  12]+0.001*[#  16]
          
    |psi|^2 = 1.000
==== e(   6) =   -13.91386 eV ==== 
     psi = 0.986*[#  21]+0.006*[#  11]+0.006*[#  15]+0.001*[#  12]+0.001*[#  16]
          
    |psi|^2 = 1.000
==== e(   7) =   -13.82363 eV ==== 
     psi = 0.500*[#  22]+0.500*[#  23]
    |psi|^2 = 1.000
==== e(   8) =   -13.82225 eV ==== 
     psi = 0.500*[#  22]+0.500*[#  23]
    |psi|^2 = 1.000
==== e(   9) =    -9.74398 eV ==== 
     psi = 0.296*[#  11]+0.296*[#  15]+0.236*[#   2]+0.138*[#  20]+0.013*[#   1]
          +0.006*[#  12]+0.006*[#  16]+0.005*[#  19]+0.004*[#   6]
    |psi|^2 = 0.999
==== e(  10) =    -7.86767 eV ==== 
     psi = 0.488*[#  11]+0.488*[#  15]+0.012*[#  21]+0.002*[#   3]+0.002*[#  12]
          +0.002*[#  16]
    |psi|^2 = 0.994
==== e(  11) =     3.54269 eV ==== 
     psi = 0.325*[#  12]+0.325*[#  16]+0.182*[#   6]+0.116*[#  20]+0.032*[#   2]
          +0.009*[#  19]+0.005*[#  11]+0.005*[#  15]+0.001*[#   1]
    |psi|^2 = 0.999
==== e(  12) =     4.89252 eV ==== 
     psi = 0.166*[#   9]+0.166*[#  10]+0.138*[#  13]+0.138*[#  14]+0.138*[#  17]
          +0.138*[#  18]+0.054*[#   7]+0.054*[#   8]+0.002*[#  12]+0.002*[#  16]
          
    |psi|^2 = 0.998
==== e(  13) =     4.90652 eV ==== 
     psi = 0.167*[#   9]+0.167*[#  10]+0.139*[#  13]+0.139*[#  14]+0.139*[#  17]
          +0.139*[#  18]+0.055*[#   7]+0.055*[#   8]
    |psi|^2 = 0.998
==== e(  14) =     7.55716 eV ==== 
     psi = 0.485*[#  12]+0.485*[#  16]+0.003*[#  11]+0.003*[#  15]+0.002*[#  21]
          
    |psi|^2 = 0.983
==== e(  15) =     8.03521 eV ==== 
     psi = 0.243*[#  13]+0.243*[#  14]+0.243*[#  17]+0.243*[#  18]+0.007*[#   7]
          +0.007*[#   8]+0.002*[#   9]+0.002*[#  10]+0.001*[#   2]+0.001*[#   6]
          
    |psi|^2 = 0.994
==== e(  16) =     8.05981 eV ==== 
     psi = 0.244*[#  13]+0.244*[#  14]+0.244*[#  17]+0.244*[#  18]+0.007*[#   7]
          +0.007*[#   8]+0.002*[#   9]+0.002*[#  10]
    |psi|^2 = 0.994
==== e(  17) =     9.12387 eV ==== 
     psi = 0.339*[#   7]+0.339*[#   8]+0.150*[#   9]+0.150*[#  10]+0.005*[#  13]
          +0.005*[#  14]+0.005*[#  17]+0.005*[#  18]
    |psi|^2 = 0.998
==== e(  18) =     9.12604 eV ==== 
     psi = 0.338*[#   7]+0.338*[#   8]+0.150*[#   9]+0.150*[#  10]+0.005*[#  13]
          +0.005*[#  14]+0.005*[#  17]+0.005*[#  18]
    |psi|^2 = 0.998
==== e(  19) =     9.97068 eV ==== 
     psi = 0.794*[#   6]+0.055*[#  12]+0.055*[#  16]+0.049*[#  20]+0.042*[#   2]
          
    |psi|^2 = 0.997
==== e(  20) =    12.45639 eV ==== 
     psi = 0.181*[#   9]+0.181*[#  10]+0.108*[#  13]+0.108*[#  14]+0.108*[#  17]
          +0.108*[#  18]+0.098*[#   7]+0.098*[#   8]
    |psi|^2 = 0.993
==== e(  21) =    12.47013 eV ==== 
     psi = 0.180*[#   9]+0.180*[#  10]+0.109*[#  13]+0.109*[#  14]+0.109*[#  17]
          +0.109*[#  18]+0.099*[#   7]+0.099*[#   8]
    |psi|^2 = 0.993
==== e(  22) =    12.92775 eV ==== 
     psi = 0.573*[#  20]+0.133*[#  11]+0.133*[#  15]+0.037*[#  12]+0.037*[#  16]
          +0.022*[#   1]+0.021*[#  19]+0.016*[#   2]+0.005*[#   6]
    |psi|^2 = 0.981
==== e(  23) =    18.19501 eV ==== 
     psi = 0.006*[#  12]+0.006*[#  16]+0.002*[#  11]+0.002*[#  15]
    |psi|^2 = 0.017
==== e(  24) =    19.49206 eV ==== 
     psi = 0.592*[#   2]+0.061*[#  11]+0.061*[#  15]+0.057*[#  12]+0.057*[#  16]
          +0.034*[#  20]+0.013*[#   6]+0.002*[#   1]
    |psi|^2 = 0.879
==== e(  25) =    25.58832 eV ==== 

    |psi|^2 = 0.002
==== e(  26) =    27.67797 eV ==== 
     psi = 0.001*[#   2]
    |psi|^2 = 0.004
==== e(  27) =    27.77809 eV ==== 

    |psi|^2 = 0.002

 k =   0.0454545455  0.0262431941  0.0000000000
==== e(   1) =   -84.82536 eV ==== 
     psi = 0.960*[#   1]+0.027*[#  20]+0.005*[#  12]+0.005*[#  16]+0.001*[#   2]
          
    |psi|^2 = 1.000
==== e(   2) =   -48.12243 eV ==== 
     psi = 0.499*[#   4]+0.499*[#   5]
    |psi|^2 = 1.000
==== e(   3) =   -48.12145 eV ==== 
     psi = 0.499*[#   4]+0.499*[#   5]
    |psi|^2 = 1.000
==== e(   4) =   -47.99187 eV ==== 
     psi = 0.998*[#   3]
    |psi|^2 = 1.000
==== e(   5) =   -42.00568 eV ==== 
     psi = 0.964*[#  19]+0.030*[#  20]+0.003*[#   2]+0.001*[#  12]+0.001*[#  16]
          
    |psi|^2 = 1.000
==== e(   6) =   -13.91243 eV ==== 
     psi = 0.986*[#  21]+0.006*[#  11]+0.006*[#  15]+0.001*[#  12]+0.001*[#  16]
          
    |psi|^2 = 1.000
==== e(   7) =   -13.82880 eV ==== 
     psi = 0.500*[#  22]+0.500*[#  23]
    |psi|^2 = 1.000
==== e(   8) =   -13.82328 eV ==== 
     psi = 0.500*[#  22]+0.500*[#  23]
    |psi|^2 = 1.000
==== e(   9) =    -9.72585 eV ==== 
     psi = 0.297*[#  11]+0.297*[#  15]+0.235*[#   2]+0.136*[#  20]+0.013*[#   1]
          +0.006*[#  12]+0.006*[#  16]+0.005*[#  19]+0.004*[#   6]
    |psi|^2 = 0.999
==== e(  10) =    -7.86791 eV ==== 
     psi = 0.488*[#  11]+0.488*[#  15]+0.012*[#  21]+0.002*[#   3]+0.002*[#  12]
          +0.002*[#  16]
    |psi|^2 = 0.994
==== e(  11) =     3.56704 eV ==== 
     psi = 0.326*[#  12]+0.326*[#  16]+0.181*[#   6]+0.115*[#  20]+0.032*[#   2]
          +0.009*[#  19]+0.005*[#  11]+0.005*[#  15]+0.001*[#   1]
    |psi|^2 = 0.999
==== e(  12) =     4.86147 eV ==== 
     psi = 0.165*[#   9]+0.165*[#  10]+0.137*[#  13]+0.137*[#  14]+0.137*[#  17]
          +0.137*[#  18]+0.051*[#   7]+0.051*[#   8]+0.008*[#  12]+0.008*[#  16]
          
    |psi|^2 = 0.998
==== e(  13) =     4.91633 eV ==== 
     psi = 0.165*[#   9]+0.165*[#  10]+0.139*[#  13]+0.139*[#  14]+0.139*[#  17]
          +0.139*[#  18]+0.055*[#   7]+0.055*[#   8]
    |psi|^2 = 0.998
==== e(  14) =     7.58709 eV ==== 
     psi = 0.474*[#  12]+0.474*[#  16]+0.005*[#  13]+0.005*[#  14]+0.005*[#  17]
          +0.005*[#  18]+0.004*[#   7]+0.004*[#   8]+0.003*[#  11]+0.003*[#  15]
          +0.002*[#  21]
    |psi|^2 = 0.984
==== e(  15) =     7.90572 eV ==== 
     psi = 0.230*[#  13]+0.230*[#  14]+0.230*[#  17]+0.230*[#  18]+0.019*[#   7]
          +0.019*[#   8]+0.005*[#   9]+0.005*[#  10]+0.004*[#   2]+0.004*[#   6]
          +0.004*[#  12]+0.004*[#  16]+0.003*[#  11]+0.003*[#  15]+0.003*[#  20]
          
    |psi|^2 = 0.994
==== e(  16) =     7.99670 eV ==== 
     psi = 0.233*[#  13]+0.233*[#  14]+0.233*[#  17]+0.233*[#  18]+0.023*[#   7]
          +0.023*[#   8]+0.006*[#   9]+0.006*[#  10]
    |psi|^2 = 0.994
==== e(  17) =     9.16803 eV ==== 
     psi = 0.323*[#   7]+0.323*[#   8]+0.146*[#   9]+0.146*[#  10]+0.013*[#  13]
          +0.013*[#  14]+0.013*[#  17]+0.013*[#  18]+0.002*[#  12]+0.002*[#  16]
          +0.001*[#   6]
    |psi|^2 = 0.997
==== e(  18) =     9.18071 eV ==== 
     psi = 0.319*[#   7]+0.319*[#   8]+0.149*[#   9]+0.149*[#  10]+0.015*[#  13]
          +0.015*[#  14]+0.015*[#  17]+0.015*[#  18]
    |psi|^2 = 0.997
==== e(  19) =     9.97616 eV ==== 
     psi = 0.791*[#   6]+0.055*[#  12]+0.055*[#  16]+0.050*[#  20]+0.040*[#   2]
          +0.001*[#  13]+0.001*[#  14]+0.001*[#  17]+0.001*[#  18]
    |psi|^2 = 0.997
==== e(  20) =    12.40441 eV ==== 
     psi = 0.181*[#   9]+0.181*[#  10]+0.106*[#  13]+0.106*[#  14]+0.106*[#  17]
          +0.106*[#  18]+0.099*[#   7]+0.099*[#   8]+0.002*[#  20]+0.001*[#  11]
          +0.001*[#  15]
    |psi|^2 = 0.990
==== e(  21) =    12.45932 eV ==== 
     psi = 0.179*[#   9]+0.179*[#  10]+0.109*[#  13]+0.109*[#  14]+0.109*[#  17]
          +0.109*[#  18]+0.101*[#   7]+0.101*[#   8]
    |psi|^2 = 0.993
==== e(  22) =    12.99054 eV ==== 
     psi = 0.572*[#  20]+0.129*[#  11]+0.129*[#  15]+0.038*[#  12]+0.038*[#  16]
          +0.021*[#   1]+0.020*[#  19]+0.015*[#   2]+0.005*[#   6]+0.003*[#  13]
          +0.003*[#  14]+0.003*[#  17]+0.003*[#  18]
    |psi|^2 = 0.981
==== e(  23) =    18.26403 eV ==== 
     psi = 0.006*[#  12]+0.006*[#  16]+0.002*[#  11]+0.002*[#  15]
    |psi|^2 = 0.019
==== e(  24) =    19.53782 eV ==== 
     psi = 0.594*[#   2]+0.061*[#  11]+0.061*[#  15]+0.056*[#  12]+0.056*[#  16]
          +0.034*[#  20]+0.013*[#   6]+0.002*[#   1]
    |psi|^2 = 0.880
==== e(  25) =    25.60637 eV ==== 

    |psi|^2 = 0.002
==== e(  26) =    27.44779 eV ==== 
     psi = 0.003*[#   2]
    |psi|^2 = 0.007
==== e(  27) =    27.82053 eV ==== 

    |psi|^2 = 0.002

 k =   0.0681818182  0.0393647911  0.0000000000
==== e(   1) =   -84.82524 eV ==== 
     psi = 0.961*[#   1]+0.027*[#  20]+0.005*[#  12]+0.005*[#  16]+0.001*[#   2]
          
    |psi|^2 = 1.000
==== e(   2) =   -48.12396 eV ==== 
     psi = 0.499*[#   4]+0.499*[#   5]
    |psi|^2 = 1.000
==== e(   3) =   -48.12186 eV ==== 
     psi = 0.499*[#   4]+0.499*[#   5]
    |psi|^2 = 1.000
==== e(   4) =   -47.99165 eV ==== 
     psi = 0.998*[#   3]
    |psi|^2 = 1.000
==== e(   5) =   -42.00482 eV ==== 
     psi = 0.966*[#  19]+0.028*[#  20]+0.003*[#   2]+0.001*[#  12]+0.001*[#  16]
          
    |psi|^2 = 1.000
==== e(   6) =   -13.91005 eV ==== 
     psi = 0.986*[#  21]+0.005*[#  11]+0.005*[#  15]+0.001*[#  12]+0.001*[#  16]
          
    |psi|^2 = 1.000
==== e(   7) =   -13.83717 eV ==== 
     psi = 0.499*[#  22]+0.499*[#  23]+0.001*[#  20]
    |psi|^2 = 1.000
==== e(   8) =   -13.82504 eV ==== 
     psi = 0.500*[#  22]+0.500*[#  23]
    |psi|^2 = 1.000
==== e(   9) =    -9.69589 eV ==== 
     psi = 0.300*[#  11]+0.300*[#  15]+0.233*[#   2]+0.134*[#  20]+0.012*[#   1]
          +0.006*[#  12]+0.006*[#  16]+0.004*[#  19]+0.004*[#   6]
    |psi|^2 = 0.999
==== e(  10) =    -7.86835 eV ==== 
     psi = 0.487*[#  11]+0.487*[#  15]+0.012*[#  21]+0.002*[#   3]+0.002*[#  12]
          +0.002*[#  16]+0.001*[#   7]+0.001*[#   8]
    |psi|^2 = 0.994
==== e(  11) =     3.60726 eV ==== 
     psi = 0.327*[#  12]+0.327*[#  16]+0.180*[#   6]+0.113*[#  20]+0.031*[#   2]
          +0.009*[#  19]+0.005*[#  11]+0.005*[#  15]+0.001*[#   1]
    |psi|^2 = 0.999
==== e(  12) =     4.81307 eV ==== 
     psi = 0.162*[#   9]+0.162*[#  10]+0.136*[#  13]+0.136*[#  14]+0.136*[#  17]
          +0.136*[#  18]+0.047*[#   7]+0.047*[#   8]+0.017*[#  12]+0.017*[#  16]
          
    |psi|^2 = 0.997
==== e(  13) =     4.93247 eV ==== 
     psi = 0.162*[#   9]+0.162*[#  10]+0.140*[#  13]+0.140*[#  14]+0.140*[#  17]
          +0.140*[#  18]+0.057*[#   7]+0.057*[#   8]
    |psi|^2 = 0.998
==== e(  14) =     7.61276 eV ==== 
     psi = 0.365*[#  12]+0.365*[#  16]+0.049*[#  13]+0.049*[#  14]+0.049*[#  17]
          +0.049*[#  18]+0.023*[#   7]+0.023*[#   8]+0.003*[#  11]+0.003*[#  15]
          +0.001*[#   2]+0.001*[#  21]+0.001*[#   6]+0.001*[#  20]
    |psi|^2 = 0.987
==== e(  15) =     7.73624 eV ==== 
     psi = 0.178*[#  13]+0.178*[#  14]+0.178*[#  17]+0.178*[#  18]+0.102*[#  12]
          +0.102*[#  16]+0.017*[#   7]+0.017*[#   8]+0.007*[#   9]+0.007*[#  10]
          +0.006*[#   2]+0.006*[#   6]+0.005*[#  11]+0.005*[#  15]+0.005*[#  20]
          
    |psi|^2 = 0.992
==== e(  16) =     7.90506 eV ==== 
     psi = 0.222*[#  13]+0.222*[#  14]+0.222*[#  17]+0.222*[#  18]+0.042*[#   7]
          +0.042*[#   8]+0.010*[#   9]+0.010*[#  10]
    |psi|^2 = 0.994
==== e(  17) =     9.22128 eV ==== 
     psi = 0.308*[#   7]+0.308*[#   8]+0.144*[#   9]+0.144*[#  10]+0.019*[#  13]
          +0.019*[#  14]+0.019*[#  17]+0.019*[#  18]+0.006*[#   6]+0.004*[#  12]
          +0.004*[#  16]+0.002*[#   2]
    |psi|^2 = 0.997
==== e(  18) =     9.25803 eV ==== 
     psi = 0.296*[#   7]+0.296*[#   8]+0.150*[#   9]+0.150*[#  10]+0.026*[#  13]
          +0.026*[#  14]+0.026*[#  17]+0.026*[#  18]
    |psi|^2 = 0.997
==== e(  19) =     9.98489 eV ==== 
     psi = 0.785*[#   6]+0.055*[#  12]+0.055*[#  16]+0.052*[#  20]+0.036*[#   2]
          +0.002*[#  13]+0.002*[#  14]+0.002*[#  17]+0.002*[#  18]
    |psi|^2 = 0.997
==== e(  20) =    12.32094 eV ==== 
     psi = 0.182*[#   9]+0.182*[#  10]+0.102*[#  13]+0.102*[#  14]+0.102*[#  17]
          +0.102*[#  18]+0.100*[#   7]+0.100*[#   8]+0.006*[#  20]+0.004*[#  11]
          +0.004*[#  15]
    |psi|^2 = 0.986
==== e(  21) =    12.44209 eV ==== 
     psi = 0.176*[#   9]+0.176*[#  10]+0.108*[#  13]+0.108*[#  14]+0.108*[#  17]
          +0.108*[#  18]+0.104*[#   7]+0.104*[#   8]
    |psi|^2 = 0.993
==== e(  22) =    13.09262 eV ==== 
     psi = 0.570*[#  20]+0.122*[#  11]+0.122*[#  15]+0.038*[#  12]+0.038*[#  16]
          +0.021*[#   1]+0.018*[#  19]+0.013*[#   2]+0.007*[#  13]+0.007*[#  14]
          +0.007*[#  17]+0.007*[#  18]+0.005*[#   6]+0.001*[#   7]+0.001*[#   8]
          +0.001*[#   9]+0.001*[#  10]
    |psi|^2 = 0.980
==== e(  23) =    18.37313 eV ==== 
     psi = 0.006*[#  12]+0.006*[#  16]+0.002*[#  11]+0.002*[#  15]+0.001*[#  13]
          +0.001*[#  14]+0.001*[#  17]+0.001*[#  18]
    |psi|^2 = 0.022
==== e(  24) =    19.61307 eV ==== 
     psi = 0.597*[#   2]+0.060*[#  11]+0.060*[#  15]+0.054*[#  12]+0.054*[#  16]
          +0.033*[#  20]+0.012*[#   6]+0.002*[#   1]+0.002*[#  13]+0.002*[#  14]
          +0.002*[#  17]+0.002*[#  18]
    |psi|^2 = 0.881
==== e(  25) =    25.63601 eV ==== 

    |psi|^2 = 0.002
==== e(  26) =    27.11216 eV ==== 
     psi = 0.004*[#   2]
    |psi|^2 = 0.009
==== e(  27) =    27.72969 eV ==== 

    |psi|^2 = 0.002

 k =   0.0909090909  0.0524863881  0.0000000000
==== e(   1) =   -84.82505 eV ==== 
     psi = 0.961*[#   1]+0.027*[#  20]+0.005*[#  12]+0.005*[#  16]
    |psi|^2 = 1.000
==== e(   2) =   -48.12592 eV ==== 
     psi = 0.499*[#   4]+0.499*[#   5]
    |psi|^2 = 1.000
==== e(   3) =   -48.12233 eV ==== 
     psi = 0.499*[#   4]+0.499*[#   5]
    |psi|^2 = 1.000
==== e(   4) =   -47.99126 eV ==== 
     psi = 0.998*[#   3]
    |psi|^2 = 1.000
==== e(   5) =   -42.00358 eV ==== 
     psi = 0.968*[#  19]+0.026*[#  20]+0.003*[#   2]+0.001*[#  12]+0.001*[#  16]
          
    |psi|^2 = 1.000
==== e(   6) =   -13.90661 eV ==== 
     psi = 0.986*[#  21]+0.005*[#  11]+0.005*[#  15]+0.001*[#  12]+0.001*[#  16]
          
    |psi|^2 = 1.000
==== e(   7) =   -13.84829 eV ==== 
     psi = 0.499*[#  22]+0.499*[#  23]+0.002*[#  20]
    |psi|^2 = 1.000
==== e(   8) =   -13.82725 eV ==== 
     psi = 0.500*[#  22]+0.500*[#  23]
    |psi|^2 = 1.000
==== e(   9) =    -9.65447 eV ==== 
     psi = 0.303*[#  11]+0.303*[#  15]+0.229*[#   2]+0.131*[#  20]+0.012*[#   1]
          +0.006*[#  12]+0.006*[#  16]+0.004*[#  19]+0.004*[#   6]
    |psi|^2 = 0.999
==== e(  10) =    -7.86901 eV ==== 
     psi = 0.486*[#  11]+0.486*[#  15]+0.011*[#  21]+0.002*[#   7]+0.002*[#   8]
          +0.002*[#   3]+0.002*[#  12]+0.002*[#  16]+0.001*[#   9]+0.001*[#  10]
          
    |psi|^2 = 0.994
==== e(  11) =     3.66292 eV ==== 
     psi = 0.329*[#  12]+0.329*[#  16]+0.179*[#   6]+0.110*[#  20]+0.031*[#   2]
          +0.008*[#  19]+0.005*[#  11]+0.005*[#  15]+0.001*[#   1]
    |psi|^2 = 0.999
==== e(  12) =     4.75146 eV ==== 
     psi = 0.158*[#   9]+0.158*[#  10]+0.134*[#  13]+0.134*[#  14]+0.134*[#  17]
          +0.134*[#  18]+0.042*[#   7]+0.042*[#   8]+0.028*[#  12]+0.028*[#  16]
          
    |psi|^2 = 0.995
==== e(  13) =     4.95464 eV ==== 
     psi = 0.159*[#   9]+0.159*[#  10]+0.141*[#  13]+0.141*[#  14]+0.141*[#  17]
          +0.141*[#  18]+0.058*[#   7]+0.058*[#   8]
    |psi|^2 = 0.998
==== e(  14) =     7.45093 eV ==== 
     psi = 0.190*[#  13]+0.190*[#  14]+0.190*[#  17]+0.190*[#  18]+0.051*[#   7]
          +0.051*[#   8]+0.036*[#  12]+0.036*[#  16]+0.011*[#   2]+0.009*[#  11]
          +0.009*[#  15]+0.008*[#   6]+0.008*[#  20]+0.006*[#   9]+0.006*[#  10]
          +0.002*[#   1]
    |psi|^2 = 0.993
==== e(  15) =     7.72358 eV ==== 
     psi = 0.418*[#  12]+0.418*[#  16]+0.034*[#  13]+0.034*[#  14]+0.034*[#  17]
          +0.034*[#  18]+0.003*[#  11]+0.003*[#  15]+0.002*[#   9]+0.002*[#  10]
          +0.002*[#  21]+0.001*[#   2]+0.001*[#   6]
    |psi|^2 = 0.987
==== e(  16) =     7.79614 eV ==== 
     psi = 0.212*[#  13]+0.212*[#  14]+0.212*[#  17]+0.212*[#  18]+0.057*[#   7]
          +0.057*[#   8]+0.014*[#   9]+0.014*[#  10]
    |psi|^2 = 0.994
==== e(  17) =     9.27194 eV ==== 
     psi = 0.296*[#   7]+0.296*[#   8]+0.142*[#   9]+0.142*[#  10]+0.021*[#  13]
          +0.021*[#  14]+0.021*[#  17]+0.021*[#  18]+0.014*[#   6]+0.007*[#  12]
          +0.007*[#  16]+0.004*[#   2]+0.002*[#  11]+0.002*[#  15]
    |psi|^2 = 0.997
==== e(  18) =     9.34647 eV ==== 
     psi = 0.274*[#   7]+0.274*[#   8]+0.153*[#   9]+0.153*[#  10]+0.036*[#  13]
          +0.036*[#  14]+0.036*[#  17]+0.036*[#  18]
    |psi|^2 = 0.997
==== e(  19) =     9.99637 eV ==== 
     psi = 0.776*[#   6]+0.055*[#  12]+0.055*[#  16]+0.053*[#  20]+0.032*[#   2]
          +0.004*[#  13]+0.004*[#  14]+0.004*[#  17]+0.004*[#  18]+0.003*[#   7]
          +0.003*[#   8]+0.002*[#   9]+0.002*[#  10]
    |psi|^2 = 0.997
==== e(  20) =    12.21263 eV ==== 
     psi = 0.184*[#   9]+0.184*[#  10]+0.101*[#   7]+0.101*[#   8]+0.096*[#  13]
          +0.096*[#  14]+0.096*[#  17]+0.096*[#  18]+0.010*[#  20]+0.006*[#  11]
          +0.006*[#  15]+0.002*[#  12]+0.002*[#  16]
    |psi|^2 = 0.983
==== e(  21) =    12.41977 eV ==== 
     psi = 0.173*[#   9]+0.173*[#  10]+0.109*[#   7]+0.109*[#   8]+0.108*[#  13]
          +0.108*[#  14]+0.108*[#  17]+0.108*[#  18]
    |psi|^2 = 0.993
==== e(  22) =    13.22856 eV ==== 
     psi = 0.570*[#  20]+0.113*[#  11]+0.113*[#  15]+0.038*[#  12]+0.038*[#  16]
          +0.020*[#   1]+0.016*[#  19]+0.012*[#  13]+0.012*[#  14]+0.012*[#  17]
          +0.012*[#  18]+0.011*[#   2]+0.005*[#   6]+0.002*[#   7]+0.002*[#   8]
          +0.002*[#   9]+0.002*[#  10]
    |psi|^2 = 0.980
==== e(  23) =    18.51544 eV ==== 
     psi = 0.005*[#  12]+0.005*[#  16]+0.002*[#  13]+0.002*[#  14]+0.002*[#  17]
          +0.002*[#  18]+0.001*[#  11]+0.001*[#  15]+0.001*[#   9]+0.001*[#  10]
          
    |psi|^2 = 0.025
==== e(  24) =    19.71622 eV ==== 
     psi = 0.601*[#   2]+0.060*[#  11]+0.060*[#  15]+0.052*[#  12]+0.052*[#  16]
          +0.032*[#  20]+0.012*[#   6]+0.003*[#  13]+0.003*[#  14]+0.003*[#  17]
          +0.003*[#  18]+0.002*[#   1]+0.001*[#  19]
    |psi|^2 = 0.883
==== e(  25) =    25.67535 eV ==== 

    |psi|^2 = 0.002
==== e(  26) =    26.68704 eV ==== 
     psi = 0.004*[#   2]
    |psi|^2 = 0.010
==== e(  27) =    27.22811 eV ==== 

    |psi|^2 = 0.002

 k =   0.1136363636  0.0656079851  0.0000000000
==== e(   1) =   -84.82483 eV ==== 
     psi = 0.962*[#   1]+0.026*[#  20]+0.005*[#  12]+0.005*[#  16]
    |psi|^2 = 1.000
==== e(   2) =   -48.12834 eV ==== 
     psi = 0.499*[#   4]+0.499*[#   5]
    |psi|^2 = 1.000
==== e(   3) =   -48.12300 eV ==== 
     psi = 0.499*[#   4]+0.499*[#   5]
    |psi|^2 = 1.000
==== e(   4) =   -47.99089 eV ==== 
     psi = 0.998*[#   3]
    |psi|^2 = 1.000
==== e(   5) =   -42.00205 eV ==== 
     psi = 0.970*[#  19]+0.023*[#  20]+0.003*[#   2]+0.001*[#  12]+0.001*[#  16]
          
    |psi|^2 = 1.000
==== e(   6) =   -13.90260 eV ==== 
     psi = 0.986*[#  21]+0.005*[#  11]+0.005*[#  15]+0.001*[#  12]+0.001*[#  16]
          
    |psi|^2 = 1.000
==== e(   7) =   -13.86206 eV ==== 
     psi = 0.498*[#  22]+0.498*[#  23]+0.003*[#  20]
    |psi|^2 = 1.000
==== e(   8) =   -13.83019 eV ==== 
     psi = 0.500*[#  22]+0.500*[#  23]
    |psi|^2 = 1.000
==== e(   9) =    -9.60214 eV ==== 
     psi = 0.307*[#  11]+0.307*[#  15]+0.225*[#   2]+0.126*[#  20]+0.011*[#   1]
          +0.006*[#  12]+0.006*[#  16]+0.004*[#  19]+0.003*[#   6]
    |psi|^2 = 0.999
==== e(  10) =    -7.87002 eV ==== 
     psi = 0.484*[#  11]+0.484*[#  15]+0.011*[#  21]+0.003*[#   7]+0.003*[#   8]
          +0.002*[#   3]+0.002*[#   9]+0.002*[#  10]+0.001*[#  12]+0.001*[#  16]
          
    |psi|^2 = 0.995
==== e(  11) =     3.73316 eV ==== 
     psi = 0.332*[#  12]+0.332*[#  16]+0.177*[#   6]+0.106*[#  20]+0.031*[#   2]
          +0.007*[#  19]+0.005*[#  11]+0.005*[#  15]+0.001*[#   1]
    |psi|^2 = 0.999
==== e(  12) =     4.68107 eV ==== 
     psi = 0.154*[#   9]+0.154*[#  10]+0.133*[#  13]+0.133*[#  14]+0.133*[#  17]
          +0.133*[#  18]+0.039*[#  12]+0.039*[#  16]+0.037*[#   7]+0.037*[#   8]
          
    |psi|^2 = 0.994
==== e(  13) =     4.98237 eV ==== 
     psi = 0.154*[#   9]+0.154*[#  10]+0.142*[#  13]+0.142*[#  14]+0.142*[#  17]
          +0.142*[#  18]+0.061*[#   7]+0.061*[#   8]
    |psi|^2 = 0.998
==== e(  14) =     7.19189 eV ==== 
     psi = 0.194*[#  13]+0.194*[#  14]+0.194*[#  17]+0.194*[#  18]+0.057*[#   7]
          +0.057*[#   8]+0.016*[#   2]+0.013*[#  11]+0.013*[#  15]+0.012*[#  20]
          +0.011*[#   6]+0.011*[#  12]+0.011*[#  16]+0.006*[#   9]+0.006*[#  10]
          +0.002*[#   1]+0.001*[#  19]
    |psi|^2 = 0.993
==== e(  15) =     7.67802 eV ==== 
     psi = 0.205*[#  13]+0.205*[#  14]+0.205*[#  17]+0.205*[#  18]+0.069*[#   7]
          +0.069*[#   8]+0.017*[#   9]+0.017*[#  10]
    |psi|^2 = 0.994
==== e(  16) =     7.78398 eV ==== 
     psi = 0.428*[#  12]+0.428*[#  16]+0.028*[#  13]+0.028*[#  14]+0.028*[#  17]
          +0.028*[#  18]+0.004*[#   7]+0.004*[#   8]+0.002*[#  11]+0.002*[#  15]
          +0.001*[#  21]+0.001*[#   9]+0.001*[#  10]+0.001*[#   6]
    |psi|^2 = 0.988
==== e(  17) =     9.31493 eV ==== 
     psi = 0.285*[#   7]+0.285*[#   8]+0.139*[#   9]+0.139*[#  10]+0.027*[#   6]
          +0.022*[#  13]+0.022*[#  14]+0.022*[#  17]+0.022*[#  18]+0.011*[#  12]
          +0.011*[#  16]+0.006*[#   2]+0.003*[#  11]+0.003*[#  15]
    |psi|^2 = 0.996
==== e(  18) =     9.43730 eV ==== 
     psi = 0.254*[#   7]+0.254*[#   8]+0.160*[#   9]+0.160*[#  10]+0.042*[#  13]
          +0.042*[#  14]+0.042*[#  17]+0.042*[#  18]
    |psi|^2 = 0.997
==== e(  19) =    10.00981 eV ==== 
     psi = 0.763*[#   6]+0.054*[#  12]+0.054*[#  16]+0.053*[#  20]+0.027*[#   2]
          +0.006*[#  13]+0.006*[#  14]+0.006*[#  17]+0.006*[#  18]+0.005*[#   7]
          +0.005*[#   8]+0.004*[#   9]+0.004*[#  10]
    |psi|^2 = 0.997
==== e(  20) =    12.08820 eV ==== 
     psi = 0.188*[#   9]+0.188*[#  10]+0.103*[#   7]+0.103*[#   8]+0.090*[#  13]
          +0.090*[#  14]+0.090*[#  17]+0.090*[#  18]+0.014*[#  20]+0.009*[#  11]
          +0.009*[#  15]+0.003*[#  12]+0.003*[#  16]
    |psi|^2 = 0.979
==== e(  21) =    12.39383 eV ==== 
     psi = 0.168*[#   9]+0.168*[#  10]+0.115*[#   7]+0.115*[#   8]+0.107*[#  13]
          +0.107*[#  14]+0.107*[#  17]+0.107*[#  18]
    |psi|^2 = 0.993
==== e(  22) =    13.39159 eV ==== 
     psi = 0.572*[#  20]+0.104*[#  11]+0.104*[#  15]+0.038*[#  12]+0.038*[#  16]
          +0.018*[#   1]+0.016*[#  13]+0.016*[#  14]+0.016*[#  17]+0.016*[#  18]
          +0.014*[#  19]+0.009*[#   2]+0.005*[#   6]+0.003*[#   7]+0.003*[#   8]
          +0.002*[#   9]+0.002*[#  10]
    |psi|^2 = 0.978
==== e(  23) =    18.68154 eV ==== 
     psi = 0.005*[#  12]+0.005*[#  16]+0.002*[#  13]+0.002*[#  14]+0.002*[#  17]
          +0.002*[#  18]+0.002*[#   9]+0.002*[#  10]+0.001*[#  11]+0.001*[#  15]
          
    |psi|^2 = 0.027
==== e(  24) =    19.84489 eV ==== 
     psi = 0.606*[#   2]+0.059*[#  11]+0.059*[#  15]+0.049*[#  12]+0.049*[#  16]
          +0.030*[#  20]+0.011*[#   6]+0.005*[#  13]+0.005*[#  14]+0.005*[#  17]
          +0.005*[#  18]+0.002*[#   1]+0.001*[#  19]
    |psi|^2 = 0.885
==== e(  25) =    25.71710 eV ==== 

    |psi|^2 = 0.002
==== e(  26) =    26.18616 eV ==== 
     psi = 0.003*[#   2]
    |psi|^2 = 0.009
==== e(  27) =    26.77844 eV ==== 
     psi = 0.001*[#   2]
    |psi|^2 = 0.003

 k =   0.1363636364  0.0787295822  0.0000000000
==== e(   1) =   -84.82456 eV ==== 
     psi = 0.962*[#   1]+0.026*[#  20]+0.004*[#  12]+0.004*[#  16]
    |psi|^2 = 1.000
==== e(   2) =   -48.13134 eV ==== 
     psi = 0.499*[#   4]+0.499*[#   5]
    |psi|^2 = 1.000
==== e(   3) =   -48.12369 eV ==== 
     psi = 0.499*[#   4]+0.499*[#   5]
    |psi|^2 = 1.000
==== e(   4) =   -47.99041 eV ==== 
     psi = 0.998*[#   3]
    |psi|^2 = 1.000
==== e(   5) =   -42.00024 eV ==== 
     psi = 0.973*[#  19]+0.020*[#  20]+0.004*[#   2]+0.001*[#  12]+0.001*[#  16]
          
    |psi|^2 = 1.000
==== e(   6) =   -13.89781 eV ==== 
     psi = 0.981*[#  21]+0.005*[#  11]+0.005*[#  15]+0.003*[#  22]+0.003*[#  23]
          +0.001*[#  12]+0.001*[#  16]
    |psi|^2 = 1.000
==== e(   7) =   -13.87843 eV ==== 
     psi = 0.495*[#  22]+0.495*[#  23]+0.006*[#  21]+0.003*[#  20]
    |psi|^2 = 1.000
==== e(   8) =   -13.83343 eV ==== 
     psi = 0.500*[#  22]+0.500*[#  23]
    |psi|^2 = 1.000
==== e(   9) =    -9.53956 eV ==== 
     psi = 0.313*[#  11]+0.313*[#  15]+0.219*[#   2]+0.121*[#  20]+0.010*[#   1]
          +0.006*[#  12]+0.006*[#  16]+0.004*[#  19]+0.003*[#   6]
    |psi|^2 = 0.999
==== e(  10) =    -7.87143 eV ==== 
     psi = 0.483*[#  11]+0.483*[#  15]+0.010*[#  21]+0.005*[#   7]+0.005*[#   8]
          +0.003*[#   9]+0.003*[#  10]+0.002*[#   3]+0.001*[#  12]+0.001*[#  16]
          
    |psi|^2 = 0.995
==== e(  11) =     3.81692 eV ==== 
     psi = 0.335*[#  12]+0.335*[#  16]+0.174*[#   6]+0.102*[#  20]+0.030*[#   2]
          +0.006*[#  19]+0.006*[#  11]+0.006*[#  15]+0.001*[#   1]
    |psi|^2 = 0.999
==== e(  12) =     4.60607 eV ==== 
     psi = 0.150*[#   9]+0.150*[#  10]+0.132*[#  13]+0.132*[#  14]+0.132*[#  17]
          +0.132*[#  18]+0.050*[#  12]+0.050*[#  16]+0.031*[#   7]+0.031*[#   8]
          
    |psi|^2 = 0.993
==== e(  13) =     5.01509 eV ==== 
     psi = 0.148*[#   9]+0.148*[#  10]+0.143*[#  13]+0.143*[#  14]+0.143*[#  17]
          +0.143*[#  18]+0.064*[#   7]+0.064*[#   8]
    |psi|^2 = 0.998
==== e(  14) =     6.91031 eV ==== 
     psi = 0.190*[#  13]+0.190*[#  14]+0.190*[#  17]+0.190*[#  18]+0.062*[#   7]
          +0.062*[#   8]+0.020*[#   2]+0.016*[#  11]+0.016*[#  15]+0.016*[#  20]
          +0.014*[#   6]+0.005*[#   9]+0.005*[#  10]+0.005*[#  12]+0.005*[#  16]
          +0.003*[#   1]+0.001*[#  19]
    |psi|^2 = 0.993
==== e(  15) =     7.55643 eV ==== 
     psi = 0.200*[#  13]+0.200*[#  14]+0.200*[#  17]+0.200*[#  18]+0.077*[#   7]
          +0.077*[#   8]+0.019*[#   9]+0.019*[#  10]
    |psi|^2 = 0.994
==== e(  16) =     7.84555 eV ==== 
     psi = 0.418*[#  12]+0.418*[#  16]+0.033*[#  13]+0.033*[#  14]+0.033*[#  17]
          +0.033*[#  18]+0.006*[#   7]+0.006*[#   8]+0.002*[#  11]+0.002*[#  15]
          +0.001*[#   6]+0.001*[#  21]
    |psi|^2 = 0.989
==== e(  17) =     9.34902 eV ==== 
     psi = 0.275*[#   7]+0.275*[#   8]+0.136*[#   9]+0.136*[#  10]+0.045*[#   6]
          +0.020*[#  13]+0.020*[#  14]+0.020*[#  17]+0.020*[#  18]+0.015*[#  12]
          +0.015*[#  16]+0.010*[#   2]+0.003*[#  11]+0.003*[#  15]
    |psi|^2 = 0.996
==== e(  18) =     9.52447 eV ==== 
     psi = 0.235*[#   7]+0.235*[#   8]+0.170*[#   9]+0.170*[#  10]+0.047*[#  13]
          +0.047*[#  14]+0.047*[#  17]+0.047*[#  18]
    |psi|^2 = 0.997
==== e(  19) =    10.02424 eV ==== 
     psi = 0.746*[#   6]+0.053*[#  12]+0.053*[#  16]+0.053*[#  20]+0.022*[#   2]
          +0.009*[#   7]+0.009*[#   8]+0.008*[#   9]+0.008*[#  10]+0.008*[#  13]
          +0.008*[#  14]+0.008*[#  17]+0.008*[#  18]
    |psi|^2 = 0.997
==== e(  20) =    11.95722 eV ==== 
     psi = 0.192*[#   9]+0.192*[#  10]+0.106*[#   7]+0.106*[#   8]+0.082*[#  13]
          +0.082*[#  14]+0.082*[#  17]+0.082*[#  18]+0.018*[#  20]+0.012*[#  11]
          +0.012*[#  15]+0.006*[#  12]+0.006*[#  16]
    |psi|^2 = 0.977
==== e(  21) =    12.36629 eV ==== 
     psi = 0.162*[#   9]+0.162*[#  10]+0.122*[#   7]+0.122*[#   8]+0.106*[#  13]
          +0.106*[#  14]+0.106*[#  17]+0.106*[#  18]
    |psi|^2 = 0.992
==== e(  22) =    13.57524 eV ==== 
     psi = 0.579*[#  20]+0.095*[#  11]+0.095*[#  15]+0.037*[#  12]+0.037*[#  16]
          +0.019*[#  13]+0.019*[#  14]+0.019*[#  17]+0.019*[#  18]+0.017*[#   1]
          +0.012*[#  19]+0.008*[#   2]+0.005*[#   6]+0.004*[#   7]+0.004*[#   8]
          +0.002*[#   9]+0.002*[#  10]
    |psi|^2 = 0.977
==== e(  23) =    18.86296 eV ==== 
     psi = 0.005*[#  12]+0.005*[#  16]+0.003*[#  13]+0.003*[#  14]+0.003*[#  17]
          +0.003*[#  18]+0.002*[#   9]+0.002*[#  10]
    |psi|^2 = 0.029
==== e(  24) =    19.99595 eV ==== 
     psi = 0.611*[#   2]+0.058*[#  11]+0.058*[#  15]+0.046*[#  12]+0.046*[#  16]
          +0.029*[#  20]+0.010*[#   6]+0.007*[#  13]+0.007*[#  14]+0.007*[#  17]
          +0.007*[#  18]+0.003*[#   1]+0.002*[#  19]
    |psi|^2 = 0.888
==== e(  25) =    25.58465 eV ==== 
     psi = 0.002*[#   2]
    |psi|^2 = 0.006
==== e(  26) =    25.81275 eV ==== 

    |psi|^2 = 0.005
==== e(  27) =    26.38618 eV ==== 
     psi = 0.001*[#   2]
    |psi|^2 = 0.004

 k =   0.1590909091  0.0918511792  0.0000000000
==== e(   1) =   -84.82425 eV ==== 
     psi = 0.963*[#   1]+0.025*[#  20]+0.004*[#  12]+0.004*[#  16]
    |psi|^2 = 1.000
==== e(   2) =   -48.13468 eV ==== 
     psi = 0.498*[#   4]+0.498*[#   5]
    |psi|^2 = 1.000
==== e(   3) =   -48.12446 eV ==== 
     psi = 0.499*[#   4]+0.499*[#   5]
    |psi|^2 = 1.000
==== e(   4) =   -47.98988 eV ==== 
     psi = 0.998*[#   3]
    |psi|^2 = 1.000
==== e(   5) =   -41.99819 eV ==== 
     psi = 0.977*[#  19]+0.016*[#  20]+0.004*[#   2]+0.001*[#  12]+0.001*[#  16]
          
    |psi|^2 = 1.000
==== e(   6) =   -13.89772 eV ==== 
     psi = 0.438*[#  22]+0.438*[#  23]+0.118*[#  21]+0.004*[#  20]
    |psi|^2 = 1.000
==== e(   7) =   -13.89147 eV ==== 
     psi = 0.870*[#  21]+0.059*[#  22]+0.059*[#  23]+0.004*[#  11]+0.004*[#  15]
          
    |psi|^2 = 1.000
==== e(   8) =   -13.83709 eV ==== 
     psi = 0.500*[#  22]+0.500*[#  23]
    |psi|^2 = 1.000
==== e(   9) =    -9.46760 eV ==== 
     psi = 0.319*[#  11]+0.319*[#  15]+0.213*[#   2]+0.115*[#  20]+0.009*[#   1]
          +0.006*[#  12]+0.006*[#  16]+0.003*[#  19]+0.003*[#   6]+0.001*[#  22]
          +0.001*[#  23]
    |psi|^2 = 0.999
==== e(  10) =    -7.87337 eV ==== 
     psi = 0.481*[#  11]+0.481*[#  15]+0.010*[#  21]+0.006*[#   7]+0.006*[#   8]
          +0.003*[#   9]+0.003*[#  10]+0.002*[#   3]
    |psi|^2 = 0.995
==== e(  11) =     3.91268 eV ==== 
     psi = 0.338*[#  12]+0.338*[#  16]+0.170*[#   6]+0.096*[#  20]+0.030*[#   2]
          +0.006*[#  11]+0.006*[#  15]+0.005*[#  19]+0.001*[#   1]+0.001*[#   9]
          +0.001*[#  10]
    |psi|^2 = 0.998
==== e(  12) =     4.53012 eV ==== 
     psi = 0.145*[#   9]+0.145*[#  10]+0.132*[#  13]+0.132*[#  14]+0.132*[#  17]
          +0.132*[#  18]+0.061*[#  12]+0.061*[#  16]+0.025*[#   7]+0.025*[#   8]
          +0.001*[#  21]
    |psi|^2 = 0.992
==== e(  13) =     5.05206 eV ==== 
     psi = 0.145*[#  13]+0.145*[#  14]+0.145*[#  17]+0.145*[#  18]+0.142*[#   9]
          +0.142*[#  10]+0.068*[#   7]+0.068*[#   8]
    |psi|^2 = 0.998
==== e(  14) =     6.61860 eV ==== 
     psi = 0.186*[#  13]+0.186*[#  14]+0.186*[#  17]+0.186*[#  18]+0.065*[#   7]
          +0.065*[#   8]+0.025*[#   2]+0.020*[#  20]+0.019*[#  11]+0.019*[#  15]
          +0.017*[#   6]+0.004*[#   9]+0.004*[#  10]+0.003*[#   1]+0.002*[#  12]
          +0.002*[#  16]+0.002*[#  19]
    |psi|^2 = 0.993
==== e(  15) =     7.43523 eV ==== 
     psi = 0.197*[#  13]+0.197*[#  14]+0.197*[#  17]+0.197*[#  18]+0.082*[#   7]
          +0.082*[#   8]+0.020*[#   9]+0.020*[#  10]
    |psi|^2 = 0.993
==== e(  16) =     7.89666 eV ==== 
     psi = 0.404*[#  12]+0.404*[#  16]+0.040*[#  13]+0.040*[#  14]+0.040*[#  17]
          +0.040*[#  18]+0.006*[#   7]+0.006*[#   8]+0.002*[#   6]+0.001*[#  11]
          +0.001*[#  15]
    |psi|^2 = 0.990
==== e(  17) =     9.37471 eV ==== 
     psi = 0.266*[#   7]+0.266*[#   8]+0.131*[#   9]+0.131*[#  10]+0.067*[#   6]
          +0.020*[#  12]+0.020*[#  16]+0.018*[#  13]+0.018*[#  14]+0.018*[#  17]
          +0.018*[#  18]+0.013*[#   2]+0.004*[#  11]+0.004*[#  15]
    |psi|^2 = 0.996
==== e(  18) =     9.60355 eV ==== 
     psi = 0.218*[#   7]+0.218*[#   8]+0.183*[#   9]+0.183*[#  10]+0.049*[#  13]
          +0.049*[#  14]+0.049*[#  17]+0.049*[#  18]
    |psi|^2 = 0.997
==== e(  19) =    10.03859 eV ==== 
     psi = 0.726*[#   6]+0.053*[#  12]+0.053*[#  16]+0.051*[#  20]+0.017*[#   2]
          +0.014*[#   7]+0.014*[#   8]+0.014*[#   9]+0.014*[#  10]+0.009*[#  13]
          +0.009*[#  14]+0.009*[#  17]+0.009*[#  18]+0.001*[#  11]+0.001*[#  15]
          
    |psi|^2 = 0.997
==== e(  20) =    11.82939 eV ==== 
     psi = 0.196*[#   9]+0.196*[#  10]+0.109*[#   7]+0.109*[#   8]+0.073*[#  13]
          +0.073*[#  14]+0.073*[#  17]+0.073*[#  18]+0.022*[#  20]+0.015*[#  11]
          +0.015*[#  15]+0.009*[#  12]+0.009*[#  16]
    |psi|^2 = 0.975
==== e(  21) =    12.33914 eV ==== 
     psi = 0.154*[#   9]+0.154*[#  10]+0.131*[#   7]+0.131*[#   8]+0.106*[#  13]
          +0.106*[#  14]+0.106*[#  17]+0.106*[#  18]
    |psi|^2 = 0.992
==== e(  22) =    13.77436 eV ==== 
     psi = 0.589*[#  20]+0.086*[#  11]+0.086*[#  15]+0.037*[#  12]+0.037*[#  16]
          +0.022*[#  13]+0.022*[#  14]+0.022*[#  17]+0.022*[#  18]+0.016*[#   1]
          +0.009*[#  19]+0.006*[#   2]+0.005*[#   7]+0.005*[#   8]+0.004*[#   6]
          +0.002*[#   9]+0.002*[#  10]
    |psi|^2 = 0.975
==== e(  23) =    19.04962 eV ==== 
     psi = 0.004*[#  12]+0.004*[#  16]+0.003*[#  13]+0.003*[#  14]+0.003*[#  17]
          +0.003*[#  18]+0.002*[#   9]+0.002*[#  10]
    |psi|^2 = 0.030
==== e(  24) =    20.16541 eV ==== 
     psi = 0.617*[#   2]+0.056*[#  11]+0.056*[#  15]+0.042*[#  12]+0.042*[#  16]
          +0.027*[#  20]+0.009*[#   6]+0.009*[#  13]+0.009*[#  14]+0.009*[#  17]
          +0.009*[#  18]+0.003*[#   1]+0.002*[#  19]
    |psi|^2 = 0.890
==== e(  25) =    25.03884 eV ==== 
     psi = 0.001*[#   2]
    |psi|^2 = 0.007
==== e(  26) =    25.80478 eV ==== 

    |psi|^2 = 0.005
==== e(  27) =    26.07206 eV ==== 
     psi = 0.002*[#   2]
    |psi|^2 = 0.005

 k =   0.1818181818  0.1049727762  0.0000000000
==== e(   1) =   -84.82393 eV ==== 
     psi = 0.964*[#   1]+0.024*[#  20]+0.004*[#  12]+0.004*[#  16]
    |psi|^2 = 1.000
==== e(   2) =   -48.13839 eV ==== 
     psi = 0.498*[#   4]+0.498*[#   5]
    |psi|^2 = 1.000
==== e(   3) =   -48.12534 eV ==== 
     psi = 0.499*[#   4]+0.499*[#   5]
    |psi|^2 = 1.000
==== e(   4) =   -47.98932 eV ==== 
     psi = 0.997*[#   3]
    |psi|^2 = 1.000
==== e(   5) =   -41.99595 eV ==== 
     psi = 0.980*[#  19]+0.013*[#  20]+0.004*[#   2]+0.001*[#  12]+0.001*[#  16]
          
    |psi|^2 = 1.000
==== e(   6) =   -13.91735 eV ==== 
     psi = 0.493*[#  22]+0.493*[#  23]+0.007*[#  21]+0.005*[#  20]
    |psi|^2 = 1.000
==== e(   7) =   -13.88605 eV ==== 
     psi = 0.982*[#  21]+0.004*[#  11]+0.004*[#  15]+0.003*[#  22]+0.003*[#  23]
          +0.001*[#  12]+0.001*[#  16]
    |psi|^2 = 1.000
==== e(   8) =   -13.84118 eV ==== 
     psi = 0.500*[#  22]+0.500*[#  23]
    |psi|^2 = 1.000
==== e(   9) =    -9.38722 eV ==== 
     psi = 0.327*[#  11]+0.327*[#  15]+0.205*[#   2]+0.108*[#  20]+0.008*[#   1]
          +0.006*[#  12]+0.006*[#  16]+0.003*[#   6]+0.003*[#  19]+0.001*[#  22]
          +0.001*[#  23]
    |psi|^2 = 0.999
==== e(  10) =    -7.87596 eV ==== 
     psi = 0.479*[#  11]+0.479*[#  15]+0.009*[#  21]+0.008*[#   7]+0.008*[#   8]
          +0.004*[#   9]+0.004*[#  10]+0.001*[#   3]
    |psi|^2 = 0.996
==== e(  11) =     4.01789 eV ==== 
     psi = 0.341*[#  12]+0.341*[#  16]+0.164*[#   6]+0.089*[#  20]+0.030*[#   2]
          +0.007*[#  11]+0.007*[#  15]+0.004*[#  19]+0.003*[#   9]+0.003*[#  10]
          +0.002*[#  13]+0.002*[#  14]+0.002*[#  17]+0.002*[#  18]+0.001*[#   1]
          
    |psi|^2 = 0.998
==== e(  12) =     4.45630 eV ==== 
     psi = 0.139*[#   9]+0.139*[#  10]+0.132*[#  13]+0.132*[#  14]+0.132*[#  17]
          +0.132*[#  18]+0.071*[#  12]+0.071*[#  16]+0.019*[#   7]+0.019*[#   8]
          +0.001*[#   6]+0.001*[#  21]
    |psi|^2 = 0.991
==== e(  13) =     5.09241 eV ==== 
     psi = 0.146*[#  13]+0.146*[#  14]+0.146*[#  17]+0.146*[#  18]+0.134*[#   9]
          +0.134*[#  10]+0.072*[#   7]+0.072*[#   8]
    |psi|^2 = 0.998
==== e(  14) =     6.32519 eV ==== 
     psi = 0.183*[#  13]+0.183*[#  14]+0.183*[#  17]+0.183*[#  18]+0.068*[#   7]
          +0.068*[#   8]+0.030*[#   2]+0.024*[#  20]+0.020*[#  11]+0.020*[#  15]
          +0.020*[#   6]+0.004*[#   1]+0.002*[#   9]+0.002*[#  10]+0.002*[#  19]
          +0.001*[#  12]+0.001*[#  16]
    |psi|^2 = 0.993
==== e(  15) =     7.31725 eV ==== 
     psi = 0.195*[#  13]+0.195*[#  14]+0.195*[#  17]+0.195*[#  18]+0.085*[#   7]
          +0.085*[#   8]+0.021*[#   9]+0.021*[#  10]
    |psi|^2 = 0.993
==== e(  16) =     7.92917 eV ==== 
     psi = 0.389*[#  12]+0.389*[#  16]+0.048*[#  13]+0.048*[#  14]+0.048*[#  17]
          +0.048*[#  18]+0.006*[#   7]+0.006*[#   8]+0.002*[#   6]+0.001*[#   2]
          +0.001*[#  11]+0.001*[#  15]
    |psi|^2 = 0.990
==== e(  17) =     9.39285 eV ==== 
     psi = 0.258*[#   7]+0.258*[#   8]+0.124*[#   9]+0.124*[#  10]+0.093*[#   6]
          +0.025*[#  12]+0.025*[#  16]+0.016*[#  13]+0.016*[#  14]+0.016*[#  17]
          +0.016*[#  18]+0.015*[#   2]+0.004*[#  11]+0.004*[#  15]
    |psi|^2 = 0.995
==== e(  18) =     9.67140 eV ==== 
     psi = 0.201*[#   7]+0.201*[#   8]+0.198*[#   9]+0.198*[#  10]+0.050*[#  13]
          +0.050*[#  14]+0.050*[#  17]+0.050*[#  18]
    |psi|^2 = 0.997
==== e(  19) =    10.05150 eV ==== 
     psi = 0.703*[#   6]+0.051*[#  12]+0.051*[#  16]+0.048*[#  20]+0.021*[#   9]
          +0.021*[#  10]+0.020*[#   7]+0.020*[#   8]+0.012*[#   2]+0.011*[#  13]
          +0.011*[#  14]+0.011*[#  17]+0.011*[#  18]+0.001*[#  11]+0.001*[#  15]
          
    |psi|^2 = 0.997
==== e(  20) =    11.71384 eV ==== 
     psi = 0.200*[#   9]+0.200*[#  10]+0.113*[#   7]+0.113*[#   8]+0.064*[#  13]
          +0.064*[#  14]+0.064*[#  17]+0.064*[#  18]+0.026*[#  20]+0.018*[#  11]
          +0.018*[#  15]+0.015*[#  12]+0.015*[#  16]
    |psi|^2 = 0.975
==== e(  21) =    12.31438 eV ==== 
     psi = 0.145*[#   9]+0.145*[#  10]+0.141*[#   7]+0.141*[#   8]+0.105*[#  13]
          +0.105*[#  14]+0.105*[#  17]+0.105*[#  18]
    |psi|^2 = 0.992
==== e(  22) =    13.98462 eV ==== 
     psi = 0.603*[#  20]+0.077*[#  11]+0.077*[#  15]+0.036*[#  12]+0.036*[#  16]
          +0.024*[#  13]+0.024*[#  14]+0.024*[#  17]+0.024*[#  18]+0.015*[#   1]
          +0.007*[#  19]+0.005*[#   7]+0.005*[#   8]+0.005*[#   2]+0.003*[#   6]
          +0.002*[#   9]+0.002*[#  10]
    |psi|^2 = 0.973
==== e(  23) =    19.23254 eV ==== 
     psi = 0.004*[#  12]+0.004*[#  16]+0.004*[#  13]+0.004*[#  14]+0.004*[#  17]
          +0.004*[#  18]+0.002*[#   9]+0.002*[#  10]
    |psi|^2 = 0.030
==== e(  24) =    20.34836 eV ==== 
     psi = 0.623*[#   2]+0.054*[#  11]+0.054*[#  15]+0.039*[#  12]+0.039*[#  16]
          +0.025*[#  20]+0.011*[#  13]+0.011*[#  14]+0.011*[#  17]+0.011*[#  18]
          +0.008*[#   6]+0.004*[#   1]+0.002*[#  19]
    |psi|^2 = 0.891
==== e(  25) =    24.47957 eV ==== 
     psi = 0.001*[#  20]
    |psi|^2 = 0.007
==== e(  26) =    25.61792 eV ==== 
     psi = 0.001*[#  13]+0.001*[#  14]+0.001*[#  17]+0.001*[#  18]
    |psi|^2 = 0.007
==== e(  27) =    25.99034 eV ==== 
     psi = 0.002*[#   2]
    |psi|^2 = 0.005

 k =   0.2045454545  0.1180943732  0.0000000000
==== e(   1) =   -84.82357 eV ==== 
     psi = 0.965*[#   1]+0.023*[#  20]+0.004*[#  12]+0.004*[#  16]
    |psi|^2 = 1.000
==== e(   2) =   -48.14230 eV ==== 
     psi = 0.498*[#   4]+0.498*[#   5]+0.001*[#   2]
    |psi|^2 = 1.000
==== e(   3) =   -48.12629 eV ==== 
     psi = 0.499*[#   4]+0.499*[#   5]
    |psi|^2 = 1.000
==== e(   4) =   -47.98873 eV ==== 
     psi = 0.997*[#   3]
    |psi|^2 = 1.000
==== e(   5) =   -41.99356 eV ==== 
     psi = 0.983*[#  19]+0.009*[#  20]+0.005*[#   2]+0.001*[#  12]+0.001*[#  16]
          
    |psi|^2 = 1.000
==== e(   6) =   -13.93852 eV ==== 
     psi = 0.495*[#  22]+0.495*[#  23]+0.006*[#  20]+0.003*[#  21]
    |psi|^2 = 1.000
==== e(   7) =   -13.87974 eV ==== 
     psi = 0.987*[#  21]+0.004*[#  11]+0.004*[#  15]+0.001*[#  22]+0.001*[#  23]
          
    |psi|^2 = 1.000
==== e(   8) =   -13.84556 eV ==== 
     psi = 0.500*[#  22]+0.500*[#  23]
    |psi|^2 = 1.000
==== e(   9) =    -9.29953 eV ==== 
     psi = 0.335*[#  11]+0.335*[#  15]+0.196*[#   2]+0.101*[#  20]+0.007*[#   1]
          +0.006*[#  12]+0.006*[#  16]+0.003*[#   6]+0.002*[#  19]+0.002*[#  22]
          +0.002*[#  23]
    |psi|^2 = 0.999
==== e(  10) =    -7.87935 eV ==== 
     psi = 0.477*[#  11]+0.477*[#  15]+0.009*[#   7]+0.009*[#   8]+0.008*[#  21]
          +0.005*[#   9]+0.005*[#  10]+0.001*[#   3]
    |psi|^2 = 0.996
==== e(  11) =     4.12720 eV ==== 
     psi = 0.337*[#  12]+0.337*[#  16]+0.153*[#   6]+0.080*[#  20]+0.030*[#   2]
          +0.009*[#   9]+0.009*[#  10]+0.008*[#  11]+0.008*[#  15]+0.005*[#  13]
          +0.005*[#  14]+0.005*[#  17]+0.005*[#  18]+0.003*[#  19]+0.001*[#   1]
          
    |psi|^2 = 0.998
==== e(  12) =     4.38867 eV ==== 
     psi = 0.130*[#  13]+0.130*[#  14]+0.130*[#  17]+0.130*[#  18]+0.129*[#   9]
          +0.129*[#  10]+0.086*[#  12]+0.086*[#  16]+0.014*[#   7]+0.014*[#   8]
          +0.006*[#   6]+0.002*[#  20]+0.001*[#  21]
    |psi|^2 = 0.990
==== e(  13) =     5.13512 eV ==== 
     psi = 0.148*[#  13]+0.148*[#  14]+0.148*[#  17]+0.148*[#  18]+0.126*[#   9]
          +0.126*[#  10]+0.078*[#   7]+0.078*[#   8]
    |psi|^2 = 0.998
==== e(  14) =     6.03845 eV ==== 
     psi = 0.178*[#  13]+0.178*[#  14]+0.178*[#  17]+0.178*[#  18]+0.069*[#   7]
          +0.069*[#   8]+0.033*[#   2]+0.029*[#  20]+0.024*[#   6]+0.021*[#  11]
          +0.021*[#  15]+0.004*[#   1]+0.002*[#  19]+0.002*[#  12]+0.002*[#  16]
          +0.001*[#   9]+0.001*[#  10]
    |psi|^2 = 0.993
==== e(  15) =     7.20479 eV ==== 
     psi = 0.195*[#  13]+0.195*[#  14]+0.195*[#  17]+0.195*[#  18]+0.085*[#   7]
          +0.085*[#   8]+0.022*[#   9]+0.022*[#  10]
    |psi|^2 = 0.993
==== e(  16) =     7.93674 eV ==== 
     psi = 0.372*[#  12]+0.372*[#  16]+0.057*[#  13]+0.057*[#  14]+0.057*[#  17]
          +0.057*[#  18]+0.005*[#   7]+0.005*[#   8]+0.003*[#   6]+0.001*[#   9]
          +0.001*[#  10]+0.001*[#   2]
    |psi|^2 = 0.990
==== e(  17) =     9.40433 eV ==== 
     psi = 0.250*[#   7]+0.250*[#   8]+0.121*[#   6]+0.115*[#   9]+0.115*[#  10]
          +0.031*[#  12]+0.031*[#  16]+0.018*[#   2]+0.014*[#  13]+0.014*[#  14]
          +0.014*[#  17]+0.014*[#  18]+0.005*[#  11]+0.005*[#  15]
    |psi|^2 = 0.995
==== e(  18) =     9.72586 eV ==== 
     psi = 0.216*[#   9]+0.216*[#  10]+0.184*[#   7]+0.184*[#   8]+0.049*[#  13]
          +0.049*[#  14]+0.049*[#  17]+0.049*[#  18]
    |psi|^2 = 0.997
==== e(  19) =    10.06159 eV ==== 
     psi = 0.677*[#   6]+0.049*[#  12]+0.049*[#  16]+0.043*[#  20]+0.031*[#   9]
          +0.031*[#  10]+0.026*[#   7]+0.026*[#   8]+0.013*[#  13]+0.013*[#  14]
          +0.013*[#  17]+0.013*[#  18]+0.008*[#   2]+0.002*[#  11]+0.002*[#  15]
          
    |psi|^2 = 0.996
==== e(  20) =    11.61854 eV ==== 
     psi = 0.203*[#   9]+0.203*[#  10]+0.117*[#   7]+0.117*[#   8]+0.054*[#  13]
          +0.054*[#  14]+0.054*[#  17]+0.054*[#  18]+0.029*[#  20]+0.023*[#  12]
          +0.023*[#  16]+0.021*[#  11]+0.021*[#  15]+0.001*[#   6]
    |psi|^2 = 0.975
==== e(  21) =    12.29382 eV ==== 
     psi = 0.152*[#   7]+0.152*[#   8]+0.135*[#   9]+0.135*[#  10]+0.104*[#  13]
          +0.104*[#  14]+0.104*[#  17]+0.104*[#  18]
    |psi|^2 = 0.992
==== e(  22) =    14.20354 eV ==== 
     psi = 0.620*[#  20]+0.068*[#  11]+0.068*[#  15]+0.035*[#  12]+0.035*[#  16]
          +0.025*[#  13]+0.025*[#  14]+0.025*[#  17]+0.025*[#  18]+0.014*[#   1]
          +0.006*[#   7]+0.006*[#   8]+0.005*[#  19]+0.004*[#   2]+0.003*[#   6]
          +0.003*[#   9]+0.003*[#  10]+0.001*[#  22]+0.001*[#  23]
    |psi|^2 = 0.971
==== e(  23) =    19.40259 eV ==== 
     psi = 0.004*[#  13]+0.004*[#  14]+0.004*[#  17]+0.004*[#  18]+0.003*[#  12]
          +0.003*[#  16]+0.002*[#   2]+0.002*[#   9]+0.002*[#  10]
    |psi|^2 = 0.030
==== e(  24) =    20.53905 eV ==== 
     psi = 0.628*[#   2]+0.051*[#  11]+0.051*[#  15]+0.035*[#  12]+0.035*[#  16]
          +0.023*[#  20]+0.013*[#  13]+0.013*[#  14]+0.013*[#  17]+0.013*[#  18]
          +0.007*[#   6]+0.004*[#   1]+0.003*[#  19]
    |psi|^2 = 0.890
==== e(  25) =    23.93606 eV ==== 
     psi = 0.001*[#  20]
    |psi|^2 = 0.007
==== e(  26) =    25.34457 eV ==== 
     psi = 0.001*[#   2]+0.001*[#  13]+0.001*[#  14]+0.001*[#  17]+0.001*[#  18]
          
    |psi|^2 = 0.009
==== e(  27) =    26.02318 eV ==== 
     psi = 0.003*[#   2]
    |psi|^2 = 0.008

 k =   0.2272727273  0.1312159703  0.0000000000
==== e(   1) =   -84.82320 eV ==== 
     psi = 0.966*[#   1]+0.022*[#  20]+0.003*[#  12]+0.003*[#  16]+0.001*[#  13]
          +0.001*[#  14]+0.001*[#  17]+0.001*[#  18]
    |psi|^2 = 1.000
==== e(   2) =   -48.14640 eV ==== 
     psi = 0.498*[#   4]+0.498*[#   5]+0.001*[#   2]
    |psi|^2 = 1.000
==== e(   3) =   -48.12726 eV ==== 
     psi = 0.499*[#   4]+0.499*[#   5]
    |psi|^2 = 1.000
==== e(   4) =   -47.98805 eV ==== 
     psi = 0.997*[#   3]
    |psi|^2 = 1.000
==== e(   5) =   -41.99105 eV ==== 
     psi = 0.986*[#  19]+0.006*[#  20]+0.005*[#   2]+0.001*[#  12]+0.001*[#  16]
          
    |psi|^2 = 1.000
==== e(   6) =   -13.96058 eV ==== 
     psi = 0.495*[#  22]+0.495*[#  23]+0.006*[#  20]+0.002*[#  21]
    |psi|^2 = 1.000
==== e(   7) =   -13.87296 eV ==== 
     psi = 0.988*[#  21]+0.003*[#  11]+0.003*[#  15]
    |psi|^2 = 1.000
==== e(   8) =   -13.85009 eV ==== 
     psi = 0.500*[#  22]+0.500*[#  23]
    |psi|^2 = 1.000
==== e(   9) =    -9.20579 eV ==== 
     psi = 0.345*[#  11]+0.345*[#  15]+0.186*[#   2]+0.092*[#  20]+0.006*[#   1]
          +0.005*[#  12]+0.005*[#  16]+0.002*[#   6]+0.002*[#  19]+0.002*[#  22]
          +0.002*[#  23]
    |psi|^2 = 0.999
==== e(  10) =    -7.88371 eV ==== 
     psi = 0.476*[#  11]+0.476*[#  15]+0.011*[#   7]+0.011*[#   8]+0.007*[#  21]
          +0.006*[#   9]+0.006*[#  10]+0.001*[#   3]
    |psi|^2 = 0.996
==== e(  11) =     4.21583 eV ==== 
     psi = 0.270*[#  12]+0.270*[#  16]+0.103*[#   6]+0.052*[#  20]+0.050*[#   9]
          +0.050*[#  10]+0.038*[#  13]+0.038*[#  14]+0.038*[#  17]+0.038*[#  18]
          +0.027*[#   2]+0.008*[#  11]+0.008*[#  15]+0.002*[#   1]+0.002*[#  19]
          
    |psi|^2 = 0.996
==== e(  12) =     4.34806 eV ==== 
     psi = 0.161*[#  12]+0.161*[#  16]+0.102*[#  13]+0.102*[#  14]+0.102*[#  17]
          +0.102*[#  18]+0.082*[#   9]+0.082*[#  10]+0.046*[#   6]+0.020*[#  20]
          +0.009*[#   7]+0.009*[#   8]+0.005*[#   2]+0.002*[#  11]+0.002*[#  15]
          +0.001*[#  21]
    |psi|^2 = 0.990
==== e(  13) =     5.17904 eV ==== 
     psi = 0.149*[#  13]+0.149*[#  14]+0.149*[#  17]+0.149*[#  18]+0.116*[#   9]
          +0.116*[#  10]+0.084*[#   7]+0.084*[#   8]
    |psi|^2 = 0.997
==== e(  14) =     5.76770 eV ==== 
     psi = 0.173*[#  13]+0.173*[#  14]+0.173*[#  17]+0.173*[#  18]+0.071*[#   7]
          +0.071*[#   8]+0.036*[#   2]+0.034*[#  20]+0.030*[#   6]+0.020*[#  11]
          +0.020*[#  15]+0.005*[#  12]+0.005*[#  16]+0.004*[#   1]+0.003*[#  19]
          
    |psi|^2 = 0.993
==== e(  15) =     7.09964 eV ==== 
     psi = 0.195*[#  13]+0.195*[#  14]+0.195*[#  17]+0.195*[#  18]+0.082*[#   7]
          +0.082*[#   8]+0.022*[#   9]+0.022*[#  10]
    |psi|^2 = 0.993
==== e(  16) =     7.91504 eV ==== 
     psi = 0.355*[#  12]+0.355*[#  16]+0.065*[#  13]+0.065*[#  14]+0.065*[#  17]
          +0.065*[#  18]+0.004*[#   6]+0.004*[#   7]+0.004*[#   8]+0.004*[#   9]
          +0.004*[#  10]+0.001*[#   2]
    |psi|^2 = 0.990
==== e(  17) =     9.40978 eV ==== 
     psi = 0.242*[#   7]+0.242*[#   8]+0.153*[#   6]+0.104*[#   9]+0.104*[#  10]
          +0.036*[#  12]+0.036*[#  16]+0.019*[#   2]+0.012*[#  13]+0.012*[#  14]
          +0.012*[#  17]+0.012*[#  18]+0.005*[#  11]+0.005*[#  15]
    |psi|^2 = 0.995
==== e(  18) =     9.76570 eV ==== 
     psi = 0.236*[#   9]+0.236*[#  10]+0.169*[#   7]+0.169*[#   8]+0.047*[#  13]
          +0.047*[#  14]+0.047*[#  17]+0.047*[#  18]
    |psi|^2 = 0.997
==== e(  19) =    10.06749 eV ==== 
     psi = 0.648*[#   6]+0.047*[#  12]+0.047*[#  16]+0.043*[#   9]+0.043*[#  10]
          +0.037*[#  20]+0.032*[#   7]+0.032*[#   8]+0.015*[#  13]+0.015*[#  14]
          +0.015*[#  17]+0.015*[#  18]+0.005*[#   2]+0.002*[#  11]+0.002*[#  15]
          
    |psi|^2 = 0.996
==== e(  20) =    11.54948 eV ==== 
     psi = 0.204*[#   9]+0.204*[#  10]+0.122*[#   7]+0.122*[#   8]+0.044*[#  13]
          +0.044*[#  14]+0.044*[#  17]+0.044*[#  18]+0.033*[#  12]+0.033*[#  16]
          +0.033*[#  20]+0.023*[#  11]+0.023*[#  15]+0.003*[#   6]
    |psi|^2 = 0.977
==== e(  21) =    12.27894 eV ==== 
     psi = 0.164*[#   7]+0.164*[#   8]+0.124*[#   9]+0.124*[#  10]+0.104*[#  13]
          +0.104*[#  14]+0.104*[#  17]+0.104*[#  18]
    |psi|^2 = 0.992
==== e(  22) =    14.42874 eV ==== 
     psi = 0.640*[#  20]+0.060*[#  11]+0.060*[#  15]+0.034*[#  12]+0.034*[#  16]
          +0.025*[#  13]+0.025*[#  14]+0.025*[#  17]+0.025*[#  18]+0.012*[#   1]
          +0.006*[#   7]+0.006*[#   8]+0.003*[#   2]+0.003*[#  19]+0.003*[#   9]
          +0.003*[#  10]+0.002*[#   6]+0.001*[#  22]+0.001*[#  23]
    |psi|^2 = 0.968
==== e(  23) =    19.55120 eV ==== 
     psi = 0.004*[#   2]+0.004*[#  13]+0.004*[#  14]+0.004*[#  17]+0.004*[#  18]
          +0.003*[#  12]+0.003*[#  16]+0.002*[#   9]+0.002*[#  10]
    |psi|^2 = 0.031
==== e(  24) =    20.73060 eV ==== 
     psi = 0.630*[#   2]+0.048*[#  11]+0.048*[#  15]+0.031*[#  12]+0.031*[#  16]
          +0.021*[#  20]+0.015*[#  13]+0.015*[#  14]+0.015*[#  17]+0.015*[#  18]
          +0.006*[#   6]+0.005*[#   1]+0.003*[#  19]
    |psi|^2 = 0.884
==== e(  25) =    23.41726 eV ==== 
     psi = 0.002*[#  20]
    |psi|^2 = 0.008
==== e(  26) =    25.09414 eV ==== 
     psi = 0.002*[#   2]+0.001*[#  13]+0.001*[#  14]+0.001*[#  17]+0.001*[#  18]
          
    |psi|^2 = 0.011
==== e(  27) =    26.04835 eV ==== 
     psi = 0.006*[#   2]
    |psi|^2 = 0.013

 k =   0.2500000000  0.1443375673  0.0000000000
==== e(   1) =   -84.82283 eV ==== 
     psi = 0.968*[#   1]+0.020*[#  20]+0.003*[#  12]+0.003*[#  16]+0.001*[#  13]
          +0.001*[#  14]+0.001*[#  17]+0.001*[#  18]
    |psi|^2 = 1.000
==== e(   2) =   -48.15056 eV ==== 
     psi = 0.497*[#   4]+0.497*[#   5]+0.001*[#   2]
    |psi|^2 = 1.000
==== e(   3) =   -48.12830 eV ==== 
     psi = 0.499*[#   4]+0.499*[#   5]
    |psi|^2 = 1.000
==== e(   4) =   -47.98745 eV ==== 
     psi = 0.997*[#   3]
    |psi|^2 = 1.000
==== e(   5) =   -41.98851 eV ==== 
     psi = 0.989*[#  19]+0.006*[#   2]+0.003*[#  20]
    |psi|^2 = 1.000
==== e(   6) =   -13.98289 eV ==== 
     psi = 0.495*[#  22]+0.495*[#  23]+0.006*[#  20]+0.001*[#  21]
    |psi|^2 = 1.000
==== e(   7) =   -13.86627 eV ==== 
     psi = 0.990*[#  21]+0.003*[#  11]+0.003*[#  15]
    |psi|^2 = 1.000
==== e(   8) =   -13.85479 eV ==== 
     psi = 0.500*[#  22]+0.500*[#  23]
    |psi|^2 = 1.000
==== e(   9) =    -9.10738 eV ==== 
     psi = 0.355*[#  11]+0.355*[#  15]+0.174*[#   2]+0.083*[#  20]+0.005*[#   1]
          +0.005*[#  12]+0.005*[#  16]+0.002*[#   6]+0.002*[#  22]+0.002*[#  23]
          +0.002*[#  19]+0.001*[#   4]+0.001*[#   5]
    |psi|^2 = 0.999
==== e(  10) =    -7.88928 eV ==== 
     psi = 0.474*[#  11]+0.474*[#  15]+0.012*[#   7]+0.012*[#   8]+0.007*[#   9]
          +0.007*[#  10]+0.006*[#  21]+0.001*[#   3]
    |psi|^2 = 0.996
==== e(  11) =     4.20139 eV ==== 
     psi = 0.133*[#  12]+0.133*[#  16]+0.113*[#   9]+0.113*[#  10]+0.109*[#  13]
          +0.109*[#  14]+0.109*[#  17]+0.109*[#  18]+0.021*[#   6]+0.014*[#   2]
          +0.011*[#  20]+0.005*[#  11]+0.005*[#  15]+0.001*[#   1]+0.001*[#  21]
          
    |psi|^2 = 0.991
==== e(  12) =     4.40761 eV ==== 
     psi = 0.300*[#  12]+0.300*[#  16]+0.113*[#   6]+0.047*[#  20]+0.039*[#  13]
          +0.039*[#  14]+0.039*[#  17]+0.039*[#  18]+0.022*[#   2]+0.013*[#   9]
          +0.013*[#  10]+0.007*[#  11]+0.007*[#  15]+0.006*[#   7]+0.006*[#   8]
          +0.001*[#  19]
    |psi|^2 = 0.994
==== e(  13) =     5.22285 eV ==== 
     psi = 0.150*[#  13]+0.150*[#  14]+0.150*[#  17]+0.150*[#  18]+0.106*[#   9]
          +0.106*[#  10]+0.092*[#   7]+0.092*[#   8]
    |psi|^2 = 0.997
==== e(  14) =     5.52574 eV ==== 
     psi = 0.166*[#  13]+0.166*[#  14]+0.166*[#  17]+0.166*[#  18]+0.070*[#   7]
          +0.070*[#   8]+0.042*[#  20]+0.041*[#   6]+0.036*[#   2]+0.018*[#  11]
          +0.018*[#  15]+0.014*[#  12]+0.014*[#  16]+0.004*[#   1]+0.003*[#  19]
          
    |psi|^2 = 0.993
==== e(  15) =     7.00333 eV ==== 
     psi = 0.197*[#  13]+0.197*[#  14]+0.197*[#  17]+0.197*[#  18]+0.078*[#   7]
          +0.078*[#   8]+0.022*[#   9]+0.022*[#  10]
    |psi|^2 = 0.992
==== e(  16) =     7.86256 eV ==== 
     psi = 0.337*[#  12]+0.337*[#  16]+0.072*[#  13]+0.072*[#  14]+0.072*[#  17]
          +0.072*[#  18]+0.008*[#   9]+0.008*[#  10]+0.004*[#   6]+0.002*[#   7]
          +0.002*[#   8]+0.002*[#   2]
    |psi|^2 = 0.989
==== e(  17) =     9.40949 eV ==== 
     psi = 0.235*[#   7]+0.235*[#   8]+0.188*[#   6]+0.092*[#   9]+0.092*[#  10]
          +0.040*[#  12]+0.040*[#  16]+0.021*[#   2]+0.010*[#  13]+0.010*[#  14]
          +0.010*[#  17]+0.010*[#  18]+0.005*[#  11]+0.005*[#  15]
    |psi|^2 = 0.995
==== e(  18) =     9.79059 eV ==== 
     psi = 0.257*[#   9]+0.257*[#  10]+0.153*[#   7]+0.153*[#   8]+0.044*[#  13]
          +0.044*[#  14]+0.044*[#  17]+0.044*[#  18]
    |psi|^2 = 0.997
==== e(  19) =    10.06798 eV ==== 
     psi = 0.616*[#   6]+0.057*[#   9]+0.057*[#  10]+0.044*[#  12]+0.044*[#  16]
          +0.038*[#   7]+0.038*[#   8]+0.030*[#  20]+0.016*[#  13]+0.016*[#  14]
          +0.016*[#  17]+0.016*[#  18]+0.002*[#   2]+0.002*[#  11]+0.002*[#  15]
          
    |psi|^2 = 0.996
==== e(  20) =    11.50969 eV ==== 
     psi = 0.202*[#   9]+0.202*[#  10]+0.126*[#   7]+0.126*[#   8]+0.045*[#  12]
          +0.045*[#  16]+0.035*[#  20]+0.035*[#  13]+0.035*[#  14]+0.035*[#  17]
          +0.035*[#  18]+0.025*[#  11]+0.025*[#  15]+0.005*[#   6]
    |psi|^2 = 0.979
==== e(  21) =    12.27053 eV ==== 
     psi = 0.176*[#   7]+0.176*[#   8]+0.113*[#   9]+0.113*[#  10]+0.104*[#  13]
          +0.104*[#  14]+0.104*[#  17]+0.104*[#  18]
    |psi|^2 = 0.992
==== e(  22) =    14.65944 eV ==== 
     psi = 0.661*[#  20]+0.053*[#  11]+0.053*[#  15]+0.032*[#  12]+0.032*[#  16]
          +0.024*[#  13]+0.024*[#  14]+0.024*[#  17]+0.024*[#  18]+0.011*[#   1]
          +0.006*[#   7]+0.006*[#   8]+0.003*[#   2]+0.003*[#   9]+0.003*[#  10]
          +0.002*[#   6]+0.001*[#  19]+0.001*[#  22]+0.001*[#  23]
    |psi|^2 = 0.965
==== e(  23) =    19.66851 eV ==== 
     psi = 0.009*[#   2]+0.004*[#  13]+0.004*[#  14]+0.004*[#  17]+0.004*[#  18]
          +0.002*[#  12]+0.002*[#  16]+0.001*[#   9]+0.001*[#  10]
    |psi|^2 = 0.034
==== e(  24) =    20.91534 eV ==== 
     psi = 0.627*[#   2]+0.044*[#  11]+0.044*[#  15]+0.028*[#  12]+0.028*[#  16]
          +0.019*[#  20]+0.016*[#  13]+0.016*[#  14]+0.016*[#  17]+0.016*[#  18]
          +0.006*[#   1]+0.005*[#   6]+0.003*[#  19]
    |psi|^2 = 0.870
==== e(  25) =    22.93152 eV ==== 
     psi = 0.003*[#  20]+0.001*[#  13]+0.001*[#  14]+0.001*[#  17]+0.001*[#  18]
          
    |psi|^2 = 0.013
==== e(  26) =    24.88127 eV ==== 
     psi = 0.003*[#   2]+0.002*[#  13]+0.002*[#  14]+0.002*[#  17]+0.002*[#  18]
          +0.001*[#  12]+0.001*[#  16]
    |psi|^2 = 0.014
==== e(  27) =    26.03351 eV ==== 
     psi = 0.014*[#   2]+0.001*[#  20]+0.001*[#  13]+0.001*[#  14]+0.001*[#  17]
          +0.001*[#  18]
    |psi|^2 = 0.023

 k =   0.2727272727  0.1574591643  0.0000000000
==== e(   1) =   -84.82245 eV ==== 
     psi = 0.969*[#   1]+0.018*[#  20]+0.003*[#  12]+0.003*[#  16]+0.002*[#  13]
          +0.002*[#  14]+0.002*[#  17]+0.002*[#  18]
    |psi|^2 = 1.000
==== e(   2) =   -48.15465 eV ==== 
     psi = 0.497*[#   4]+0.497*[#   5]+0.001*[#   2]
    |psi|^2 = 1.000
==== e(   3) =   -48.12926 eV ==== 
     psi = 0.499*[#   4]+0.499*[#   5]
    |psi|^2 = 1.000
==== e(   4) =   -47.98683 eV ==== 
     psi = 0.997*[#   3]
    |psi|^2 = 1.000
==== e(   5) =   -41.98594 eV ==== 
     psi = 0.990*[#  19]+0.006*[#   2]
    |psi|^2 = 1.000
==== e(   6) =   -14.00492 eV ==== 
     psi = 0.494*[#  22]+0.494*[#  23]+0.006*[#  20]+0.001*[#  21]
    |psi|^2 = 1.000
==== e(   7) =   -13.85957 eV ==== 
     psi = 0.991*[#  21]+0.003*[#  11]+0.003*[#  15]
    |psi|^2 = 1.000
==== e(   8) =   -13.85933 eV ==== 
     psi = 0.500*[#  22]+0.500*[#  23]
    |psi|^2 = 1.000
==== e(   9) =    -9.00577 eV ==== 
     psi = 0.367*[#  11]+0.367*[#  15]+0.161*[#   2]+0.073*[#  20]+0.005*[#  12]
          +0.005*[#  16]+0.004*[#   1]+0.002*[#  22]+0.002*[#  23]+0.002*[#   6]
          +0.001*[#   4]+0.001*[#   5]+0.001*[#  19]+0.001*[#  13]+0.001*[#  14]
          +0.001*[#  17]+0.001*[#  18]
    |psi|^2 = 0.999
==== e(  10) =    -7.89628 eV ==== 
     psi = 0.472*[#  11]+0.472*[#  15]+0.014*[#   7]+0.014*[#   8]+0.008*[#   9]
          +0.008*[#  10]+0.006*[#  21]
    |psi|^2 = 0.997
==== e(  11) =     4.13056 eV ==== 
     psi = 0.126*[#  13]+0.126*[#  14]+0.126*[#  17]+0.126*[#  18]+0.114*[#   9]
          +0.114*[#  10]+0.108*[#  12]+0.108*[#  16]+0.016*[#   2]+0.007*[#   6]
          +0.006*[#  11]+0.006*[#  15]+0.003*[#  20]+0.002*[#   1]+0.001*[#  21]
          
    |psi|^2 = 0.989
==== e(  12) =     4.50413 eV ==== 
     psi = 0.309*[#  12]+0.309*[#  16]+0.103*[#   6]+0.039*[#  13]+0.039*[#  14]
          +0.039*[#  17]+0.039*[#  18]+0.037*[#  20]+0.031*[#   2]+0.010*[#  11]
          +0.010*[#  15]+0.008*[#   7]+0.008*[#   8]+0.004*[#   9]+0.004*[#  10]
          +0.001*[#   1]
    |psi|^2 = 0.995
==== e(  13) =     5.26522 eV ==== 
     psi = 0.151*[#  13]+0.151*[#  14]+0.151*[#  17]+0.151*[#  18]+0.101*[#   7]
          +0.101*[#   8]+0.096*[#   9]+0.096*[#  10]
    |psi|^2 = 0.997
==== e(  14) =     5.33201 eV ==== 
     psi = 0.150*[#  13]+0.150*[#  14]+0.150*[#  17]+0.150*[#  18]+0.065*[#   7]
          +0.065*[#   8]+0.059*[#   6]+0.053*[#  20]+0.040*[#  12]+0.040*[#  16]
          +0.032*[#   2]+0.014*[#  11]+0.014*[#  15]+0.003*[#   1]+0.003*[#  19]
          +0.002*[#   9]+0.002*[#  10]
    |psi|^2 = 0.993
==== e(  15) =     6.91727 eV ==== 
     psi = 0.201*[#  13]+0.201*[#  14]+0.201*[#  17]+0.201*[#  18]+0.072*[#   7]
          +0.072*[#   8]+0.022*[#   9]+0.022*[#  10]
    |psi|^2 = 0.992
==== e(  16) =     7.78082 eV ==== 
     psi = 0.321*[#  12]+0.321*[#  16]+0.077*[#  13]+0.077*[#  14]+0.077*[#  17]
          +0.077*[#  18]+0.012*[#   9]+0.012*[#  10]+0.005*[#   6]+0.002*[#   2]
          +0.001*[#  20]+0.001*[#   7]+0.001*[#   8]
    |psi|^2 = 0.988
==== e(  17) =     9.40376 eV ==== 
     psi = 0.228*[#   7]+0.228*[#   8]+0.227*[#   6]+0.080*[#   9]+0.080*[#  10]
          +0.043*[#  12]+0.043*[#  16]+0.021*[#   2]+0.009*[#  13]+0.009*[#  14]
          +0.009*[#  17]+0.009*[#  18]+0.006*[#  11]+0.006*[#  15]
    |psi|^2 = 0.994
==== e(  18) =     9.80122 eV ==== 
     psi = 0.279*[#   9]+0.279*[#  10]+0.139*[#   7]+0.139*[#   8]+0.040*[#  13]
          +0.040*[#  14]+0.040*[#  17]+0.040*[#  18]
    |psi|^2 = 0.997
==== e(  19) =    10.06247 eV ==== 
     psi = 0.580*[#   6]+0.074*[#   9]+0.074*[#  10]+0.044*[#   7]+0.044*[#   8]
          +0.041*[#  12]+0.041*[#  16]+0.023*[#  20]+0.017*[#  13]+0.017*[#  14]
          +0.017*[#  17]+0.017*[#  18]+0.002*[#  11]+0.002*[#  15]
    |psi|^2 = 0.995
==== e(  20) =    11.49914 eV ==== 
     psi = 0.198*[#   9]+0.198*[#  10]+0.131*[#   7]+0.131*[#   8]+0.058*[#  12]
          +0.058*[#  16]+0.037*[#  20]+0.027*[#  11]+0.027*[#  15]+0.027*[#  13]
          +0.027*[#  14]+0.027*[#  17]+0.027*[#  18]+0.009*[#   6]
    |psi|^2 = 0.981
==== e(  21) =    12.26878 eV ==== 
     psi = 0.187*[#   7]+0.187*[#   8]+0.104*[#  13]+0.104*[#  14]+0.104*[#  17]
          +0.104*[#  18]+0.102*[#   9]+0.102*[#  10]
    |psi|^2 = 0.992
==== e(  22) =    14.89472 eV ==== 
     psi = 0.684*[#  20]+0.045*[#  11]+0.045*[#  15]+0.030*[#  12]+0.030*[#  16]
          +0.023*[#  13]+0.023*[#  14]+0.023*[#  17]+0.023*[#  18]+0.010*[#   1]
          +0.006*[#   7]+0.006*[#   8]+0.003*[#   2]+0.003*[#   9]+0.003*[#  10]
          +0.001*[#  22]+0.001*[#  23]+0.001*[#   6]
    |psi|^2 = 0.960
==== e(  23) =    19.74491 eV ==== 
     psi = 0.017*[#   2]+0.004*[#  13]+0.004*[#  14]+0.004*[#  17]+0.004*[#  18]
          +0.002*[#  12]+0.002*[#  16]+0.001*[#   9]+0.001*[#  10]+0.001*[#  11]
          +0.001*[#  15]
    |psi|^2 = 0.040
==== e(  24) =    21.08429 eV ==== 
     psi = 0.613*[#   2]+0.039*[#  11]+0.039*[#  15]+0.024*[#  12]+0.024*[#  16]
          +0.018*[#  20]+0.017*[#  13]+0.017*[#  14]+0.017*[#  17]+0.017*[#  18]
          +0.006*[#   1]+0.005*[#   6]+0.003*[#  19]
    |psi|^2 = 0.841
==== e(  25) =    22.48831 eV ==== 
     psi = 0.006*[#   2]+0.004*[#  20]+0.002*[#  13]+0.002*[#  14]+0.002*[#  17]
          +0.002*[#  18]+0.001*[#  11]+0.001*[#  15]
    |psi|^2 = 0.023
==== e(  26) =    24.71039 eV ==== 
     psi = 0.005*[#   2]+0.002*[#  13]+0.002*[#  14]+0.002*[#  17]+0.002*[#  18]
          +0.001*[#  12]+0.001*[#  16]
    |psi|^2 = 0.017
==== e(  27) =    25.96258 eV ==== 
     psi = 0.027*[#   2]+0.003*[#  20]+0.002*[#  13]+0.002*[#  14]+0.002*[#  17]
          +0.002*[#  18]
    |psi|^2 = 0.042

 k =   0.2954545455  0.1705807614  0.0000000000
==== e(   1) =   -84.82206 eV ==== 
     psi = 0.971*[#   1]+0.016*[#  20]+0.002*[#  12]+0.002*[#  16]+0.002*[#  13]
          +0.002*[#  14]+0.002*[#  17]+0.002*[#  18]
    |psi|^2 = 1.000
==== e(   2) =   -48.15871 eV ==== 
     psi = 0.497*[#   4]+0.497*[#   5]+0.001*[#   2]
    |psi|^2 = 1.000
==== e(   3) =   -48.13014 eV ==== 
     psi = 0.499*[#   4]+0.499*[#   5]
    |psi|^2 = 1.000
==== e(   4) =   -47.98615 eV ==== 
     psi = 0.997*[#   3]
    |psi|^2 = 1.000
==== e(   5) =   -41.98341 eV ==== 
     psi = 0.991*[#  19]+0.006*[#   2]
    |psi|^2 = 1.000
==== e(   6) =   -14.02646 eV ==== 
     psi = 0.494*[#  22]+0.494*[#  23]+0.006*[#  20]+0.001*[#  11]+0.001*[#  15]
          +0.001*[#  21]
    |psi|^2 = 1.000
==== e(   7) =   -13.86365 eV ==== 
     psi = 0.500*[#  22]+0.500*[#  23]
    |psi|^2 = 1.000
==== e(   8) =   -13.85282 eV ==== 
     psi = 0.992*[#  21]+0.002*[#  11]+0.002*[#  15]
    |psi|^2 = 1.000
==== e(   9) =    -8.90255 eV ==== 
     psi = 0.379*[#  11]+0.379*[#  15]+0.147*[#   2]+0.063*[#  20]+0.005*[#  12]
          +0.005*[#  16]+0.004*[#   1]+0.002*[#  22]+0.002*[#  23]+0.002*[#   6]
          +0.001*[#   4]+0.001*[#   5]+0.001*[#   9]+0.001*[#  10]+0.001*[#   7]
          +0.001*[#   8]+0.001*[#  13]+0.001*[#  14]+0.001*[#  17]+0.001*[#  18]
          
    |psi|^2 = 0.999
==== e(  10) =    -7.90500 eV ==== 
     psi = 0.471*[#  11]+0.471*[#  15]+0.015*[#   7]+0.015*[#   8]+0.009*[#   9]
          +0.009*[#  10]+0.005*[#  21]
    |psi|^2 = 0.997
==== e(  11) =     4.03783 eV ==== 
     psi = 0.133*[#  13]+0.133*[#  14]+0.133*[#  17]+0.133*[#  18]+0.104*[#   9]
          +0.104*[#  10]+0.099*[#  12]+0.099*[#  16]+0.024*[#   2]+0.008*[#  11]
          +0.008*[#  15]+0.003*[#   6]+0.002*[#   1]+0.002*[#   7]+0.002*[#   8]
          +0.001*[#  21]
    |psi|^2 = 0.989
==== e(  12) =     4.57583 eV ==== 
     psi = 0.269*[#  12]+0.269*[#  16]+0.069*[#   6]+0.064*[#  13]+0.064*[#  14]
          +0.064*[#  17]+0.064*[#  18]+0.038*[#   2]+0.019*[#  20]+0.015*[#   7]
          +0.015*[#   8]+0.014*[#  11]+0.014*[#  15]+0.005*[#   9]+0.005*[#  10]
          +0.002*[#   1]
    |psi|^2 = 0.994
==== e(  13) =     5.21542 eV ==== 
     psi = 0.119*[#  13]+0.119*[#  14]+0.119*[#  17]+0.119*[#  18]+0.098*[#  12]
          +0.098*[#  16]+0.090*[#   6]+0.066*[#  20]+0.053*[#   7]+0.053*[#   8]
          +0.021*[#   2]+0.008*[#  11]+0.008*[#  15]+0.006*[#   9]+0.006*[#  10]
          +0.003*[#  19]+0.002*[#   1]
    |psi|^2 = 0.993
==== e(  14) =     5.30479 eV ==== 
     psi = 0.151*[#  13]+0.151*[#  14]+0.151*[#  17]+0.151*[#  18]+0.111*[#   7]
          +0.111*[#   8]+0.085*[#   9]+0.085*[#  10]
    |psi|^2 = 0.997
==== e(  15) =     6.84245 eV ==== 
     psi = 0.205*[#  13]+0.205*[#  14]+0.205*[#  17]+0.205*[#  18]+0.064*[#   7]
          +0.064*[#   8]+0.021*[#   9]+0.021*[#  10]
    |psi|^2 = 0.991
==== e(  16) =     7.67399 eV ==== 
     psi = 0.308*[#  12]+0.308*[#  16]+0.081*[#  13]+0.081*[#  14]+0.081*[#  17]
          +0.081*[#  18]+0.018*[#   9]+0.018*[#  10]+0.004*[#   6]+0.002*[#   2]
          +0.002*[#  20]
    |psi|^2 = 0.987
==== e(  17) =     9.39273 eV ==== 
     psi = 0.270*[#   6]+0.219*[#   7]+0.219*[#   8]+0.067*[#   9]+0.067*[#  10]
          +0.045*[#  12]+0.045*[#  16]+0.021*[#   2]+0.007*[#  13]+0.007*[#  14]
          +0.007*[#  17]+0.007*[#  18]+0.006*[#  11]+0.006*[#  15]
    |psi|^2 = 0.994
==== e(  18) =     9.79909 eV ==== 
     psi = 0.301*[#   9]+0.301*[#  10]+0.126*[#   7]+0.126*[#   8]+0.035*[#  13]
          +0.035*[#  14]+0.035*[#  17]+0.035*[#  18]
    |psi|^2 = 0.997
==== e(  19) =    10.05118 eV ==== 
     psi = 0.540*[#   6]+0.092*[#   9]+0.092*[#  10]+0.052*[#   7]+0.052*[#   8]
          +0.037*[#  12]+0.037*[#  16]+0.018*[#  13]+0.018*[#  14]+0.018*[#  17]
          +0.018*[#  18]+0.017*[#  20]+0.001*[#  11]+0.001*[#  15]
    |psi|^2 = 0.995
==== e(  20) =    11.51441 eV ==== 
     psi = 0.193*[#   9]+0.193*[#  10]+0.134*[#   7]+0.134*[#   8]+0.071*[#  12]
          +0.071*[#  16]+0.037*[#  20]+0.028*[#  11]+0.028*[#  15]+0.020*[#  13]
          +0.020*[#  14]+0.020*[#  17]+0.020*[#  18]+0.013*[#   6]
    |psi|^2 = 0.984
==== e(  21) =    12.27316 eV ==== 
     psi = 0.198*[#   7]+0.198*[#   8]+0.103*[#  13]+0.103*[#  14]+0.103*[#  17]
          +0.103*[#  18]+0.091*[#   9]+0.091*[#  10]
    |psi|^2 = 0.993
==== e(  22) =    15.13408 eV ==== 
     psi = 0.706*[#  20]+0.038*[#  11]+0.038*[#  15]+0.028*[#  12]+0.028*[#  16]
          +0.021*[#  13]+0.021*[#  14]+0.021*[#  17]+0.021*[#  18]+0.008*[#   1]
          +0.006*[#   7]+0.006*[#   8]+0.003*[#   2]+0.002*[#   9]+0.002*[#  10]
          +0.001*[#  22]+0.001*[#  23]
    |psi|^2 = 0.953
==== e(  23) =    19.76927 eV ==== 
     psi = 0.027*[#   2]+0.003*[#  13]+0.003*[#  14]+0.003*[#  17]+0.003*[#  18]
          +0.002*[#  20]+0.001*[#  11]+0.001*[#  15]
    |psi|^2 = 0.050
==== e(  24) =    21.22682 eV ==== 
     psi = 0.577*[#   2]+0.033*[#  11]+0.033*[#  15]+0.020*[#  12]+0.020*[#  16]
          +0.016*[#  13]+0.016*[#  14]+0.016*[#  17]+0.016*[#  18]+0.016*[#  20]
          +0.007*[#   1]+0.004*[#   6]+0.003*[#  19]
    |psi|^2 = 0.783
==== e(  25) =    22.10158 eV ==== 
     psi = 0.023*[#   2]+0.005*[#  20]+0.004*[#  13]+0.004*[#  14]+0.004*[#  17]
          +0.004*[#  18]+0.003*[#  11]+0.003*[#  15]+0.001*[#   6]+0.001*[#  12]
          +0.001*[#  16]
    |psi|^2 = 0.053
==== e(  26) =    24.58258 eV ==== 
     psi = 0.008*[#   2]+0.002*[#  13]+0.002*[#  14]+0.002*[#  17]+0.002*[#  18]
          +0.002*[#  12]+0.002*[#  16]+0.001*[#   9]+0.001*[#  10]
    |psi|^2 = 0.022
==== e(  27) =    25.84527 eV ==== 
     psi = 0.046*[#   2]+0.005*[#  20]+0.002*[#  13]+0.002*[#  14]+0.002*[#  17]
          +0.002*[#  18]+0.001*[#  11]+0.001*[#  12]+0.001*[#  15]+0.001*[#  16]
          
    |psi|^2 = 0.069

 k =   0.3181818182  0.1837023584  0.0000000000
==== e(   1) =   -84.82171 eV ==== 
     psi = 0.972*[#   1]+0.013*[#  20]+0.002*[#  13]+0.002*[#  14]+0.002*[#  17]
          +0.002*[#  18]+0.002*[#  12]+0.002*[#  16]+0.001*[#   2]
    |psi|^2 = 1.000
==== e(   2) =   -48.16263 eV ==== 
     psi = 0.497*[#   4]+0.497*[#   5]+0.001*[#   2]
    |psi|^2 = 1.000
==== e(   3) =   -48.13109 eV ==== 
     psi = 0.499*[#   4]+0.499*[#   5]
    |psi|^2 = 1.000
==== e(   4) =   -47.98551 eV ==== 
     psi = 0.997*[#   3]
    |psi|^2 = 1.000
==== e(   5) =   -41.98101 eV ==== 
     psi = 0.991*[#  19]+0.006*[#   2]
    |psi|^2 = 1.000
==== e(   6) =   -14.04701 eV ==== 
     psi = 0.494*[#  22]+0.494*[#  23]+0.006*[#  20]+0.001*[#  11]+0.001*[#  15]
          
    |psi|^2 = 1.000
==== e(   7) =   -13.86799 eV ==== 
     psi = 0.500*[#  22]+0.500*[#  23]
    |psi|^2 = 1.000
==== e(   8) =   -13.84642 eV ==== 
     psi = 0.993*[#  21]+0.002*[#  11]+0.002*[#  15]
    |psi|^2 = 1.000
==== e(   9) =    -8.79934 eV ==== 
     psi = 0.391*[#  11]+0.391*[#  15]+0.131*[#   2]+0.053*[#  20]+0.005*[#  12]
          +0.005*[#  16]+0.003*[#   1]+0.002*[#  22]+0.002*[#  23]+0.002*[#   9]
          +0.002*[#  10]+0.002*[#   7]+0.002*[#   8]+0.001*[#   4]+0.001*[#   5]
          +0.001*[#   6]+0.001*[#  13]+0.001*[#  14]+0.001*[#  17]+0.001*[#  18]
          
    |psi|^2 = 0.999
==== e(  10) =    -7.91579 eV ==== 
     psi = 0.470*[#  11]+0.470*[#  15]+0.015*[#   7]+0.015*[#   8]+0.010*[#   9]
          +0.010*[#  10]+0.004*[#  21]
    |psi|^2 = 0.997
==== e(  11) =     3.92281 eV ==== 
     psi = 0.139*[#  13]+0.139*[#  14]+0.139*[#  17]+0.139*[#  18]+0.089*[#   9]
          +0.089*[#  10]+0.088*[#  12]+0.088*[#  16]+0.037*[#   2]+0.010*[#  11]
          +0.010*[#  15]+0.007*[#   7]+0.007*[#   8]+0.003*[#   1]+0.002*[#   6]
          
    |psi|^2 = 0.990
==== e(  12) =     4.60072 eV ==== 
     psi = 0.201*[#  12]+0.201*[#  16]+0.102*[#  13]+0.102*[#  14]+0.102*[#  17]
          +0.102*[#  18]+0.042*[#   2]+0.033*[#   6]+0.024*[#   7]+0.024*[#   8]
          +0.015*[#  11]+0.015*[#  15]+0.009*[#   9]+0.009*[#  10]+0.005*[#  20]
          +0.002*[#   1]
    |psi|^2 = 0.992
==== e(  13) =     5.19861 eV ==== 
     psi = 0.185*[#  12]+0.185*[#  16]+0.122*[#   6]+0.078*[#  13]+0.078*[#  14]
          +0.078*[#  17]+0.078*[#  18]+0.073*[#  20]+0.036*[#   7]+0.036*[#   8]
          +0.011*[#   9]+0.011*[#  10]+0.010*[#   2]+0.003*[#  11]+0.003*[#  15]
          +0.002*[#  19]+0.001*[#   1]
    |psi|^2 = 0.993
==== e(  14) =     5.34028 eV ==== 
     psi = 0.151*[#  13]+0.151*[#  14]+0.151*[#  17]+0.151*[#  18]+0.121*[#   7]
          +0.121*[#   8]+0.075*[#   9]+0.075*[#  10]
    |psi|^2 = 0.997
==== e(  15) =     6.77941 eV ==== 
     psi = 0.210*[#  13]+0.210*[#  14]+0.210*[#  17]+0.210*[#  18]+0.055*[#   7]
          +0.055*[#   8]+0.020*[#   9]+0.020*[#  10]+0.001*[#   4]+0.001*[#   5]
          
    |psi|^2 = 0.990
==== e(  16) =     7.54805 eV ==== 
     psi = 0.297*[#  12]+0.297*[#  16]+0.083*[#  13]+0.083*[#  14]+0.083*[#  17]
          +0.083*[#  18]+0.023*[#   9]+0.023*[#  10]+0.004*[#   6]+0.003*[#  20]
          +0.002*[#   2]
    |psi|^2 = 0.986
==== e(  17) =     9.37665 eV ==== 
     psi = 0.316*[#   6]+0.210*[#   7]+0.210*[#   8]+0.054*[#   9]+0.054*[#  10]
          +0.047*[#  12]+0.047*[#  16]+0.020*[#   2]+0.006*[#  11]+0.006*[#  13]
          +0.006*[#  14]+0.006*[#  15]+0.006*[#  17]+0.006*[#  18]
    |psi|^2 = 0.994
==== e(  18) =     9.78631 eV ==== 
     psi = 0.323*[#   9]+0.323*[#  10]+0.115*[#   7]+0.115*[#   8]+0.030*[#  13]
          +0.030*[#  14]+0.030*[#  17]+0.030*[#  18]
    |psi|^2 = 0.997
==== e(  19) =    10.03497 eV ==== 
     psi = 0.498*[#   6]+0.110*[#   9]+0.110*[#  10]+0.060*[#   7]+0.060*[#   8]
          +0.033*[#  12]+0.033*[#  16]+0.019*[#  13]+0.019*[#  14]+0.019*[#  17]
          +0.019*[#  18]+0.012*[#  20]+0.001*[#  11]+0.001*[#  15]
    |psi|^2 = 0.995
==== e(  20) =    11.55010 eV ==== 
     psi = 0.187*[#   9]+0.187*[#  10]+0.138*[#   7]+0.138*[#   8]+0.082*[#  12]
          +0.082*[#  16]+0.036*[#  20]+0.028*[#  11]+0.028*[#  15]+0.018*[#   6]
          +0.015*[#  13]+0.015*[#  14]+0.015*[#  17]+0.015*[#  18]
    |psi|^2 = 0.987
==== e(  21) =    12.28257 eV ==== 
     psi = 0.208*[#   7]+0.208*[#   8]+0.103*[#  13]+0.103*[#  14]+0.103*[#  17]
          +0.103*[#  18]+0.081*[#   9]+0.081*[#  10]
    |psi|^2 = 0.993
==== e(  22) =    15.37720 eV ==== 
     psi = 0.725*[#  20]+0.032*[#  11]+0.032*[#  15]+0.025*[#  12]+0.025*[#  16]
          +0.019*[#  13]+0.019*[#  14]+0.019*[#  17]+0.019*[#  18]+0.006*[#   1]
          +0.005*[#   7]+0.005*[#   8]+0.004*[#   2]+0.002*[#   9]+0.002*[#  10]
          +0.001*[#  22]+0.001*[#  23]
    |psi|^2 = 0.944
==== e(  23) =    19.72919 eV ==== 
     psi = 0.039*[#   2]+0.005*[#  20]+0.003*[#  13]+0.003*[#  14]+0.003*[#  17]
          +0.003*[#  18]+0.001*[#  11]+0.001*[#  15]
    |psi|^2 = 0.062
==== e(  24) =    21.32688 eV ==== 
     psi = 0.482*[#   2]+0.025*[#  11]+0.025*[#  15]+0.017*[#  12]+0.017*[#  16]
          +0.016*[#  20]+0.013*[#  13]+0.013*[#  14]+0.013*[#  17]+0.013*[#  18]
          +0.006*[#   1]+0.003*[#  19]+0.003*[#   6]
    |psi|^2 = 0.647
==== e(  25) =    21.79389 eV ==== 
     psi = 0.092*[#   2]+0.008*[#  13]+0.008*[#  14]+0.008*[#  17]+0.008*[#  18]
          +0.007*[#  11]+0.007*[#  15]+0.005*[#  20]+0.002*[#   6]+0.002*[#  12]
          +0.002*[#  16]
    |psi|^2 = 0.151
==== e(  26) =    24.49717 eV ==== 
     psi = 0.012*[#   2]+0.002*[#  13]+0.002*[#  14]+0.002*[#  17]+0.002*[#  18]
          +0.002*[#  12]+0.002*[#  16]
    |psi|^2 = 0.029
==== e(  27) =    25.71107 eV ==== 
     psi = 0.070*[#   2]+0.008*[#  20]+0.004*[#  13]+0.004*[#  14]+0.004*[#  17]
          +0.004*[#  18]+0.002*[#  12]+0.002*[#  16]+0.002*[#  11]+0.002*[#  15]
          +0.001*[#   1]
    |psi|^2 = 0.103

 k =   0.3409090909  0.1968239554  0.0000000000
==== e(   1) =   -84.82140 eV ==== 
     psi = 0.974*[#   1]+0.011*[#  20]+0.002*[#   2]+0.002*[#  13]+0.002*[#  14]
          +0.002*[#  17]+0.002*[#  18]+0.002*[#  12]+0.002*[#  16]
    |psi|^2 = 1.000
[...]
          
    |psi|^2 = 1.000
==== e(   6) =   -13.90976 eV ==== 
     psi = 0.986*[#  21]+0.005*[#  11]+0.005*[#  15]+0.001*[#  12]+0.001*[#  16]
          
    |psi|^2 = 1.000
==== e(   7) =   -13.83757 eV ==== 
     psi = 0.499*[#  22]+0.499*[#  23]+0.001*[#  20]
    |psi|^2 = 1.000
==== e(   8) =   -13.82512 eV ==== 
     psi = 0.500*[#  22]+0.500*[#  23]
    |psi|^2 = 1.000
==== e(   9) =    -9.69416 eV ==== 
     psi = 0.300*[#  11]+0.300*[#  15]+0.232*[#   2]+0.134*[#  20]+0.012*[#   1]
          +0.006*[#  12]+0.006*[#  16]+0.004*[#  19]+0.004*[#   6]
    |psi|^2 = 0.999
==== e(  10) =    -7.86841 eV ==== 
     psi = 0.487*[#  11]+0.487*[#  15]+0.012*[#  21]+0.002*[#   3]+0.002*[#  12]
          +0.002*[#  16]+0.001*[#   7]+0.001*[#   8]
    |psi|^2 = 0.994
==== e(  11) =     3.60961 eV ==== 
     psi = 0.327*[#  12]+0.327*[#  16]+0.180*[#   6]+0.113*[#  20]+0.031*[#   2]
          +0.009*[#  19]+0.005*[#  11]+0.005*[#  15]+0.001*[#   1]
    |psi|^2 = 0.999
==== e(  12) =     4.81072 eV ==== 
     psi = 0.162*[#   9]+0.162*[#  10]+0.136*[#  13]+0.136*[#  14]+0.136*[#  17]
          +0.136*[#  18]+0.047*[#   7]+0.047*[#   8]+0.018*[#  12]+0.018*[#  16]
          
    |psi|^2 = 0.997
==== e(  13) =     4.93293 eV ==== 
     psi = 0.162*[#   9]+0.162*[#  10]+0.140*[#  13]+0.140*[#  14]+0.140*[#  17]
          +0.140*[#  18]+0.057*[#   7]+0.057*[#   8]
    |psi|^2 = 0.998
==== e(  14) =     7.63026 eV ==== 
     psi = 0.444*[#  12]+0.444*[#  16]+0.016*[#  13]+0.016*[#  14]+0.016*[#  17]
          +0.016*[#  18]+0.014*[#   7]+0.014*[#   8]+0.002*[#  11]+0.002*[#  15]
          +0.002*[#  21]
    |psi|^2 = 0.986
==== e(  15) =     7.70528 eV ==== 
     psi = 0.219*[#  13]+0.219*[#  14]+0.219*[#  17]+0.219*[#  18]+0.032*[#   7]
          +0.032*[#   8]+0.008*[#   2]+0.008*[#   9]+0.008*[#  10]+0.007*[#   6]
          +0.007*[#  11]+0.007*[#  15]+0.006*[#  20]+0.001*[#   1]
    |psi|^2 = 0.994
==== e(  16) =     7.90497 eV ==== 
     psi = 0.213*[#  13]+0.213*[#  14]+0.213*[#  17]+0.213*[#  18]+0.037*[#   7]
          +0.037*[#   8]+0.022*[#  12]+0.022*[#  16]+0.010*[#   9]+0.010*[#  10]
          
    |psi|^2 = 0.993
==== e(  17) =     9.23574 eV ==== 
     psi = 0.305*[#   7]+0.305*[#   8]+0.152*[#   9]+0.152*[#  10]+0.018*[#  13]
          +0.018*[#  14]+0.018*[#  17]+0.018*[#  18]+0.006*[#   6]+0.002*[#   2]
          
    |psi|^2 = 0.997
==== e(  18) =     9.25123 eV ==== 
     psi = 0.297*[#   7]+0.297*[#   8]+0.142*[#   9]+0.142*[#  10]+0.028*[#  13]
          +0.028*[#  14]+0.028*[#  17]+0.028*[#  18]+0.003*[#  12]+0.003*[#  16]
          
    |psi|^2 = 0.997
==== e(  19) =     9.98540 eV ==== 
     psi = 0.785*[#   6]+0.055*[#  12]+0.055*[#  16]+0.052*[#  20]+0.036*[#   2]
          +0.002*[#  13]+0.002*[#  14]+0.002*[#  17]+0.002*[#  18]
    |psi|^2 = 0.997
==== e(  20) =    12.32504 eV ==== 
     psi = 0.183*[#   9]+0.183*[#  10]+0.103*[#  13]+0.103*[#  14]+0.103*[#  17]
          +0.103*[#  18]+0.101*[#   7]+0.101*[#   8]+0.002*[#  11]+0.002*[#  15]
          
    |psi|^2 = 0.986
==== e(  21) =    12.43057 eV ==== 
     psi = 0.175*[#   9]+0.175*[#  10]+0.106*[#  13]+0.106*[#  14]+0.106*[#  17]
          +0.106*[#  18]+0.102*[#   7]+0.102*[#   8]+0.008*[#  20]+0.002*[#  11]
          +0.002*[#  15]
    |psi|^2 = 0.993
==== e(  22) =    13.09995 eV ==== 
     psi = 0.568*[#  20]+0.121*[#  11]+0.121*[#  15]+0.038*[#  12]+0.038*[#  16]
          +0.020*[#   1]+0.018*[#  19]+0.013*[#   2]+0.008*[#  13]+0.008*[#  14]
          +0.008*[#  17]+0.008*[#  18]+0.005*[#   6]+0.002*[#   7]+0.002*[#   8]
          +0.002*[#   9]+0.002*[#  10]
    |psi|^2 = 0.981
==== e(  23) =    18.37962 eV ==== 
     psi = 0.006*[#  12]+0.006*[#  16]+0.002*[#  11]+0.002*[#  15]+0.001*[#  13]
          +0.001*[#  14]+0.001*[#  17]+0.001*[#  18]
    |psi|^2 = 0.022
==== e(  24) =    19.61746 eV ==== 
     psi = 0.597*[#   2]+0.060*[#  11]+0.060*[#  15]+0.054*[#  12]+0.054*[#  16]
          +0.033*[#  20]+0.012*[#   6]+0.002*[#   1]+0.002*[#  13]+0.002*[#  14]
          +0.002*[#  17]+0.002*[#  18]
    |psi|^2 = 0.881
==== e(  25) =    25.63807 eV ==== 

    |psi|^2 = 0.002
==== e(  26) =    27.12845 eV ==== 
     psi = 0.004*[#   2]
    |psi|^2 = 0.009
==== e(  27) =    27.57694 eV ==== 

    |psi|^2 = 0.003

 k =   0.0266666667  0.0461880215  0.0000000000
==== e(   1) =   -84.82542 eV ==== 
     psi = 0.960*[#   1]+0.027*[#  20]+0.005*[#  12]+0.005*[#  16]+0.001*[#   2]
          
    |psi|^2 = 1.000
==== e(   2) =   -48.12262 eV ==== 
     psi = 0.499*[#   4]+0.499*[#   5]
    |psi|^2 = 1.000
==== e(   3) =   -48.12160 eV ==== 
     psi = 0.499*[#   4]+0.499*[#   5]
    |psi|^2 = 1.000
==== e(   4) =   -47.99188 eV ==== 
     psi = 0.998*[#   3]
    |psi|^2 = 1.000
==== e(   5) =   -42.00569 eV ==== 
     psi = 0.964*[#  19]+0.030*[#  20]+0.003*[#   2]+0.001*[#  12]+0.001*[#  16]
          
    |psi|^2 = 1.000
==== e(   6) =   -13.91247 eV ==== 
     psi = 0.986*[#  21]+0.006*[#  11]+0.006*[#  15]+0.001*[#  12]+0.001*[#  16]
          
    |psi|^2 = 1.000
==== e(   7) =   -13.82913 eV ==== 
     psi = 0.500*[#  22]+0.500*[#  23]
    |psi|^2 = 1.000
==== e(   8) =   -13.82343 eV ==== 
     psi = 0.500*[#  22]+0.500*[#  23]
    |psi|^2 = 1.000
==== e(   9) =    -9.72509 eV ==== 
     psi = 0.297*[#  11]+0.297*[#  15]+0.235*[#   2]+0.136*[#  20]+0.013*[#   1]
          +0.006*[#  12]+0.006*[#  16]+0.005*[#  19]+0.004*[#   6]
    |psi|^2 = 0.999
==== e(  10) =    -7.86798 eV ==== 
     psi = 0.487*[#  11]+0.487*[#  15]+0.012*[#  21]+0.002*[#   3]+0.002*[#  12]
          +0.002*[#  16]
    |psi|^2 = 0.994
==== e(  11) =     3.56805 eV ==== 
     psi = 0.326*[#  12]+0.326*[#  16]+0.181*[#   6]+0.114*[#  20]+0.032*[#   2]
          +0.009*[#  19]+0.005*[#  11]+0.005*[#  15]+0.001*[#   1]
    |psi|^2 = 0.999
==== e(  12) =     4.86019 eV ==== 
     psi = 0.165*[#   9]+0.165*[#  10]+0.137*[#  13]+0.137*[#  14]+0.137*[#  17]
          +0.137*[#  18]+0.051*[#   7]+0.051*[#   8]+0.009*[#  12]+0.009*[#  16]
          
    |psi|^2 = 0.997
==== e(  13) =     4.91663 eV ==== 
     psi = 0.165*[#   9]+0.165*[#  10]+0.139*[#  13]+0.139*[#  14]+0.139*[#  17]
          +0.139*[#  18]+0.055*[#   7]+0.055*[#   8]
    |psi|^2 = 0.998
==== e(  14) =     7.58855 eV ==== 
     psi = 0.475*[#  12]+0.475*[#  16]+0.005*[#  13]+0.005*[#  14]+0.005*[#  17]
          +0.005*[#  18]+0.004*[#   7]+0.004*[#   8]+0.002*[#  11]+0.002*[#  15]
          +0.002*[#  21]
    |psi|^2 = 0.984
==== e(  15) =     7.89959 eV ==== 
     psi = 0.231*[#  13]+0.231*[#  14]+0.231*[#  17]+0.231*[#  18]+0.021*[#   7]
          +0.021*[#   8]+0.005*[#   9]+0.005*[#  10]+0.004*[#   2]+0.004*[#   6]
          +0.003*[#  11]+0.003*[#  15]+0.003*[#  20]
    |psi|^2 = 0.994
==== e(  16) =     7.99438 eV ==== 
     psi = 0.232*[#  13]+0.232*[#  14]+0.232*[#  17]+0.232*[#  18]+0.024*[#   7]
          +0.024*[#   8]+0.006*[#   9]+0.006*[#  10]+0.003*[#  12]+0.003*[#  16]
          
    |psi|^2 = 0.994
==== e(  17) =     9.17573 eV ==== 
     psi = 0.322*[#   7]+0.322*[#   8]+0.150*[#   9]+0.150*[#  10]+0.013*[#  13]
          +0.013*[#  14]+0.013*[#  17]+0.013*[#  18]+0.001*[#   6]
    |psi|^2 = 0.997
==== e(  18) =     9.17704 eV ==== 
     psi = 0.319*[#   7]+0.319*[#   8]+0.146*[#   9]+0.146*[#  10]+0.016*[#  13]
          +0.016*[#  14]+0.016*[#  17]+0.016*[#  18]+0.002*[#  12]+0.002*[#  16]
          
    |psi|^2 = 0.997
==== e(  19) =     9.97639 eV ==== 
     psi = 0.790*[#   6]+0.055*[#  12]+0.055*[#  16]+0.050*[#  20]+0.040*[#   2]
          +0.001*[#  13]+0.001*[#  14]+0.001*[#  17]+0.001*[#  18]
    |psi|^2 = 0.997
==== e(  20) =    12.40436 eV ==== 
     psi = 0.182*[#   9]+0.182*[#  10]+0.106*[#  13]+0.106*[#  14]+0.106*[#  17]
          +0.106*[#  18]+0.100*[#   7]+0.100*[#   8]
    |psi|^2 = 0.990
==== e(  21) =    12.45614 eV ==== 
     psi = 0.178*[#   9]+0.178*[#  10]+0.108*[#  13]+0.108*[#  14]+0.108*[#  17]
          +0.108*[#  18]+0.100*[#   7]+0.100*[#   8]+0.003*[#  20]
    |psi|^2 = 0.993
==== e(  22) =    12.99341 eV ==== 
     psi = 0.572*[#  20]+0.128*[#  11]+0.128*[#  15]+0.038*[#  12]+0.038*[#  16]
          +0.021*[#   1]+0.020*[#  19]+0.015*[#   2]+0.005*[#   6]+0.004*[#  13]
          +0.004*[#  14]+0.004*[#  17]+0.004*[#  18]
    |psi|^2 = 0.981
==== e(  23) =    18.26670 eV ==== 
     psi = 0.006*[#  12]+0.006*[#  16]+0.002*[#  11]+0.002*[#  15]
    |psi|^2 = 0.019
==== e(  24) =    19.53977 eV ==== 
     psi = 0.594*[#   2]+0.061*[#  11]+0.061*[#  15]+0.056*[#  12]+0.056*[#  16]
          +0.034*[#  20]+0.013*[#   6]+0.002*[#   1]
    |psi|^2 = 0.880
==== e(  25) =    25.60723 eV ==== 

    |psi|^2 = 0.002
==== e(  26) =    27.44550 eV ==== 
     psi = 0.003*[#   2]
    |psi|^2 = 0.007
==== e(  27) =    27.80479 eV ==== 

    |psi|^2 = 0.003

 k =   0.0133333333  0.0230940108  0.0000000000
==== e(   1) =   -84.82548 eV ==== 
     psi = 0.960*[#   1]+0.027*[#  20]+0.005*[#  12]+0.005*[#  16]+0.002*[#   2]
          
    |psi|^2 = 1.000
==== e(   2) =   -48.12156 eV ==== 
     psi = 0.499*[#   4]+0.499*[#   5]
    |psi|^2 = 1.000
==== e(   3) =   -48.12132 eV ==== 
     psi = 0.499*[#   4]+0.499*[#   5]
    |psi|^2 = 1.000
==== e(   4) =   -47.99199 eV ==== 
     psi = 0.998*[#   3]
    |psi|^2 = 1.000
==== e(   5) =   -42.00620 eV ==== 
     psi = 0.963*[#  19]+0.031*[#  20]+0.002*[#   2]+0.001*[#  12]+0.001*[#  16]
          
    |psi|^2 = 1.000
==== e(   6) =   -13.91390 eV ==== 
     psi = 0.986*[#  21]+0.006*[#  11]+0.006*[#  15]+0.001*[#  12]+0.001*[#  16]
          
    |psi|^2 = 1.000
==== e(   7) =   -13.82369 eV ==== 
     psi = 0.500*[#  22]+0.500*[#  23]
    |psi|^2 = 1.000
==== e(   8) =   -13.82227 eV ==== 
     psi = 0.500*[#  22]+0.500*[#  23]
    |psi|^2 = 1.000
==== e(   9) =    -9.74381 eV ==== 
     psi = 0.296*[#  11]+0.296*[#  15]+0.236*[#   2]+0.138*[#  20]+0.013*[#   1]
          +0.006*[#  12]+0.006*[#  16]+0.005*[#  19]+0.004*[#   6]
    |psi|^2 = 0.999
==== e(  10) =    -7.86773 eV ==== 
     psi = 0.488*[#  11]+0.488*[#  15]+0.012*[#  21]+0.002*[#   3]+0.002*[#  12]
          +0.002*[#  16]
    |psi|^2 = 0.994
==== e(  11) =     3.54294 eV ==== 
     psi = 0.325*[#  12]+0.325*[#  16]+0.182*[#   6]+0.116*[#  20]+0.032*[#   2]
          +0.009*[#  19]+0.005*[#  11]+0.005*[#  15]+0.001*[#   1]
    |psi|^2 = 0.999
==== e(  12) =     4.89215 eV ==== 
     psi = 0.166*[#   9]+0.166*[#  10]+0.138*[#  13]+0.138*[#  14]+0.138*[#  17]
          +0.138*[#  18]+0.054*[#   7]+0.054*[#   8]+0.002*[#  12]+0.002*[#  16]
          
    |psi|^2 = 0.998
==== e(  13) =     4.90659 eV ==== 
     psi = 0.167*[#   9]+0.167*[#  10]+0.139*[#  13]+0.139*[#  14]+0.139*[#  17]
          +0.139*[#  18]+0.055*[#   7]+0.055*[#   8]
    |psi|^2 = 0.998
==== e(  14) =     7.55732 eV ==== 
     psi = 0.485*[#  12]+0.485*[#  16]+0.003*[#  11]+0.003*[#  15]+0.002*[#  21]
          
    |psi|^2 = 0.983
==== e(  15) =     8.03367 eV ==== 
     psi = 0.242*[#  13]+0.242*[#  14]+0.242*[#  17]+0.242*[#  18]+0.007*[#   7]
          +0.007*[#   8]+0.002*[#   9]+0.002*[#  10]+0.001*[#   2]+0.001*[#   6]
          
    |psi|^2 = 0.994
==== e(  16) =     8.05904 eV ==== 
     psi = 0.243*[#  13]+0.243*[#  14]+0.243*[#  17]+0.243*[#  18]+0.007*[#   7]
          +0.007*[#   8]+0.002*[#   9]+0.002*[#  10]
    |psi|^2 = 0.994
==== e(  17) =     9.12503 eV ==== 
     psi = 0.338*[#   7]+0.338*[#   8]+0.149*[#   9]+0.149*[#  10]+0.005*[#  13]
          +0.005*[#  14]+0.005*[#  17]+0.005*[#  18]
    |psi|^2 = 0.998
==== e(  18) =     9.12612 eV ==== 
     psi = 0.338*[#   7]+0.338*[#   8]+0.150*[#   9]+0.150*[#  10]+0.005*[#  13]
          +0.005*[#  14]+0.005*[#  17]+0.005*[#  18]
    |psi|^2 = 0.998
==== e(  19) =     9.97076 eV ==== 
     psi = 0.794*[#   6]+0.055*[#  12]+0.055*[#  16]+0.049*[#  20]+0.042*[#   2]
          
    |psi|^2 = 0.997
==== e(  20) =    12.45591 eV ==== 
     psi = 0.181*[#   9]+0.181*[#  10]+0.108*[#  13]+0.108*[#  14]+0.108*[#  17]
          +0.108*[#  18]+0.099*[#   7]+0.099*[#   8]
    |psi|^2 = 0.993
==== e(  21) =    12.46972 eV ==== 
     psi = 0.180*[#   9]+0.180*[#  10]+0.109*[#  13]+0.109*[#  14]+0.109*[#  17]
          +0.109*[#  18]+0.099*[#   7]+0.099*[#   8]
    |psi|^2 = 0.993
==== e(  22) =    12.92842 eV ==== 
     psi = 0.573*[#  20]+0.133*[#  11]+0.133*[#  15]+0.037*[#  12]+0.037*[#  16]
          +0.022*[#   1]+0.021*[#  19]+0.016*[#   2]+0.005*[#   6]
    |psi|^2 = 0.981
==== e(  23) =    18.19579 eV ==== 
     psi = 0.006*[#  12]+0.006*[#  16]+0.002*[#  11]+0.002*[#  15]
    |psi|^2 = 0.017
==== e(  24) =    19.49252 eV ==== 
     psi = 0.592*[#   2]+0.061*[#  11]+0.061*[#  15]+0.057*[#  12]+0.057*[#  16]
          +0.034*[#  20]+0.013*[#   6]+0.002*[#   1]
    |psi|^2 = 0.879
==== e(  25) =    25.58839 eV ==== 

    |psi|^2 = 0.002
==== e(  26) =    27.67579 eV ==== 
     psi = 0.001*[#   2]
    |psi|^2 = 0.004
==== e(  27) =    27.77805 eV ==== 

    |psi|^2 = 0.002

 k =   0.0000000000  0.0000000000  0.0000000000
==== e(   1) =   -84.82551 eV ==== 
     psi = 0.960*[#   1]+0.027*[#  20]+0.005*[#  12]+0.005*[#  16]+0.002*[#   2]
          
    |psi|^2 = 1.000
==== e(   2) =   -48.12124 eV ==== 
     psi = 0.499*[#   4]+0.499*[#   5]
    |psi|^2 = 1.000
==== e(   3) =   -48.12124 eV ==== 
     psi = 0.499*[#   4]+0.499*[#   5]
    |psi|^2 = 1.000
==== e(   4) =   -47.99198 eV ==== 
     psi = 0.998*[#   3]+0.001*[#  11]+0.001*[#  15]
    |psi|^2 = 1.000
==== e(   5) =   -42.00637 eV ==== 
     psi = 0.963*[#  19]+0.031*[#  20]+0.002*[#   2]+0.001*[#  12]+0.001*[#  16]
          
    |psi|^2 = 1.000
==== e(   6) =   -13.91428 eV ==== 
     psi = 0.985*[#  21]+0.006*[#  11]+0.006*[#  15]+0.001*[#  12]+0.001*[#  16]
          
    |psi|^2 = 1.000
==== e(   7) =   -13.82192 eV ==== 
     psi = 0.500*[#  22]+0.500*[#  23]
    |psi|^2 = 1.000
==== e(   8) =   -13.82192 eV ==== 
     psi = 0.500*[#  22]+0.500*[#  23]
    |psi|^2 = 1.000
==== e(   9) =    -9.75007 eV ==== 
     psi = 0.295*[#  11]+0.295*[#  15]+0.237*[#   2]+0.138*[#  20]+0.013*[#   1]
          +0.006*[#  12]+0.006*[#  16]+0.005*[#  19]+0.004*[#   6]
    |psi|^2 = 0.999
==== e(  10) =    -7.86764 eV ==== 
     psi = 0.488*[#  11]+0.488*[#  15]+0.012*[#  21]+0.002*[#   3]+0.002*[#  12]
          +0.002*[#  16]
    |psi|^2 = 0.994
==== e(  11) =     3.53453 eV ==== 
     psi = 0.324*[#  12]+0.324*[#  16]+0.182*[#   6]+0.116*[#  20]+0.032*[#   2]
          +0.009*[#  19]+0.005*[#  11]+0.005*[#  15]+0.001*[#   1]
    |psi|^2 = 0.999
==== e(  12) =     4.90319 eV ==== 
     psi = 0.167*[#   9]+0.167*[#  10]+0.139*[#  13]+0.139*[#  14]+0.139*[#  17]
          +0.139*[#  18]+0.054*[#   7]+0.054*[#   8]
    |psi|^2 = 0.998
==== e(  13) =     4.90319 eV ==== 
     psi = 0.167*[#   9]+0.167*[#  10]+0.139*[#  13]+0.139*[#  14]+0.139*[#  17]
          +0.139*[#  18]+0.054*[#   7]+0.054*[#   8]
    |psi|^2 = 0.998
==== e(  14) =     7.54620 eV ==== 
     psi = 0.488*[#  12]+0.488*[#  16]+0.003*[#  11]+0.003*[#  15]+0.002*[#  21]
          
    |psi|^2 = 0.983
==== e(  15) =     8.08261 eV ==== 
     psi = 0.248*[#  13]+0.248*[#  14]+0.248*[#  17]+0.248*[#  18]
    |psi|^2 = 0.994
==== e(  16) =     8.08261 eV ==== 
     psi = 0.248*[#  13]+0.248*[#  14]+0.248*[#  17]+0.248*[#  18]
    |psi|^2 = 0.994
==== e(  17) =     9.10601 eV ==== 
     psi = 0.346*[#   7]+0.346*[#   8]+0.151*[#   9]+0.151*[#  10]
    |psi|^2 = 0.998
==== e(  18) =     9.10601 eV ==== 
     psi = 0.346*[#   7]+0.346*[#   8]+0.151*[#   9]+0.151*[#  10]
    |psi|^2 = 0.998
==== e(  19) =     9.96884 eV ==== 
     psi = 0.794*[#   6]+0.055*[#  12]+0.055*[#  16]+0.049*[#  20]+0.043*[#   2]
          
    |psi|^2 = 0.997
==== e(  20) =    12.47372 eV ==== 
     psi = 0.181*[#   9]+0.181*[#  10]+0.109*[#  13]+0.109*[#  14]+0.109*[#  17]
          +0.109*[#  18]+0.098*[#   7]+0.098*[#   8]
    |psi|^2 = 0.994
==== e(  21) =    12.47372 eV ==== 
     psi = 0.181*[#   9]+0.181*[#  10]+0.109*[#  13]+0.109*[#  14]+0.109*[#  17]
          +0.109*[#  18]+0.098*[#   7]+0.098*[#   8]
    |psi|^2 = 0.994
==== e(  22) =    12.90673 eV ==== 
     psi = 0.573*[#  20]+0.134*[#  11]+0.134*[#  15]+0.037*[#  12]+0.037*[#  16]
          +0.022*[#   1]+0.021*[#  19]+0.016*[#   2]+0.005*[#   6]
    |psi|^2 = 0.981
==== e(  23) =    18.17154 eV ==== 
     psi = 0.006*[#  12]+0.006*[#  16]+0.002*[#  11]+0.002*[#  15]
    |psi|^2 = 0.016
==== e(  24) =    19.47668 eV ==== 
     psi = 0.592*[#   2]+0.061*[#  11]+0.061*[#  15]+0.057*[#  12]+0.057*[#  16]
          +0.035*[#  20]+0.014*[#   6]+0.002*[#   1]
    |psi|^2 = 0.879
==== e(  25) =    25.58234 eV ==== 
     psi = 0.001*[#  12]+0.001*[#  16]
    |psi|^2 = 0.002
==== e(  26) =    27.76365 eV ==== 

    |psi|^2 = 0.002
==== e(  27) =    27.76365 eV ==== 

    |psi|^2 = 0.002

Lowdin Charges: 

     Atom #   1: total charge =  15.9220, s =  2.4518, p =  5.9988, d =  7.4713, 
                 spin up      =   7.9610, s =  1.2259, 
                 spin up      =   7.9610, p =  2.9994, pz=  0.9999, px=  0.9998, py=  0.9998, 
                 spin up      =   7.9610, d =  3.7357, dz2=  0.9802, dxz=  0.6450, dyz=  0.6450, dx2-y2=  0.7327, dxy=  0.7327, 
                 spin down    =   7.9610, s =  1.2259, 
                 spin down    =   7.9610, p =  2.9994, pz=  0.9999, px=  0.9998, py=  0.9998, 
                 spin down    =   7.9610, d =  3.7357, dz2=  0.9802, dxz=  0.6450, dyz=  0.6450, dx2-y2=  0.7327, dxy=  0.7327, 
                 polarization =  -0.0000, s =  0.0000, p =  0.0000, d = -0.0000, 
     Atom #   2: total charge =   6.8054, s =  1.7903, p =  5.0150, d =  0.0000, 
                 spin up      =   3.4027, s =  0.8952, 
                 spin up      =   3.4027, p =  2.5075, pz=  0.8737, px=  0.8169, py=  0.8169, 
                 spin up      =   3.4027, d =  0.0000, dz2=  0.0000, dxz=  0.0000, dyz=  0.0000, dx2-y2=  0.0000, dxy=  0.0000, 
                 spin down    =   3.4027, s =  0.8952, 
                 spin down    =   3.4027, p =  2.5075, pz=  0.8737, px=  0.8169, py=  0.8169, 
                 spin down    =   3.4027, d =  0.0000, dz2=  0.0000, dxz=  0.0000, dyz=  0.0000, dx2-y2=  0.0000, dxy=  0.0000, 
                 polarization =  -0.0000, s = -0.0000, p = -0.0000, d =  0.0000, 
     Atom #   3: total charge =   6.8054, s =  1.7903, p =  5.0150, d =  0.0000, 
                 spin up      =   3.4027, s =  0.8952, 
                 spin up      =   3.4027, p =  2.5075, pz=  0.8737, px=  0.8169, py=  0.8169, 
                 spin up      =   3.4027, d =  0.0000, dz2=  0.0000, dxz=  0.0000, dyz=  0.0000, dx2-y2=  0.0000, dxy=  0.0000, 
                 spin down    =   3.4027, s =  0.8952, 
                 spin down    =   3.4027, p =  2.5075, pz=  0.8737, px=  0.8169, py=  0.8169, 
                 spin down    =   3.4027, d =  0.0000, dz2=  0.0000, dxz=  0.0000, dyz=  0.0000, dx2-y2=  0.0000, dxy=  0.0000, 
                 polarization =  -0.0000, s = -0.0000, p = -0.0000, d =  0.0000, 
     Atom #   4: total charge =   8.3270, s =  2.3306, p =  5.9965, d =  0.0000, 
                 spin up      =   4.1635, s =  1.1653, 
                 spin up      =   4.1635, p =  2.9982, pz=  0.9997, px=  0.9993, py=  0.9993, 
                 spin up      =   4.1635, d =  0.0000, dz2=  0.0000, dxz=  0.0000, dyz=  0.0000, dx2-y2=  0.0000, dxy=  0.0000, 
                 spin down    =   4.1635, s =  1.1653, 
                 spin down    =   4.1635, p =  2.9982, pz=  0.9997, px=  0.9993, py=  0.9993, 
                 spin down    =   4.1635, d =  0.0000, dz2=  0.0000, dxz=  0.0000, dyz=  0.0000, dx2-y2=  0.0000, dxy=  0.0000, 
                 polarization =   0.0000, s =  0.0000, p = -0.0000, d =  0.0000, 
     Spilling Parameter:   0.0037

     PROJWFC      :      5.88s CPU      3.32s WALL


   This run was terminated on:   6:28:52  12Jul2026            

=------------------------------------------------------------------------------=
   JOB DONE.
=------------------------------------------------------------------------------=
