
     Program PWSCF v.7.3.1 starts on 12Jul2026 at  3:55:47 

     This program is part of the open-source Quantum ESPRESSO suite
     for quantum simulation of materials; please cite
         "P. Giannozzi et al., J. Phys.:Condens. Matter 21 395502 (2009);
         "P. Giannozzi et al., J. Phys.:Condens. Matter 29 465901 (2017);
         "P. Giannozzi et al., J. Chem. Phys. 152 154105 (2020);
          URL http://www.quantum-espresso.org", 
     in publications or presentations arising from this work. More details at
     http://www.quantum-espresso.org/quote

     Parallel version (MPI & OpenMP), running on      14 processor cores
     Number of MPI processes:                 1
     Threads/MPI process:                    14

     MPI processes distributed on     1 nodes
     839106 MiB available memory on the printing compute node when the environment starts
 
     Reading input from pw.in

     Current dimensions of program PWSCF are:
     Max number of different atomic species (ntypx) = 10
     Max number of k-points (npk) =  40000
     Max angular momentum in pseudopotentials (lmaxx) =  4
     file Co.pbe-spn-kjpaw_psl.0.3.1.UPF: wavefunction(s)  3P 3D renormalized
     file O.pbe-n-kjpaw_psl.1.0.0.UPF: wavefunction(s)  2S 2P renormalized
     file Na.pbe-spn-kjpaw_psl.1.0.0.UPF: wavefunction(s)  2P renormalized
 
     Subspace diagonalization in iterative solution of the eigenvalue problem:
     a serial algorithm will be used

 
     G-vector sticks info
     --------------------
     sticks:   dense  smooth     PW     G-vecs:    dense   smooth      PW
     Sum        2941    1483    421               142753    50601    7659
 
     Using Slab Decomposition
 


     bravais-lattice index     =            4
     lattice parameter (alat)  =       9.4527  a.u.
     unit-cell volume          =     804.2768 (a.u.)^3
     number of atoms/cell      =           10
     number of atomic types    =            3
     number of electrons       =        96.00
     number of Kohn-Sham states=           64
     kinetic-energy cutoff     =      60.0000  Ry
     charge density cutoff     =     480.0000  Ry
     scf convergence threshold =      1.0E-07
     mixing beta               =       0.3000
     number of iterations used =            8  local-TF  mixing
     Exchange-correlation= SLA  PW   PBX  PBC
                           (   1   4   3   4   0   0   0)

     GPU acceleration is ACTIVE.  1 visible GPUs per MPI rank
     GPU-aware MPI enabled


     GPU used by master process:

        Device Number: 0
        Device name: NVIDIA A100-SXM4-80GB
        Compute capability : 80
        Ratio of single to double precision performance  : 2
        Memory Clock Rate (KHz): 1593000
        Memory Bus Width (bits): 5120
        Peak Memory Bandwidth (GB/s): ******

     celldm(1)=   9.452718  celldm(2)=   0.000000  celldm(3)=   1.099524
     celldm(4)=   0.000000  celldm(5)=   0.000000  celldm(6)=   0.000000

     crystal axes: (cart. coord. in units of alat)
               a(1) = (   1.000000   0.000000   0.000000 )  
               a(2) = (  -0.500000   0.866025   0.000000 )  
               a(3) = (   0.000000   0.000000   1.099524 )  

     reciprocal axes: (cart. coord. in units 2 pi/alat)
               b(1) = (  1.000000  0.577350 -0.000000 )  
               b(2) = (  0.000000  1.154701  0.000000 )  
               b(3) = (  0.000000 -0.000000  0.909484 )  


     PseudoPot. # 1 for Co read from file:
     ../../pseudo/Co.pbe-spn-kjpaw_psl.0.3.1.UPF
     MD5 check sum: 3c0a43779828c046024e4f3be63f8e67
     Pseudo is Projector augmented-wave + core cor, Zval = 17.0
     Generated using &quot;atomic&quot; code by A. Dal Corso  v.6.2.2
     Shape of augmentation charge: PSQ
     Using radial grid of 1193 points,  6 beta functions with: 
                l(1) =   0
                l(2) =   0
                l(3) =   1
                l(4) =   1
                l(5) =   2
                l(6) =   2
     Q(r) pseudized with 0 coefficients 


     PseudoPot. # 2 for O  read from file:
     ../../pseudo/O.pbe-n-kjpaw_psl.1.0.0.UPF
     MD5 check sum: e99d9cef9b487d1ca56f5b95ecd0fd7a
     Pseudo is Projector augmented-wave + core cor, Zval =  6.0
     Generated using &quot;atomic&quot; code by A. Dal Corso  v.6.3
     Shape of augmentation charge: PSQ
     Using radial grid of 1095 points,  4 beta functions with: 
                l(1) =   0
                l(2) =   0
                l(3) =   1
                l(4) =   1
     Q(r) pseudized with 0 coefficients 


     PseudoPot. # 3 for Na read from file:
     ../../pseudo/Na.pbe-spn-kjpaw_psl.1.0.0.UPF
     MD5 check sum: 05b4deb74e3932c23ab016979dc8b5d4
     Pseudo is Projector augmented-wave + core cor, Zval =  9.0
     Generated using &quot;atomic&quot; code by A. Dal Corso  v.6.3
     Shape of augmentation charge: PSQ
     Using radial grid of 1121 points,  4 beta functions with: 
                l(1) =   0
                l(2) =   0
                l(3) =   1
                l(4) =   1
     Q(r) pseudized with 0 coefficients 


     atomic species   valence    mass     pseudopotential
     Co               17.00    58.93300     Co( 1.00)
     O                 6.00    15.99900     O ( 1.00)
     Na                9.00    22.98977     Na( 1.00)

     Starting magnetic structure 
     atomic species   magnetization
     Co              0.300
     O               0.000
     Na              0.000

     12 Sym. Ops., with inversion, found


                                    s                        frac. trans.

      isym =  1     identity                                     

 cryst.   s( 1) = (     1          0          0      )
                  (     0          1          0      )
                  (     0          0          1      )

 cart.    s( 1) = (  1.0000000  0.0000000  0.0000000 )
                  (  0.0000000  1.0000000  0.0000000 )
                  (  0.0000000  0.0000000  1.0000000 )


      isym =  2     180 deg rotation - cart. axis [0,1,0]        

 cryst.   s( 2) = (    -1          0          0      )
                  (     1          1          0      )
                  (     0          0         -1      )

 cart.    s( 2) = ( -1.0000000  0.0000000  0.0000000 )
                  (  0.0000000  1.0000000  0.0000000 )
                  (  0.0000000  0.0000000 -1.0000000 )


      isym =  3     120 deg rotation - cryst. axis [0,0,1]       

 cryst.   s( 3) = (     0          1          0      )
                  (    -1         -1          0      )
                  (     0          0          1      )

 cart.    s( 3) = ( -0.5000000 -0.8660254  0.0000000 )
                  (  0.8660254 -0.5000000  0.0000000 )
                  (  0.0000000  0.0000000  1.0000000 )


      isym =  4     120 deg rotation - cryst. axis [0,0,-1]      

 cryst.   s( 4) = (    -1         -1          0      )
                  (     1          0          0      )
                  (     0          0          1      )

 cart.    s( 4) = ( -0.5000000  0.8660254  0.0000000 )
                  ( -0.8660254 -0.5000000  0.0000000 )
                  (  0.0000000  0.0000000  1.0000000 )


      isym =  5     180 deg rotation - cryst. axis [1,-1,0]      

 cryst.   s( 5) = (     0         -1          0      )
                  (    -1          0          0      )
                  (     0          0         -1      )

 cart.    s( 5) = (  0.5000000 -0.8660254  0.0000000 )
                  ( -0.8660254 -0.5000000  0.0000000 )
                  (  0.0000000  0.0000000 -1.0000000 )


      isym =  6     180 deg rotation - cryst. axis [2,1,0]       

 cryst.   s( 6) = (     1          1          0      )
                  (     0         -1          0      )
                  (     0          0         -1      )

 cart.    s( 6) = (  0.5000000  0.8660254  0.0000000 )
                  (  0.8660254 -0.5000000  0.0000000 )
                  (  0.0000000  0.0000000 -1.0000000 )


      isym =  7     inversion                                    

 cryst.   s( 7) = (    -1          0          0      )
                  (     0         -1          0      )
                  (     0          0         -1      )

 cart.    s( 7) = ( -1.0000000  0.0000000  0.0000000 )
                  (  0.0000000 -1.0000000  0.0000000 )
                  (  0.0000000  0.0000000 -1.0000000 )


      isym =  8     inv. 180 deg rotation - cart. axis [0,1,0]   

 cryst.   s( 8) = (     1          0          0      )
                  (    -1         -1          0      )
                  (     0          0          1      )

 cart.    s( 8) = (  1.0000000  0.0000000  0.0000000 )
                  (  0.0000000 -1.0000000  0.0000000 )
                  (  0.0000000  0.0000000  1.0000000 )


      isym =  9     inv. 120 deg rotation - cryst. axis [0,0,1]  

 cryst.   s( 9) = (     0         -1          0      )
                  (     1          1          0      )
                  (     0          0         -1      )

 cart.    s( 9) = (  0.5000000  0.8660254  0.0000000 )
                  ( -0.8660254  0.5000000  0.0000000 )
                  (  0.0000000  0.0000000 -1.0000000 )


      isym = 10     inv. 120 deg rotation - cryst. axis [0,0,-1] 

 cryst.   s(10) = (     1          1          0      )
                  (    -1          0          0      )
                  (     0          0         -1      )

 cart.    s(10) = (  0.5000000 -0.8660254  0.0000000 )
                  (  0.8660254  0.5000000  0.0000000 )
                  (  0.0000000  0.0000000 -1.0000000 )


      isym = 11     inv. 180 deg rotation - cryst. axis [1,-1,0] 

 cryst.   s(11) = (     0          1          0      )
                  (     1          0          0      )
                  (     0          0          1      )

 cart.    s(11) = ( -0.5000000  0.8660254  0.0000000 )
                  (  0.8660254  0.5000000  0.0000000 )
                  (  0.0000000  0.0000000  1.0000000 )


      isym = 12     inv. 180 deg rotation - cryst. axis [2,1,0]  

 cryst.   s(12) = (    -1         -1          0      )
                  (     0          1          0      )
                  (     0          0          1      )

 cart.    s(12) = ( -0.5000000 -0.8660254  0.0000000 )
                  ( -0.8660254  0.5000000  0.0000000 )
                  (  0.0000000  0.0000000  1.0000000 )


     point group D_3d (-3m) 
     there are  6 classes
     the character table:

       E     2C3   3C2'  i     2S6   3s_d 
A_1g   1.00  1.00  1.00  1.00  1.00  1.00
A_2g   1.00  1.00 -1.00  1.00  1.00 -1.00
E_g    2.00 -1.00  0.00  2.00 -1.00  0.00
A_1u   1.00  1.00  1.00 -1.00 -1.00 -1.00
A_2u   1.00  1.00 -1.00 -1.00 -1.00  1.00
E_u    2.00 -1.00  0.00 -2.00  1.00  0.00

     the symmetry operations in each class and the name of the first element:

     E        1
          identity                                               
     2C3      3    4
          120 deg rotation - cryst. axis [0,0,1]                 
     3C2'     2    6    5
          180 deg rotation - cart. axis [0,1,0]                  
     i        7
          inversion                                              
     2S6      9   10
          inv. 120 deg rotation - cryst. axis [0,0,1]            
     3s_d     8   12   11
          inv. 180 deg rotation - cart. axis [0,1,0]             

   Cartesian axes

     site n.     atom                  positions (alat units)
         1        Co     tau(   1) = (   0.0000000   0.0000000   0.0000000  )
         2        Co     tau(   2) = (  -0.0000000   0.5773503   0.0000000  )
         3        Co     tau(   3) = (   0.5000000   0.2886751   0.0000000  )
         4        O      tau(   4) = (   0.1666667   0.2886751   0.1919170  )
         5        O      tau(   5) = (   0.6666667   0.0000000   0.1919170  )
         6        O      tau(   6) = (  -0.3333333   0.5773503   0.1919170  )
         7        O      tau(   7) = (   0.3333333   0.0000000   0.9076074  )
         8        O      tau(   8) = (   0.3333333   0.5773503   0.9076074  )
         9        O      tau(   9) = (  -0.1666667   0.2886751   0.9076074  )
        10        Na     tau(  10) = (   0.0000000   0.0000000   0.5497622  )

   Crystallographic axes

     site n.     atom                  positions (cryst. coord.)
         1        Co     tau(   1) = (  0.0000000  0.0000000  0.0000000  )
         2        Co     tau(   2) = (  0.3333333  0.6666667  0.0000000  )
         3        Co     tau(   3) = (  0.6666667  0.3333333  0.0000000  )
         4        O      tau(   4) = (  0.3333333  0.3333333  0.1745455  )
         5        O      tau(   5) = (  0.6666667  0.0000000  0.1745455  )
         6        O      tau(   6) = (  0.0000000  0.6666667  0.1745455  )
         7        O      tau(   7) = (  0.3333333  0.0000000  0.8254545  )
         8        O      tau(   8) = (  0.6666667  0.6666667  0.8254545  )
         9        O      tau(   9) = ( -0.0000000  0.3333333  0.8254545  )
        10        Na     tau(  10) = (  0.0000000  0.0000000  0.5000000  )

     number of k points=    17  Marzari-Vanderbilt smearing, width (Ry)=  0.0200
                       cart. coord. in units 2pi/alat
        k(    1) = (   0.0000000   0.0000000   0.0000000), wk =   0.0092593
        k(    2) = (   0.0000000   0.0000000   0.3031614), wk =   0.0185185
        k(    3) = (   0.0000000   0.1924501   0.0000000), wk =   0.0555556
        k(    4) = (   0.0000000   0.1924501   0.3031614), wk =   0.1111111
        k(    5) = (   0.0000000   0.3849002   0.0000000), wk =   0.0555556
        k(    6) = (   0.0000000   0.3849002   0.3031614), wk =   0.1111111
        k(    7) = (   0.0000000  -0.5773503   0.0000000), wk =   0.0277778
        k(    8) = (   0.0000000  -0.5773503   0.3031614), wk =   0.0555556
        k(    9) = (   0.1666667   0.2886751   0.0000000), wk =   0.0555556
        k(   10) = (   0.1666667   0.2886751   0.3031614), wk =   0.0555556
        k(   11) = (   0.1666667   0.4811252   0.0000000), wk =   0.1111111
        k(   12) = (   0.1666667   0.4811252   0.3031614), wk =   0.1111111
        k(   13) = (   0.3333333   0.5773503   0.0000000), wk =   0.0185185
        k(   14) = (   0.3333333   0.5773503   0.3031614), wk =   0.0185185
        k(   15) = (  -0.1666667  -0.2886751   0.3031614), wk =   0.0555556
        k(   16) = (  -0.1666667  -0.4811252   0.3031614), wk =   0.1111111
        k(   17) = (  -0.3333333  -0.5773503   0.3031614), wk =   0.0185185

                       cryst. coord.
        k(    1) = (   0.0000000   0.0000000   0.0000000), wk =   0.0092593
        k(    2) = (   0.0000000   0.0000000   0.3333333), wk =   0.0185185
        k(    3) = (   0.0000000   0.1666667   0.0000000), wk =   0.0555556
        k(    4) = (   0.0000000   0.1666667   0.3333333), wk =   0.1111111
        k(    5) = (   0.0000000   0.3333333   0.0000000), wk =   0.0555556
        k(    6) = (   0.0000000   0.3333333   0.3333333), wk =   0.1111111
        k(    7) = (   0.0000000  -0.5000000   0.0000000), wk =   0.0277778
        k(    8) = (   0.0000000  -0.5000000   0.3333333), wk =   0.0555556
        k(    9) = (   0.1666667   0.1666667   0.0000000), wk =   0.0555556
        k(   10) = (   0.1666667   0.1666667   0.3333333), wk =   0.0555556
        k(   11) = (   0.1666667   0.3333333   0.0000000), wk =   0.1111111
        k(   12) = (   0.1666667   0.3333333   0.3333333), wk =   0.1111111
        k(   13) = (   0.3333333   0.3333333   0.0000000), wk =   0.0185185
        k(   14) = (   0.3333333   0.3333333   0.3333333), wk =   0.0185185
        k(   15) = (  -0.1666667  -0.1666667   0.3333333), wk =   0.0555556
        k(   16) = (  -0.1666667  -0.3333333   0.3333333), wk =   0.1111111
        k(   17) = (  -0.3333333  -0.3333333   0.3333333), wk =   0.0185185

     Dense  grid:   142753 G-vectors     FFT dimensions: (  72,  72,  75)

     Smooth grid:    50601 G-vectors     FFT dimensions: (  48,  48,  54)

     Dynamical RAM for                 wfc:       6.16 MB

     Dynamical RAM for     wfc (w. buffer):     215.74 MB

     Dynamical RAM for           str. fact:       6.53 MB

     Dynamical RAM for           local pot:       0.00 MB

     Dynamical RAM for          nlocal pot:      10.59 MB

     Dynamical RAM for                qrad:       5.27 MB

     Dynamical RAM for          rho,v,vnew:      30.87 MB

     Dynamical RAM for               rhoin:      10.29 MB

     Dynamical RAM for            rho*nmix:      69.70 MB

     Dynamical RAM for           G-vectors:       8.55 MB

     Dynamical RAM for          h,s,v(r/c):       0.75 MB

     Dynamical RAM for          <psi|beta>:       0.11 MB

     Dynamical RAM for                 psi:      12.33 MB

     Dynamical RAM for                hpsi:      12.33 MB

     Dynamical RAM for                spsi:      12.33 MB

     Dynamical RAM for      wfcinit/wfcrot:      12.42 MB

     Dynamical RAM for           addusdens:     420.40 MB

     Dynamical RAM for          addusforce:     442.23 MB

     Estimated static dynamical RAM per process >     314.37 MB

     Estimated max dynamical RAM per process >     826.30 MB

     Check: negative core charge=   -0.000009
     Generating pointlists ...
     new r_m :   0.1587 (alat units)  1.4998 (a.u.) for type    1
     new r_m :   0.1587 (alat units)  1.4998 (a.u.) for type    2
     new r_m :   0.2017 (alat units)  1.9069 (a.u.) for type    3

     Initial potential from superposition of free atoms

     starting charge      95.9928, renormalised to      96.0000
     Starting wfcs are   59 randomized atomic wfcs +    5 random wfcs
     Checking if some PAW data can be deallocated... 

     total cpu time spent up to now is        5.1 secs

     Self-consistent Calculation
[tb_dev] Currently allocated     9.94E-01 Mbytes, locked:    0 /   6
[tb_pin] Currently allocated     0.00E+00 Mbytes, locked:    0 /   0

     iteration #  1     ecut=    60.00 Ry     beta= 0.30
     Davidson diagonalization with overlap

---- Real-time Memory Report at c_bands before calling an iterative solver
           907 MiB given to the printing process from OS
             0 MiB allocation reported by mallinfo(arena+hblkhd)
        838865 MiB available memory on the node where the printing process lives
     GPU memory used/free/total (MiB): 1438 / 79712 / 81151
------------------
     ethr =  1.00E-02,  avg # of iterations =  9.9

     total cpu time spent up to now is        8.9 secs

     total energy              =   -1488.34937440 Ry
     estimated scf accuracy    <       6.22495231 Ry

     total magnetization       =    14.00 Bohr mag/cell
     absolute magnetization    =    14.00 Bohr mag/cell
[tb_dev] Currently allocated     7.63E-05 Mbytes, locked:    0 /   2
[tb_pin] Currently allocated     0.00E+00 Mbytes, locked:    0 /   0

     iteration #  2     ecut=    60.00 Ry     beta= 0.30
     Davidson diagonalization with overlap

---- Real-time Memory Report at c_bands before calling an iterative solver
           966 MiB given to the printing process from OS
             0 MiB allocation reported by mallinfo(arena+hblkhd)
        838754 MiB available memory on the node where the printing process lives
     GPU memory used/free/total (MiB): 1488 / 79662 / 81151
------------------
     ethr =  6.48E-03,  avg # of iterations =  1.9

     total cpu time spent up to now is       11.4 secs

     total energy              =   -1488.63917120 Ry
     estimated scf accuracy    <       1.11426141 Ry

     total magnetization       =    11.20 Bohr mag/cell
     absolute magnetization    =    11.20 Bohr mag/cell
[tb_dev] Currently allocated     7.63E-05 Mbytes, locked:    0 /   2
[tb_pin] Currently allocated     0.00E+00 Mbytes, locked:    0 /   0

     iteration #  3     ecut=    60.00 Ry     beta= 0.30
     Davidson diagonalization with overlap

---- Real-time Memory Report at c_bands before calling an iterative solver
           971 MiB given to the printing process from OS
             0 MiB allocation reported by mallinfo(arena+hblkhd)
        837968 MiB available memory on the node where the printing process lives
     GPU memory used/free/total (MiB): 1488 / 79662 / 81151
------------------
     ethr =  1.16E-03,  avg # of iterations =  2.6

     total cpu time spent up to now is       14.0 secs

     total energy              =   -1488.94963673 Ry
     estimated scf accuracy    <       2.35320079 Ry

     total magnetization       =     5.26 Bohr mag/cell
     absolute magnetization    =     5.65 Bohr mag/cell
[tb_dev] Currently allocated     7.63E-05 Mbytes, locked:    0 /   2
[tb_pin] Currently allocated     0.00E+00 Mbytes, locked:    0 /   0

     iteration #  4     ecut=    60.00 Ry     beta= 0.30
     Davidson diagonalization with overlap

---- Real-time Memory Report at c_bands before calling an iterative solver
           975 MiB given to the printing process from OS
             0 MiB allocation reported by mallinfo(arena+hblkhd)
        838138 MiB available memory on the node where the printing process lives
     GPU memory used/free/total (MiB): 1488 / 79662 / 81151
------------------
     ethr =  1.16E-03,  avg # of iterations =  1.3

     total cpu time spent up to now is       16.4 secs

     total energy              =   -1488.98352797 Ry
     estimated scf accuracy    <       0.96504599 Ry

     total magnetization       =     5.49 Bohr mag/cell
     absolute magnetization    =     5.83 Bohr mag/cell
[tb_dev] Currently allocated     7.63E-05 Mbytes, locked:    0 /   2
[tb_pin] Currently allocated     0.00E+00 Mbytes, locked:    0 /   0

     iteration #  5     ecut=    60.00 Ry     beta= 0.30
     Davidson diagonalization with overlap

---- Real-time Memory Report at c_bands before calling an iterative solver
           978 MiB given to the printing process from OS
             0 MiB allocation reported by mallinfo(arena+hblkhd)
        837451 MiB available memory on the node where the printing process lives
     GPU memory used/free/total (MiB): 1488 / 79662 / 81151
------------------
     ethr =  1.01E-03,  avg # of iterations =  1.1

     total cpu time spent up to now is       18.7 secs

     total energy              =   -1489.11059890 Ry
     estimated scf accuracy    <       0.34717388 Ry

     total magnetization       =     7.28 Bohr mag/cell
     absolute magnetization    =     7.39 Bohr mag/cell
[tb_dev] Currently allocated     7.63E-05 Mbytes, locked:    0 /   2
[tb_pin] Currently allocated     0.00E+00 Mbytes, locked:    0 /   0

     iteration #  6     ecut=    60.00 Ry     beta= 0.30
     Davidson diagonalization with overlap

---- Real-time Memory Report at c_bands before calling an iterative solver
           983 MiB given to the printing process from OS
             0 MiB allocation reported by mallinfo(arena+hblkhd)
        836948 MiB available memory on the node where the printing process lives
     GPU memory used/free/total (MiB): 1488 / 79662 / 81151
------------------
     ethr =  3.62E-04,  avg # of iterations =  1.7

     total cpu time spent up to now is       21.0 secs

     total energy              =   -1489.33418183 Ry
     estimated scf accuracy    <       0.39083962 Ry

     total magnetization       =     2.39 Bohr mag/cell
     absolute magnetization    =     3.77 Bohr mag/cell
[tb_dev] Currently allocated     7.63E-05 Mbytes, locked:    0 /   2
[tb_pin] Currently allocated     0.00E+00 Mbytes, locked:    0 /   0

     iteration #  7     ecut=    60.00 Ry     beta= 0.30
     Davidson diagonalization with overlap

---- Real-time Memory Report at c_bands before calling an iterative solver
           987 MiB given to the printing process from OS
             0 MiB allocation reported by mallinfo(arena+hblkhd)
        836821 MiB available memory on the node where the printing process lives
     GPU memory used/free/total (MiB): 1488 / 79662 / 81151
------------------
     ethr =  3.62E-04,  avg # of iterations =  1.1

     total cpu time spent up to now is       23.3 secs

     total energy              =   -1489.31042051 Ry
     estimated scf accuracy    <       0.50583915 Ry

     total magnetization       =     2.06 Bohr mag/cell
     absolute magnetization    =     2.72 Bohr mag/cell
[tb_dev] Currently allocated     7.63E-05 Mbytes, locked:    0 /   2
[tb_pin] Currently allocated     0.00E+00 Mbytes, locked:    0 /   0

     iteration #  8     ecut=    60.00 Ry     beta= 0.30
     Davidson diagonalization with overlap

---- Real-time Memory Report at c_bands before calling an iterative solver
           997 MiB given to the printing process from OS
             0 MiB allocation reported by mallinfo(arena+hblkhd)
        836645 MiB available memory on the node where the printing process lives
     GPU memory used/free/total (MiB): 1488 / 79662 / 81151
------------------
     ethr =  3.62E-04,  avg # of iterations =  1.3

     total cpu time spent up to now is       25.7 secs

     total energy              =   -1489.34055558 Ry
     estimated scf accuracy    <       0.15216578 Ry

     total magnetization       =     2.01 Bohr mag/cell
     absolute magnetization    =     2.74 Bohr mag/cell
[tb_dev] Currently allocated     7.63E-05 Mbytes, locked:    0 /   2
[tb_pin] Currently allocated     0.00E+00 Mbytes, locked:    0 /   0

     iteration #  9     ecut=    60.00 Ry     beta= 0.30
     Davidson diagonalization with overlap

---- Real-time Memory Report at c_bands before calling an iterative solver
           997 MiB given to the printing process from OS
             0 MiB allocation reported by mallinfo(arena+hblkhd)
        836509 MiB available memory on the node where the printing process lives
     GPU memory used/free/total (MiB): 1488 / 79662 / 81151
------------------
     ethr =  1.59E-04,  avg # of iterations =  2.7

     total cpu time spent up to now is       28.2 secs

     total energy              =   -1489.34834773 Ry
     estimated scf accuracy    <       0.02314188 Ry

     total magnetization       =     2.22 Bohr mag/cell
     absolute magnetization    =     2.39 Bohr mag/cell
[tb_dev] Currently allocated     7.63E-05 Mbytes, locked:    0 /   2
[tb_pin] Currently allocated     0.00E+00 Mbytes, locked:    0 /   0

     iteration # 10     ecut=    60.00 Ry     beta= 0.30
     Davidson diagonalization with overlap

---- Real-time Memory Report at c_bands before calling an iterative solver
          1003 MiB given to the printing process from OS
             0 MiB allocation reported by mallinfo(arena+hblkhd)
        836345 MiB available memory on the node where the printing process lives
     GPU memory used/free/total (MiB): 1488 / 79662 / 81151
------------------
     c_bands:  2 eigenvalues not converged
     c_bands:  1 eigenvalues not converged
     c_bands:  1 eigenvalues not converged
     ethr =  2.41E-05,  avg # of iterations = 13.4

     total cpu time spent up to now is       32.4 secs

     total energy              =   -1489.35458196 Ry
     estimated scf accuracy    <       0.00715133 Ry

     total magnetization       =     2.33 Bohr mag/cell
     absolute magnetization    =     2.38 Bohr mag/cell
[tb_dev] Currently allocated     7.63E-05 Mbytes, locked:    0 /   2
[tb_pin] Currently allocated     0.00E+00 Mbytes, locked:    0 /   0

     iteration # 11     ecut=    60.00 Ry     beta= 0.30
     Davidson diagonalization with overlap

---- Real-time Memory Report at c_bands before calling an iterative solver
          1004 MiB given to the printing process from OS
             0 MiB allocation reported by mallinfo(arena+hblkhd)
        836128 MiB available memory on the node where the printing process lives
     GPU memory used/free/total (MiB): 1488 / 79662 / 81151
------------------
     c_bands:  1 eigenvalues not converged
     c_bands:  1 eigenvalues not converged
     ethr =  7.45E-06,  avg # of iterations =  6.6

     total cpu time spent up to now is       35.6 secs

     total energy              =   -1489.35502748 Ry
     estimated scf accuracy    <       0.00544788 Ry

     total magnetization       =     2.30 Bohr mag/cell
     absolute magnetization    =     2.34 Bohr mag/cell
[tb_dev] Currently allocated     7.63E-05 Mbytes, locked:    0 /   2
[tb_pin] Currently allocated     0.00E+00 Mbytes, locked:    0 /   0

     iteration # 12     ecut=    60.00 Ry     beta= 0.30
     Davidson diagonalization with overlap

---- Real-time Memory Report at c_bands before calling an iterative solver
          1005 MiB given to the printing process from OS
             0 MiB allocation reported by mallinfo(arena+hblkhd)
        835967 MiB available memory on the node where the printing process lives
     GPU memory used/free/total (MiB): 1488 / 79662 / 81151
------------------
     ethr =  5.67E-06,  avg # of iterations =  2.0

     total cpu time spent up to now is       38.0 secs

     total energy              =   -1489.35578935 Ry
     estimated scf accuracy    <       0.00036536 Ry

     total magnetization       =     2.32 Bohr mag/cell
     absolute magnetization    =     2.35 Bohr mag/cell
[tb_dev] Currently allocated     7.63E-05 Mbytes, locked:    0 /   2
[tb_pin] Currently allocated     0.00E+00 Mbytes, locked:    0 /   0

     iteration # 13     ecut=    60.00 Ry     beta= 0.30
     Davidson diagonalization with overlap

---- Real-time Memory Report at c_bands before calling an iterative solver
          1005 MiB given to the printing process from OS
             0 MiB allocation reported by mallinfo(arena+hblkhd)
        835871 MiB available memory on the node where the printing process lives
     GPU memory used/free/total (MiB): 1488 / 79662 / 81151
------------------
     c_bands:  1 eigenvalues not converged
     ethr =  3.81E-07,  avg # of iterations =  9.9

     total cpu time spent up to now is       41.8 secs

     total energy              =   -1489.35611491 Ry
     estimated scf accuracy    <       0.00035400 Ry

     total magnetization       =     2.31 Bohr mag/cell
     absolute magnetization    =     2.35 Bohr mag/cell
[tb_dev] Currently allocated     7.63E-05 Mbytes, locked:    0 /   2
[tb_pin] Currently allocated     0.00E+00 Mbytes, locked:    0 /   0

     iteration # 14     ecut=    60.00 Ry     beta= 0.30
     Davidson diagonalization with overlap

---- Real-time Memory Report at c_bands before calling an iterative solver
          1005 MiB given to the printing process from OS
             0 MiB allocation reported by mallinfo(arena+hblkhd)
        835757 MiB available memory on the node where the printing process lives
     GPU memory used/free/total (MiB): 1488 / 79662 / 81151
------------------
     ethr =  3.69E-07,  avg # of iterations =  1.6

     total cpu time spent up to now is       44.2 secs

     total energy              =   -1489.35609879 Ry
     estimated scf accuracy    <       0.00008765 Ry

     total magnetization       =     2.30 Bohr mag/cell
     absolute magnetization    =     2.33 Bohr mag/cell
[tb_dev] Currently allocated     7.63E-05 Mbytes, locked:    0 /   2
[tb_pin] Currently allocated     0.00E+00 Mbytes, locked:    0 /   0

     iteration # 15     ecut=    60.00 Ry     beta= 0.30
     Davidson diagonalization with overlap

---- Real-time Memory Report at c_bands before calling an iterative solver
          1005 MiB given to the printing process from OS
             0 MiB allocation reported by mallinfo(arena+hblkhd)
        835687 MiB available memory on the node where the printing process lives
     GPU memory used/free/total (MiB): 1488 / 79662 / 81151
------------------
     ethr =  9.13E-08,  avg # of iterations =  3.4

     total cpu time spent up to now is       46.8 secs

     total energy              =   -1489.35612913 Ry
     estimated scf accuracy    <       0.00003468 Ry

     total magnetization       =     2.31 Bohr mag/cell
     absolute magnetization    =     2.35 Bohr mag/cell
[tb_dev] Currently allocated     7.63E-05 Mbytes, locked:    0 /   2
[tb_pin] Currently allocated     0.00E+00 Mbytes, locked:    0 /   0

     iteration # 16     ecut=    60.00 Ry     beta= 0.30
     Davidson diagonalization with overlap

---- Real-time Memory Report at c_bands before calling an iterative solver
          1005 MiB given to the printing process from OS
             0 MiB allocation reported by mallinfo(arena+hblkhd)
        835579 MiB available memory on the node where the printing process lives
     GPU memory used/free/total (MiB): 1488 / 79662 / 81151
------------------
     ethr =  3.61E-08,  avg # of iterations =  3.1

     total cpu time spent up to now is       49.4 secs

     total energy              =   -1489.35613018 Ry
     estimated scf accuracy    <       0.00000554 Ry

     total magnetization       =     2.29 Bohr mag/cell
     absolute magnetization    =     2.33 Bohr mag/cell
[tb_dev] Currently allocated     7.63E-05 Mbytes, locked:    0 /   2
[tb_pin] Currently allocated     0.00E+00 Mbytes, locked:    0 /   0

     iteration # 17     ecut=    60.00 Ry     beta= 0.30
     Davidson diagonalization with overlap

---- Real-time Memory Report at c_bands before calling an iterative solver
          1005 MiB given to the printing process from OS
             0 MiB allocation reported by mallinfo(arena+hblkhd)
        835478 MiB available memory on the node where the printing process lives
     GPU memory used/free/total (MiB): 1488 / 79662 / 81151
------------------
     ethr =  5.77E-09,  avg # of iterations =  8.7

     total cpu time spent up to now is       53.0 secs

     total energy              =   -1489.35613240 Ry
     estimated scf accuracy    <       0.00000385 Ry

     total magnetization       =     2.30 Bohr mag/cell
     absolute magnetization    =     2.34 Bohr mag/cell
[tb_dev] Currently allocated     7.63E-05 Mbytes, locked:    0 /   2
[tb_pin] Currently allocated     0.00E+00 Mbytes, locked:    0 /   0

     iteration # 18     ecut=    60.00 Ry     beta= 0.30
     Davidson diagonalization with overlap

---- Real-time Memory Report at c_bands before calling an iterative solver
          1005 MiB given to the printing process from OS
             0 MiB allocation reported by mallinfo(arena+hblkhd)
        835306 MiB available memory on the node where the printing process lives
     GPU memory used/free/total (MiB): 1488 / 79662 / 81151
------------------
     ethr =  4.01E-09,  avg # of iterations =  2.2

     total cpu time spent up to now is       55.4 secs

     total energy              =   -1489.35613299 Ry
     estimated scf accuracy    <       0.00000039 Ry

     total magnetization       =     2.30 Bohr mag/cell
     absolute magnetization    =     2.34 Bohr mag/cell
[tb_dev] Currently allocated     7.63E-05 Mbytes, locked:    0 /   2
[tb_pin] Currently allocated     0.00E+00 Mbytes, locked:    0 /   0

     iteration # 19     ecut=    60.00 Ry     beta= 0.30
     Davidson diagonalization with overlap

---- Real-time Memory Report at c_bands before calling an iterative solver
          1005 MiB given to the printing process from OS
             0 MiB allocation reported by mallinfo(arena+hblkhd)
        835166 MiB available memory on the node where the printing process lives
     GPU memory used/free/total (MiB): 1488 / 79662 / 81151
------------------
     ethr =  4.06E-10,  avg # of iterations =  7.6

     total cpu time spent up to now is       58.8 secs

     total energy              =   -1489.35613323 Ry
     estimated scf accuracy    <       0.00000015 Ry

     total magnetization       =     2.30 Bohr mag/cell
     absolute magnetization    =     2.34 Bohr mag/cell
[tb_dev] Currently allocated     7.63E-05 Mbytes, locked:    0 /   2
[tb_pin] Currently allocated     0.00E+00 Mbytes, locked:    0 /   0

     iteration # 20     ecut=    60.00 Ry     beta= 0.30
     Davidson diagonalization with overlap

---- Real-time Memory Report at c_bands before calling an iterative solver
          1005 MiB given to the printing process from OS
             0 MiB allocation reported by mallinfo(arena+hblkhd)
        835022 MiB available memory on the node where the printing process lives
     GPU memory used/free/total (MiB): 1488 / 79662 / 81151
------------------
     ethr =  1.54E-10,  avg # of iterations =  4.2
 
     Magnetic moment per site  (integrated on atomic sphere of radius R)
     atom   1 (R=0.159)  charge= 14.1201  magn=  0.5517
     atom   2 (R=0.159)  charge= 14.0920  magn=  0.6040
     atom   3 (R=0.159)  charge= 14.0920  magn=  0.6040
     atom   4 (R=0.159)  charge=  5.2343  magn=  0.0613
     atom   5 (R=0.159)  charge=  5.2343  magn=  0.0613
     atom   6 (R=0.159)  charge=  5.2343  magn=  0.0613
     atom   7 (R=0.159)  charge=  5.2343  magn=  0.0613
     atom   8 (R=0.159)  charge=  5.2343  magn=  0.0613
     atom   9 (R=0.159)  charge=  5.2343  magn=  0.0613
     atom  10 (R=0.202)  charge=  7.9983  magn=  0.0008

     total cpu time spent up to now is       61.5 secs

     End of self-consistent calculation

 ------ SPIN UP ------------


          k = 0.0000 0.0000 0.0000 (  6307 PWs)   bands (ev):

   -89.5198 -89.5160 -89.4036 -52.7558 -52.7541 -52.7541 -52.7494 -52.7332
   -52.7332 -52.6591 -52.6591 -52.5983 -43.6063 -15.5867 -15.5215 -15.5215
   -13.0062 -11.3167 -11.3167 -11.3095 -11.3095 -11.0477   0.6031   0.8849
     0.8849   0.9793   0.9793   1.2053   1.2053   1.2266   1.3872   2.8953
     2.8953   2.9629   2.9629   3.2563   3.4123   4.6350   4.6701   4.7155
     4.7160   4.7160   4.8878   4.8878   5.7823   5.7823   5.7882   5.7882
     5.8954   7.8035   7.8035   7.8862   7.8862   8.6152   8.6152  11.7366
    15.8768  17.1934  18.4423  18.4423  18.5342  18.6382  18.6382  19.0445

     occupation numbers 
     1.0000   1.0000   1.0000   1.0000   1.0000   1.0000   1.0000   1.0000
     1.0000   1.0000   1.0000   1.0000   1.0000   1.0000   1.0000   1.0000
     1.0000   1.0000   1.0000   1.0000   1.0000   1.0000   1.0000   1.0000
     1.0000   1.0000   1.0000   1.0000   1.0000   1.0000   1.0000   1.0000
     1.0000   1.0000   1.0000   1.0000   1.0000   1.0000   1.0000   1.0000
     1.0000   1.0000   1.0000   1.0000   1.0223   1.0223   1.0237   1.0237
     1.0564   0.0000   0.0000   0.0000   0.0000   0.0000   0.0000   0.0000
     0.0000   0.0000   0.0000   0.0000   0.0000   0.0000   0.0000   0.0000

          k = 0.0000 0.0000 0.3032 (  6332 PWs)   bands (ev):

   -89.5198 -89.5160 -89.4037 -52.7556 -52.7540 -52.7540 -52.7497 -52.7332
   -52.7332 -52.6592 -52.6592 -52.5984 -43.6062 -15.5975 -15.5214 -15.5214
   -12.9595 -11.3215 -11.3215 -11.3048 -11.3048 -11.0997   0.8088   0.8724
     0.8724   0.9517   0.9517   1.2068   1.2068   1.2854   1.4156   2.9028
     2.9028   2.9972   2.9972   3.1681   3.3670   4.1872   4.6731   4.7162
     4.7162   4.7242   4.8809   4.8809   5.7700   5.7700   5.7721   5.7721
     6.0009   7.8494   7.8494   7.9477   7.9477   8.6218   8.6218  12.6312
    14.8787  17.1564  18.2957  18.4429  18.4429  18.6799  18.6801  18.7411

     occupation numbers 
     1.0000   1.0000   1.0000   1.0000   1.0000   1.0000   1.0000   1.0000
     1.0000   1.0000   1.0000   1.0000   1.0000   1.0000   1.0000   1.0000
     1.0000   1.0000   1.0000   1.0000   1.0000   1.0000   1.0000   1.0000
     1.0000   1.0000   1.0000   1.0000   1.0000   1.0000   1.0000   1.0000
     1.0000   1.0000   1.0000   1.0000   1.0000   1.0000   1.0000   1.0000
     1.0000   1.0000   1.0000   1.0000   1.0196   1.0196   1.0201   1.0201
     1.0831   0.0000   0.0000   0.0000   0.0000   0.0000   0.0000   0.0000
     0.0000   0.0000   0.0000   0.0000   0.0000   0.0000   0.0000   0.0000

          k = 0.0000 0.1925 0.0000 (  6330 PWs)   bands (ev):

   -89.5196 -89.5163 -89.4037 -52.7562 -52.7553 -52.7540 -52.7499 -52.7320
   -52.7312 -52.6605 -52.6592 -52.5984 -43.6063 -15.5866 -15.5224 -15.5217
   -12.9016 -11.4635 -11.3744 -11.3048 -11.2423 -11.0539   0.4763   0.6985
     0.8097   0.9093   1.0646   1.1182   1.2704   1.6819   1.8935   2.6208
     2.6921   2.7581   2.8922   3.5972   3.6941   4.0392   4.1631   4.7678
     4.8085   4.8498   5.1107   5.3256   5.5196   5.5349   5.8825   5.9457
     5.9547   7.8081   7.8911   7.9027   7.9698   8.3579   8.5424  12.0978
    16.2691  17.0057  17.3983  17.7591  18.0739  19.2557  19.3598  19.4585

     occupation numbers 
     1.0000   1.0000   1.0000   1.0000   1.0000   1.0000   1.0000   1.0000
     1.0000   1.0000   1.0000   1.0000   1.0000   1.0000   1.0000   1.0000
     1.0000   1.0000   1.0000   1.0000   1.0000   1.0000   1.0000   1.0000
     1.0000   1.0000   1.0000   1.0000   1.0000   1.0000   1.0000   1.0000
     1.0000   1.0000   1.0000   1.0000   1.0000   1.0000   1.0000   1.0000
     1.0000   1.0000   1.0000   1.0000   1.0005   1.0007   1.0520   1.0728
     1.0752   0.0000   0.0000   0.0000   0.0000   0.0000   0.0000   0.0000
     0.0000   0.0000   0.0000   0.0000   0.0000   0.0000   0.0000   0.0000

          k = 0.0000 0.1925 0.3032 (  6320 PWs)   bands (ev):

   -89.5196 -89.5163 -89.4037 -52.7561 -52.7552 -52.7541 -52.7500 -52.7320
   -52.7312 -52.6605 -52.6592 -52.5984 -43.6062 -15.5961 -15.5220 -15.5215
   -12.8591 -11.4630 -11.3770 -11.3020 -11.2424 -11.1010   0.4796   0.7366
     0.8748   0.9461   1.0385   1.1048   1.2724   1.7090   1.9143   2.5943
     2.6629   2.8020   2.9231   3.6082   3.6834   4.0388   4.1315   4.4628
     4.7688   4.8532   5.1092   5.3092   5.5221   5.5386   5.8564   5.9241
     6.0623   7.8532   7.9146   7.9495   8.0140   8.3407   8.5505  12.9128
    15.2207  16.8593  17.4139  17.7204  17.8994  19.3112  19.4190  19.5738

     occupation numbers 
     1.0000   1.0000   1.0000   1.0000   1.0000   1.0000   1.0000   1.0000
     1.0000   1.0000   1.0000   1.0000   1.0000   1.0000   1.0000   1.0000
     1.0000   1.0000   1.0000   1.0000   1.0000   1.0000   1.0000   1.0000
     1.0000   1.0000   1.0000   1.0000   1.0000   1.0000   1.0000   1.0000
     1.0000   1.0000   1.0000   1.0000   1.0000   1.0000   1.0000   1.0000
     1.0000   1.0000   1.0000   1.0000   1.0006   1.0008   1.0431   1.0661
     1.0728   0.0000   0.0000   0.0000   0.0000   0.0000   0.0000   0.0000
     0.0000   0.0000   0.0000   0.0000   0.0000   0.0000   0.0000   0.0000

          k = 0.0000 0.3849 0.0000 (  6318 PWs)   bands (ev):

   -89.5190 -89.5168 -89.4037 -52.7594 -52.7543 -52.7511 -52.7508 -52.7329
   -52.7279 -52.6623 -52.6593 -52.5984 -43.6063 -15.5861 -15.5237 -15.5221
   -12.6111 -11.7811 -11.4158 -11.3532 -11.1738 -11.0744   0.0714   0.8891
     0.9112   0.9772   1.1057   1.3288   1.4299   1.9081   2.1933   2.3800
     2.5150   2.6311   3.0185   3.0566   3.5198   3.8510   4.2552   4.8705
     5.0049   5.1794   5.2599   5.2639   5.2941   5.7107   5.7335   5.9303
     6.0210   7.8492   7.8665   7.9340   7.9441   8.2948   8.3200  13.0026
    15.5295  17.0118  17.2157  17.5384  18.0218  18.9568  19.0716  19.4086

     occupation numbers 
     1.0000   1.0000   1.0000   1.0000   1.0000   1.0000   1.0000   1.0000
     1.0000   1.0000   1.0000   1.0000   1.0000   1.0000   1.0000   1.0000
     1.0000   1.0000   1.0000   1.0000   1.0000   1.0000   1.0000   1.0000
     1.0000   1.0000   1.0000   1.0000   1.0000   1.0000   1.0000   1.0000
     1.0000   1.0000   1.0000   1.0000   1.0000   1.0000   1.0000   1.0000
     1.0000   1.0000   1.0000   1.0000   1.0000   1.0099   1.0131   1.0681
     1.0829   0.0000   0.0000   0.0000   0.0000   0.0000   0.0000   0.0000
     0.0000   0.0000   0.0000   0.0000   0.0000   0.0000   0.0000   0.0000

          k = 0.0000 0.3849 0.3032 (  6304 PWs)   bands (ev):

   -89.5190 -89.5168 -89.4037 -52.7592 -52.7543 -52.7512 -52.7508 -52.7328
   -52.7278 -52.6623 -52.6593 -52.5984 -43.6062 -15.5937 -15.5229 -15.5218
   -12.5791 -11.7741 -11.4216 -11.3463 -11.1801 -11.1093   0.0674   0.8041
     0.9085   0.9180   1.2616   1.2913   1.4322   1.9219   2.1573   2.4785
     2.5621   2.6188   3.0340   3.0802   3.5150   3.9307   4.2607   4.8007
     4.8668   5.1801   5.2688   5.2705   5.3042   5.6659   5.7124   5.9729
     6.0349   7.7984   7.8687   7.9029   7.9800   8.3027   8.3456  13.5853
    15.5145  16.1014  16.8268  17.3179  18.4796  18.5799  18.9918  19.8305

     occupation numbers 
     1.0000   1.0000   1.0000   1.0000   1.0000   1.0000   1.0000   1.0000
     1.0000   1.0000   1.0000   1.0000   1.0000   1.0000   1.0000   1.0000
     1.0000   1.0000   1.0000   1.0000   1.0000   1.0000   1.0000   1.0000
     1.0000   1.0000   1.0000   1.0000   1.0000   1.0000   1.0000   1.0000
     1.0000   1.0000   1.0000   1.0000   1.0000   1.0000   1.0000   1.0000
     1.0000   1.0000   1.0000   1.0000   1.0000   1.0055   1.0101   1.0794
     1.0811   0.0000   0.0000   0.0000   0.0000   0.0000   0.0000   0.0000
     0.0000   0.0000   0.0000   0.0000   0.0000   0.0000   0.0000   0.0000

          k = 0.0000-0.5774 0.0000 (  6336 PWs)   bands (ev):

   -89.5185 -89.5173 -89.4037 -52.7607 -52.7536 -52.7515 -52.7475 -52.7361
   -52.7265 -52.6629 -52.6595 -52.5984 -43.6063 -15.5859 -15.5246 -15.5223
   -12.2224 -12.1817 -11.4304 -11.3792 -11.1272 -11.1030  -0.0782   0.8422
     0.9288   1.3154   1.3290   1.6289   1.6356   1.6591   1.8366   2.2264
     2.4138   2.5659   2.9514   2.9671   3.4063   3.9326   4.7614   4.8356
     4.8736   5.1410   5.1973   5.2129   5.5856   5.6863   5.7111   5.9392
     5.9488   7.7493   7.8368   7.8989   8.0209   8.0857   8.5002  14.1624
    14.2032  16.7053  17.4237  18.0442  18.4237  18.5179  18.7889  18.7903

     occupation numbers 
     1.0000   1.0000   1.0000   1.0000   1.0000   1.0000   1.0000   1.0000
     1.0000   1.0000   1.0000   1.0000   1.0000   1.0000   1.0000   1.0000
     1.0000   1.0000   1.0000   1.0000   1.0000   1.0000   1.0000   1.0000
     1.0000   1.0000   1.0000   1.0000   1.0000   1.0000   1.0000   1.0000
     1.0000   1.0000   1.0000   1.0000   1.0000   1.0000   1.0000   1.0000
     1.0000   1.0000   1.0000   1.0000   1.0017   1.0073   1.0100   1.0709
     1.0736   0.0000   0.0000   0.0000   0.0000   0.0000   0.0000   0.0000
     0.0000   0.0000   0.0000   0.0000   0.0000   0.0000   0.0000   0.0000

          k = 0.0000-0.5774 0.3032 (  6310 PWs)   bands (ev):

   -89.5185 -89.5173 -89.4037 -52.7607 -52.7536 -52.7516 -52.7474 -52.7362
   -52.7264 -52.6629 -52.6594 -52.5984 -43.6062 -15.5924 -15.5235 -15.5220
   -12.1838 -12.1831 -11.4377 -11.3708 -11.1402 -11.1283  -0.0836   0.7386
     0.8593   1.3226   1.3290   1.5572   1.6672   1.7436   1.8352   2.3377
     2.5024   2.6040   2.9410   2.9652   3.4111   4.0428   4.7352   4.7835
     4.8674   5.1409   5.1995   5.2216   5.5719   5.7292   5.7537   5.8762
     5.9001   7.6400   7.7359   7.9105   8.0714   8.1385   8.4921  14.4136
    14.4858  16.5142  17.1239  17.1844  17.3630  18.6560  19.4504  19.7221

     occupation numbers 
     1.0000   1.0000   1.0000   1.0000   1.0000   1.0000   1.0000   1.0000
     1.0000   1.0000   1.0000   1.0000   1.0000   1.0000   1.0000   1.0000
     1.0000   1.0000   1.0000   1.0000   1.0000   1.0000   1.0000   1.0000
     1.0000   1.0000   1.0000   1.0000   1.0000   1.0000   1.0000   1.0000
     1.0000   1.0000   1.0000   1.0000   1.0000   1.0000   1.0000   1.0000
     1.0000   1.0000   1.0000   1.0000   1.0013   1.0124   1.0165   1.0498
     1.0580   0.0000   0.0000   0.0000   0.0000   0.0000   0.0000   0.0000
     0.0000   0.0000   0.0000   0.0000   0.0000   0.0000   0.0000   0.0000

          k = 0.1667 0.2887 0.0000 (  6317 PWs)   bands (ev):

   -89.5192 -89.5167 -89.4037 -52.7575 -52.7546 -52.7534 -52.7504 -52.7324
   -52.7285 -52.6618 -52.6594 -52.5983 -43.6063 -15.5861 -15.5233 -15.5221
   -12.7041 -11.5804 -11.5744 -11.2330 -11.2328 -11.0677   0.4117   0.4137
     0.9430   1.0240   1.1079   1.1823   1.3964   2.0275   2.0917   2.5019
     2.5735   2.7010   2.7818   3.1983   3.8393   3.9382   3.9513   4.8689
     4.9764   5.0272   5.2880   5.3337   5.3373   5.5513   5.9008   5.9039
     5.9592   7.8109   7.8797   7.9401   8.0730   8.1245   8.4689  12.7178
    16.2601  16.3891  16.9057  17.7778  18.6772  19.0408  19.2208  19.3242

     occupation numbers 
     1.0000   1.0000   1.0000   1.0000   1.0000   1.0000   1.0000   1.0000
     1.0000   1.0000   1.0000   1.0000   1.0000   1.0000   1.0000   1.0000
     1.0000   1.0000   1.0000   1.0000   1.0000   1.0000   1.0000   1.0000
     1.0000   1.0000   1.0000   1.0000   1.0000   1.0000   1.0000   1.0000
     1.0000   1.0000   1.0000   1.0000   1.0000   1.0000   1.0000   1.0000
     1.0000   1.0000   1.0000   1.0000   1.0000   1.0009   1.0583   1.0594
     1.0764   0.0000   0.0000   0.0000   0.0000   0.0000   0.0000   0.0000
     0.0000   0.0000   0.0000   0.0000   0.0000   0.0000   0.0000   0.0000

          k = 0.1667 0.2887 0.3032 (  6308 PWs)   bands (ev):

   -89.5192 -89.5167 -89.4037 -52.7575 -52.7545 -52.7534 -52.7506 -52.7324
   -52.7285 -52.6618 -52.6593 -52.5984 -43.6062 -15.5943 -15.5226 -15.5219
   -12.6685 -11.5781 -11.5666 -11.2412 -11.2334 -11.1065   0.4030   0.4131
     0.8749   1.0683   1.1427   1.1918   1.3976   2.0088   2.0772   2.5731
     2.6244   2.6929   2.7988   3.2167   3.8373   3.9873   3.9882   4.6661
     4.9750   5.0265   5.2009   5.3382   5.3426   5.5522   5.8771   5.8837
     6.0826   7.7961   7.8622   7.8740   8.0994   8.1509   8.4674  13.4411
    15.7768  16.2748  16.4179  18.0623  18.2396  18.5603  19.2810  19.3180

     occupation numbers 
     1.0000   1.0000   1.0000   1.0000   1.0000   1.0000   1.0000   1.0000
     1.0000   1.0000   1.0000   1.0000   1.0000   1.0000   1.0000   1.0000
     1.0000   1.0000   1.0000   1.0000   1.0000   1.0000   1.0000   1.0000
     1.0000   1.0000   1.0000   1.0000   1.0000   1.0000   1.0000   1.0000
     1.0000   1.0000   1.0000   1.0000   1.0000   1.0000   1.0000   1.0000
     1.0000   1.0000   1.0000   1.0000   1.0000   1.0010   1.0501   1.0524
     1.0618   0.0000   0.0000   0.0000   0.0000   0.0000   0.0000   0.0000
     0.0000   0.0000   0.0000   0.0000   0.0000   0.0000   0.0000   0.0000

          k = 0.1667 0.4811 0.0000 (  6294 PWs)   bands (ev):

   -89.5185 -89.5173 -89.4037 -52.7585 -52.7536 -52.7516 -52.7490 -52.7370
   -52.7263 -52.6622 -52.6596 -52.5984 -43.6062 -15.5857 -15.5241 -15.5224
   -12.3555 -11.9412 -11.6507 -11.2424 -11.1571 -11.0983   0.1490   0.6581
     0.8372   1.2447   1.3556   1.4330   1.5768   1.8489   1.9075   2.1861
     2.3790   2.5135   2.9859   3.2428   3.4008   4.0410   4.4427   4.8291
     5.0327   5.2194   5.2503   5.2978   5.4420   5.6752   5.6946   5.8682
     5.8888   7.6426   7.7322   7.8413   8.2092   8.3433   8.4184  13.7168
    14.9324  15.8709  17.7475  18.2952  18.4489  18.5698  18.8561  19.0131

     occupation numbers 
     1.0000   1.0000   1.0000   1.0000   1.0000   1.0000   1.0000   1.0000
     1.0000   1.0000   1.0000   1.0000   1.0000   1.0000   1.0000   1.0000
     1.0000   1.0000   1.0000   1.0000   1.0000   1.0000   1.0000   1.0000
     1.0000   1.0000   1.0000   1.0000   1.0000   1.0000   1.0000   1.0000
     1.0000   1.0000   1.0000   1.0000   1.0000   1.0000   1.0000   1.0000
     1.0000   1.0000   1.0000   1.0000   1.0001   1.0063   1.0081   1.0471
     1.0541   0.0000   0.0000   0.0000   0.0000   0.0000   0.0000   0.0000
     0.0000   0.0000   0.0000   0.0000   0.0000   0.0000   0.0000   0.0000

          k = 0.1667 0.4811 0.3032 (  6307 PWs)   bands (ev):

   -89.5185 -89.5173 -89.4037 -52.7586 -52.7536 -52.7517 -52.7490 -52.7370
   -52.7263 -52.6623 -52.6597 -52.5985 -43.6062 -15.5926 -15.5233 -15.5224
   -12.3302 -11.9284 -11.6428 -11.2494 -11.1689 -11.1254   0.1394   0.6070
     0.7510   1.2026   1.3705   1.4378   1.5952   1.8533   1.8929   2.2993
     2.4522   2.5791   2.9906   3.2489   3.4018   4.1338   4.4770   4.7894
     5.0259   5.2171   5.2506   5.2532   5.4535   5.6721   5.6758   5.8770
     5.9513   7.5070   7.6326   7.7875   8.2250   8.3477   8.4148  14.2215
    15.1646  16.0624  16.7021  17.5438  17.7697  18.8454  19.1063  19.5878

     occupation numbers 
     1.0000   1.0000   1.0000   1.0000   1.0000   1.0000   1.0000   1.0000
     1.0000   1.0000   1.0000   1.0000   1.0000   1.0000   1.0000   1.0000
     1.0000   1.0000   1.0000   1.0000   1.0000   1.0000   1.0000   1.0000
     1.0000   1.0000   1.0000   1.0000   1.0000   1.0000   1.0000   1.0000
     1.0000   1.0000   1.0000   1.0000   1.0000   1.0000   1.0000   1.0000
     1.0000   1.0000   1.0000   1.0000   1.0002   1.0060   1.0063   1.0501
     1.0743   0.0000   0.0000   0.0000   0.0000   0.0000   0.0000   0.0000
     0.0000   0.0000   0.0000   0.0000   0.0000   0.0000   0.0000   0.0000

          k = 0.3333 0.5774 0.0000 (  6294 PWs)   bands (ev):

   -89.5179 -89.5179 -89.4037 -52.7569 -52.7526 -52.7526 -52.7442 -52.7442
   -52.7255 -52.6608 -52.6608 -52.5984 -43.6062 -15.5857 -15.5234 -15.5234
   -12.0315 -11.9878 -11.9878 -11.1602 -11.1602 -11.1366   0.5375   0.5549
     0.5549   1.3730   1.4362   1.4362   1.7350   1.7350   1.7708   2.0298
     2.2551   2.2551   3.3319   3.3319   3.3747   4.4182   4.4182   4.5110
     5.2261   5.2261   5.2422   5.4841   5.4846   5.4846   5.7240   5.7240
     5.7426   7.6191   7.6860   7.6860   8.4182   8.4279   8.4279  14.6559
    14.6559  14.7652  18.0376  18.4314  18.4315  18.6417  18.8952  18.8952

     occupation numbers 
     1.0000   1.0000   1.0000   1.0000   1.0000   1.0000   1.0000   1.0000
     1.0000   1.0000   1.0000   1.0000   1.0000   1.0000   1.0000   1.0000
     1.0000   1.0000   1.0000   1.0000   1.0000   1.0000   1.0000   1.0000
     1.0000   1.0000   1.0000   1.0000   1.0000   1.0000   1.0000   1.0000
     1.0000   1.0000   1.0000   1.0000   1.0000   1.0000   1.0000   1.0000
     1.0000   1.0000   1.0000   1.0003   1.0003   1.0003   1.0117   1.0117
     1.0145   0.0000   0.0000   0.0000   0.0000   0.0000   0.0000   0.0000
     0.0000   0.0000   0.0000   0.0000   0.0000   0.0000   0.0000   0.0000

          k = 0.3333 0.5774 0.3032 (  6312 PWs)   bands (ev):

   -89.5179 -89.5179 -89.4037 -52.7570 -52.7527 -52.7527 -52.7443 -52.7443
   -52.7255 -52.6609 -52.6609 -52.5985 -43.6062 -15.5921 -15.5232 -15.5232
   -11.9911 -11.9843 -11.9843 -11.1731 -11.1652 -11.1652   0.4796   0.5126
     0.5126   1.3075   1.3987   1.3987   1.7351   1.7351   1.7667   2.1986
     2.3645   2.3645   3.3320   3.3320   3.3818   4.4607   4.4607   4.5632
     5.2061   5.2061   5.2174   5.4863   5.4863   5.4873   5.7608   5.7608
     5.7831   7.4766   7.5620   7.5620   8.4066   8.4205   8.4205  14.9878
    14.9878  15.1631  17.1858  17.4950  17.4950  19.2323  19.3063  19.3063

     occupation numbers 
     1.0000   1.0000   1.0000   1.0000   1.0000   1.0000   1.0000   1.0000
     1.0000   1.0000   1.0000   1.0000   1.0000   1.0000   1.0000   1.0000
     1.0000   1.0000   1.0000   1.0000   1.0000   1.0000   1.0000   1.0000
     1.0000   1.0000   1.0000   1.0000   1.0000   1.0000   1.0000   1.0000
     1.0000   1.0000   1.0000   1.0000   1.0000   1.0000   1.0000   1.0000
     1.0000   1.0000   1.0000   1.0003   1.0003   1.0003   1.0178   1.0178
     1.0225   0.0000   0.0000   0.0000   0.0000   0.0000   0.0000   0.0000
     0.0000   0.0000   0.0000   0.0000   0.0000   0.0000   0.0000   0.0000

          k =-0.1667-0.2887 0.3032 (  6308 PWs)   bands (ev):

   -89.5192 -89.5167 -89.4037 -52.7575 -52.7545 -52.7534 -52.7506 -52.7324
   -52.7285 -52.6618 -52.6593 -52.5984 -43.6062 -15.5942 -15.5225 -15.5217
   -12.6694 -11.5781 -11.5761 -11.2334 -11.2314 -11.1059   0.3967   0.3973
     0.9122   1.0791   1.1488   1.1635   1.3989   2.0343   2.0927   2.5302
     2.5940   2.7226   2.8234   3.2113   3.8356   3.9566   3.9588   4.6684
     4.9804   5.0341   5.2054   5.3434   5.3440   5.5492   5.8617   5.8635
     6.0540   7.8613   7.9233   7.9303   8.0916   8.1191   8.4752  13.3141
    15.8585  16.0270  16.1280  18.1979  18.6506  18.8104  19.0705  19.1636

     occupation numbers 
     1.0000   1.0000   1.0000   1.0000   1.0000   1.0000   1.0000   1.0000
     1.0000   1.0000   1.0000   1.0000   1.0000   1.0000   1.0000   1.0000
     1.0000   1.0000   1.0000   1.0000   1.0000   1.0000   1.0000   1.0000
     1.0000   1.0000   1.0000   1.0000   1.0000   1.0000   1.0000   1.0000
     1.0000   1.0000   1.0000   1.0000   1.0000   1.0000   1.0000   1.0000
     1.0000   1.0000   1.0000   1.0000   1.0000   1.0009   1.0449   1.0455
     1.0760   0.0000   0.0000   0.0000   0.0000   0.0000   0.0000   0.0000
     0.0000   0.0000   0.0000   0.0000   0.0000   0.0000   0.0000   0.0000

          k =-0.1667-0.4811 0.3032 (  6307 PWs)   bands (ev):

   -89.5185 -89.5173 -89.4037 -52.7586 -52.7536 -52.7517 -52.7490 -52.7370
   -52.7262 -52.6622 -52.6597 -52.5985 -43.6062 -15.5924 -15.5230 -15.5221
   -12.3325 -11.9322 -11.6506 -11.2415 -11.1649 -11.1232   0.1306   0.6001
     0.7760   1.2109   1.3800   1.4103   1.5905   1.8464   1.8982   2.3302
     2.4775   2.5974   2.9793   3.2456   3.3974   4.0740   4.4286   4.7534
     5.0423   5.2245   5.2524   5.2668   5.4595   5.6462   5.6857   5.8322
     5.8800   7.6315   7.7503   7.8722   8.2097   8.3499   8.4145  13.9871
    14.8881  15.5698  16.8560  17.9501  18.1495  18.7882  19.1968  19.8021

     occupation numbers 
     1.0000   1.0000   1.0000   1.0000   1.0000   1.0000   1.0000   1.0000
     1.0000   1.0000   1.0000   1.0000   1.0000   1.0000   1.0000   1.0000
     1.0000   1.0000   1.0000   1.0000   1.0000   1.0000   1.0000   1.0000
     1.0000   1.0000   1.0000   1.0000   1.0000   1.0000   1.0000   1.0000
     1.0000   1.0000   1.0000   1.0000   1.0000   1.0000   1.0000   1.0000
     1.0000   1.0000   1.0000   1.0000   1.0002   1.0042   1.0072   1.0355
     1.0511   0.0000   0.0000   0.0000   0.0000   0.0000   0.0000   0.0000
     0.0000   0.0000   0.0000   0.0000   0.0000   0.0000   0.0000   0.0000

          k =-0.3333-0.5774 0.3032 (  6312 PWs)   bands (ev):

   -89.5179 -89.5179 -89.4037 -52.7570 -52.7527 -52.7527 -52.7443 -52.7443
   -52.7255 -52.6609 -52.6609 -52.5985 -43.6062 -15.5918 -15.5227 -15.5227
   -11.9946 -11.9905 -11.9905 -11.1695 -11.1589 -11.1589   0.4632   0.5205
     0.5205   1.3250   1.3835   1.3835   1.7369   1.7369   1.7709   2.2324
     2.3911   2.3911   3.3307   3.3307   3.3743   4.4031   4.4031   4.4816
     5.2223   5.2223   5.2385   5.4851   5.4851   5.4861   5.6973   5.6973
     5.7108   7.6389   7.7075   7.7075   8.4139   8.4266   8.4266  14.5962
    14.5962  14.7055  17.5663  17.7504  17.7504  19.3149  19.6733  19.6742

     occupation numbers 
     1.0000   1.0000   1.0000   1.0000   1.0000   1.0000   1.0000   1.0000
     1.0000   1.0000   1.0000   1.0000   1.0000   1.0000   1.0000   1.0000
     1.0000   1.0000   1.0000   1.0000   1.0000   1.0000   1.0000   1.0000
     1.0000   1.0000   1.0000   1.0000   1.0000   1.0000   1.0000   1.0000
     1.0000   1.0000   1.0000   1.0000   1.0000   1.0000   1.0000   1.0000
     1.0000   1.0000   1.0000   1.0003   1.0003   1.0003   1.0084   1.0084
     1.0100   0.0000   0.0000   0.0000   0.0000   0.0000   0.0000   0.0000
     0.0000   0.0000   0.0000   0.0000   0.0000   0.0000   0.0000   0.0000

 ------ SPIN DOWN ----------


          k = 0.0000 0.0000 0.0000 (  6307 PWs)   bands (ev):

   -88.7795 -88.7754 -88.7314 -52.0957 -52.0957 -52.0800 -52.0800 -52.0365
   -52.0365 -51.9101 -51.9030 -51.8668 -43.6056 -15.5865 -15.5200 -15.5200
   -12.9063 -11.2070 -11.2070 -11.1997 -11.1997 -10.9400   0.8861   1.0335
     1.0335   1.1321   1.1321   1.3387   1.4301   1.4301   1.4798   3.1650
     3.1650   3.2225   3.2225   3.3293   3.4889   4.8105   4.9624   4.9624
     5.3102   5.3102   5.6339   5.7241   6.3693   6.3693   6.3795   6.3795
     6.7481   8.1251   8.1251   8.1922   8.1922   8.9228   8.9228  11.7981
    15.9751  17.3260  18.4766  18.4766  18.5853  18.6756  18.6756  19.1389

     occupation numbers 
     1.0000   1.0000   1.0000   1.0000   1.0000   1.0000   1.0000   1.0000
     1.0000   1.0000   1.0000   1.0000   1.0000   1.0000   1.0000   1.0000
     1.0000   1.0000   1.0000   1.0000   1.0000   1.0000   1.0000   1.0000
     1.0000   1.0000   1.0000   1.0000   1.0000   1.0000   1.0000   1.0000
     1.0000   1.0000   1.0000   1.0000   1.0000   1.0000   1.0000   1.0000
     1.0000   1.0000   1.0035   1.0117   0.4666   0.4666   0.4398   0.4398
     0.0094   0.0000   0.0000   0.0000   0.0000   0.0000   0.0000   0.0000
     0.0000   0.0000   0.0000   0.0000   0.0000   0.0000   0.0000   0.0000

          k = 0.0000 0.0000 0.3032 (  6332 PWs)   bands (ev):

   -88.7795 -88.7755 -88.7314 -52.0956 -52.0956 -52.0800 -52.0800 -52.0366
   -52.0366 -51.9100 -51.9032 -51.8669 -43.6056 -15.5967 -15.5199 -15.5199
   -12.8604 -11.2115 -11.2115 -11.1953 -11.1953 -10.9919   1.0206   1.0206
     1.1017   1.1038   1.1038   1.4073   1.4319   1.4319   1.5085   3.1722
     3.1722   3.2407   3.2584   3.2584   3.4431   4.3512   4.9557   4.9557
     5.3104   5.3104   5.6460   5.7291   6.3592   6.3592   6.3643   6.3643
     6.8371   8.1712   8.1712   8.2535   8.2535   8.9293   8.9293  12.7061
    14.9950  17.2441  18.3265  18.4718  18.4718  18.7115  18.7116  18.7939

     occupation numbers 
     1.0000   1.0000   1.0000   1.0000   1.0000   1.0000   1.0000   1.0000
     1.0000   1.0000   1.0000   1.0000   1.0000   1.0000   1.0000   1.0000
     1.0000   1.0000   1.0000   1.0000   1.0000   1.0000   1.0000   1.0000
     1.0000   1.0000   1.0000   1.0000   1.0000   1.0000   1.0000   1.0000
     1.0000   1.0000   1.0000   1.0000   1.0000   1.0000   1.0000   1.0000
     1.0000   1.0000   1.0042   1.0124   0.4938   0.4938   0.4801   0.4801
     0.0022   0.0000   0.0000   0.0000   0.0000   0.0000   0.0000   0.0000
     0.0000   0.0000   0.0000   0.0000   0.0000   0.0000   0.0000   0.0000

          k = 0.0000 0.1925 0.0000 (  6330 PWs)   bands (ev):

   -88.7792 -88.7757 -88.7314 -52.0993 -52.0969 -52.0759 -52.0756 -52.0397
   -52.0372 -51.9096 -51.9035 -51.8670 -43.6057 -15.5864 -15.5208 -15.5202
   -12.8014 -11.3556 -11.2662 -11.1940 -11.1314 -10.9458   0.6195   0.8595
     1.0697   1.0749   1.2117   1.3347   1.4905   1.7991   2.0161   2.7997
     2.8809   3.0381   3.1660   3.7561   3.8543   4.2580   4.4434   4.9762
     5.6040   5.7157   5.7237   5.8099   6.1377   6.1513   6.4417   6.5076
     6.7683   8.1292   8.2136   8.2273   8.2718   8.6692   8.8452  12.1569
    16.3672  17.0506  17.5235  17.7987  18.1190  19.2862  19.4824  19.5628

     occupation numbers 
     1.0000   1.0000   1.0000   1.0000   1.0000   1.0000   1.0000   1.0000
     1.0000   1.0000   1.0000   1.0000   1.0000   1.0000   1.0000   1.0000
     1.0000   1.0000   1.0000   1.0000   1.0000   1.0000   1.0000   1.0000
     1.0000   1.0000   1.0000   1.0000   1.0000   1.0000   1.0000   1.0000
     1.0000   1.0000   1.0000   1.0000   1.0000   1.0000   1.0000   1.0000
     1.0022   1.0106   1.0116   1.0291   1.0086   0.9897   0.2908   0.1697
     0.0069   0.0000   0.0000   0.0000   0.0000   0.0000   0.0000   0.0000
     0.0000   0.0000   0.0000   0.0000   0.0000   0.0000   0.0000   0.0000

          k = 0.0000 0.1925 0.3032 (  6320 PWs)   bands (ev):

   -88.7792 -88.7757 -88.7314 -52.0992 -52.0970 -52.0759 -52.0756 -52.0397
   -52.0371 -51.9095 -51.9036 -51.8670 -43.6056 -15.5955 -15.5205 -15.5200
   -12.7595 -11.3550 -11.2687 -11.1912 -11.1316 -10.9928   0.6221   0.8714
     1.0362   1.1813   1.2405   1.3381   1.4928   1.8251   2.0350   2.7639
     2.8491   3.0831   3.1984   3.7789   3.8463   4.2587   4.3906   4.6485
     5.6045   5.7059   5.7216   5.8119   6.1404   6.1545   6.4182   6.4790
     6.8646   8.1772   8.2391   8.2665   8.3172   8.6488   8.8534  12.9860
    15.3361  16.8946  17.4753  17.7725  17.9507  19.3623  19.4671  19.6516

     occupation numbers 
     1.0000   1.0000   1.0000   1.0000   1.0000   1.0000   1.0000   1.0000
     1.0000   1.0000   1.0000   1.0000   1.0000   1.0000   1.0000   1.0000
     1.0000   1.0000   1.0000   1.0000   1.0000   1.0000   1.0000   1.0000
     1.0000   1.0000   1.0000   1.0000   1.0000   1.0000   1.0000   1.0000
     1.0000   1.0000   1.0000   1.0000   1.0000   1.0000   1.0000   1.0000
     1.0022   1.0094   1.0114   1.0297   1.0051   0.9851   0.3437   0.2171
     0.0014   0.0000   0.0000   0.0000   0.0000   0.0000   0.0000   0.0000
     0.0000   0.0000   0.0000   0.0000   0.0000   0.0000   0.0000   0.0000

          k = 0.0000 0.3849 0.0000 (  6318 PWs)   bands (ev):

   -88.7785 -88.7763 -88.7315 -52.1041 -52.0941 -52.0737 -52.0697 -52.0443
   -52.0386 -51.9084 -51.9045 -51.8672 -43.6057 -15.5859 -15.5221 -15.5206
   -12.5097 -11.6757 -11.3089 -11.2419 -11.0626 -10.9652   0.2158   1.0524
     1.0720   1.1757   1.3960   1.4619   1.6368   2.0566   2.3579   2.6656
     2.7710   2.8119   3.1776   3.2473   3.7624   4.0176   4.4429   5.1729
     5.7386   5.7890   5.9220   5.9346   6.1291   6.1440   6.3019   6.5306
     6.7345   8.1723   8.2023   8.2607   8.2860   8.5781   8.6133  13.0574
    15.5741  17.0596  17.3026  17.5858  18.1508  19.1153  19.1325  19.5826

     occupation numbers 
     1.0000   1.0000   1.0000   1.0000   1.0000   1.0000   1.0000   1.0000
     1.0000   1.0000   1.0000   1.0000   1.0000   1.0000   1.0000   1.0000
     1.0000   1.0000   1.0000   1.0000   1.0000   1.0000   1.0000   1.0000
     1.0000   1.0000   1.0000   1.0000   1.0000   1.0000   1.0000   1.0000
     1.0000   1.0000   1.0000   1.0000   1.0000   1.0000   1.0000   1.0000
     1.0139   1.0239   1.0655   1.0695   1.0194   1.0002   0.6516   0.1372
     0.0116   0.0000   0.0000   0.0000   0.0000   0.0000   0.0000   0.0000
     0.0000   0.0000   0.0000   0.0000   0.0000   0.0000   0.0000   0.0000

          k = 0.0000 0.3849 0.3032 (  6304 PWs)   bands (ev):

   -88.7785 -88.7763 -88.7315 -52.1039 -52.0943 -52.0737 -52.0697 -52.0442
   -52.0385 -51.9083 -51.9045 -51.8672 -43.6056 -15.5932 -15.5214 -15.5203
   -12.4782 -11.6686 -11.3145 -11.2353 -11.0690 -11.0000   0.2131   0.9841
     1.0503   1.1102   1.4206   1.5593   1.6443   2.0714   2.3242   2.7477
     2.7874   2.8475   3.2001   3.2828   3.7563   4.1037   4.4447   4.9625
     5.7393   5.7861   5.9262   5.9399   6.1062   6.1348   6.2865   6.4874
     6.8167   8.1270   8.1811   8.2456   8.3100   8.5866   8.6406  13.6527
    15.5580  16.2141  16.8678  17.3656  18.5822  18.6871  19.0637  19.9697

     occupation numbers 
     1.0000   1.0000   1.0000   1.0000   1.0000   1.0000   1.0000   1.0000
     1.0000   1.0000   1.0000   1.0000   1.0000   1.0000   1.0000   1.0000
     1.0000   1.0000   1.0000   1.0000   1.0000   1.0000   1.0000   1.0000
     1.0000   1.0000   1.0000   1.0000   1.0000   1.0000   1.0000   1.0000
     1.0000   1.0000   1.0000   1.0000   1.0000   1.0000   1.0000   1.0000
     1.0140   1.0232   1.0668   1.0711   1.0435   1.0124   0.6936   0.2024
     0.0031   0.0000   0.0000   0.0000   0.0000   0.0000   0.0000   0.0000
     0.0000   0.0000   0.0000   0.0000   0.0000   0.0000   0.0000   0.0000

          k = 0.0000-0.5774 0.0000 (  6336 PWs)   bands (ev):

   -88.7780 -88.7767 -88.7315 -52.1059 -52.0889 -52.0786 -52.0671 -52.0448
   -52.0395 -51.9075 -51.9053 -51.8673 -43.6057 -15.5857 -15.5230 -15.5208
   -12.1194 -12.0785 -11.3240 -11.2678 -11.0164 -10.9928   0.0680   1.0316
     1.1203   1.4903   1.5183   1.7272   1.8659   1.9114   2.0357   2.4149
     2.6483   2.8907   3.1585   3.1730   3.4792   4.0866   4.9329   5.0254
     5.6835   5.8277   5.8389   5.8515   6.2139   6.4066   6.4225   6.4840
     6.5515   8.0880   8.1547   8.2761   8.3243   8.3782   8.7775  14.2111
    14.2535  16.7469  17.4600  18.1223  18.5054  18.6666  18.9455  18.9540

     occupation numbers 
     1.0000   1.0000   1.0000   1.0000   1.0000   1.0000   1.0000   1.0000
     1.0000   1.0000   1.0000   1.0000   1.0000   1.0000   1.0000   1.0000
     1.0000   1.0000   1.0000   1.0000   1.0000   1.0000   1.0000   1.0000
     1.0000   1.0000   1.0000   1.0000   1.0000   1.0000   1.0000   1.0000
     1.0000   1.0000   1.0000   1.0000   1.0000   1.0000   1.0000   1.0000
     1.0070   1.0342   1.0375   1.0415   0.8743   0.3713   0.3337   0.2083
     0.1117   0.0000   0.0000   0.0000   0.0000   0.0000   0.0000   0.0000
     0.0000   0.0000   0.0000   0.0000   0.0000   0.0000   0.0000   0.0000

          k = 0.0000-0.5774 0.3032 (  6310 PWs)   bands (ev):

   -88.7780 -88.7767 -88.7315 -52.1058 -52.0888 -52.0787 -52.0670 -52.0449
   -52.0394 -51.9074 -51.9054 -51.8673 -43.6056 -15.5920 -15.5219 -15.5205
   -12.0813 -12.0796 -11.3310 -11.2596 -11.0297 -11.0178   0.0639   0.9227
     1.0475   1.4927   1.5115   1.6490   1.9006   1.9849   2.0343   2.5608
     2.7675   2.9271   3.1480   3.1717   3.4844   4.2004   4.8968   4.9590
     5.6790   5.8277   5.8391   5.8551   6.2067   6.3430   6.3743   6.5275
     6.5864   7.9695   8.0448   8.2906   8.3793   8.4282   8.7696  14.4689
    14.5437  16.5569  17.1800  17.2911  17.4746  18.7177  19.5586  19.8709

     occupation numbers 
     1.0000   1.0000   1.0000   1.0000   1.0000   1.0000   1.0000   1.0000
     1.0000   1.0000   1.0000   1.0000   1.0000   1.0000   1.0000   1.0000
     1.0000   1.0000   1.0000   1.0000   1.0000   1.0000   1.0000   1.0000
     1.0000   1.0000   1.0000   1.0000   1.0000   1.0000   1.0000   1.0000
     1.0000   1.0000   1.0000   1.0000   1.0000   1.0000   1.0000   1.0000
     1.0066   1.0342   1.0376   1.0427   0.8899   0.5379   0.4533   0.1412
     0.0775   0.0000   0.0000   0.0000   0.0000   0.0000   0.0000   0.0000
     0.0000   0.0000   0.0000   0.0000   0.0000   0.0000   0.0000   0.0000

          k = 0.1667 0.2887 0.0000 (  6317 PWs)   bands (ev):

   -88.7787 -88.7761 -88.7315 -52.1009 -52.0978 -52.0735 -52.0709 -52.0434
   -52.0381 -51.9087 -51.9041 -51.8671 -43.6057 -15.5860 -15.5218 -15.5206
   -12.6031 -11.4736 -11.4674 -11.1220 -11.1219 -10.9588   0.5577   0.5628
     1.1577   1.2625   1.3009   1.3281   1.6090   2.1796   2.2495   2.7223
     2.7787   2.9146   3.0238   3.3958   4.0646   4.1194   4.1610   5.0854
     5.7740   5.8679   5.9276   5.9699   5.9726   6.0060   6.4395   6.4466
     6.7600   8.1626   8.2227   8.2719   8.3725   8.4121   8.7611  12.7735
    16.3008  16.4331  17.0012  17.9151  18.7119  19.0967  19.3314  19.4700

     occupation numbers 
     1.0000   1.0000   1.0000   1.0000   1.0000   1.0000   1.0000   1.0000
     1.0000   1.0000   1.0000   1.0000   1.0000   1.0000   1.0000   1.0000
     1.0000   1.0000   1.0000   1.0000   1.0000   1.0000   1.0000   1.0000
     1.0000   1.0000   1.0000   1.0000   1.0000   1.0000   1.0000   1.0000
     1.0000   1.0000   1.0000   1.0000   1.0000   1.0000   1.0000   1.0000
     1.0205   1.0470   1.0673   1.0788   1.0793   1.0833   0.2955   0.2805
     0.0079   0.0000   0.0000   0.0000   0.0000   0.0000   0.0000   0.0000
     0.0000   0.0000   0.0000   0.0000   0.0000   0.0000   0.0000   0.0000

          k = 0.1667 0.2887 0.3032 (  6308 PWs)   bands (ev):

   -88.7787 -88.7761 -88.7314 -52.1008 -52.0978 -52.0735 -52.0709 -52.0433
   -52.0380 -51.9087 -51.9043 -51.8672 -43.6056 -15.5938 -15.5210 -15.5204
   -12.5680 -11.4712 -11.4598 -11.1300 -11.1226 -10.9975   0.5531   0.5611
     1.0752   1.2209   1.2865   1.4926   1.6102   2.1615   2.2358   2.7578
     2.8042   2.9386   3.0666   3.4255   4.0708   4.1760   4.1933   4.8365
     5.7345   5.8646   5.9227   5.9719   5.9763   6.0078   6.4201   6.4306
     6.8598   8.1462   8.1971   8.2035   8.3981   8.4378   8.7597  13.5127
    15.8870  16.3129  16.4598  18.1481  18.3026  18.6575  19.3241  19.3529

     occupation numbers 
     1.0000   1.0000   1.0000   1.0000   1.0000   1.0000   1.0000   1.0000
     1.0000   1.0000   1.0000   1.0000   1.0000   1.0000   1.0000   1.0000
     1.0000   1.0000   1.0000   1.0000   1.0000   1.0000   1.0000   1.0000
     1.0000   1.0000   1.0000   1.0000   1.0000   1.0000   1.0000   1.0000
     1.0000   1.0000   1.0000   1.0000   1.0000   1.0000   1.0000   1.0000
     1.0132   1.0459   1.0657   1.0792   1.0800   1.0833   0.3392   0.3151
     0.0015   0.0000   0.0000   0.0000   0.0000   0.0000   0.0000   0.0000
     0.0000   0.0000   0.0000   0.0000   0.0000   0.0000   0.0000   0.0000

          k = 0.1667 0.4811 0.0000 (  6294 PWs)   bands (ev):

   -88.7780 -88.7767 -88.7315 -52.1023 -52.0927 -52.0791 -52.0671 -52.0438
   -52.0393 -51.9074 -51.9052 -51.8672 -43.6056 -15.5856 -15.5225 -15.5209
   -12.2531 -11.8366 -11.5443 -11.1316 -11.0461 -10.9883   0.3012   0.8323
     1.0338   1.3908   1.5588   1.5996   1.7865   2.0353   2.0952   2.4214
     2.6367   2.8252   3.1595   3.3602   3.6218   4.2188   4.6310   5.0490
     5.7809   5.8522   5.8757   5.9234   6.1855   6.2132   6.2979   6.4553
     6.6432   7.9993   8.0861   8.2182   8.4927   8.6243   8.6959  13.7674
    14.9780  15.9125  17.8353  18.3897  18.5514  18.6666  18.9758  19.1471

     occupation numbers 
     1.0000   1.0000   1.0000   1.0000   1.0000   1.0000   1.0000   1.0000
     1.0000   1.0000   1.0000   1.0000   1.0000   1.0000   1.0000   1.0000
     1.0000   1.0000   1.0000   1.0000   1.0000   1.0000   1.0000   1.0000
     1.0000   1.0000   1.0000   1.0000   1.0000   1.0000   1.0000   1.0000
     1.0000   1.0000   1.0000   1.0000   1.0000   1.0000   1.0000   1.0000
     1.0220   1.0418   1.0496   1.0659   0.9324   0.8758   0.6623   0.2626
     0.0399   0.0000   0.0000   0.0000   0.0000   0.0000   0.0000   0.0000
     0.0000   0.0000   0.0000   0.0000   0.0000   0.0000   0.0000   0.0000

          k = 0.1667 0.4811 0.3032 (  6307 PWs)   bands (ev):

   -88.7780 -88.7767 -88.7315 -52.1025 -52.0927 -52.0791 -52.0671 -52.0438
   -52.0393 -51.9075 -51.9053 -51.8673 -43.6056 -15.5921 -15.5218 -15.5208
   -12.2280 -11.8239 -11.5365 -11.1387 -11.0580 -11.0153   0.2934   0.7826
     0.9438   1.3445   1.4944   1.6582   1.8167   2.0340   2.0824   2.5506
     2.7401   2.8938   3.1648   3.3671   3.6228   4.3174   4.6620   4.9794
     5.7696   5.8317   5.8693   5.9225   6.1703   6.1988   6.2990   6.4653
     6.7111   7.8542   7.9804   8.1602   8.5098   8.6295   8.6924  14.2857
    15.2162  16.1085  16.8051  17.6156  17.8662  18.8919  19.2240  19.7037

     occupation numbers 
     1.0000   1.0000   1.0000   1.0000   1.0000   1.0000   1.0000   1.0000
     1.0000   1.0000   1.0000   1.0000   1.0000   1.0000   1.0000   1.0000
     1.0000   1.0000   1.0000   1.0000   1.0000   1.0000   1.0000   1.0000
     1.0000   1.0000   1.0000   1.0000   1.0000   1.0000   1.0000   1.0000
     1.0000   1.0000   1.0000   1.0000   1.0000   1.0000   1.0000   1.0000
     1.0195   1.0354   1.0475   1.0656   0.9596   0.9063   0.6594   0.2427
     0.0162   0.0000   0.0000   0.0000   0.0000   0.0000   0.0000   0.0000
     0.0000   0.0000   0.0000   0.0000   0.0000   0.0000   0.0000   0.0000

          k = 0.3333 0.5774 0.0000 (  6294 PWs)   bands (ev):

   -88.7773 -88.7773 -88.7315 -52.0986 -52.0888 -52.0888 -52.0661 -52.0410
   -52.0410 -51.9063 -51.9063 -51.8673 -43.6056 -15.5855 -15.5219 -15.5219
   -11.9275 -11.8835 -11.8835 -11.0493 -11.0493 -11.0263   0.7099   0.7337
     0.7337   1.5061   1.5778   1.5778   1.9255   1.9255   1.9721   2.3118
     2.5670   2.5670   3.5066   3.5066   3.5543   4.6125   4.6125   4.7271
     5.8068   5.8715   5.8715   6.0661   6.0661   6.0681   6.4178   6.4822
     6.4822   8.0031   8.0584   8.0584   8.6982   8.6982   8.7006  14.7002
    14.7002  14.8123  18.1246  18.5398  18.5398  18.7835  19.0047  19.0048

     occupation numbers 
     1.0000   1.0000   1.0000   1.0000   1.0000   1.0000   1.0000   1.0000
     1.0000   1.0000   1.0000   1.0000   1.0000   1.0000   1.0000   1.0000
     1.0000   1.0000   1.0000   1.0000   1.0000   1.0000   1.0000   1.0000
     1.0000   1.0000   1.0000   1.0000   1.0000   1.0000   1.0000   1.0000
     1.0000   1.0000   1.0000   1.0000   1.0000   1.0000   1.0000   1.0000
     1.0283   1.0482   1.0482   1.0710   1.0710   1.0701   0.3447   0.2115
     0.2115   0.0000   0.0000   0.0000   0.0000   0.0000   0.0000   0.0000
     0.0000   0.0000   0.0000   0.0000   0.0000   0.0000   0.0000   0.0000

          k = 0.3333 0.5774 0.3032 (  6312 PWs)   bands (ev):

   -88.7774 -88.7774 -88.7315 -52.0987 -52.0889 -52.0889 -52.0661 -52.0410
   -52.0410 -51.9064 -51.9064 -51.8674 -43.6056 -15.5916 -15.5216 -15.5216
   -11.8876 -11.8799 -11.8799 -11.0625 -11.0544 -11.0544   0.6543   0.6917
     0.6917   1.4365   1.5355   1.5355   1.9256   1.9256   1.9677   2.4914
     2.6931   2.6931   3.5069   3.5069   3.5623   4.6511   4.6511   4.7721
     5.7875   5.8513   5.8513   6.0669   6.0669   6.0704   6.4507   6.5109
     6.5109   7.8559   7.9288   7.9288   8.6892   8.6910   8.6910  15.0421
    15.0421  15.2214  17.2735  17.5891  17.5891  19.3700  19.3922  19.3923

     occupation numbers 
     1.0000   1.0000   1.0000   1.0000   1.0000   1.0000   1.0000   1.0000
     1.0000   1.0000   1.0000   1.0000   1.0000   1.0000   1.0000   1.0000
     1.0000   1.0000   1.0000   1.0000   1.0000   1.0000   1.0000   1.0000
     1.0000   1.0000   1.0000   1.0000   1.0000   1.0000   1.0000   1.0000
     1.0000   1.0000   1.0000   1.0000   1.0000   1.0000   1.0000   1.0000
     1.0235   1.0415   1.0415   1.0707   1.0707   1.0689   0.2719   0.1647
     0.1647   0.0000   0.0000   0.0000   0.0000   0.0000   0.0000   0.0000
     0.0000   0.0000   0.0000   0.0000   0.0000   0.0000   0.0000   0.0000

          k =-0.1667-0.2887 0.3032 (  6308 PWs)   bands (ev):

   -88.7787 -88.7761 -88.7315 -52.1008 -52.0978 -52.0735 -52.0709 -52.0433
   -52.0380 -51.9087 -51.9043 -51.8672 -43.6056 -15.5937 -15.5210 -15.5202
   -12.5689 -11.4711 -11.4690 -11.1227 -11.1204 -10.9969   0.5442   0.5471
     1.1039   1.2291   1.2918   1.4759   1.6116   2.1854   2.2514   2.7169
     2.7751   2.9754   3.0964   3.4160   4.0616   4.1379   4.1651   4.8494
     5.7242   5.8723   5.9267   5.9710   5.9792   6.0099   6.4051   6.4116
     6.8376   8.2132   8.2594   8.2671   8.3886   8.4042   8.7674  13.3810
    15.9743  16.0631  16.1679  18.2916  18.7250  18.9365  19.1463  19.2069

     occupation numbers 
     1.0000   1.0000   1.0000   1.0000   1.0000   1.0000   1.0000   1.0000
     1.0000   1.0000   1.0000   1.0000   1.0000   1.0000   1.0000   1.0000
     1.0000   1.0000   1.0000   1.0000   1.0000   1.0000   1.0000   1.0000
     1.0000   1.0000   1.0000   1.0000   1.0000   1.0000   1.0000   1.0000
     1.0000   1.0000   1.0000   1.0000   1.0000   1.0000   1.0000   1.0000
     1.0117   1.0485   1.0670   1.0790   1.0805   1.0833   0.3750   0.3593
     0.0022   0.0000   0.0000   0.0000   0.0000   0.0000   0.0000   0.0000
     0.0000   0.0000   0.0000   0.0000   0.0000   0.0000   0.0000   0.0000

          k =-0.1667-0.4811 0.3032 (  6307 PWs)   bands (ev):

   -88.7780 -88.7767 -88.7315 -52.1025 -52.0927 -52.0791 -52.0671 -52.0438
   -52.0393 -51.9075 -51.9054 -51.8673 -43.6056 -15.5920 -15.5215 -15.5206
   -12.2302 -11.8276 -11.5440 -11.1310 -11.0541 -11.0131   0.2835   0.7720
     0.9646   1.3552   1.5030   1.6406   1.8086   2.0320   2.0875   2.5793
     2.7680   2.9206   3.1535   3.3640   3.6184   4.2497   4.6069   4.9430
     5.7811   5.8294   5.8761   5.9213   6.1729   6.2063   6.2796   6.4200
     6.6646   7.9851   8.1017   8.2463   8.4940   8.6312   8.6921  14.0441
    14.9339  15.6092  16.9739  18.0717  18.2623  18.8224  19.2928  19.8795

     occupation numbers 
     1.0000   1.0000   1.0000   1.0000   1.0000   1.0000   1.0000   1.0000
     1.0000   1.0000   1.0000   1.0000   1.0000   1.0000   1.0000   1.0000
     1.0000   1.0000   1.0000   1.0000   1.0000   1.0000   1.0000   1.0000
     1.0000   1.0000   1.0000   1.0000   1.0000   1.0000   1.0000   1.0000
     1.0000   1.0000   1.0000   1.0000   1.0000   1.0000   1.0000   1.0000
     1.0220   1.0347   1.0498   1.0652   0.9552   0.8906   0.7122   0.3395
     0.0304   0.0000   0.0000   0.0000   0.0000   0.0000   0.0000   0.0000
     0.0000   0.0000   0.0000   0.0000   0.0000   0.0000   0.0000   0.0000

          k =-0.3333-0.5774 0.3032 (  6312 PWs)   bands (ev):

   -88.7774 -88.7774 -88.7315 -52.0987 -52.0889 -52.0889 -52.0661 -52.0410
   -52.0410 -51.9064 -51.9064 -51.8674 -43.6056 -15.5914 -15.5212 -15.5212
   -11.8910 -11.8858 -11.8858 -11.0590 -11.0483 -11.0483   0.6314   0.6970
     0.6970   1.4604   1.5246   1.5246   1.9275   1.9275   1.9723   2.5316
     2.7221   2.7221   3.5057   3.5057   3.5539   4.5838   4.5838   4.6776
     5.7945   5.8494   5.8494   6.0663   6.0663   6.0698   6.4017   6.4707
     6.4707   8.0195   8.0786   8.0786   8.6966   8.6970   8.6970  14.6406
    14.6406  14.7543  17.6906  17.8744  17.8744  19.3946  19.7259  19.7260

     occupation numbers 
     1.0000   1.0000   1.0000   1.0000   1.0000   1.0000   1.0000   1.0000
     1.0000   1.0000   1.0000   1.0000   1.0000   1.0000   1.0000   1.0000
     1.0000   1.0000   1.0000   1.0000   1.0000   1.0000   1.0000   1.0000
     1.0000   1.0000   1.0000   1.0000   1.0000   1.0000   1.0000   1.0000
     1.0000   1.0000   1.0000   1.0000   1.0000   1.0000   1.0000   1.0000
     1.0252   1.0409   1.0409   1.0709   1.0709   1.0693   0.3834   0.2325
     0.2325   0.0000   0.0000   0.0000   0.0000   0.0000   0.0000   0.0000
     0.0000   0.0000   0.0000   0.0000   0.0000   0.0000   0.0000   0.0000

     the Fermi energy is     6.3948 ev

!    total energy              =   -1489.35613324 Ry
     total all-electron energy =     -9588.590941 Ry
     estimated scf accuracy    <       0.00000006 Ry
     smearing contrib. (-TS)   =       0.00958675 Ry
     internal energy E=F+TS    =   -1489.36571999 Ry

     The total energy is F=E-TS. E is the sum of the following terms:
     one-electron contribution =   -1063.18440880 Ry
     hartree contribution      =     573.63269719 Ry
     xc contribution           =    -150.70161230 Ry
     ewald contribution        =    -513.59771360 Ry
     one-center paw contrib.   =    -335.51468248 Ry
      -> PAW hartree energy AE =     885.46474329 Ry
      -> PAW hartree energy PS =    -883.18524915 Ry
      -> PAW xc energy AE      =    -480.44040164 Ry
      -> PAW xc energy PS      =     142.64622502 Ry
      -> total E_H with PAW    =     575.91219133 Ry
      -> total E_XC with PAW   =    -488.49578892 Ry

     total magnetization       =     2.30 Bohr mag/cell
     absolute magnetization    =     2.34 Bohr mag/cell

     convergence has been achieved in  20 iterations

     Forces acting on atoms (cartesian axes, Ry/au):

     atom    1 type  1   force =     0.00000000    0.00000000    0.00000000
     atom    2 type  1   force =     0.00000000    0.00000000    0.00000000
     atom    3 type  1   force =     0.00000000    0.00000000    0.00000000
     atom    4 type  2   force =    -0.00078190   -0.00135429   -0.02326172
     atom    5 type  2   force =     0.00156380    0.00000000   -0.02326172
     atom    6 type  2   force =    -0.00078190    0.00135429   -0.02326172
     atom    7 type  2   force =    -0.00156380   -0.00000000    0.02326172
     atom    8 type  2   force =     0.00078190    0.00135429    0.02326172
     atom    9 type  2   force =     0.00078190   -0.00135429    0.02326172
     atom   10 type  3   force =     0.00000000    0.00000000    0.00000000
     The non-local contrib.  to forces
     atom    1 type  1   force =     0.00000000    0.00000000    0.00000000
     atom    2 type  1   force =     0.00000000    0.00000000    0.00000000
     atom    3 type  1   force =     0.00000000    0.00000000    0.00000000
     atom    4 type  2   force =    -0.04509723   -0.07811069   -1.11568802
     atom    5 type  2   force =     0.09019445    0.00000000   -1.11568802
     atom    6 type  2   force =    -0.04509723    0.07811069   -1.11568802
     atom    7 type  2   force =    -0.09019445   -0.00000000    1.11568802
     atom    8 type  2   force =     0.04509723    0.07811069    1.11568802
     atom    9 type  2   force =     0.04509723   -0.07811069    1.11568802
     atom   10 type  3   force =     0.00000000    0.00000000    0.00000000
     The ionic contribution  to forces
     atom    1 type  1   force =    -0.00000000   -0.00000000    0.00000000
     atom    2 type  1   force =     0.00000002   -0.00000001   -0.00000000
     atom    3 type  1   force =    -0.00000002    0.00000001   -0.00000000
     atom    4 type  2   force =     0.96469751    1.67090511   24.18609038
     atom    5 type  2   force =    -1.92939502   -0.00000000   24.18609038
     atom    6 type  2   force =     0.96469751   -1.67090511   24.18609038
     atom    7 type  2   force =     1.92939502    0.00000000  -24.18609038
     atom    8 type  2   force =    -0.96469751   -1.67090511  -24.18609038
     atom    9 type  2   force =    -0.96469751    1.67090511  -24.18609038
     atom   10 type  3   force =    -0.00000000   -0.00000000    0.00000000
     The local contribution  to forces
     atom    1 type  1   force =     0.00000000    0.00000000   -0.00000000
     atom    2 type  1   force =     0.00000021   -0.00000012   -0.00000000
     atom    3 type  1   force =    -0.00000021    0.00000012   -0.00000000
     atom    4 type  2   force =    -0.92077211   -1.59482408  -23.10378136
     atom    5 type  2   force =     1.84154422    0.00000000  -23.10378136
     atom    6 type  2   force =    -0.92077211    1.59482408  -23.10378136
     atom    7 type  2   force =    -1.84154422    0.00000000   23.10378136
     atom    8 type  2   force =     0.92077211    1.59482408   23.10378136
     atom    9 type  2   force =     0.92077211   -1.59482408   23.10378136
     atom   10 type  3   force =     0.00000000    0.00000000    0.00000000
     The core correction contribution to forces
     atom    1 type  1   force =     0.00000000    0.00000000    0.00000000
     atom    2 type  1   force =     0.00000000   -0.00000000    0.00000000
     atom    3 type  1   force =    -0.00000000    0.00000000    0.00000000
     atom    4 type  2   force =     0.00036595    0.00063384    0.00992281
     atom    5 type  2   force =    -0.00073189    0.00000000    0.00992281
     atom    6 type  2   force =     0.00036595   -0.00063384    0.00992281
     atom    7 type  2   force =     0.00073189   -0.00000000   -0.00992281
     atom    8 type  2   force =    -0.00036595   -0.00063384   -0.00992281
     atom    9 type  2   force =    -0.00036595    0.00063384   -0.00992281
     atom   10 type  3   force =     0.00000000    0.00000000    0.00000000
     The Hubbard contrib.    to forces
     atom    1 type  1   force =     0.00000000    0.00000000    0.00000000
     atom    2 type  1   force =     0.00000000    0.00000000    0.00000000
     atom    3 type  1   force =     0.00000000    0.00000000    0.00000000
     atom    4 type  2   force =     0.00000000    0.00000000    0.00000000
     atom    5 type  2   force =     0.00000000    0.00000000    0.00000000
     atom    6 type  2   force =     0.00000000    0.00000000    0.00000000
     atom    7 type  2   force =     0.00000000    0.00000000    0.00000000
     atom    8 type  2   force =     0.00000000    0.00000000    0.00000000
     atom    9 type  2   force =     0.00000000    0.00000000    0.00000000
     atom   10 type  3   force =     0.00000000    0.00000000    0.00000000
     The SCF correction term to forces
     atom    1 type  1   force =     0.00000000   -0.00000000    0.00000000
     atom    2 type  1   force =    -0.00000000    0.00000000    0.00000000
     atom    3 type  1   force =     0.00000000   -0.00000000    0.00000000
     atom    4 type  2   force =     0.00002398    0.00004154    0.00019446
     atom    5 type  2   force =    -0.00004797    0.00000000    0.00019446
     atom    6 type  2   force =     0.00002398   -0.00004154    0.00019446
     atom    7 type  2   force =     0.00004797   -0.00000000   -0.00019446
     atom    8 type  2   force =    -0.00002398   -0.00004154   -0.00019446
     atom    9 type  2   force =    -0.00002398    0.00004154   -0.00019446
     atom   10 type  3   force =     0.00000000   -0.00000000    0.00000000

     Total force =     0.057108     Total SCF correction =     0.000491

     Writing all to output data dir ./out/pw.save/ :
     XML data file, charge density, pseudopotentials, collected wavefunctions
 
     init_run     :     21.15s CPU      4.62s WALL (       1 calls)
     electrons    :    250.06s CPU     56.45s WALL (       1 calls)
     forces       :      0.97s CPU      0.91s WALL (       1 calls)

     Called by init_run:
     wfcinit      :      0.51s CPU      0.73s WALL (       1 calls)
     wfcinit:atom :      0.06s CPU      0.06s WALL (      34 calls)
     wfcinit:wfcr :      0.33s CPU      0.47s WALL (      34 calls)
     potinit      :     19.98s CPU      3.18s WALL (       1 calls)
     hinit0       :      0.54s CPU      0.53s WALL (       1 calls)

     Called by electrons:
     c_bands      :     22.24s CPU     22.63s WALL (      20 calls)
     sum_band     :      3.31s CPU      3.34s WALL (      20 calls)
     v_of_rho     :      0.43s CPU      0.26s WALL (      21 calls)
     v_h          :      0.27s CPU      0.06s WALL (      21 calls)
     v_xc         :      0.16s CPU      0.21s WALL (      22 calls)
     newd         :      0.51s CPU      0.44s WALL (      21 calls)
                                        0.44s GPU  (      21 calls)
     PAW_pot      :    233.13s CPU     30.25s WALL (      21 calls)
     mix_rho      :      0.79s CPU      0.82s WALL (      20 calls)

     Called by c_bands:
     init_us_2    :      0.82s CPU      0.81s WALL (    1428 calls)
     cegterg      :     18.73s CPU     19.12s WALL (     680 calls)

     Called by sum_band:
     sum_band:wei :      0.04s CPU      0.04s WALL (      20 calls)
                                        0.04s GPU  (      20 calls)
     sum_band:loo :      2.27s CPU      2.29s WALL (      20 calls)
                                        2.29s GPU  (      20 calls)
     sum_band:buf :      0.53s CPU      0.55s WALL (     680 calls)
                                        0.54s GPU  (     680 calls)
     sum_band:ini :      0.38s CPU      0.39s WALL (     680 calls)
                                        0.38s GPU  (     680 calls)
     sum_band:cal :      0.05s CPU      0.08s WALL (     680 calls)
                                        0.06s GPU  (     680 calls)
     sum_band:bec :      0.33s CPU      0.34s WALL (     680 calls)
                                        0.33s GPU  (     680 calls)
     addusdens    :      0.75s CPU      0.76s WALL (      20 calls)
                                        0.76s GPU  (      20 calls)
     addusd:skk   :      0.01s CPU      0.01s WALL (      60 calls)
                                        0.01s GPU  (      60 calls)

     Called by *egterg:
     cdiaghg      :      8.33s CPU      8.52s WALL (    3618 calls)
                                        8.47s GPU  (    3618 calls)
     cegterg:over :      0.87s CPU      0.89s WALL (    2938 calls)
     cegterg:upda :      1.07s CPU      1.08s WALL (    2938 calls)
     cegterg:last :      0.15s CPU      0.15s WALL (    1344 calls)
     h_psi        :      6.50s CPU      6.79s WALL (    3652 calls)
                                        6.75s GPU  (    3652 calls)
     s_psi        :      1.14s CPU      1.18s WALL (    3652 calls)
     g_psi        :      0.02s CPU      0.10s WALL (    2938 calls)
                                        0.06s GPU  (    2938 calls)

     Called by h_psi:
     h_psi:calbec :      0.16s CPU      0.34s WALL (    3652 calls)
                                        0.30s GPU  (    3652 calls)
     vloc_psi     :      4.71s CPU      4.91s WALL (    3652 calls)
                                        4.86s GPU  (    3652 calls)
     add_vuspsi   :      1.10s CPU      1.27s WALL (    3652 calls)
                                        1.22s GPU  (    3652 calls)

     General routines
     calbec       :      0.18s CPU      0.21s WALL (    4468 calls)
     fft          :      6.34s CPU      1.11s WALL (     538 calls)
                                        0.07s GPU  (     496 calls)
     ffts         :      2.90s CPU      0.65s WALL (     839 calls)
                                        0.02s GPU  (     797 calls)
     fftw         :      0.36s CPU      2.64s WALL (   19440 calls)
                                        2.42s GPU  (   19440 calls)
     interpolate  :      9.40s CPU      1.70s WALL (      42 calls)
 
     Parallel routines

     PAW routines
     PAW_pot      :    233.13s CPU     30.25s WALL (      21 calls)
     PAW_symme    :      0.04s CPU      0.02s WALL (      41 calls)
 
     PWSCF        :   4m32.98s CPU   1m 2.58s WALL

 
   This run was terminated on:   3:56:50  12Jul2026            

=------------------------------------------------------------------------------=
   JOB DONE.
=------------------------------------------------------------------------------=
Warning: ieee_divide_by_zero is signaling
Warning: ieee_inexact is signaling
FORTRAN STOP
