
     Program PWSCF v.7.3.1 starts on 12Jul2026 at  3:31:41 

     This program is part of the open-source Quantum ESPRESSO suite
     for quantum simulation of materials; please cite
         "P. Giannozzi et al., J. Phys.:Condens. Matter 21 395502 (2009);
         "P. Giannozzi et al., J. Phys.:Condens. Matter 29 465901 (2017);
         "P. Giannozzi et al., J. Chem. Phys. 152 154105 (2020);
          URL http://www.quantum-espresso.org", 
     in publications or presentations arising from this work. More details at
     http://www.quantum-espresso.org/quote

     Parallel version (MPI & OpenMP), running on      14 processor cores
     Number of MPI processes:                 1
     Threads/MPI process:                    14

     MPI processes distributed on     1 nodes
     832211 MiB available memory on the printing compute node when the environment starts
 
     Reading input from pw.in

     Current dimensions of program PWSCF are:
     Max number of different atomic species (ntypx) = 10
     Max number of k-points (npk) =  40000
     Max angular momentum in pseudopotentials (lmaxx) =  4
     file Co.pbe-spn-kjpaw_psl.0.3.1.UPF: wavefunction(s)  3P 3D renormalized
     file O.pbe-n-kjpaw_psl.1.0.0.UPF: wavefunction(s)  2S 2P renormalized
     file Na.pbe-spn-kjpaw_psl.1.0.0.UPF: wavefunction(s)  2P renormalized

     Atomic positions and unit cell read from directory:
     ../Na_1x1_c9.9_d1.00/out/pw.save/
 
 
     Subspace diagonalization in iterative solution of the eigenvalue problem:
     a serial algorithm will be used

 
     G-vector sticks info
     --------------------
     sticks:   dense  smooth     PW     G-vecs:    dense   smooth      PW
     Sum         979     499    151                85601    30351    5109
 
     Using Slab Decomposition
 


     bravais-lattice index     =            4
     lattice parameter (alat)  =       5.4575  a.u.
     unit-cell volume          =     482.5661 (a.u.)^3
     number of atoms/cell      =            4
     number of atomic types    =            3
     number of electrons       =        38.00
     number of Kohn-Sham states=           27
     kinetic-energy cutoff     =      60.0000  Ry
     charge density cutoff     =     480.0000  Ry
     Exchange-correlation= SLA  PW   PBX  PBC
                           (   1   4   3   4   0   0   0)

     GPU acceleration is ACTIVE.  1 visible GPUs per MPI rank
     GPU-aware MPI enabled


     GPU used by master process:

        Device Number: 0
        Device name: NVIDIA A100-SXM4-80GB
        Compute capability : 80
        Ratio of single to double precision performance  : 2
        Memory Clock Rate (KHz): 1593000
        Memory Bus Width (bits): 5120
        Peak Memory Bandwidth (GB/s): ******

     celldm(1)=   5.457529  celldm(2)=   0.000000  celldm(3)=   3.427978
     celldm(4)=   0.000000  celldm(5)=   0.000000  celldm(6)=   0.000000

     crystal axes: (cart. coord. in units of alat)
               a(1) = (   1.000000   0.000000   0.000000 )  
               a(2) = (  -0.500000   0.866025   0.000000 )  
               a(3) = (   0.000000   0.000000   3.427978 )  

     reciprocal axes: (cart. coord. in units 2 pi/alat)
               b(1) = (  1.000000  0.577350 -0.000000 )  
               b(2) = (  0.000000  1.154701  0.000000 )  
               b(3) = (  0.000000 -0.000000  0.291717 )  


     PseudoPot. # 1 for Co read from file:
     ../../pseudo/Co.pbe-spn-kjpaw_psl.0.3.1.UPF
     MD5 check sum: 3c0a43779828c046024e4f3be63f8e67
     Pseudo is Projector augmented-wave + core cor, Zval = 17.0
     Generated using &quot;atomic&quot; code by A. Dal Corso  v.6.2.2
     Shape of augmentation charge: PSQ
     Using radial grid of 1193 points,  6 beta functions with: 
                l(1) =   0
                l(2) =   0
                l(3) =   1
                l(4) =   1
                l(5) =   2
                l(6) =   2
     Q(r) pseudized with 0 coefficients 


     PseudoPot. # 2 for O  read from file:
     ../../pseudo/O.pbe-n-kjpaw_psl.1.0.0.UPF
     MD5 check sum: e99d9cef9b487d1ca56f5b95ecd0fd7a
     Pseudo is Projector augmented-wave + core cor, Zval =  6.0
     Generated using &quot;atomic&quot; code by A. Dal Corso  v.6.3
     Shape of augmentation charge: PSQ
     Using radial grid of 1095 points,  4 beta functions with: 
                l(1) =   0
                l(2) =   0
                l(3) =   1
                l(4) =   1
     Q(r) pseudized with 0 coefficients 


     PseudoPot. # 3 for Na read from file:
     ../../pseudo/Na.pbe-spn-kjpaw_psl.1.0.0.UPF
     MD5 check sum: 05b4deb74e3932c23ab016979dc8b5d4
     Pseudo is Projector augmented-wave + core cor, Zval =  9.0
     Generated using &quot;atomic&quot; code by A. Dal Corso  v.6.3
     Shape of augmentation charge: PSQ
     Using radial grid of 1121 points,  4 beta functions with: 
                l(1) =   0
                l(2) =   0
                l(3) =   1
                l(4) =   1
     Q(r) pseudized with 0 coefficients 


     atomic species   valence    mass     pseudopotential
     Co               17.00    58.93300     Co( 1.00)
     O                 6.00    15.99900     O ( 1.00)
     Na                9.00    22.98977     Na( 1.00)

     Starting magnetic structure 
     atomic species   magnetization
     Co              0.300
     O               0.000
     Na              0.000

      6 Sym. Ops. (no inversion) found


                                    s                        frac. trans.

      isym =  1     identity                                     

 cryst.   s( 1) = (     1          0          0      )
                  (     0          1          0      )
                  (     0          0          1      )

 cart.    s( 1) = (  1.0000000  0.0000000  0.0000000 )
                  (  0.0000000  1.0000000  0.0000000 )
                  (  0.0000000  0.0000000  1.0000000 )


      isym =  2     120 deg rotation - cryst. axis [0,0,1]       

 cryst.   s( 2) = (     0          1          0      )
                  (    -1         -1          0      )
                  (     0          0          1      )

 cart.    s( 2) = ( -0.5000000 -0.8660254  0.0000000 )
                  (  0.8660254 -0.5000000  0.0000000 )
                  (  0.0000000  0.0000000  1.0000000 )


      isym =  3     120 deg rotation - cryst. axis [0,0,-1]      

 cryst.   s( 3) = (    -1         -1          0      )
                  (     1          0          0      )
                  (     0          0          1      )

 cart.    s( 3) = ( -0.5000000  0.8660254  0.0000000 )
                  ( -0.8660254 -0.5000000  0.0000000 )
                  (  0.0000000  0.0000000  1.0000000 )


      isym =  4     inv. 180 deg rotation - cart. axis [1,0,0]   

 cryst.   s( 4) = (    -1          0          0      )
                  (     1          1          0      )
                  (     0          0          1      )

 cart.    s( 4) = ( -1.0000000  0.0000000  0.0000000 )
                  (  0.0000000  1.0000000  0.0000000 )
                  (  0.0000000  0.0000000  1.0000000 )


      isym =  5     inv. 180 deg rotation - cryst. axis [0,1,0]  

 cryst.   s( 5) = (     1          1          0      )
                  (     0         -1          0      )
                  (     0          0          1      )

 cart.    s( 5) = (  0.5000000  0.8660254  0.0000000 )
                  (  0.8660254 -0.5000000  0.0000000 )
                  (  0.0000000  0.0000000  1.0000000 )


      isym =  6     inv. 180 deg rotation - cryst. axis [1,1,0]  

 cryst.   s( 6) = (     0         -1          0      )
                  (    -1          0          0      )
                  (     0          0          1      )

 cart.    s( 6) = (  0.5000000 -0.8660254  0.0000000 )
                  ( -0.8660254 -0.5000000  0.0000000 )
                  (  0.0000000  0.0000000  1.0000000 )


     point group C_3v (3m)  
     there are  3 classes
     the character table:

       E     2C3   3s_v 
A_1    1.00  1.00  1.00
A_2    1.00  1.00 -1.00
E      2.00 -1.00  0.00

     the symmetry operations in each class and the name of the first element:

     E        1
          identity                                               
     2C3      2    3
          120 deg rotation - cryst. axis [0,0,1]                 
     3s_v     4    5    6
          inv. 180 deg rotation - cart. axis [1,0,0]             

   Cartesian axes

     site n.     atom                  positions (alat units)
         1        Co     tau(   1) = (   0.0000000   0.0000000   0.0000000  )
         2        O      tau(   2) = (  -0.0000000   0.5773503   0.3324100  )
         3        O      tau(   3) = (   0.5000000   0.2886751   3.0955679  )
         4        Na     tau(   4) = (   0.0000000   0.0000000   2.0602493  )

   Crystallographic axes

     site n.     atom                  positions (cryst. coord.)
         1        Co     tau(   1) = (  0.0000000  0.0000000  0.0000000  )
         2        O      tau(   2) = (  0.3333333  0.6666667  0.0969697  )
         3        O      tau(   3) = (  0.6666667  0.3333333  0.9030303  )
         4        Na     tau(   4) = (  0.0000000  0.0000000  0.6010101  )

     number of k points=   449  Marzari-Vanderbilt smearing, width (Ry)=  0.0200
                       cart. coord. in units 2pi/alat
        k(    1) = (   0.0000000   0.0000000   0.0000000), wk =   0.0002170
        k(    2) = (   0.0000000   0.0000000   0.0364646), wk =   0.0004340
        k(    3) = (   0.0000000   0.0000000   0.0729293), wk =   0.0004340
        k(    4) = (   0.0000000   0.0000000   0.1093939), wk =   0.0004340
        k(    5) = (   0.0000000   0.0000000  -0.1458586), wk =   0.0002170
        k(    6) = (   0.0000000   0.0481125   0.0000000), wk =   0.0013021
        k(    7) = (   0.0000000   0.0481125   0.0364646), wk =   0.0013021
        k(    8) = (   0.0000000   0.0481125   0.0729293), wk =   0.0013021
        k(    9) = (   0.0000000   0.0481125   0.1093939), wk =   0.0013021
        k(   10) = (   0.0000000   0.0481125  -0.1458586), wk =   0.0013021
        k(   11) = (   0.0000000   0.0962250   0.0000000), wk =   0.0013021
        k(   12) = (   0.0000000   0.0962250   0.0364646), wk =   0.0013021
        k(   13) = (   0.0000000   0.0962250   0.0729293), wk =   0.0013021
        k(   14) = (   0.0000000   0.0962250   0.1093939), wk =   0.0013021
        k(   15) = (   0.0000000   0.0962250  -0.1458586), wk =   0.0013021
        k(   16) = (   0.0000000   0.1443376   0.0000000), wk =   0.0013021
        k(   17) = (   0.0000000   0.1443376   0.0364646), wk =   0.0013021
        k(   18) = (   0.0000000   0.1443376   0.0729293), wk =   0.0013021
        k(   19) = (   0.0000000   0.1443376   0.1093939), wk =   0.0013021
        k(   20) = (   0.0000000   0.1443376  -0.1458586), wk =   0.0013021
        k(   21) = (   0.0000000   0.1924501   0.0000000), wk =   0.0013021
        k(   22) = (   0.0000000   0.1924501   0.0364646), wk =   0.0013021
        k(   23) = (   0.0000000   0.1924501   0.0729293), wk =   0.0013021
        k(   24) = (   0.0000000   0.1924501   0.1093939), wk =   0.0013021
        k(   25) = (   0.0000000   0.1924501  -0.1458586), wk =   0.0013021
        k(   26) = (   0.0000000   0.2405626   0.0000000), wk =   0.0013021
        k(   27) = (   0.0000000   0.2405626   0.0364646), wk =   0.0013021
        k(   28) = (   0.0000000   0.2405626   0.0729293), wk =   0.0013021
        k(   29) = (   0.0000000   0.2405626   0.1093939), wk =   0.0013021
        k(   30) = (   0.0000000   0.2405626  -0.1458586), wk =   0.0013021
        k(   31) = (   0.0000000   0.2886751   0.0000000), wk =   0.0013021
        k(   32) = (   0.0000000   0.2886751   0.0364646), wk =   0.0013021
        k(   33) = (   0.0000000   0.2886751   0.0729293), wk =   0.0013021
        k(   34) = (   0.0000000   0.2886751   0.1093939), wk =   0.0013021
        k(   35) = (   0.0000000   0.2886751  -0.1458586), wk =   0.0013021
        k(   36) = (   0.0000000   0.3367877   0.0000000), wk =   0.0013021
        k(   37) = (   0.0000000   0.3367877   0.0364646), wk =   0.0013021
        k(   38) = (   0.0000000   0.3367877   0.0729293), wk =   0.0013021
        k(   39) = (   0.0000000   0.3367877   0.1093939), wk =   0.0013021
        k(   40) = (   0.0000000   0.3367877  -0.1458586), wk =   0.0013021
        k(   41) = (   0.0000000   0.3849002   0.0000000), wk =   0.0013021
        k(   42) = (   0.0000000   0.3849002   0.0364646), wk =   0.0013021
        k(   43) = (   0.0000000   0.3849002   0.0729293), wk =   0.0013021
        k(   44) = (   0.0000000   0.3849002   0.1093939), wk =   0.0013021
        k(   45) = (   0.0000000   0.3849002  -0.1458586), wk =   0.0013021
        k(   46) = (   0.0000000   0.4330127   0.0000000), wk =   0.0013021
        k(   47) = (   0.0000000   0.4330127   0.0364646), wk =   0.0013021
        k(   48) = (   0.0000000   0.4330127   0.0729293), wk =   0.0013021
        k(   49) = (   0.0000000   0.4330127   0.1093939), wk =   0.0013021
        k(   50) = (   0.0000000   0.4330127  -0.1458586), wk =   0.0013021
        k(   51) = (   0.0000000   0.4811252   0.0000000), wk =   0.0013021
        k(   52) = (   0.0000000   0.4811252   0.0364646), wk =   0.0013021
        k(   53) = (   0.0000000   0.4811252   0.0729293), wk =   0.0013021
        k(   54) = (   0.0000000   0.4811252   0.1093939), wk =   0.0013021
        k(   55) = (   0.0000000   0.4811252  -0.1458586), wk =   0.0013021
        k(   56) = (   0.0000000   0.5292377   0.0000000), wk =   0.0013021
        k(   57) = (   0.0000000   0.5292377   0.0364646), wk =   0.0013021
        k(   58) = (   0.0000000   0.5292377   0.0729293), wk =   0.0013021
        k(   59) = (   0.0000000   0.5292377   0.1093939), wk =   0.0013021
        k(   60) = (   0.0000000   0.5292377  -0.1458586), wk =   0.0013021
        k(   61) = (   0.0000000  -0.5773503   0.0000000), wk =   0.0006510
        k(   62) = (   0.0000000  -0.5773503   0.0364646), wk =   0.0013021
        k(   63) = (   0.0000000  -0.5773503   0.0729293), wk =   0.0013021
        k(   64) = (   0.0000000  -0.5773503   0.1093939), wk =   0.0013021
        k(   65) = (   0.0000000  -0.5773503  -0.1458586), wk =   0.0006510
        k(   66) = (   0.0416667   0.0721688   0.0000000), wk =   0.0013021
        k(   67) = (   0.0416667   0.0721688   0.0364646), wk =   0.0026042
        k(   68) = (   0.0416667   0.0721688   0.0729293), wk =   0.0026042
        k(   69) = (   0.0416667   0.0721688   0.1093939), wk =   0.0026042
        k(   70) = (   0.0416667   0.0721688  -0.1458586), wk =   0.0013021
        k(   71) = (   0.0416667   0.1202813   0.0000000), wk =   0.0026042
        k(   72) = (   0.0416667   0.1202813   0.0364646), wk =   0.0026042
        k(   73) = (   0.0416667   0.1202813   0.0729293), wk =   0.0026042
        k(   74) = (   0.0416667   0.1202813   0.1093939), wk =   0.0026042
        k(   75) = (   0.0416667   0.1202813  -0.1458586), wk =   0.0026042
        k(   76) = (   0.0416667   0.1683938   0.0000000), wk =   0.0026042
        k(   77) = (   0.0416667   0.1683938   0.0364646), wk =   0.0026042
        k(   78) = (   0.0416667   0.1683938   0.0729293), wk =   0.0026042
        k(   79) = (   0.0416667   0.1683938   0.1093939), wk =   0.0026042
        k(   80) = (   0.0416667   0.1683938  -0.1458586), wk =   0.0026042
        k(   81) = (   0.0416667   0.2165064   0.0000000), wk =   0.0026042
        k(   82) = (   0.0416667   0.2165064   0.0364646), wk =   0.0026042
        k(   83) = (   0.0416667   0.2165064   0.0729293), wk =   0.0026042
        k(   84) = (   0.0416667   0.2165064   0.1093939), wk =   0.0026042
        k(   85) = (   0.0416667   0.2165064  -0.1458586), wk =   0.0026042
        k(   86) = (   0.0416667   0.2646189   0.0000000), wk =   0.0026042
        k(   87) = (   0.0416667   0.2646189   0.0364646), wk =   0.0026042
        k(   88) = (   0.0416667   0.2646189   0.0729293), wk =   0.0026042
        k(   89) = (   0.0416667   0.2646189   0.1093939), wk =   0.0026042
        k(   90) = (   0.0416667   0.2646189  -0.1458586), wk =   0.0026042
        k(   91) = (   0.0416667   0.3127314   0.0000000), wk =   0.0026042
        k(   92) = (   0.0416667   0.3127314   0.0364646), wk =   0.0026042
        k(   93) = (   0.0416667   0.3127314   0.0729293), wk =   0.0026042
        k(   94) = (   0.0416667   0.3127314   0.1093939), wk =   0.0026042
        k(   95) = (   0.0416667   0.3127314  -0.1458586), wk =   0.0026042
        k(   96) = (   0.0416667   0.3608439   0.0000000), wk =   0.0026042
        k(   97) = (   0.0416667   0.3608439   0.0364646), wk =   0.0026042
        k(   98) = (   0.0416667   0.3608439   0.0729293), wk =   0.0026042
        k(   99) = (   0.0416667   0.3608439   0.1093939), wk =   0.0026042
        k(  100) = (   0.0416667   0.3608439  -0.1458586), wk =   0.0026042
        k(  101) = (   0.0416667   0.4089564   0.0000000), wk =   0.0026042
        k(  102) = (   0.0416667   0.4089564   0.0364646), wk =   0.0026042
        k(  103) = (   0.0416667   0.4089564   0.0729293), wk =   0.0026042
        k(  104) = (   0.0416667   0.4089564   0.1093939), wk =   0.0026042
        k(  105) = (   0.0416667   0.4089564  -0.1458586), wk =   0.0026042
        k(  106) = (   0.0416667   0.4570690   0.0000000), wk =   0.0026042
        k(  107) = (   0.0416667   0.4570690   0.0364646), wk =   0.0026042
        k(  108) = (   0.0416667   0.4570690   0.0729293), wk =   0.0026042
        k(  109) = (   0.0416667   0.4570690   0.1093939), wk =   0.0026042
        k(  110) = (   0.0416667   0.4570690  -0.1458586), wk =   0.0026042
        k(  111) = (   0.0416667   0.5051815   0.0000000), wk =   0.0026042
        k(  112) = (   0.0416667   0.5051815   0.0364646), wk =   0.0026042
        k(  113) = (   0.0416667   0.5051815   0.0729293), wk =   0.0026042
        k(  114) = (   0.0416667   0.5051815   0.1093939), wk =   0.0026042
        k(  115) = (   0.0416667   0.5051815  -0.1458586), wk =   0.0026042
        k(  116) = (   0.0416667   0.5532940   0.0000000), wk =   0.0026042
        k(  117) = (   0.0416667   0.5532940   0.0364646), wk =   0.0026042
        k(  118) = (   0.0416667   0.5532940   0.0729293), wk =   0.0026042
        k(  119) = (   0.0416667   0.5532940   0.1093939), wk =   0.0026042
        k(  120) = (   0.0416667   0.5532940  -0.1458586), wk =   0.0026042
        k(  121) = (   0.0833333   0.1443376   0.0000000), wk =   0.0013021
        k(  122) = (   0.0833333   0.1443376   0.0364646), wk =   0.0026042
        k(  123) = (   0.0833333   0.1443376   0.0729293), wk =   0.0026042
        k(  124) = (   0.0833333   0.1443376   0.1093939), wk =   0.0026042
        k(  125) = (   0.0833333   0.1443376  -0.1458586), wk =   0.0013021
        k(  126) = (   0.0833333   0.1924501   0.0000000), wk =   0.0026042
        k(  127) = (   0.0833333   0.1924501   0.0364646), wk =   0.0026042
        k(  128) = (   0.0833333   0.1924501   0.0729293), wk =   0.0026042
        k(  129) = (   0.0833333   0.1924501   0.1093939), wk =   0.0026042
        k(  130) = (   0.0833333   0.1924501  -0.1458586), wk =   0.0026042
        k(  131) = (   0.0833333   0.2405626   0.0000000), wk =   0.0026042
        k(  132) = (   0.0833333   0.2405626   0.0364646), wk =   0.0026042
        k(  133) = (   0.0833333   0.2405626   0.0729293), wk =   0.0026042
        k(  134) = (   0.0833333   0.2405626   0.1093939), wk =   0.0026042
        k(  135) = (   0.0833333   0.2405626  -0.1458586), wk =   0.0026042
        k(  136) = (   0.0833333   0.2886751   0.0000000), wk =   0.0026042
        k(  137) = (   0.0833333   0.2886751   0.0364646), wk =   0.0026042
        k(  138) = (   0.0833333   0.2886751   0.0729293), wk =   0.0026042
        k(  139) = (   0.0833333   0.2886751   0.1093939), wk =   0.0026042
        k(  140) = (   0.0833333   0.2886751  -0.1458586), wk =   0.0026042
        k(  141) = (   0.0833333   0.3367877   0.0000000), wk =   0.0026042
        k(  142) = (   0.0833333   0.3367877   0.0364646), wk =   0.0026042
        k(  143) = (   0.0833333   0.3367877   0.0729293), wk =   0.0026042
        k(  144) = (   0.0833333   0.3367877   0.1093939), wk =   0.0026042
        k(  145) = (   0.0833333   0.3367877  -0.1458586), wk =   0.0026042
        k(  146) = (   0.0833333   0.3849002   0.0000000), wk =   0.0026042
        k(  147) = (   0.0833333   0.3849002   0.0364646), wk =   0.0026042
        k(  148) = (   0.0833333   0.3849002   0.0729293), wk =   0.0026042
        k(  149) = (   0.0833333   0.3849002   0.1093939), wk =   0.0026042
        k(  150) = (   0.0833333   0.3849002  -0.1458586), wk =   0.0026042
        k(  151) = (   0.0833333   0.4330127   0.0000000), wk =   0.0026042
        k(  152) = (   0.0833333   0.4330127   0.0364646), wk =   0.0026042
        k(  153) = (   0.0833333   0.4330127   0.0729293), wk =   0.0026042
        k(  154) = (   0.0833333   0.4330127   0.1093939), wk =   0.0026042
        k(  155) = (   0.0833333   0.4330127  -0.1458586), wk =   0.0026042
        k(  156) = (   0.0833333   0.4811252   0.0000000), wk =   0.0026042
        k(  157) = (   0.0833333   0.4811252   0.0364646), wk =   0.0026042
        k(  158) = (   0.0833333   0.4811252   0.0729293), wk =   0.0026042
        k(  159) = (   0.0833333   0.4811252   0.1093939), wk =   0.0026042
        k(  160) = (   0.0833333   0.4811252  -0.1458586), wk =   0.0026042
        k(  161) = (   0.0833333   0.5292377   0.0000000), wk =   0.0026042
        k(  162) = (   0.0833333   0.5292377   0.0364646), wk =   0.0026042
        k(  163) = (   0.0833333   0.5292377   0.0729293), wk =   0.0026042
        k(  164) = (   0.0833333   0.5292377   0.1093939), wk =   0.0026042
        k(  165) = (   0.0833333   0.5292377  -0.1458586), wk =   0.0026042
        k(  166) = (   0.0833333   0.5773503   0.0000000), wk =   0.0013021
        k(  167) = (   0.0833333   0.5773503   0.0364646), wk =   0.0026042
        k(  168) = (   0.0833333   0.5773503   0.0729293), wk =   0.0026042
        k(  169) = (   0.0833333   0.5773503   0.1093939), wk =   0.0026042
        k(  170) = (   0.0833333   0.5773503  -0.1458586), wk =   0.0013021
        k(  171) = (   0.1250000   0.2165064   0.0000000), wk =   0.0013021
        k(  172) = (   0.1250000   0.2165064   0.0364646), wk =   0.0026042
        k(  173) = (   0.1250000   0.2165064   0.0729293), wk =   0.0026042
        k(  174) = (   0.1250000   0.2165064   0.1093939), wk =   0.0026042
        k(  175) = (   0.1250000   0.2165064  -0.1458586), wk =   0.0013021
        k(  176) = (   0.1250000   0.2646189   0.0000000), wk =   0.0026042
        k(  177) = (   0.1250000   0.2646189   0.0364646), wk =   0.0026042
        k(  178) = (   0.1250000   0.2646189   0.0729293), wk =   0.0026042
        k(  179) = (   0.1250000   0.2646189   0.1093939), wk =   0.0026042
        k(  180) = (   0.1250000   0.2646189  -0.1458586), wk =   0.0026042
        k(  181) = (   0.1250000   0.3127314   0.0000000), wk =   0.0026042
        k(  182) = (   0.1250000   0.3127314   0.0364646), wk =   0.0026042
        k(  183) = (   0.1250000   0.3127314   0.0729293), wk =   0.0026042
        k(  184) = (   0.1250000   0.3127314   0.1093939), wk =   0.0026042
        k(  185) = (   0.1250000   0.3127314  -0.1458586), wk =   0.0026042
        k(  186) = (   0.1250000   0.3608439   0.0000000), wk =   0.0026042
        k(  187) = (   0.1250000   0.3608439   0.0364646), wk =   0.0026042
        k(  188) = (   0.1250000   0.3608439   0.0729293), wk =   0.0026042
        k(  189) = (   0.1250000   0.3608439   0.1093939), wk =   0.0026042
        k(  190) = (   0.1250000   0.3608439  -0.1458586), wk =   0.0026042
        k(  191) = (   0.1250000   0.4089564   0.0000000), wk =   0.0026042
        k(  192) = (   0.1250000   0.4089564   0.0364646), wk =   0.0026042
        k(  193) = (   0.1250000   0.4089564   0.0729293), wk =   0.0026042
        k(  194) = (   0.1250000   0.4089564   0.1093939), wk =   0.0026042
        k(  195) = (   0.1250000   0.4089564  -0.1458586), wk =   0.0026042
        k(  196) = (   0.1250000   0.4570690   0.0000000), wk =   0.0026042
        k(  197) = (   0.1250000   0.4570690   0.0364646), wk =   0.0026042
        k(  198) = (   0.1250000   0.4570690   0.0729293), wk =   0.0026042
        k(  199) = (   0.1250000   0.4570690   0.1093939), wk =   0.0026042
        k(  200) = (   0.1250000   0.4570690  -0.1458586), wk =   0.0026042
        k(  201) = (   0.1250000   0.5051815   0.0000000), wk =   0.0026042
        k(  202) = (   0.1250000   0.5051815   0.0364646), wk =   0.0026042
        k(  203) = (   0.1250000   0.5051815   0.0729293), wk =   0.0026042
        k(  204) = (   0.1250000   0.5051815   0.1093939), wk =   0.0026042
        k(  205) = (   0.1250000   0.5051815  -0.1458586), wk =   0.0026042
        k(  206) = (   0.1250000   0.5532940   0.0000000), wk =   0.0026042
        k(  207) = (   0.1250000   0.5532940   0.0364646), wk =   0.0026042
        k(  208) = (   0.1250000   0.5532940   0.0729293), wk =   0.0026042
        k(  209) = (   0.1250000   0.5532940   0.1093939), wk =   0.0026042
        k(  210) = (   0.1250000   0.5532940  -0.1458586), wk =   0.0026042
        k(  211) = (   0.1666667   0.2886751   0.0000000), wk =   0.0013021
        k(  212) = (   0.1666667   0.2886751   0.0364646), wk =   0.0026042
        k(  213) = (   0.1666667   0.2886751   0.0729293), wk =   0.0026042
        k(  214) = (   0.1666667   0.2886751   0.1093939), wk =   0.0026042
        k(  215) = (   0.1666667   0.2886751  -0.1458586), wk =   0.0013021
        k(  216) = (   0.1666667   0.3367877   0.0000000), wk =   0.0026042
        k(  217) = (   0.1666667   0.3367877   0.0364646), wk =   0.0026042
        k(  218) = (   0.1666667   0.3367877   0.0729293), wk =   0.0026042
        k(  219) = (   0.1666667   0.3367877   0.1093939), wk =   0.0026042
        k(  220) = (   0.1666667   0.3367877  -0.1458586), wk =   0.0026042
        k(  221) = (   0.1666667   0.3849002   0.0000000), wk =   0.0026042
        k(  222) = (   0.1666667   0.3849002   0.0364646), wk =   0.0026042
        k(  223) = (   0.1666667   0.3849002   0.0729293), wk =   0.0026042
        k(  224) = (   0.1666667   0.3849002   0.1093939), wk =   0.0026042
        k(  225) = (   0.1666667   0.3849002  -0.1458586), wk =   0.0026042
        k(  226) = (   0.1666667   0.4330127   0.0000000), wk =   0.0026042
        k(  227) = (   0.1666667   0.4330127   0.0364646), wk =   0.0026042
        k(  228) = (   0.1666667   0.4330127   0.0729293), wk =   0.0026042
        k(  229) = (   0.1666667   0.4330127   0.1093939), wk =   0.0026042
        k(  230) = (   0.1666667   0.4330127  -0.1458586), wk =   0.0026042
        k(  231) = (   0.1666667   0.4811252   0.0000000), wk =   0.0026042
        k(  232) = (   0.1666667   0.4811252   0.0364646), wk =   0.0026042
        k(  233) = (   0.1666667   0.4811252   0.0729293), wk =   0.0026042
        k(  234) = (   0.1666667   0.4811252   0.1093939), wk =   0.0026042
        k(  235) = (   0.1666667   0.4811252  -0.1458586), wk =   0.0026042
        k(  236) = (   0.1666667   0.5292377   0.0000000), wk =   0.0026042
        k(  237) = (   0.1666667   0.5292377   0.0364646), wk =   0.0026042
        k(  238) = (   0.1666667   0.5292377   0.0729293), wk =   0.0026042
        k(  239) = (   0.1666667   0.5292377   0.1093939), wk =   0.0026042
        k(  240) = (   0.1666667   0.5292377  -0.1458586), wk =   0.0026042
        k(  241) = (   0.1666667   0.5773503   0.0000000), wk =   0.0013021
        k(  242) = (   0.1666667   0.5773503   0.0364646), wk =   0.0026042
        k(  243) = (   0.1666667   0.5773503   0.0729293), wk =   0.0026042
        k(  244) = (   0.1666667   0.5773503   0.1093939), wk =   0.0026042
        k(  245) = (   0.1666667   0.5773503  -0.1458586), wk =   0.0013021
        k(  246) = (   0.2083333   0.3608439   0.0000000), wk =   0.0013021
        k(  247) = (   0.2083333   0.3608439   0.0364646), wk =   0.0026042
        k(  248) = (   0.2083333   0.3608439   0.0729293), wk =   0.0026042
        k(  249) = (   0.2083333   0.3608439   0.1093939), wk =   0.0026042
        k(  250) = (   0.2083333   0.3608439  -0.1458586), wk =   0.0013021
        k(  251) = (   0.2083333   0.4089564   0.0000000), wk =   0.0026042
        k(  252) = (   0.2083333   0.4089564   0.0364646), wk =   0.0026042
        k(  253) = (   0.2083333   0.4089564   0.0729293), wk =   0.0026042
        k(  254) = (   0.2083333   0.4089564   0.1093939), wk =   0.0026042
        k(  255) = (   0.2083333   0.4089564  -0.1458586), wk =   0.0026042
        k(  256) = (   0.2083333   0.4570690   0.0000000), wk =   0.0026042
        k(  257) = (   0.2083333   0.4570690   0.0364646), wk =   0.0026042
        k(  258) = (   0.2083333   0.4570690   0.0729293), wk =   0.0026042
        k(  259) = (   0.2083333   0.4570690   0.1093939), wk =   0.0026042
        k(  260) = (   0.2083333   0.4570690  -0.1458586), wk =   0.0026042
        k(  261) = (   0.2083333   0.5051815   0.0000000), wk =   0.0026042
        k(  262) = (   0.2083333   0.5051815   0.0364646), wk =   0.0026042
        k(  263) = (   0.2083333   0.5051815   0.0729293), wk =   0.0026042
        k(  264) = (   0.2083333   0.5051815   0.1093939), wk =   0.0026042
        k(  265) = (   0.2083333   0.5051815  -0.1458586), wk =   0.0026042
        k(  266) = (   0.2083333   0.5532940   0.0000000), wk =   0.0026042
        k(  267) = (   0.2083333   0.5532940   0.0364646), wk =   0.0026042
        k(  268) = (   0.2083333   0.5532940   0.0729293), wk =   0.0026042
        k(  269) = (   0.2083333   0.5532940   0.1093939), wk =   0.0026042
        k(  270) = (   0.2083333   0.5532940  -0.1458586), wk =   0.0026042
        k(  271) = (   0.2500000   0.4330127   0.0000000), wk =   0.0013021
        k(  272) = (   0.2500000   0.4330127   0.0364646), wk =   0.0026042
        k(  273) = (   0.2500000   0.4330127   0.0729293), wk =   0.0026042
        k(  274) = (   0.2500000   0.4330127   0.1093939), wk =   0.0026042
        k(  275) = (   0.2500000   0.4330127  -0.1458586), wk =   0.0013021
        k(  276) = (   0.2500000   0.4811252   0.0000000), wk =   0.0026042
        k(  277) = (   0.2500000   0.4811252   0.0364646), wk =   0.0026042
        k(  278) = (   0.2500000   0.4811252   0.0729293), wk =   0.0026042
        k(  279) = (   0.2500000   0.4811252   0.1093939), wk =   0.0026042
        k(  280) = (   0.2500000   0.4811252  -0.1458586), wk =   0.0026042
        k(  281) = (   0.2500000   0.5292377   0.0000000), wk =   0.0026042
        k(  282) = (   0.2500000   0.5292377   0.0364646), wk =   0.0026042
        k(  283) = (   0.2500000   0.5292377   0.0729293), wk =   0.0026042
        k(  284) = (   0.2500000   0.5292377   0.1093939), wk =   0.0026042
        k(  285) = (   0.2500000   0.5292377  -0.1458586), wk =   0.0026042
        k(  286) = (   0.2500000   0.5773503   0.0000000), wk =   0.0013021
        k(  287) = (   0.2500000   0.5773503   0.0364646), wk =   0.0026042
        k(  288) = (   0.2500000   0.5773503   0.0729293), wk =   0.0026042
        k(  289) = (   0.2500000   0.5773503   0.1093939), wk =   0.0026042
        k(  290) = (   0.2500000   0.5773503  -0.1458586), wk =   0.0013021
        k(  291) = (   0.2916667   0.5051815   0.0000000), wk =   0.0013021
        k(  292) = (   0.2916667   0.5051815   0.0364646), wk =   0.0026042
        k(  293) = (   0.2916667   0.5051815   0.0729293), wk =   0.0026042
        k(  294) = (   0.2916667   0.5051815   0.1093939), wk =   0.0026042
        k(  295) = (   0.2916667   0.5051815  -0.1458586), wk =   0.0013021
        k(  296) = (   0.2916667   0.5532940   0.0000000), wk =   0.0026042
        k(  297) = (   0.2916667   0.5532940   0.0364646), wk =   0.0026042
        k(  298) = (   0.2916667   0.5532940   0.0729293), wk =   0.0026042
        k(  299) = (   0.2916667   0.5532940   0.1093939), wk =   0.0026042
        k(  300) = (   0.2916667   0.5532940  -0.1458586), wk =   0.0026042
        k(  301) = (   0.3333333   0.5773503   0.0000000), wk =   0.0004340
        k(  302) = (   0.3333333   0.5773503   0.0364646), wk =   0.0008681
        k(  303) = (   0.3333333   0.5773503   0.0729293), wk =   0.0008681
        k(  304) = (   0.3333333   0.5773503   0.1093939), wk =   0.0008681
        k(  305) = (   0.3333333   0.5773503  -0.1458586), wk =   0.0004340
        k(  306) = (   0.0000000  -0.0481125   0.0364646), wk =   0.0013021
        k(  307) = (   0.0000000  -0.0481125   0.0729293), wk =   0.0013021
        k(  308) = (   0.0000000  -0.0481125   0.1093939), wk =   0.0013021
        k(  309) = (   0.0000000  -0.0962250   0.0364646), wk =   0.0013021
        k(  310) = (   0.0000000  -0.0962250   0.0729293), wk =   0.0013021
        k(  311) = (   0.0000000  -0.0962250   0.1093939), wk =   0.0013021
        k(  312) = (   0.0000000  -0.1443376   0.0364646), wk =   0.0013021
        k(  313) = (   0.0000000  -0.1443376   0.0729293), wk =   0.0013021
        k(  314) = (   0.0000000  -0.1443376   0.1093939), wk =   0.0013021
        k(  315) = (   0.0000000  -0.1924501   0.0364646), wk =   0.0013021
        k(  316) = (   0.0000000  -0.1924501   0.0729293), wk =   0.0013021
        k(  317) = (   0.0000000  -0.1924501   0.1093939), wk =   0.0013021
        k(  318) = (   0.0000000  -0.2405626   0.0364646), wk =   0.0013021
        k(  319) = (   0.0000000  -0.2405626   0.0729293), wk =   0.0013021
        k(  320) = (   0.0000000  -0.2405626   0.1093939), wk =   0.0013021
        k(  321) = (   0.0000000  -0.2886751   0.0364646), wk =   0.0013021
        k(  322) = (   0.0000000  -0.2886751   0.0729293), wk =   0.0013021
        k(  323) = (   0.0000000  -0.2886751   0.1093939), wk =   0.0013021
        k(  324) = (   0.0000000  -0.3367877   0.0364646), wk =   0.0013021
        k(  325) = (   0.0000000  -0.3367877   0.0729293), wk =   0.0013021
        k(  326) = (   0.0000000  -0.3367877   0.1093939), wk =   0.0013021
        k(  327) = (   0.0000000  -0.3849002   0.0364646), wk =   0.0013021
        k(  328) = (   0.0000000  -0.3849002   0.0729293), wk =   0.0013021
        k(  329) = (   0.0000000  -0.3849002   0.1093939), wk =   0.0013021
        k(  330) = (   0.0000000  -0.4330127   0.0364646), wk =   0.0013021
        k(  331) = (   0.0000000  -0.4330127   0.0729293), wk =   0.0013021
        k(  332) = (   0.0000000  -0.4330127   0.1093939), wk =   0.0013021
        k(  333) = (   0.0000000  -0.4811252   0.0364646), wk =   0.0013021
        k(  334) = (   0.0000000  -0.4811252   0.0729293), wk =   0.0013021
        k(  335) = (   0.0000000  -0.4811252   0.1093939), wk =   0.0013021
        k(  336) = (   0.0000000  -0.5292377   0.0364646), wk =   0.0013021
        k(  337) = (   0.0000000  -0.5292377   0.0729293), wk =   0.0013021
        k(  338) = (   0.0000000  -0.5292377   0.1093939), wk =   0.0013021
        k(  339) = (  -0.0416667  -0.1202813   0.0364646), wk =   0.0026042
        k(  340) = (  -0.0416667  -0.1202813   0.0729293), wk =   0.0026042
        k(  341) = (  -0.0416667  -0.1202813   0.1093939), wk =   0.0026042
        k(  342) = (  -0.0416667  -0.1683938   0.0364646), wk =   0.0026042
        k(  343) = (  -0.0416667  -0.1683938   0.0729293), wk =   0.0026042
        k(  344) = (  -0.0416667  -0.1683938   0.1093939), wk =   0.0026042
        k(  345) = (  -0.0416667  -0.2165064   0.0364646), wk =   0.0026042
        k(  346) = (  -0.0416667  -0.2165064   0.0729293), wk =   0.0026042
        k(  347) = (  -0.0416667  -0.2165064   0.1093939), wk =   0.0026042
        k(  348) = (  -0.0416667  -0.2646189   0.0364646), wk =   0.0026042
        k(  349) = (  -0.0416667  -0.2646189   0.0729293), wk =   0.0026042
        k(  350) = (  -0.0416667  -0.2646189   0.1093939), wk =   0.0026042
        k(  351) = (  -0.0416667  -0.3127314   0.0364646), wk =   0.0026042
        k(  352) = (  -0.0416667  -0.3127314   0.0729293), wk =   0.0026042
        k(  353) = (  -0.0416667  -0.3127314   0.1093939), wk =   0.0026042
        k(  354) = (  -0.0416667  -0.3608439   0.0364646), wk =   0.0026042
        k(  355) = (  -0.0416667  -0.3608439   0.0729293), wk =   0.0026042
        k(  356) = (  -0.0416667  -0.3608439   0.1093939), wk =   0.0026042
        k(  357) = (  -0.0416667  -0.4089564   0.0364646), wk =   0.0026042
        k(  358) = (  -0.0416667  -0.4089564   0.0729293), wk =   0.0026042
        k(  359) = (  -0.0416667  -0.4089564   0.1093939), wk =   0.0026042
        k(  360) = (  -0.0416667  -0.4570690   0.0364646), wk =   0.0026042
        k(  361) = (  -0.0416667  -0.4570690   0.0729293), wk =   0.0026042
        k(  362) = (  -0.0416667  -0.4570690   0.1093939), wk =   0.0026042
        k(  363) = (  -0.0416667  -0.5051815   0.0364646), wk =   0.0026042
        k(  364) = (  -0.0416667  -0.5051815   0.0729293), wk =   0.0026042
        k(  365) = (  -0.0416667  -0.5051815   0.1093939), wk =   0.0026042
        k(  366) = (  -0.0416667  -0.5532940   0.0364646), wk =   0.0026042
        k(  367) = (  -0.0416667  -0.5532940   0.0729293), wk =   0.0026042
        k(  368) = (  -0.0416667  -0.5532940   0.1093939), wk =   0.0026042
        k(  369) = (  -0.0833333  -0.1924501   0.0364646), wk =   0.0026042
        k(  370) = (  -0.0833333  -0.1924501   0.0729293), wk =   0.0026042
        k(  371) = (  -0.0833333  -0.1924501   0.1093939), wk =   0.0026042
        k(  372) = (  -0.0833333  -0.2405626   0.0364646), wk =   0.0026042
        k(  373) = (  -0.0833333  -0.2405626   0.0729293), wk =   0.0026042
        k(  374) = (  -0.0833333  -0.2405626   0.1093939), wk =   0.0026042
        k(  375) = (  -0.0833333  -0.2886751   0.0364646), wk =   0.0026042
        k(  376) = (  -0.0833333  -0.2886751   0.0729293), wk =   0.0026042
        k(  377) = (  -0.0833333  -0.2886751   0.1093939), wk =   0.0026042
        k(  378) = (  -0.0833333  -0.3367877   0.0364646), wk =   0.0026042
        k(  379) = (  -0.0833333  -0.3367877   0.0729293), wk =   0.0026042
        k(  380) = (  -0.0833333  -0.3367877   0.1093939), wk =   0.0026042
        k(  381) = (  -0.0833333  -0.3849002   0.0364646), wk =   0.0026042
        k(  382) = (  -0.0833333  -0.3849002   0.0729293), wk =   0.0026042
        k(  383) = (  -0.0833333  -0.3849002   0.1093939), wk =   0.0026042
        k(  384) = (  -0.0833333  -0.4330127   0.0364646), wk =   0.0026042
        k(  385) = (  -0.0833333  -0.4330127   0.0729293), wk =   0.0026042
        k(  386) = (  -0.0833333  -0.4330127   0.1093939), wk =   0.0026042
        k(  387) = (  -0.0833333  -0.4811252   0.0364646), wk =   0.0026042
        k(  388) = (  -0.0833333  -0.4811252   0.0729293), wk =   0.0026042
        k(  389) = (  -0.0833333  -0.4811252   0.1093939), wk =   0.0026042
        k(  390) = (  -0.0833333  -0.5292377   0.0364646), wk =   0.0026042
        k(  391) = (  -0.0833333  -0.5292377   0.0729293), wk =   0.0026042
        k(  392) = (  -0.0833333  -0.5292377   0.1093939), wk =   0.0026042
        k(  393) = (  -0.1250000  -0.2646189   0.0364646), wk =   0.0026042
        k(  394) = (  -0.1250000  -0.2646189   0.0729293), wk =   0.0026042
        k(  395) = (  -0.1250000  -0.2646189   0.1093939), wk =   0.0026042
        k(  396) = (  -0.1250000  -0.3127314   0.0364646), wk =   0.0026042
        k(  397) = (  -0.1250000  -0.3127314   0.0729293), wk =   0.0026042
        k(  398) = (  -0.1250000  -0.3127314   0.1093939), wk =   0.0026042
        k(  399) = (  -0.1250000  -0.3608439   0.0364646), wk =   0.0026042
        k(  400) = (  -0.1250000  -0.3608439   0.0729293), wk =   0.0026042
        k(  401) = (  -0.1250000  -0.3608439   0.1093939), wk =   0.0026042
        k(  402) = (  -0.1250000  -0.4089564   0.0364646), wk =   0.0026042
        k(  403) = (  -0.1250000  -0.4089564   0.0729293), wk =   0.0026042
        k(  404) = (  -0.1250000  -0.4089564   0.1093939), wk =   0.0026042
        k(  405) = (  -0.1250000  -0.4570690   0.0364646), wk =   0.0026042
        k(  406) = (  -0.1250000  -0.4570690   0.0729293), wk =   0.0026042
        k(  407) = (  -0.1250000  -0.4570690   0.1093939), wk =   0.0026042
        k(  408) = (  -0.1250000  -0.5051815   0.0364646), wk =   0.0026042
        k(  409) = (  -0.1250000  -0.5051815   0.0729293), wk =   0.0026042
        k(  410) = (  -0.1250000  -0.5051815   0.1093939), wk =   0.0026042
        k(  411) = (  -0.1250000  -0.5532940   0.0364646), wk =   0.0026042
        k(  412) = (  -0.1250000  -0.5532940   0.0729293), wk =   0.0026042
        k(  413) = (  -0.1250000  -0.5532940   0.1093939), wk =   0.0026042
        k(  414) = (  -0.1666667  -0.3367877   0.0364646), wk =   0.0026042
        k(  415) = (  -0.1666667  -0.3367877   0.0729293), wk =   0.0026042
        k(  416) = (  -0.1666667  -0.3367877   0.1093939), wk =   0.0026042
        k(  417) = (  -0.1666667  -0.3849002   0.0364646), wk =   0.0026042
        k(  418) = (  -0.1666667  -0.3849002   0.0729293), wk =   0.0026042
        k(  419) = (  -0.1666667  -0.3849002   0.1093939), wk =   0.0026042
        k(  420) = (  -0.1666667  -0.4330127   0.0364646), wk =   0.0026042
        k(  421) = (  -0.1666667  -0.4330127   0.0729293), wk =   0.0026042
        k(  422) = (  -0.1666667  -0.4330127   0.1093939), wk =   0.0026042
        k(  423) = (  -0.1666667  -0.4811252   0.0364646), wk =   0.0026042
        k(  424) = (  -0.1666667  -0.4811252   0.0729293), wk =   0.0026042
        k(  425) = (  -0.1666667  -0.4811252   0.1093939), wk =   0.0026042
        k(  426) = (  -0.1666667  -0.5292377   0.0364646), wk =   0.0026042
        k(  427) = (  -0.1666667  -0.5292377   0.0729293), wk =   0.0026042
        k(  428) = (  -0.1666667  -0.5292377   0.1093939), wk =   0.0026042
        k(  429) = (  -0.2083333  -0.4089564   0.0364646), wk =   0.0026042
        k(  430) = (  -0.2083333  -0.4089564   0.0729293), wk =   0.0026042
        k(  431) = (  -0.2083333  -0.4089564   0.1093939), wk =   0.0026042
        k(  432) = (  -0.2083333  -0.4570690   0.0364646), wk =   0.0026042
        k(  433) = (  -0.2083333  -0.4570690   0.0729293), wk =   0.0026042
        k(  434) = (  -0.2083333  -0.4570690   0.1093939), wk =   0.0026042
        k(  435) = (  -0.2083333  -0.5051815   0.0364646), wk =   0.0026042
        k(  436) = (  -0.2083333  -0.5051815   0.0729293), wk =   0.0026042
        k(  437) = (  -0.2083333  -0.5051815   0.1093939), wk =   0.0026042
        k(  438) = (  -0.2083333  -0.5532940   0.0364646), wk =   0.0026042
        k(  439) = (  -0.2083333  -0.5532940   0.0729293), wk =   0.0026042
        k(  440) = (  -0.2083333  -0.5532940   0.1093939), wk =   0.0026042
        k(  441) = (  -0.2500000  -0.4811252   0.0364646), wk =   0.0026042
        k(  442) = (  -0.2500000  -0.4811252   0.0729293), wk =   0.0026042
        k(  443) = (  -0.2500000  -0.4811252   0.1093939), wk =   0.0026042
        k(  444) = (  -0.2500000  -0.5292377   0.0364646), wk =   0.0026042
        k(  445) = (  -0.2500000  -0.5292377   0.0729293), wk =   0.0026042
        k(  446) = (  -0.2500000  -0.5292377   0.1093939), wk =   0.0026042
        k(  447) = (  -0.2916667  -0.5532940   0.0364646), wk =   0.0026042
        k(  448) = (  -0.2916667  -0.5532940   0.0729293), wk =   0.0026042
        k(  449) = (  -0.2916667  -0.5532940   0.1093939), wk =   0.0026042

                       cryst. coord.
        k(    1) = (   0.0000000   0.0000000   0.0000000), wk =   0.0002170
        k(    2) = (   0.0000000   0.0000000   0.1250000), wk =   0.0004340
        k(    3) = (   0.0000000   0.0000000   0.2500000), wk =   0.0004340
        k(    4) = (   0.0000000   0.0000000   0.3750000), wk =   0.0004340
        k(    5) = (   0.0000000   0.0000000  -0.5000000), wk =   0.0002170
        k(    6) = (   0.0000000   0.0416667   0.0000000), wk =   0.0013021
        k(    7) = (   0.0000000   0.0416667   0.1250000), wk =   0.0013021
        k(    8) = (   0.0000000   0.0416667   0.2500000), wk =   0.0013021
        k(    9) = (   0.0000000   0.0416667   0.3750000), wk =   0.0013021
        k(   10) = (   0.0000000   0.0416667  -0.5000000), wk =   0.0013021
        k(   11) = (   0.0000000   0.0833333   0.0000000), wk =   0.0013021
        k(   12) = (   0.0000000   0.0833333   0.1250000), wk =   0.0013021
        k(   13) = (   0.0000000   0.0833333   0.2500000), wk =   0.0013021
        k(   14) = (   0.0000000   0.0833333   0.3750000), wk =   0.0013021
        k(   15) = (   0.0000000   0.0833333  -0.5000000), wk =   0.0013021
        k(   16) = (   0.0000000   0.1250000   0.0000000), wk =   0.0013021
        k(   17) = (   0.0000000   0.1250000   0.1250000), wk =   0.0013021
        k(   18) = (   0.0000000   0.1250000   0.2500000), wk =   0.0013021
        k(   19) = (   0.0000000   0.1250000   0.3750000), wk =   0.0013021
        k(   20) = (   0.0000000   0.1250000  -0.5000000), wk =   0.0013021
        k(   21) = (   0.0000000   0.1666667   0.0000000), wk =   0.0013021
        k(   22) = (   0.0000000   0.1666667   0.1250000), wk =   0.0013021
        k(   23) = (   0.0000000   0.1666667   0.2500000), wk =   0.0013021
        k(   24) = (   0.0000000   0.1666667   0.3750000), wk =   0.0013021
        k(   25) = (   0.0000000   0.1666667  -0.5000000), wk =   0.0013021
        k(   26) = (   0.0000000   0.2083333   0.0000000), wk =   0.0013021
        k(   27) = (   0.0000000   0.2083333   0.1250000), wk =   0.0013021
        k(   28) = (   0.0000000   0.2083333   0.2500000), wk =   0.0013021
        k(   29) = (   0.0000000   0.2083333   0.3750000), wk =   0.0013021
        k(   30) = (   0.0000000   0.2083333  -0.5000000), wk =   0.0013021
        k(   31) = (   0.0000000   0.2500000   0.0000000), wk =   0.0013021
        k(   32) = (   0.0000000   0.2500000   0.1250000), wk =   0.0013021
        k(   33) = (   0.0000000   0.2500000   0.2500000), wk =   0.0013021
        k(   34) = (   0.0000000   0.2500000   0.3750000), wk =   0.0013021
        k(   35) = (   0.0000000   0.2500000  -0.5000000), wk =   0.0013021
        k(   36) = (   0.0000000   0.2916667   0.0000000), wk =   0.0013021
        k(   37) = (   0.0000000   0.2916667   0.1250000), wk =   0.0013021
        k(   38) = (   0.0000000   0.2916667   0.2500000), wk =   0.0013021
        k(   39) = (   0.0000000   0.2916667   0.3750000), wk =   0.0013021
        k(   40) = (   0.0000000   0.2916667  -0.5000000), wk =   0.0013021
        k(   41) = (   0.0000000   0.3333333   0.0000000), wk =   0.0013021
        k(   42) = (   0.0000000   0.3333333   0.1250000), wk =   0.0013021
        k(   43) = (   0.0000000   0.3333333   0.2500000), wk =   0.0013021
        k(   44) = (   0.0000000   0.3333333   0.3750000), wk =   0.0013021
        k(   45) = (   0.0000000   0.3333333  -0.5000000), wk =   0.0013021
        k(   46) = (   0.0000000   0.3750000   0.0000000), wk =   0.0013021
        k(   47) = (   0.0000000   0.3750000   0.1250000), wk =   0.0013021
        k(   48) = (   0.0000000   0.3750000   0.2500000), wk =   0.0013021
        k(   49) = (   0.0000000   0.3750000   0.3750000), wk =   0.0013021
        k(   50) = (   0.0000000   0.3750000  -0.5000000), wk =   0.0013021
        k(   51) = (   0.0000000   0.4166667   0.0000000), wk =   0.0013021
        k(   52) = (   0.0000000   0.4166667   0.1250000), wk =   0.0013021
        k(   53) = (   0.0000000   0.4166667   0.2500000), wk =   0.0013021
        k(   54) = (   0.0000000   0.4166667   0.3750000), wk =   0.0013021
        k(   55) = (   0.0000000   0.4166667  -0.5000000), wk =   0.0013021
        k(   56) = (   0.0000000   0.4583333   0.0000000), wk =   0.0013021
        k(   57) = (   0.0000000   0.4583333   0.1250000), wk =   0.0013021
        k(   58) = (   0.0000000   0.4583333   0.2500000), wk =   0.0013021
        k(   59) = (   0.0000000   0.4583333   0.3750000), wk =   0.0013021
        k(   60) = (   0.0000000   0.4583333  -0.5000000), wk =   0.0013021
        k(   61) = (   0.0000000  -0.5000000   0.0000000), wk =   0.0006510
        k(   62) = (   0.0000000  -0.5000000   0.1250000), wk =   0.0013021
        k(   63) = (   0.0000000  -0.5000000   0.2500000), wk =   0.0013021
        k(   64) = (   0.0000000  -0.5000000   0.3750000), wk =   0.0013021
        k(   65) = (   0.0000000  -0.5000000  -0.5000000), wk =   0.0006510
        k(   66) = (   0.0416667   0.0416667   0.0000000), wk =   0.0013021
        k(   67) = (   0.0416667   0.0416667   0.1250000), wk =   0.0026042
        k(   68) = (   0.0416667   0.0416667   0.2500000), wk =   0.0026042
        k(   69) = (   0.0416667   0.0416667   0.3750000), wk =   0.0026042
        k(   70) = (   0.0416667   0.0416667  -0.5000000), wk =   0.0013021
        k(   71) = (   0.0416667   0.0833333   0.0000000), wk =   0.0026042
        k(   72) = (   0.0416667   0.0833333   0.1250000), wk =   0.0026042
        k(   73) = (   0.0416667   0.0833333   0.2500000), wk =   0.0026042
        k(   74) = (   0.0416667   0.0833333   0.3750000), wk =   0.0026042
        k(   75) = (   0.0416667   0.0833333  -0.5000000), wk =   0.0026042
        k(   76) = (   0.0416667   0.1250000   0.0000000), wk =   0.0026042
        k(   77) = (   0.0416667   0.1250000   0.1250000), wk =   0.0026042
        k(   78) = (   0.0416667   0.1250000   0.2500000), wk =   0.0026042
        k(   79) = (   0.0416667   0.1250000   0.3750000), wk =   0.0026042
        k(   80) = (   0.0416667   0.1250000  -0.5000000), wk =   0.0026042
        k(   81) = (   0.0416667   0.1666667   0.0000000), wk =   0.0026042
        k(   82) = (   0.0416667   0.1666667   0.1250000), wk =   0.0026042
        k(   83) = (   0.0416667   0.1666667   0.2500000), wk =   0.0026042
        k(   84) = (   0.0416667   0.1666667   0.3750000), wk =   0.0026042
        k(   85) = (   0.0416667   0.1666667  -0.5000000), wk =   0.0026042
        k(   86) = (   0.0416667   0.2083333   0.0000000), wk =   0.0026042
        k(   87) = (   0.0416667   0.2083333   0.1250000), wk =   0.0026042
        k(   88) = (   0.0416667   0.2083333   0.2500000), wk =   0.0026042
        k(   89) = (   0.0416667   0.2083333   0.3750000), wk =   0.0026042
        k(   90) = (   0.0416667   0.2083333  -0.5000000), wk =   0.0026042
        k(   91) = (   0.0416667   0.2500000   0.0000000), wk =   0.0026042
        k(   92) = (   0.0416667   0.2500000   0.1250000), wk =   0.0026042
        k(   93) = (   0.0416667   0.2500000   0.2500000), wk =   0.0026042
        k(   94) = (   0.0416667   0.2500000   0.3750000), wk =   0.0026042
        k(   95) = (   0.0416667   0.2500000  -0.5000000), wk =   0.0026042
        k(   96) = (   0.0416667   0.2916667   0.0000000), wk =   0.0026042
        k(   97) = (   0.0416667   0.2916667   0.1250000), wk =   0.0026042
        k(   98) = (   0.0416667   0.2916667   0.2500000), wk =   0.0026042
        k(   99) = (   0.0416667   0.2916667   0.3750000), wk =   0.0026042
        k(  100) = (   0.0416667   0.2916667  -0.5000000), wk =   0.0026042
        k(  101) = (   0.0416667   0.3333333   0.0000000), wk =   0.0026042
        k(  102) = (   0.0416667   0.3333333   0.1250000), wk =   0.0026042
        k(  103) = (   0.0416667   0.3333333   0.2500000), wk =   0.0026042
        k(  104) = (   0.0416667   0.3333333   0.3750000), wk =   0.0026042
        k(  105) = (   0.0416667   0.3333333  -0.5000000), wk =   0.0026042
        k(  106) = (   0.0416667   0.3750000   0.0000000), wk =   0.0026042
        k(  107) = (   0.0416667   0.3750000   0.1250000), wk =   0.0026042
        k(  108) = (   0.0416667   0.3750000   0.2500000), wk =   0.0026042
        k(  109) = (   0.0416667   0.3750000   0.3750000), wk =   0.0026042
        k(  110) = (   0.0416667   0.3750000  -0.5000000), wk =   0.0026042
        k(  111) = (   0.0416667   0.4166667   0.0000000), wk =   0.0026042
        k(  112) = (   0.0416667   0.4166667   0.1250000), wk =   0.0026042
        k(  113) = (   0.0416667   0.4166667   0.2500000), wk =   0.0026042
        k(  114) = (   0.0416667   0.4166667   0.3750000), wk =   0.0026042
        k(  115) = (   0.0416667   0.4166667  -0.5000000), wk =   0.0026042
        k(  116) = (   0.0416667   0.4583333   0.0000000), wk =   0.0026042
        k(  117) = (   0.0416667   0.4583333   0.1250000), wk =   0.0026042
        k(  118) = (   0.0416667   0.4583333   0.2500000), wk =   0.0026042
        k(  119) = (   0.0416667   0.4583333   0.3750000), wk =   0.0026042
        k(  120) = (   0.0416667   0.4583333  -0.5000000), wk =   0.0026042
        k(  121) = (   0.0833333   0.0833333   0.0000000), wk =   0.0013021
        k(  122) = (   0.0833333   0.0833333   0.1250000), wk =   0.0026042
        k(  123) = (   0.0833333   0.0833333   0.2500000), wk =   0.0026042
        k(  124) = (   0.0833333   0.0833333   0.3750000), wk =   0.0026042
        k(  125) = (   0.0833333   0.0833333  -0.5000000), wk =   0.0013021
        k(  126) = (   0.0833333   0.1250000   0.0000000), wk =   0.0026042
        k(  127) = (   0.0833333   0.1250000   0.1250000), wk =   0.0026042
        k(  128) = (   0.0833333   0.1250000   0.2500000), wk =   0.0026042
        k(  129) = (   0.0833333   0.1250000   0.3750000), wk =   0.0026042
        k(  130) = (   0.0833333   0.1250000  -0.5000000), wk =   0.0026042
        k(  131) = (   0.0833333   0.1666667   0.0000000), wk =   0.0026042
        k(  132) = (   0.0833333   0.1666667   0.1250000), wk =   0.0026042
        k(  133) = (   0.0833333   0.1666667   0.2500000), wk =   0.0026042
        k(  134) = (   0.0833333   0.1666667   0.3750000), wk =   0.0026042
        k(  135) = (   0.0833333   0.1666667  -0.5000000), wk =   0.0026042
        k(  136) = (   0.0833333   0.2083333   0.0000000), wk =   0.0026042
        k(  137) = (   0.0833333   0.2083333   0.1250000), wk =   0.0026042
        k(  138) = (   0.0833333   0.2083333   0.2500000), wk =   0.0026042
        k(  139) = (   0.0833333   0.2083333   0.3750000), wk =   0.0026042
        k(  140) = (   0.0833333   0.2083333  -0.5000000), wk =   0.0026042
        k(  141) = (   0.0833333   0.2500000   0.0000000), wk =   0.0026042
        k(  142) = (   0.0833333   0.2500000   0.1250000), wk =   0.0026042
        k(  143) = (   0.0833333   0.2500000   0.2500000), wk =   0.0026042
        k(  144) = (   0.0833333   0.2500000   0.3750000), wk =   0.0026042
        k(  145) = (   0.0833333   0.2500000  -0.5000000), wk =   0.0026042
        k(  146) = (   0.0833333   0.2916667   0.0000000), wk =   0.0026042
        k(  147) = (   0.0833333   0.2916667   0.1250000), wk =   0.0026042
        k(  148) = (   0.0833333   0.2916667   0.2500000), wk =   0.0026042
        k(  149) = (   0.0833333   0.2916667   0.3750000), wk =   0.0026042
        k(  150) = (   0.0833333   0.2916667  -0.5000000), wk =   0.0026042
        k(  151) = (   0.0833333   0.3333333   0.0000000), wk =   0.0026042
        k(  152) = (   0.0833333   0.3333333   0.1250000), wk =   0.0026042
        k(  153) = (   0.0833333   0.3333333   0.2500000), wk =   0.0026042
        k(  154) = (   0.0833333   0.3333333   0.3750000), wk =   0.0026042
        k(  155) = (   0.0833333   0.3333333  -0.5000000), wk =   0.0026042
        k(  156) = (   0.0833333   0.3750000   0.0000000), wk =   0.0026042
        k(  157) = (   0.0833333   0.3750000   0.1250000), wk =   0.0026042
        k(  158) = (   0.0833333   0.3750000   0.2500000), wk =   0.0026042
        k(  159) = (   0.0833333   0.3750000   0.3750000), wk =   0.0026042
        k(  160) = (   0.0833333   0.3750000  -0.5000000), wk =   0.0026042
        k(  161) = (   0.0833333   0.4166667   0.0000000), wk =   0.0026042
        k(  162) = (   0.0833333   0.4166667   0.1250000), wk =   0.0026042
        k(  163) = (   0.0833333   0.4166667   0.2500000), wk =   0.0026042
        k(  164) = (   0.0833333   0.4166667   0.3750000), wk =   0.0026042
        k(  165) = (   0.0833333   0.4166667  -0.5000000), wk =   0.0026042
        k(  166) = (   0.0833333   0.4583333   0.0000000), wk =   0.0013021
        k(  167) = (   0.0833333   0.4583333   0.1250000), wk =   0.0026042
        k(  168) = (   0.0833333   0.4583333   0.2500000), wk =   0.0026042
        k(  169) = (   0.0833333   0.4583333   0.3750000), wk =   0.0026042
        k(  170) = (   0.0833333   0.4583333  -0.5000000), wk =   0.0013021
        k(  171) = (   0.1250000   0.1250000   0.0000000), wk =   0.0013021
        k(  172) = (   0.1250000   0.1250000   0.1250000), wk =   0.0026042
        k(  173) = (   0.1250000   0.1250000   0.2500000), wk =   0.0026042
        k(  174) = (   0.1250000   0.1250000   0.3750000), wk =   0.0026042
        k(  175) = (   0.1250000   0.1250000  -0.5000000), wk =   0.0013021
        k(  176) = (   0.1250000   0.1666667   0.0000000), wk =   0.0026042
        k(  177) = (   0.1250000   0.1666667   0.1250000), wk =   0.0026042
        k(  178) = (   0.1250000   0.1666667   0.2500000), wk =   0.0026042
        k(  179) = (   0.1250000   0.1666667   0.3750000), wk =   0.0026042
        k(  180) = (   0.1250000   0.1666667  -0.5000000), wk =   0.0026042
        k(  181) = (   0.1250000   0.2083333   0.0000000), wk =   0.0026042
        k(  182) = (   0.1250000   0.2083333   0.1250000), wk =   0.0026042
        k(  183) = (   0.1250000   0.2083333   0.2500000), wk =   0.0026042
        k(  184) = (   0.1250000   0.2083333   0.3750000), wk =   0.0026042
        k(  185) = (   0.1250000   0.2083333  -0.5000000), wk =   0.0026042
        k(  186) = (   0.1250000   0.2500000   0.0000000), wk =   0.0026042
        k(  187) = (   0.1250000   0.2500000   0.1250000), wk =   0.0026042
        k(  188) = (   0.1250000   0.2500000   0.2500000), wk =   0.0026042
        k(  189) = (   0.1250000   0.2500000   0.3750000), wk =   0.0026042
        k(  190) = (   0.1250000   0.2500000  -0.5000000), wk =   0.0026042
        k(  191) = (   0.1250000   0.2916667   0.0000000), wk =   0.0026042
        k(  192) = (   0.1250000   0.2916667   0.1250000), wk =   0.0026042
        k(  193) = (   0.1250000   0.2916667   0.2500000), wk =   0.0026042
        k(  194) = (   0.1250000   0.2916667   0.3750000), wk =   0.0026042
        k(  195) = (   0.1250000   0.2916667  -0.5000000), wk =   0.0026042
        k(  196) = (   0.1250000   0.3333333   0.0000000), wk =   0.0026042
        k(  197) = (   0.1250000   0.3333333   0.1250000), wk =   0.0026042
        k(  198) = (   0.1250000   0.3333333   0.2500000), wk =   0.0026042
        k(  199) = (   0.1250000   0.3333333   0.3750000), wk =   0.0026042
        k(  200) = (   0.1250000   0.3333333  -0.5000000), wk =   0.0026042
        k(  201) = (   0.1250000   0.3750000   0.0000000), wk =   0.0026042
        k(  202) = (   0.1250000   0.3750000   0.1250000), wk =   0.0026042
        k(  203) = (   0.1250000   0.3750000   0.2500000), wk =   0.0026042
        k(  204) = (   0.1250000   0.3750000   0.3750000), wk =   0.0026042
        k(  205) = (   0.1250000   0.3750000  -0.5000000), wk =   0.0026042
        k(  206) = (   0.1250000   0.4166667   0.0000000), wk =   0.0026042
        k(  207) = (   0.1250000   0.4166667   0.1250000), wk =   0.0026042
        k(  208) = (   0.1250000   0.4166667   0.2500000), wk =   0.0026042
        k(  209) = (   0.1250000   0.4166667   0.3750000), wk =   0.0026042
        k(  210) = (   0.1250000   0.4166667  -0.5000000), wk =   0.0026042
        k(  211) = (   0.1666667   0.1666667   0.0000000), wk =   0.0013021
        k(  212) = (   0.1666667   0.1666667   0.1250000), wk =   0.0026042
        k(  213) = (   0.1666667   0.1666667   0.2500000), wk =   0.0026042
        k(  214) = (   0.1666667   0.1666667   0.3750000), wk =   0.0026042
        k(  215) = (   0.1666667   0.1666667  -0.5000000), wk =   0.0013021
        k(  216) = (   0.1666667   0.2083333   0.0000000), wk =   0.0026042
        k(  217) = (   0.1666667   0.2083333   0.1250000), wk =   0.0026042
        k(  218) = (   0.1666667   0.2083333   0.2500000), wk =   0.0026042
        k(  219) = (   0.1666667   0.2083333   0.3750000), wk =   0.0026042
        k(  220) = (   0.1666667   0.2083333  -0.5000000), wk =   0.0026042
        k(  221) = (   0.1666667   0.2500000   0.0000000), wk =   0.0026042
        k(  222) = (   0.1666667   0.2500000   0.1250000), wk =   0.0026042
        k(  223) = (   0.1666667   0.2500000   0.2500000), wk =   0.0026042
        k(  224) = (   0.1666667   0.2500000   0.3750000), wk =   0.0026042
        k(  225) = (   0.1666667   0.2500000  -0.5000000), wk =   0.0026042
        k(  226) = (   0.1666667   0.2916667   0.0000000), wk =   0.0026042
        k(  227) = (   0.1666667   0.2916667   0.1250000), wk =   0.0026042
        k(  228) = (   0.1666667   0.2916667   0.2500000), wk =   0.0026042
        k(  229) = (   0.1666667   0.2916667   0.3750000), wk =   0.0026042
        k(  230) = (   0.1666667   0.2916667  -0.5000000), wk =   0.0026042
        k(  231) = (   0.1666667   0.3333333   0.0000000), wk =   0.0026042
        k(  232) = (   0.1666667   0.3333333   0.1250000), wk =   0.0026042
        k(  233) = (   0.1666667   0.3333333   0.2500000), wk =   0.0026042
        k(  234) = (   0.1666667   0.3333333   0.3750000), wk =   0.0026042
        k(  235) = (   0.1666667   0.3333333  -0.5000000), wk =   0.0026042
        k(  236) = (   0.1666667   0.3750000   0.0000000), wk =   0.0026042
        k(  237) = (   0.1666667   0.3750000   0.1250000), wk =   0.0026042
        k(  238) = (   0.1666667   0.3750000   0.2500000), wk =   0.0026042
        k(  239) = (   0.1666667   0.3750000   0.3750000), wk =   0.0026042
        k(  240) = (   0.1666667   0.3750000  -0.5000000), wk =   0.0026042
        k(  241) = (   0.1666667   0.4166667   0.0000000), wk =   0.0013021
        k(  242) = (   0.1666667   0.4166667   0.1250000), wk =   0.0026042
        k(  243) = (   0.1666667   0.4166667   0.2500000), wk =   0.0026042
        k(  244) = (   0.1666667   0.4166667   0.3750000), wk =   0.0026042
        k(  245) = (   0.1666667   0.4166667  -0.5000000), wk =   0.0013021
        k(  246) = (   0.2083333   0.2083333   0.0000000), wk =   0.0013021
        k(  247) = (   0.2083333   0.2083333   0.1250000), wk =   0.0026042
        k(  248) = (   0.2083333   0.2083333   0.2500000), wk =   0.0026042
        k(  249) = (   0.2083333   0.2083333   0.3750000), wk =   0.0026042
        k(  250) = (   0.2083333   0.2083333  -0.5000000), wk =   0.0013021
        k(  251) = (   0.2083333   0.2500000   0.0000000), wk =   0.0026042
        k(  252) = (   0.2083333   0.2500000   0.1250000), wk =   0.0026042
        k(  253) = (   0.2083333   0.2500000   0.2500000), wk =   0.0026042
        k(  254) = (   0.2083333   0.2500000   0.3750000), wk =   0.0026042
        k(  255) = (   0.2083333   0.2500000  -0.5000000), wk =   0.0026042
        k(  256) = (   0.2083333   0.2916667   0.0000000), wk =   0.0026042
        k(  257) = (   0.2083333   0.2916667   0.1250000), wk =   0.0026042
        k(  258) = (   0.2083333   0.2916667   0.2500000), wk =   0.0026042
        k(  259) = (   0.2083333   0.2916667   0.3750000), wk =   0.0026042
        k(  260) = (   0.2083333   0.2916667  -0.5000000), wk =   0.0026042
        k(  261) = (   0.2083333   0.3333333   0.0000000), wk =   0.0026042
        k(  262) = (   0.2083333   0.3333333   0.1250000), wk =   0.0026042
        k(  263) = (   0.2083333   0.3333333   0.2500000), wk =   0.0026042
        k(  264) = (   0.2083333   0.3333333   0.3750000), wk =   0.0026042
        k(  265) = (   0.2083333   0.3333333  -0.5000000), wk =   0.0026042
        k(  266) = (   0.2083333   0.3750000   0.0000000), wk =   0.0026042
        k(  267) = (   0.2083333   0.3750000   0.1250000), wk =   0.0026042
        k(  268) = (   0.2083333   0.3750000   0.2500000), wk =   0.0026042
        k(  269) = (   0.2083333   0.3750000   0.3750000), wk =   0.0026042
        k(  270) = (   0.2083333   0.3750000  -0.5000000), wk =   0.0026042
        k(  271) = (   0.2500000   0.2500000   0.0000000), wk =   0.0013021
        k(  272) = (   0.2500000   0.2500000   0.1250000), wk =   0.0026042
        k(  273) = (   0.2500000   0.2500000   0.2500000), wk =   0.0026042
        k(  274) = (   0.2500000   0.2500000   0.3750000), wk =   0.0026042
        k(  275) = (   0.2500000   0.2500000  -0.5000000), wk =   0.0013021
        k(  276) = (   0.2500000   0.2916667   0.0000000), wk =   0.0026042
        k(  277) = (   0.2500000   0.2916667   0.1250000), wk =   0.0026042
        k(  278) = (   0.2500000   0.2916667   0.2500000), wk =   0.0026042
        k(  279) = (   0.2500000   0.2916667   0.3750000), wk =   0.0026042
        k(  280) = (   0.2500000   0.2916667  -0.5000000), wk =   0.0026042
        k(  281) = (   0.2500000   0.3333333   0.0000000), wk =   0.0026042
        k(  282) = (   0.2500000   0.3333333   0.1250000), wk =   0.0026042
        k(  283) = (   0.2500000   0.3333333   0.2500000), wk =   0.0026042
        k(  284) = (   0.2500000   0.3333333   0.3750000), wk =   0.0026042
        k(  285) = (   0.2500000   0.3333333  -0.5000000), wk =   0.0026042
        k(  286) = (   0.2500000   0.3750000   0.0000000), wk =   0.0013021
        k(  287) = (   0.2500000   0.3750000   0.1250000), wk =   0.0026042
        k(  288) = (   0.2500000   0.3750000   0.2500000), wk =   0.0026042
        k(  289) = (   0.2500000   0.3750000   0.3750000), wk =   0.0026042
        k(  290) = (   0.2500000   0.3750000  -0.5000000), wk =   0.0013021
        k(  291) = (   0.2916667   0.2916667   0.0000000), wk =   0.0013021
        k(  292) = (   0.2916667   0.2916667   0.1250000), wk =   0.0026042
        k(  293) = (   0.2916667   0.2916667   0.2500000), wk =   0.0026042
        k(  294) = (   0.2916667   0.2916667   0.3750000), wk =   0.0026042
        k(  295) = (   0.2916667   0.2916667  -0.5000000), wk =   0.0013021
        k(  296) = (   0.2916667   0.3333333   0.0000000), wk =   0.0026042
        k(  297) = (   0.2916667   0.3333333   0.1250000), wk =   0.0026042
        k(  298) = (   0.2916667   0.3333333   0.2500000), wk =   0.0026042
        k(  299) = (   0.2916667   0.3333333   0.3750000), wk =   0.0026042
        k(  300) = (   0.2916667   0.3333333  -0.5000000), wk =   0.0026042
        k(  301) = (   0.3333333   0.3333333   0.0000000), wk =   0.0004340
        k(  302) = (   0.3333333   0.3333333   0.1250000), wk =   0.0008681
        k(  303) = (   0.3333333   0.3333333   0.2500000), wk =   0.0008681
        k(  304) = (   0.3333333   0.3333333   0.3750000), wk =   0.0008681
        k(  305) = (   0.3333333   0.3333333  -0.5000000), wk =   0.0004340
        k(  306) = (   0.0000000  -0.0416667   0.1250000), wk =   0.0013021
        k(  307) = (   0.0000000  -0.0416667   0.2500000), wk =   0.0013021
        k(  308) = (   0.0000000  -0.0416667   0.3750000), wk =   0.0013021
        k(  309) = (   0.0000000  -0.0833333   0.1250000), wk =   0.0013021
        k(  310) = (   0.0000000  -0.0833333   0.2500000), wk =   0.0013021
        k(  311) = (   0.0000000  -0.0833333   0.3750000), wk =   0.0013021
        k(  312) = (   0.0000000  -0.1250000   0.1250000), wk =   0.0013021
        k(  313) = (   0.0000000  -0.1250000   0.2500000), wk =   0.0013021
        k(  314) = (   0.0000000  -0.1250000   0.3750000), wk =   0.0013021
        k(  315) = (   0.0000000  -0.1666667   0.1250000), wk =   0.0013021
        k(  316) = (   0.0000000  -0.1666667   0.2500000), wk =   0.0013021
        k(  317) = (   0.0000000  -0.1666667   0.3750000), wk =   0.0013021
        k(  318) = (   0.0000000  -0.2083333   0.1250000), wk =   0.0013021
        k(  319) = (   0.0000000  -0.2083333   0.2500000), wk =   0.0013021
        k(  320) = (   0.0000000  -0.2083333   0.3750000), wk =   0.0013021
        k(  321) = (   0.0000000  -0.2500000   0.1250000), wk =   0.0013021
        k(  322) = (   0.0000000  -0.2500000   0.2500000), wk =   0.0013021
        k(  323) = (   0.0000000  -0.2500000   0.3750000), wk =   0.0013021
        k(  324) = (   0.0000000  -0.2916667   0.1250000), wk =   0.0013021
        k(  325) = (   0.0000000  -0.2916667   0.2500000), wk =   0.0013021
        k(  326) = (   0.0000000  -0.2916667   0.3750000), wk =   0.0013021
        k(  327) = (   0.0000000  -0.3333333   0.1250000), wk =   0.0013021
        k(  328) = (   0.0000000  -0.3333333   0.2500000), wk =   0.0013021
        k(  329) = (   0.0000000  -0.3333333   0.3750000), wk =   0.0013021
        k(  330) = (   0.0000000  -0.3750000   0.1250000), wk =   0.0013021
        k(  331) = (   0.0000000  -0.3750000   0.2500000), wk =   0.0013021
        k(  332) = (   0.0000000  -0.3750000   0.3750000), wk =   0.0013021
        k(  333) = (   0.0000000  -0.4166667   0.1250000), wk =   0.0013021
        k(  334) = (   0.0000000  -0.4166667   0.2500000), wk =   0.0013021
        k(  335) = (   0.0000000  -0.4166667   0.3750000), wk =   0.0013021
        k(  336) = (   0.0000000  -0.4583333   0.1250000), wk =   0.0013021
        k(  337) = (   0.0000000  -0.4583333   0.2500000), wk =   0.0013021
        k(  338) = (   0.0000000  -0.4583333   0.3750000), wk =   0.0013021
        k(  339) = (  -0.0416667  -0.0833333   0.1250000), wk =   0.0026042
        k(  340) = (  -0.0416667  -0.0833333   0.2500000), wk =   0.0026042
        k(  341) = (  -0.0416667  -0.0833333   0.3750000), wk =   0.0026042
        k(  342) = (  -0.0416667  -0.1250000   0.1250000), wk =   0.0026042
        k(  343) = (  -0.0416667  -0.1250000   0.2500000), wk =   0.0026042
        k(  344) = (  -0.0416667  -0.1250000   0.3750000), wk =   0.0026042
        k(  345) = (  -0.0416667  -0.1666667   0.1250000), wk =   0.0026042
        k(  346) = (  -0.0416667  -0.1666667   0.2500000), wk =   0.0026042
        k(  347) = (  -0.0416667  -0.1666667   0.3750000), wk =   0.0026042
        k(  348) = (  -0.0416667  -0.2083333   0.1250000), wk =   0.0026042
        k(  349) = (  -0.0416667  -0.2083333   0.2500000), wk =   0.0026042
        k(  350) = (  -0.0416667  -0.2083333   0.3750000), wk =   0.0026042
        k(  351) = (  -0.0416667  -0.2500000   0.1250000), wk =   0.0026042
        k(  352) = (  -0.0416667  -0.2500000   0.2500000), wk =   0.0026042
        k(  353) = (  -0.0416667  -0.2500000   0.3750000), wk =   0.0026042
        k(  354) = (  -0.0416667  -0.2916667   0.1250000), wk =   0.0026042
        k(  355) = (  -0.0416667  -0.2916667   0.2500000), wk =   0.0026042
        k(  356) = (  -0.0416667  -0.2916667   0.3750000), wk =   0.0026042
        k(  357) = (  -0.0416667  -0.3333333   0.1250000), wk =   0.0026042
        k(  358) = (  -0.0416667  -0.3333333   0.2500000), wk =   0.0026042
        k(  359) = (  -0.0416667  -0.3333333   0.3750000), wk =   0.0026042
        k(  360) = (  -0.0416667  -0.3750000   0.1250000), wk =   0.0026042
        k(  361) = (  -0.0416667  -0.3750000   0.2500000), wk =   0.0026042
        k(  362) = (  -0.0416667  -0.3750000   0.3750000), wk =   0.0026042
        k(  363) = (  -0.0416667  -0.4166667   0.1250000), wk =   0.0026042
        k(  364) = (  -0.0416667  -0.4166667   0.2500000), wk =   0.0026042
        k(  365) = (  -0.0416667  -0.4166667   0.3750000), wk =   0.0026042
        k(  366) = (  -0.0416667  -0.4583333   0.1250000), wk =   0.0026042
        k(  367) = (  -0.0416667  -0.4583333   0.2500000), wk =   0.0026042
        k(  368) = (  -0.0416667  -0.4583333   0.3750000), wk =   0.0026042
        k(  369) = (  -0.0833333  -0.1250000   0.1250000), wk =   0.0026042
        k(  370) = (  -0.0833333  -0.1250000   0.2500000), wk =   0.0026042
        k(  371) = (  -0.0833333  -0.1250000   0.3750000), wk =   0.0026042
        k(  372) = (  -0.0833333  -0.1666667   0.1250000), wk =   0.0026042
        k(  373) = (  -0.0833333  -0.1666667   0.2500000), wk =   0.0026042
        k(  374) = (  -0.0833333  -0.1666667   0.3750000), wk =   0.0026042
        k(  375) = (  -0.0833333  -0.2083333   0.1250000), wk =   0.0026042
        k(  376) = (  -0.0833333  -0.2083333   0.2500000), wk =   0.0026042
        k(  377) = (  -0.0833333  -0.2083333   0.3750000), wk =   0.0026042
        k(  378) = (  -0.0833333  -0.2500000   0.1250000), wk =   0.0026042
        k(  379) = (  -0.0833333  -0.2500000   0.2500000), wk =   0.0026042
        k(  380) = (  -0.0833333  -0.2500000   0.3750000), wk =   0.0026042
        k(  381) = (  -0.0833333  -0.2916667   0.1250000), wk =   0.0026042
        k(  382) = (  -0.0833333  -0.2916667   0.2500000), wk =   0.0026042
        k(  383) = (  -0.0833333  -0.2916667   0.3750000), wk =   0.0026042
        k(  384) = (  -0.0833333  -0.3333333   0.1250000), wk =   0.0026042
        k(  385) = (  -0.0833333  -0.3333333   0.2500000), wk =   0.0026042
        k(  386) = (  -0.0833333  -0.3333333   0.3750000), wk =   0.0026042
        k(  387) = (  -0.0833333  -0.3750000   0.1250000), wk =   0.0026042
        k(  388) = (  -0.0833333  -0.3750000   0.2500000), wk =   0.0026042
        k(  389) = (  -0.0833333  -0.3750000   0.3750000), wk =   0.0026042
        k(  390) = (  -0.0833333  -0.4166667   0.1250000), wk =   0.0026042
        k(  391) = (  -0.0833333  -0.4166667   0.2500000), wk =   0.0026042
        k(  392) = (  -0.0833333  -0.4166667   0.3750000), wk =   0.0026042
        k(  393) = (  -0.1250000  -0.1666667   0.1250000), wk =   0.0026042
        k(  394) = (  -0.1250000  -0.1666667   0.2500000), wk =   0.0026042
        k(  395) = (  -0.1250000  -0.1666667   0.3750000), wk =   0.0026042
        k(  396) = (  -0.1250000  -0.2083333   0.1250000), wk =   0.0026042
        k(  397) = (  -0.1250000  -0.2083333   0.2500000), wk =   0.0026042
        k(  398) = (  -0.1250000  -0.2083333   0.3750000), wk =   0.0026042
        k(  399) = (  -0.1250000  -0.2500000   0.1250000), wk =   0.0026042
        k(  400) = (  -0.1250000  -0.2500000   0.2500000), wk =   0.0026042
        k(  401) = (  -0.1250000  -0.2500000   0.3750000), wk =   0.0026042
        k(  402) = (  -0.1250000  -0.2916667   0.1250000), wk =   0.0026042
        k(  403) = (  -0.1250000  -0.2916667   0.2500000), wk =   0.0026042
        k(  404) = (  -0.1250000  -0.2916667   0.3750000), wk =   0.0026042
        k(  405) = (  -0.1250000  -0.3333333   0.1250000), wk =   0.0026042
        k(  406) = (  -0.1250000  -0.3333333   0.2500000), wk =   0.0026042
        k(  407) = (  -0.1250000  -0.3333333   0.3750000), wk =   0.0026042
        k(  408) = (  -0.1250000  -0.3750000   0.1250000), wk =   0.0026042
        k(  409) = (  -0.1250000  -0.3750000   0.2500000), wk =   0.0026042
        k(  410) = (  -0.1250000  -0.3750000   0.3750000), wk =   0.0026042
        k(  411) = (  -0.1250000  -0.4166667   0.1250000), wk =   0.0026042
        k(  412) = (  -0.1250000  -0.4166667   0.2500000), wk =   0.0026042
        k(  413) = (  -0.1250000  -0.4166667   0.3750000), wk =   0.0026042
        k(  414) = (  -0.1666667  -0.2083333   0.1250000), wk =   0.0026042
        k(  415) = (  -0.1666667  -0.2083333   0.2500000), wk =   0.0026042
        k(  416) = (  -0.1666667  -0.2083333   0.3750000), wk =   0.0026042
        k(  417) = (  -0.1666667  -0.2500000   0.1250000), wk =   0.0026042
        k(  418) = (  -0.1666667  -0.2500000   0.2500000), wk =   0.0026042
        k(  419) = (  -0.1666667  -0.2500000   0.3750000), wk =   0.0026042
        k(  420) = (  -0.1666667  -0.2916667   0.1250000), wk =   0.0026042
        k(  421) = (  -0.1666667  -0.2916667   0.2500000), wk =   0.0026042
        k(  422) = (  -0.1666667  -0.2916667   0.3750000), wk =   0.0026042
        k(  423) = (  -0.1666667  -0.3333333   0.1250000), wk =   0.0026042
        k(  424) = (  -0.1666667  -0.3333333   0.2500000), wk =   0.0026042
        k(  425) = (  -0.1666667  -0.3333333   0.3750000), wk =   0.0026042
        k(  426) = (  -0.1666667  -0.3750000   0.1250000), wk =   0.0026042
        k(  427) = (  -0.1666667  -0.3750000   0.2500000), wk =   0.0026042
        k(  428) = (  -0.1666667  -0.3750000   0.3750000), wk =   0.0026042
        k(  429) = (  -0.2083333  -0.2500000   0.1250000), wk =   0.0026042
        k(  430) = (  -0.2083333  -0.2500000   0.2500000), wk =   0.0026042
        k(  431) = (  -0.2083333  -0.2500000   0.3750000), wk =   0.0026042
        k(  432) = (  -0.2083333  -0.2916667   0.1250000), wk =   0.0026042
        k(  433) = (  -0.2083333  -0.2916667   0.2500000), wk =   0.0026042
        k(  434) = (  -0.2083333  -0.2916667   0.3750000), wk =   0.0026042
        k(  435) = (  -0.2083333  -0.3333333   0.1250000), wk =   0.0026042
        k(  436) = (  -0.2083333  -0.3333333   0.2500000), wk =   0.0026042
        k(  437) = (  -0.2083333  -0.3333333   0.3750000), wk =   0.0026042
        k(  438) = (  -0.2083333  -0.3750000   0.1250000), wk =   0.0026042
        k(  439) = (  -0.2083333  -0.3750000   0.2500000), wk =   0.0026042
        k(  440) = (  -0.2083333  -0.3750000   0.3750000), wk =   0.0026042
        k(  441) = (  -0.2500000  -0.2916667   0.1250000), wk =   0.0026042
        k(  442) = (  -0.2500000  -0.2916667   0.2500000), wk =   0.0026042
        k(  443) = (  -0.2500000  -0.2916667   0.3750000), wk =   0.0026042
        k(  444) = (  -0.2500000  -0.3333333   0.1250000), wk =   0.0026042
        k(  445) = (  -0.2500000  -0.3333333   0.2500000), wk =   0.0026042
        k(  446) = (  -0.2500000  -0.3333333   0.3750000), wk =   0.0026042
        k(  447) = (  -0.2916667  -0.3333333   0.1250000), wk =   0.0026042
        k(  448) = (  -0.2916667  -0.3333333   0.2500000), wk =   0.0026042
        k(  449) = (  -0.2916667  -0.3333333   0.3750000), wk =   0.0026042

     Dense  grid:    85601 G-vectors     FFT dimensions: (  40,  40, 135)

     Smooth grid:    30351 G-vectors     FFT dimensions: (  27,  27,  96)

     Dynamical RAM for                 wfc:       1.56 MB

     Dynamical RAM for     wfc (w. buffer):       1.56 MB

     Dynamical RAM for           str. fact:       3.92 MB

     Dynamical RAM for           local pot:       0.00 MB

     Dynamical RAM for          nlocal pot:       2.43 MB

     Dynamical RAM for                qrad:       5.27 MB

     Dynamical RAM for          rho,v,vnew:      17.72 MB

     Dynamical RAM for           G-vectors:       5.13 MB

     Dynamical RAM for          h,s,v(r/c):       0.13 MB

     Dynamical RAM for          <psi|beta>:       0.02 MB

     Dynamical RAM for                 psi:       3.12 MB

     Dynamical RAM for                hpsi:       3.12 MB

     Dynamical RAM for                spsi:       3.12 MB

     Dynamical RAM for      wfcinit/wfcrot:       3.14 MB

     Dynamical RAM for           addusdens:     246.87 MB

     Estimated static dynamical RAM per process >      51.15 MB

     Estimated max dynamical RAM per process >     298.01 MB

     Check: negative core charge=   -0.000006
     Generating pointlists ...
     new r_m :   0.2748 (alat units)  1.4998 (a.u.) for type    1
     new r_m :   0.2748 (alat units)  1.4998 (a.u.) for type    2
     new r_m :   0.4125 (alat units)  2.2512 (a.u.) for type    3

     The potential is recalculated from file :
     ../Na_1x1_c9.9_d1.00/out/pw.save/charge-density

     Starting wfcs are   23 randomized atomic wfcs +    4 random wfcs
     Checking if some PAW data can be deallocated... 

     Band Structure Calculation
     Davidson diagonalization with overlap

     Computing kpt #:     1  of   898
     total cpu time spent up to now is        3.6 secs

     Computing kpt #:     2  of   898
     total cpu time spent up to now is        3.8 secs

     Computing kpt #:     3  of   898
     total cpu time spent up to now is        3.9 secs

     Computing kpt #:     4  of   898
     total cpu time spent up to now is        4.0 secs

     Computing kpt #:     5  of   898
     total cpu time spent up to now is        4.2 secs

     Computing kpt #:     6  of   898
     total cpu time spent up to now is        4.3 secs

     Computing kpt #:     7  of   898
[...]
     1.0809   1.0487   0.2091   0.0000   0.0000   0.0000   0.0000   0.0000
     0.0000   0.0000   0.0000

          k =-0.1667-0.4811 0.0365 (  3795 PWs)   bands (ev):

   -91.2893 -54.6217 -54.5928 -54.4160 -49.8119 -21.9115 -21.7574 -21.6642
   -14.0104 -13.5978  -1.9265  -1.2234  -0.3089   0.2764   0.5226   1.6617
     3.3950   3.4575   3.9008   5.5362   5.7962   5.9975   9.3541   9.8630
    13.0473  13.4581  14.5396

     occupation numbers 
     1.0000   1.0000   1.0000   1.0000   1.0000   1.0000   1.0000   1.0000
     1.0000   1.0000   1.0000   1.0000   1.0000   1.0000   1.0000   1.0000
     1.0761   1.0829   0.2452   0.0000   0.0000   0.0000   0.0000   0.0000
     0.0000   0.0000   0.0000

          k =-0.1667-0.4811 0.0729 (  3785 PWs)   bands (ev):

   -91.2893 -54.6216 -54.5928 -54.4160 -49.8119 -21.9115 -21.7573 -21.6641
   -14.0104 -13.5978  -1.9265  -1.2234  -0.3089   0.2764   0.5228   1.6617
     3.3950   3.4576   3.9001   5.5432   5.7932   5.9918   9.3538   9.8749
    13.0238  13.4569  14.5585

     occupation numbers 
     1.0000   1.0000   1.0000   1.0000   1.0000   1.0000   1.0000   1.0000
     1.0000   1.0000   1.0000   1.0000   1.0000   1.0000   1.0000   1.0000
     1.0761   1.0829   0.2467   0.0000   0.0000   0.0000   0.0000   0.0000
     0.0000   0.0000   0.0000

          k =-0.1667-0.4811 0.1094 (  3779 PWs)   bands (ev):

   -91.2893 -54.6217 -54.5927 -54.4159 -49.8119 -21.9115 -21.7572 -21.6640
   -14.0104 -13.5978  -1.9265  -1.2234  -0.3089   0.2765   0.5229   1.6618
     3.3950   3.4577   3.8995   5.5383   5.8038   5.9855   9.3540   9.8780
    13.0090  13.4706  14.5907

     occupation numbers 
     1.0000   1.0000   1.0000   1.0000   1.0000   1.0000   1.0000   1.0000
     1.0000   1.0000   1.0000   1.0000   1.0000   1.0000   1.0000   1.0000
     1.0761   1.0829   0.2478   0.0000   0.0000   0.0000   0.0000   0.0000
     0.0000   0.0000   0.0000

          k =-0.1667-0.5292 0.0365 (  3792 PWs)   bands (ev):

   -91.2891 -54.6236 -54.5940 -54.4156 -49.8103 -21.9210 -21.7633 -21.6620
   -13.9166 -13.6280  -2.0450  -1.2021  -0.2041   0.1986   0.6118   1.5262
     3.2991   3.4912   3.8687   5.6971   5.8750   6.4951   8.5659  10.5554
    12.3990  13.3236  14.8970

     occupation numbers 
     1.0000   1.0000   1.0000   1.0000   1.0000   1.0000   1.0000   1.0000
     1.0000   1.0000   1.0000   1.0000   1.0000   1.0000   1.0000   1.0000
     1.0451   1.0759   0.3123   0.0000   0.0000   0.0000   0.0000   0.0000
     0.0000   0.0000   0.0000

          k =-0.1667-0.5292 0.0729 (  3795 PWs)   bands (ev):

   -91.2891 -54.6236 -54.5940 -54.4156 -49.8103 -21.9210 -21.7633 -21.6620
   -13.9166 -13.6280  -2.0450  -1.2021  -0.2041   0.1986   0.6118   1.5263
     3.2991   3.4913   3.8684   5.6986   5.8765   6.4902   8.5638  10.5691
    12.4108  13.2978  14.8907

     occupation numbers 
     1.0000   1.0000   1.0000   1.0000   1.0000   1.0000   1.0000   1.0000
     1.0000   1.0000   1.0000   1.0000   1.0000   1.0000   1.0000   1.0000
     1.0451   1.0759   0.3130   0.0000   0.0000   0.0000   0.0000   0.0000
     0.0000   0.0000   0.0000

          k =-0.1667-0.5292 0.1094 (  3786 PWs)   bands (ev):

   -91.2891 -54.6236 -54.5940 -54.4156 -49.8103 -21.9210 -21.7633 -21.6619
   -13.9166 -13.6280  -2.0450  -1.2021  -0.2041   0.1987   0.6119   1.5265
     3.2990   3.4913   3.8682   5.6972   5.8796   6.4879   8.5615  10.5750
    12.4277  13.2824  14.9158

     occupation numbers 
     1.0000   1.0000   1.0000   1.0000   1.0000   1.0000   1.0000   1.0000
     1.0000   1.0000   1.0000   1.0000   1.0000   1.0000   1.0000   1.0000
     1.0451   1.0758   0.3136   0.0000   0.0000   0.0000   0.0000   0.0000
     0.0000   0.0000   0.0000

          k =-0.2083-0.4090 0.0365 (  3779 PWs)   bands (ev):

   -91.2896 -54.6168 -54.5924 -54.4166 -49.8145 -21.8868 -21.7559 -21.6676
   -14.1537 -13.5599  -1.5643  -1.3553  -0.4375   0.2227   0.4138   1.8897
     3.4320   3.5723   3.9646   4.9429   5.6779   5.7875   9.1134  10.6326
    12.6006  14.1629  15.1718

     occupation numbers 
     1.0000   1.0000   1.0000   1.0000   1.0000   1.0000   1.0000   1.0000
     1.0000   1.0000   1.0000   1.0000   1.0000   1.0000   1.0000   1.0000
     1.0826   1.0115   0.1408   0.0000   0.0000   0.0000   0.0000   0.0000
     0.0000   0.0000   0.0000

          k =-0.2083-0.4090 0.0729 (  3780 PWs)   bands (ev):

   -91.2896 -54.6168 -54.5924 -54.4166 -49.8145 -21.8868 -21.7559 -21.6676
   -14.1537 -13.5600  -1.5644  -1.3554  -0.4376   0.2228   0.4140   1.8896
     3.4321   3.5726   3.9618   4.9470   5.6770   5.7851   9.1210  10.6310
    12.5797  14.1874  15.1958

     occupation numbers 
     1.0000   1.0000   1.0000   1.0000   1.0000   1.0000   1.0000   1.0000
     1.0000   1.0000   1.0000   1.0000   1.0000   1.0000   1.0000   1.0000
     1.0827   1.0112   0.1447   0.0000   0.0000   0.0000   0.0000   0.0000
     0.0000   0.0000   0.0000

          k =-0.2083-0.4090 0.1094 (  3786 PWs)   bands (ev):

   -91.2897 -54.6168 -54.5924 -54.4166 -49.8145 -21.8867 -21.7560 -21.6677
   -14.1537 -13.5600  -1.5644  -1.3554  -0.4376   0.2230   0.4143   1.8895
     3.4323   3.5728   3.9593   4.9485   5.6837   5.7783   9.1258  10.6296
    12.5649  14.2087  15.2204

     occupation numbers 
     1.0000   1.0000   1.0000   1.0000   1.0000   1.0000   1.0000   1.0000
     1.0000   1.0000   1.0000   1.0000   1.0000   1.0000   1.0000   1.0000
     1.0827   1.0109   0.1481   0.0000   0.0000   0.0000   0.0000   0.0000
     0.0000   0.0000   0.0000

          k =-0.2083-0.4571 0.0365 (  3782 PWs)   bands (ev):

   -91.2893 -54.6192 -54.5952 -54.4160 -49.8119 -21.8984 -21.7705 -21.6641
   -14.0270 -13.5813  -1.7186  -1.3208  -0.4409   0.2435   0.5037   1.6692
     3.4207   3.4950   3.9608   5.4596   5.7289   5.9204   9.6886   9.8914
    12.7183  14.1255  14.3424

     occupation numbers 
     1.0000   1.0000   1.0000   1.0000   1.0000   1.0000   1.0000   1.0000
     1.0000   1.0000   1.0000   1.0000   1.0000   1.0000   1.0000   1.0000
     1.0813   1.0745   0.1460   0.0000   0.0000   0.0000   0.0000   0.0000
     0.0000   0.0000   0.0000

          k =-0.2083-0.4571 0.0729 (  3781 PWs)   bands (ev):

   -91.2893 -54.6192 -54.5952 -54.4159 -49.8119 -21.8984 -21.7705 -21.6641
   -14.0270 -13.5813  -1.7187  -1.3208  -0.4409   0.2435   0.5039   1.6692
     3.4207   3.4952   3.9597   5.4685   5.7236   5.9151   9.6992   9.8912
    12.6990  14.1348  14.3476

     occupation numbers 
     1.0000   1.0000   1.0000   1.0000   1.0000   1.0000   1.0000   1.0000
     1.0000   1.0000   1.0000   1.0000   1.0000   1.0000   1.0000   1.0000
     1.0813   1.0744   0.1475   0.0000   0.0000   0.0000   0.0000   0.0000
     0.0000   0.0000   0.0000

          k =-0.2083-0.4571 0.1094 (  3786 PWs)   bands (ev):

   -91.2893 -54.6192 -54.5952 -54.4160 -49.8119 -21.8984 -21.7705 -21.6641
   -14.0270 -13.5813  -1.7187  -1.3209  -0.4409   0.2435   0.5041   1.6692
     3.4206   3.4954   3.9588   5.4706   5.7263   5.9094   9.7080   9.8884
    12.6853  14.1250  14.3895

     occupation numbers 
     1.0000   1.0000   1.0000   1.0000   1.0000   1.0000   1.0000   1.0000
     1.0000   1.0000   1.0000   1.0000   1.0000   1.0000   1.0000   1.0000
     1.0813   1.0743   0.1487   0.0000   0.0000   0.0000   0.0000   0.0000
     0.0000   0.0000   0.0000

          k =-0.2083-0.5052 0.0365 (  3794 PWs)   bands (ev):

   -91.2890 -54.6208 -54.5974 -54.4156 -49.8100 -21.9062 -21.7814 -21.6616
   -13.9275 -13.6047  -1.8425  -1.2912  -0.4194   0.2455   0.6014   1.4824
     3.3131   3.5486   3.9327   5.6553   5.7730   6.4049   9.0503  10.4383
    12.6407  13.1962  14.7686

     occupation numbers 
     1.0000   1.0000   1.0000   1.0000   1.0000   1.0000   1.0000   1.0000
     1.0000   1.0000   1.0000   1.0000   1.0000   1.0000   1.0000   1.0000
     1.0498   1.0383   0.1883   0.0000   0.0000   0.0000   0.0000   0.0000
     0.0000   0.0000   0.0000

          k =-0.2083-0.5052 0.0729 (  3790 PWs)   bands (ev):

   -91.2890 -54.6208 -54.5974 -54.4155 -49.8100 -21.9062 -21.7814 -21.6616
   -13.9275 -13.6047  -1.8425  -1.2912  -0.4194   0.2455   0.6015   1.4825
     3.3131   3.5487   3.9322   5.6596   5.7725   6.3988   9.0489  10.4517
    12.6319  13.2042  14.7477

     occupation numbers 
     1.0000   1.0000   1.0000   1.0000   1.0000   1.0000   1.0000   1.0000
     1.0000   1.0000   1.0000   1.0000   1.0000   1.0000   1.0000   1.0000
     1.0498   1.0382   0.1890   0.0000   0.0000   0.0000   0.0000   0.0000
     0.0000   0.0000   0.0000

          k =-0.2083-0.5052 0.1094 (  3787 PWs)   bands (ev):

   -91.2890 -54.6208 -54.5974 -54.4155 -49.8100 -21.9061 -21.7814 -21.6615
   -13.9275 -13.6047  -1.8425  -1.2912  -0.4194   0.2455   0.6016   1.4825
     3.3131   3.5488   3.9319   5.6605   5.7743   6.3947   9.0476  10.4598
    12.6256  13.2152  14.7567

     occupation numbers 
     1.0000   1.0000   1.0000   1.0000   1.0000   1.0000   1.0000   1.0000
     1.0000   1.0000   1.0000   1.0000   1.0000   1.0000   1.0000   1.0000
     1.0498   1.0381   0.1896   0.0000   0.0000   0.0000   0.0000   0.0000
     0.0000   0.0000   0.0000

          k =-0.2083-0.5533 0.0365 (  3797 PWs)   bands (ev):

   -91.2889 -54.6216 -54.5985 -54.4153 -49.8091 -21.9099 -21.7873 -21.6603
   -13.8689 -13.6233  -1.9097  -1.2776  -0.3910   0.2389   0.6628   1.3722
     3.2529   3.5894   3.9044   5.7088   5.7780   6.9723   8.3982  11.1444
    12.1844  12.7433  15.2932

     occupation numbers 
     1.0000   1.0000   1.0000   1.0000   1.0000   1.0000   1.0000   1.0000
     1.0000   1.0000   1.0000   1.0000   1.0000   1.0000   1.0000   1.0000
     1.0308   0.9880   0.2383   0.0000   0.0000   0.0000   0.0000   0.0000
     0.0000   0.0000   0.0000

          k =-0.2083-0.5533 0.0729 (  3788 PWs)   bands (ev):

   -91.2889 -54.6216 -54.5985 -54.4153 -49.8091 -21.9099 -21.7872 -21.6603
   -13.8689 -13.6233  -1.9097  -1.2777  -0.3910   0.2389   0.6628   1.3723
     3.2529   3.5894   3.9042   5.7096   5.7791   6.9688   8.3959  11.1567
    12.1936  12.7400  15.2710

     occupation numbers 
     1.0000   1.0000   1.0000   1.0000   1.0000   1.0000   1.0000   1.0000
     1.0000   1.0000   1.0000   1.0000   1.0000   1.0000   1.0000   1.0000
     1.0308   0.9879   0.2387   0.0000   0.0000   0.0000   0.0000   0.0000
     0.0000   0.0000   0.0000

          k =-0.2083-0.5533 0.1094 (  3792 PWs)   bands (ev):

   -91.2889 -54.6216 -54.5985 -54.4153 -49.8091 -21.9099 -21.7873 -21.6602
   -13.8689 -13.6233  -1.9097  -1.2777  -0.3910   0.2388   0.6628   1.3724
     3.2529   3.5895   3.9040   5.7096   5.7808   6.9657   8.3933  11.1645
    12.2061  12.7378  15.2830

     occupation numbers 
     1.0000   1.0000   1.0000   1.0000   1.0000   1.0000   1.0000   1.0000
     1.0000   1.0000   1.0000   1.0000   1.0000   1.0000   1.0000   1.0000
     1.0308   0.9878   0.2391   0.0000   0.0000   0.0000   0.0000   0.0000
     0.0000   0.0000   0.0000

          k =-0.2500-0.4811 0.0365 (  3786 PWs)   bands (ev):

   -91.2890 -54.6187 -54.5997 -54.4155 -49.8099 -21.8952 -21.7940 -21.6613
   -13.9340 -13.5916  -1.6606  -1.3693  -0.6007   0.2914   0.6009   1.4572
     3.3192   3.5818   3.9698   5.6164   5.7273   6.3555   9.4002  10.3719
    12.2773  13.9048  14.6510

     occupation numbers 
     1.0000   1.0000   1.0000   1.0000   1.0000   1.0000   1.0000   1.0000
     1.0000   1.0000   1.0000   1.0000   1.0000   1.0000   1.0000   1.0000
     1.0519   0.9988   0.1341   0.0000   0.0000   0.0000   0.0000   0.0000
     0.0000   0.0000   0.0000

          k =-0.2500-0.4811 0.0729 (  3783 PWs)   bands (ev):

   -91.2890 -54.6187 -54.5997 -54.4155 -49.8098 -21.8951 -21.7940 -21.6613
   -13.9340 -13.5916  -1.6606  -1.3693  -0.6007   0.2913   0.6011   1.4572
     3.3192   3.5820   3.9693   5.6221   5.7255   6.3494   9.3993  10.3838
    12.2712  13.9111  14.6367

     occupation numbers 
     1.0000   1.0000   1.0000   1.0000   1.0000   1.0000   1.0000   1.0000
     1.0000   1.0000   1.0000   1.0000   1.0000   1.0000   1.0000   1.0000
     1.0519   0.9986   0.1347   0.0000   0.0000   0.0000   0.0000   0.0000
     0.0000   0.0000   0.0000

          k =-0.2500-0.4811 0.1094 (  3792 PWs)   bands (ev):

   -91.2890 -54.6187 -54.5997 -54.4155 -49.8099 -21.8952 -21.7941 -21.6614
   -13.9341 -13.5916  -1.6606  -1.3693  -0.6007   0.2913   0.6012   1.4572
     3.3192   3.5820   3.9688   5.6266   5.7246   6.3438   9.3984  10.3937
    12.2655  13.9141  14.6487

     occupation numbers 
     1.0000   1.0000   1.0000   1.0000   1.0000   1.0000   1.0000   1.0000
     1.0000   1.0000   1.0000   1.0000   1.0000   1.0000   1.0000   1.0000
     1.0519   0.9985   0.1353   0.0000   0.0000   0.0000   0.0000   0.0000
     0.0000   0.0000   0.0000

          k =-0.2500-0.5292 0.0365 (  3790 PWs)   bands (ev):

   -91.2888 -54.6187 -54.6022 -54.4152 -49.8086 -21.8948 -21.8071 -21.6597
   -13.8671 -13.6058  -1.7129  -1.3437  -0.6604   0.3522   0.6802   1.2820
     3.2444   3.6518   3.9376   5.6671   5.7251   6.9690   8.7571  11.0853
    12.0598  12.9981  14.7115

     occupation numbers 
     1.0000   1.0000   1.0000   1.0000   1.0000   1.0000   1.0000   1.0000
     1.0000   1.0000   1.0000   1.0000   1.0000   1.0000   1.0000   1.0000
     1.0285   0.8720   0.1803   0.0000   0.0000   0.0000   0.0000   0.0000
     0.0000   0.0000   0.0000

          k =-0.2500-0.5292 0.0729 (  3795 PWs)   bands (ev):

   -91.2888 -54.6188 -54.6023 -54.4152 -49.8086 -21.8948 -21.8072 -21.6597
   -13.8671 -13.6058  -1.7129  -1.3437  -0.6604   0.3522   0.6802   1.2820
     3.2444   3.6519   3.9374   5.6693   5.7250   6.9646   8.7553  11.0979
    12.0571  13.0072  14.7151

     occupation numbers 
     1.0000   1.0000   1.0000   1.0000   1.0000   1.0000   1.0000   1.0000
     1.0000   1.0000   1.0000   1.0000   1.0000   1.0000   1.0000   1.0000
     1.0285   0.8719   0.1806   0.0000   0.0000   0.0000   0.0000   0.0000
     0.0000   0.0000   0.0000

          k =-0.2500-0.5292 0.1094 (  3789 PWs)   bands (ev):

   -91.2888 -54.6187 -54.6022 -54.4152 -49.8086 -21.8948 -21.8071 -21.6597
   -13.8671 -13.6058  -1.7129  -1.3437  -0.6603   0.3522   0.6802   1.2820
     3.2444   3.6519   3.9372   5.6709   5.7254   6.9609   8.7536  11.1078
    12.0552  13.0183  14.7249

     occupation numbers 
     1.0000   1.0000   1.0000   1.0000   1.0000   1.0000   1.0000   1.0000
     1.0000   1.0000   1.0000   1.0000   1.0000   1.0000   1.0000   1.0000
     1.0285   0.8717   0.1810   0.0000   0.0000   0.0000   0.0000   0.0000
     0.0000   0.0000   0.0000

          k =-0.2917-0.5533 0.0365 (  3786 PWs)   bands (ev):

   -91.2887 -54.6156 -54.6071 -54.4150 -49.8077 -21.8780 -21.8328 -21.6585
   -13.8322 -13.6029  -1.5621  -1.3633  -0.9172   0.4912   0.7591   1.0751
     3.1996   3.7502   3.9125   5.6618   5.6932   7.5339   8.4396  11.5139
    11.8578  12.8564  13.8686

     occupation numbers 
     1.0000   1.0000   1.0000   1.0000   1.0000   1.0000   1.0000   1.0000
     1.0000   1.0000   1.0000   1.0000   1.0000   1.0000   1.0000   1.0000
     1.0182   0.6199   0.2232   0.0000   0.0000   0.0000   0.0000   0.0000
     0.0000   0.0000   0.0000

          k =-0.2917-0.5533 0.0729 (  3784 PWs)   bands (ev):

   -91.2887 -54.6156 -54.6071 -54.4150 -49.8077 -21.8780 -21.8328 -21.6584
   -13.8322 -13.6029  -1.5621  -1.3633  -0.9172   0.4912   0.7591   1.0751
     3.1996   3.7502   3.9124   5.6629   5.6936   7.5307   8.4375  11.5147
    11.8674  12.8656  13.8771

     occupation numbers 
     1.0000   1.0000   1.0000   1.0000   1.0000   1.0000   1.0000   1.0000
     1.0000   1.0000   1.0000   1.0000   1.0000   1.0000   1.0000   1.0000
     1.0182   0.6199   0.2234   0.0000   0.0000   0.0000   0.0000   0.0000
     0.0000   0.0000   0.0000

          k =-0.2917-0.5533 0.1094 (  3783 PWs)   bands (ev):

   -91.2887 -54.6156 -54.6071 -54.4150 -49.8077 -21.8779 -21.8329 -21.6584
   -13.8322 -13.6029  -1.5620  -1.3633  -0.9172   0.4912   0.7591   1.0751
     3.1997   3.7502   3.9123   5.6640   5.6940   7.5278   8.4352  11.5152
    11.8765  12.8758  13.8857

     occupation numbers 
     1.0000   1.0000   1.0000   1.0000   1.0000   1.0000   1.0000   1.0000
     1.0000   1.0000   1.0000   1.0000   1.0000   1.0000   1.0000   1.0000
     1.0182   0.6199   0.2236   0.0000   0.0000   0.0000   0.0000   0.0000
     0.0000   0.0000   0.0000

     the Fermi energy is     3.8316 ev
     (compare with:     3.8564 eV, computed in scf)

     Writing all to output data dir ../Na_1x1_c9.9_d1.00/out/pw.save/ :
     XML data file, pseudopotentials, collected wavefunctions
 
     init_run     :     13.03s CPU      2.90s WALL (       1 calls)
     electrons    :    206.75s CPU    206.67s WALL (       1 calls)

     Called by init_run:
     wfcinit      :      0.00s CPU      0.00s WALL (       1 calls)
     wfcinit:atom :      0.70s CPU      0.74s WALL (     898 calls)
     wfcinit:wfcr :      2.27s CPU      2.29s WALL (     898 calls)
     potinit      :     12.19s CPU      2.03s WALL (       1 calls)
     hinit0       :      0.46s CPU      0.44s WALL (       1 calls)

     Called by electrons:
     c_bands      :    206.73s CPU    206.64s WALL (       1 calls)
     v_of_rho     :      0.02s CPU      0.07s WALL (       1 calls)
     v_h          :      0.01s CPU      0.00s WALL (       1 calls)
     v_xc         :      0.01s CPU      0.07s WALL (       1 calls)
     newd         :      0.05s CPU      0.07s WALL (       1 calls)
                                        0.07s GPU  (       1 calls)
     PAW_pot      :      4.69s CPU      0.57s WALL (       1 calls)

     Called by c_bands:
     init_us_2    :      0.28s CPU      0.37s WALL (     898 calls)
     cegterg      :    202.48s CPU    202.20s WALL (    3788 calls)

     Called by sum_band:

     Called by *egterg:
     cdiaghg      :     68.94s CPU     71.01s WALL (   68932 calls)
                                       70.15s GPU  (   68932 calls)
     cegterg:over :     15.49s CPU     16.12s WALL (   68034 calls)
     cegterg:upda :     18.40s CPU     18.57s WALL (   68034 calls)
     cegterg:last :      3.80s CPU      3.73s WALL (   38413 calls)
     h_psi        :     69.51s CPU     68.66s WALL (   72720 calls)
                                       67.75s GPU  (   72720 calls)
     s_psi        :     11.21s CPU     11.80s WALL (   72720 calls)
     g_psi        :      0.36s CPU      1.83s WALL (   68034 calls)
                                        0.95s GPU  (   68034 calls)

     Called by h_psi:
     h_psi:calbec :      1.91s CPU      3.63s WALL (   72720 calls)
                                        2.70s GPU  (   72720 calls)
     vloc_psi     :     49.49s CPU     47.74s WALL (   72720 calls)
                                       46.81s GPU  (   72720 calls)
     add_vuspsi   :     10.10s CPU     12.06s WALL (   72720 calls)
                                       11.12s GPU  (   72720 calls)

     General routines
     calbec       :      1.73s CPU      1.86s WALL (   72720 calls)
     fft          :      3.24s CPU      0.59s WALL (      23 calls)
                                        0.00s GPU  (      21 calls)
     ffts         :      4.22s CPU      0.80s WALL (       2 calls)
     fftw         :      4.03s CPU     14.59s WALL (  217988 calls)
                                       12.07s GPU  (  217988 calls)
     interpolate  :      7.48s CPU      1.39s WALL (       2 calls)
     davcio       :      1.67s CPU      0.37s WALL (    1796 calls)
 
     Parallel routines

     PAW routines
     PAW_pot      :      4.69s CPU      0.57s WALL (       1 calls)
 
     PWSCF        :   3m47.97s CPU   3m31.05s WALL

 
   This run was terminated on:   3:35:12  12Jul2026            

=------------------------------------------------------------------------------=
   JOB DONE.
=------------------------------------------------------------------------------=
Warning: ieee_divide_by_zero is signaling
Warning: ieee_inexact is signaling
FORTRAN STOP
