
     Program PWSCF v.7.3.1 starts on 12Jul2026 at  4: 9: 6 

     This program is part of the open-source Quantum ESPRESSO suite
     for quantum simulation of materials; please cite
         "P. Giannozzi et al., J. Phys.:Condens. Matter 21 395502 (2009);
         "P. Giannozzi et al., J. Phys.:Condens. Matter 29 465901 (2017);
         "P. Giannozzi et al., J. Chem. Phys. 152 154105 (2020);
          URL http://www.quantum-espresso.org", 
     in publications or presentations arising from this work. More details at
     http://www.quantum-espresso.org/quote

     Parallel version (MPI & OpenMP), running on      14 processor cores
     Number of MPI processes:                 1
     Threads/MPI process:                    14

     MPI processes distributed on     1 nodes
     822163 MiB available memory on the printing compute node when the environment starts
 
     Reading input from pw.in

     Current dimensions of program PWSCF are:
     Max number of different atomic species (ntypx) = 10
     Max number of k-points (npk) =  40000
     Max angular momentum in pseudopotentials (lmaxx) =  4
     file Co.pbe-spn-kjpaw_psl.0.3.1.UPF: wavefunction(s)  3P 3D renormalized
     file O.pbe-n-kjpaw_psl.1.0.0.UPF: wavefunction(s)  2S 2P renormalized
     file Na.pbe-spn-kjpaw_psl.1.0.0.UPF: wavefunction(s)  2P renormalized

     Atomic positions and unit cell read from directory:
     ../Na_s3_c9.9_d0.75/out/pw.save/
 
 
     Subspace diagonalization in iterative solution of the eigenvalue problem:
     a serial algorithm will be used

 
     G-vector sticks info
     --------------------
     sticks:   dense  smooth     PW     G-vecs:    dense   smooth      PW
     Sum        2941    1483    421               256907    90927   13645
 
     Using Slab Decomposition
 


     bravais-lattice index     =            4
     lattice parameter (alat)  =       9.4527  a.u.
     unit-cell volume          =    1447.6983 (a.u.)^3
     number of atoms/cell      =           10
     number of atomic types    =            3
     number of electrons       =        96.00
     number of Kohn-Sham states=           64
     kinetic-energy cutoff     =      60.0000  Ry
     charge density cutoff     =     480.0000  Ry
     Exchange-correlation= SLA  PW   PBX  PBC
                           (   1   4   3   4   0   0   0)

     GPU acceleration is ACTIVE.  1 visible GPUs per MPI rank
     GPU-aware MPI enabled


     GPU used by master process:

        Device Number: 0
        Device name: NVIDIA A100-SXM4-80GB
        Compute capability : 80
        Ratio of single to double precision performance  : 2
        Memory Clock Rate (KHz): 1593000
        Memory Bus Width (bits): 5120
        Peak Memory Bandwidth (GB/s): ******

     celldm(1)=   9.452718  celldm(2)=   0.000000  celldm(3)=   1.979144
     celldm(4)=   0.000000  celldm(5)=   0.000000  celldm(6)=   0.000000

     crystal axes: (cart. coord. in units of alat)
               a(1) = (   1.000000   0.000000   0.000000 )  
               a(2) = (  -0.500000   0.866025   0.000000 )  
               a(3) = (   0.000000   0.000000   1.979144 )  

     reciprocal axes: (cart. coord. in units 2 pi/alat)
               b(1) = (  1.000000  0.577350 -0.000000 )  
               b(2) = (  0.000000  1.154701  0.000000 )  
               b(3) = (  0.000000 -0.000000  0.505269 )  


     PseudoPot. # 1 for Co read from file:
     ../../pseudo/Co.pbe-spn-kjpaw_psl.0.3.1.UPF
     MD5 check sum: 3c0a43779828c046024e4f3be63f8e67
     Pseudo is Projector augmented-wave + core cor, Zval = 17.0
     Generated using &quot;atomic&quot; code by A. Dal Corso  v.6.2.2
     Shape of augmentation charge: PSQ
     Using radial grid of 1193 points,  6 beta functions with: 
                l(1) =   0
                l(2) =   0
                l(3) =   1
                l(4) =   1
                l(5) =   2
                l(6) =   2
     Q(r) pseudized with 0 coefficients 


     PseudoPot. # 2 for O  read from file:
     ../../pseudo/O.pbe-n-kjpaw_psl.1.0.0.UPF
     MD5 check sum: e99d9cef9b487d1ca56f5b95ecd0fd7a
     Pseudo is Projector augmented-wave + core cor, Zval =  6.0
     Generated using &quot;atomic&quot; code by A. Dal Corso  v.6.3
     Shape of augmentation charge: PSQ
     Using radial grid of 1095 points,  4 beta functions with: 
                l(1) =   0
                l(2) =   0
                l(3) =   1
                l(4) =   1
     Q(r) pseudized with 0 coefficients 


     PseudoPot. # 3 for Na read from file:
     ../../pseudo/Na.pbe-spn-kjpaw_psl.1.0.0.UPF
     MD5 check sum: 05b4deb74e3932c23ab016979dc8b5d4
     Pseudo is Projector augmented-wave + core cor, Zval =  9.0
     Generated using &quot;atomic&quot; code by A. Dal Corso  v.6.3
     Shape of augmentation charge: PSQ
     Using radial grid of 1121 points,  4 beta functions with: 
                l(1) =   0
                l(2) =   0
                l(3) =   1
                l(4) =   1
     Q(r) pseudized with 0 coefficients 


     atomic species   valence    mass     pseudopotential
     Co               17.00    58.93300     Co( 1.00)
     O                 6.00    15.99900     O ( 1.00)
     Na                9.00    22.98977     Na( 1.00)

     Starting magnetic structure 
     atomic species   magnetization
     Co              0.300
     O               0.000
     Na              0.000

      6 Sym. Ops. (no inversion) found


                                    s                        frac. trans.

      isym =  1     identity                                     

 cryst.   s( 1) = (     1          0          0      )
                  (     0          1          0      )
                  (     0          0          1      )

 cart.    s( 1) = (  1.0000000  0.0000000  0.0000000 )
                  (  0.0000000  1.0000000  0.0000000 )
                  (  0.0000000  0.0000000  1.0000000 )


      isym =  2     120 deg rotation - cryst. axis [0,0,1]       

 cryst.   s( 2) = (     0          1          0      )
                  (    -1         -1          0      )
                  (     0          0          1      )

 cart.    s( 2) = ( -0.5000000 -0.8660254  0.0000000 )
                  (  0.8660254 -0.5000000  0.0000000 )
                  (  0.0000000  0.0000000  1.0000000 )


      isym =  3     120 deg rotation - cryst. axis [0,0,-1]      

 cryst.   s( 3) = (    -1         -1          0      )
                  (     1          0          0      )
                  (     0          0          1      )

 cart.    s( 3) = ( -0.5000000  0.8660254  0.0000000 )
                  ( -0.8660254 -0.5000000  0.0000000 )
                  (  0.0000000  0.0000000  1.0000000 )


      isym =  4     inv. 180 deg rotation - cart. axis [0,1,0]   

 cryst.   s( 4) = (     1          0          0      )
                  (    -1         -1          0      )
                  (     0          0          1      )

 cart.    s( 4) = (  1.0000000  0.0000000  0.0000000 )
                  (  0.0000000 -1.0000000  0.0000000 )
                  (  0.0000000  0.0000000  1.0000000 )


      isym =  5     inv. 180 deg rotation - cryst. axis [1,-1,0] 

 cryst.   s( 5) = (     0          1          0      )
                  (     1          0          0      )
                  (     0          0          1      )

 cart.    s( 5) = ( -0.5000000  0.8660254  0.0000000 )
                  (  0.8660254  0.5000000  0.0000000 )
                  (  0.0000000  0.0000000  1.0000000 )


      isym =  6     inv. 180 deg rotation - cryst. axis [2,1,0]  

 cryst.   s( 6) = (    -1         -1          0      )
                  (     0          1          0      )
                  (     0          0          1      )

 cart.    s( 6) = ( -0.5000000 -0.8660254  0.0000000 )
                  ( -0.8660254  0.5000000  0.0000000 )
                  (  0.0000000  0.0000000  1.0000000 )


     point group C_3v (3m)  
     there are  3 classes
     the character table:

       E     2C3   3s_v 
A_1    1.00  1.00  1.00
A_2    1.00  1.00 -1.00
E      2.00 -1.00  0.00

     the symmetry operations in each class and the name of the first element:

     E        1
          identity                                               
     2C3      2    3
          120 deg rotation - cryst. axis [0,0,1]                 
     3s_v     4    6    5
          inv. 180 deg rotation - cart. axis [0,1,0]             

   Cartesian axes

     site n.     atom                  positions (alat units)
         1        Co     tau(   1) = (   0.0000000   0.0000000   0.0000000  )
         2        Co     tau(   2) = (  -0.0000000   0.5773503   0.0000000  )
         3        Co     tau(   3) = (   0.5000000   0.2886751   0.0000000  )
         4        O      tau(   4) = (   0.1666667   0.2886751   0.1919170  )
         5        O      tau(   5) = (   0.6666667   0.0000000   0.1919170  )
         6        O      tau(   6) = (  -0.3333333   0.5773503   0.1919170  )
         7        O      tau(   7) = (   0.3333333   0.0000000   1.7872269  )
         8        O      tau(   8) = (   0.3333333   0.5773503   1.7872269  )
         9        O      tau(   9) = (  -0.1666667   0.2886751   1.7872269  )
        10        Na     tau(  10) = (   0.0000000   0.0000000   1.1395071  )

   Crystallographic axes

     site n.     atom                  positions (cryst. coord.)
         1        Co     tau(   1) = (  0.0000000  0.0000000  0.0000000  )
         2        Co     tau(   2) = (  0.3333333  0.6666667  0.0000000  )
         3        Co     tau(   3) = (  0.6666667  0.3333333  0.0000000  )
         4        O      tau(   4) = (  0.3333333  0.3333333  0.0969697  )
         5        O      tau(   5) = (  0.6666667  0.0000000  0.0969697  )
         6        O      tau(   6) = (  0.0000000  0.6666667  0.0969697  )
         7        O      tau(   7) = (  0.3333333  0.0000000  0.9030303  )
         8        O      tau(   8) = (  0.6666667  0.6666667  0.9030303  )
         9        O      tau(   9) = ( -0.0000000  0.3333333  0.9030303  )
        10        Na     tau(  10) = (  0.0000000  0.0000000  0.5757576  )

     number of k points=   449  Marzari-Vanderbilt smearing, width (Ry)=  0.0200
                       cart. coord. in units 2pi/alat
        k(    1) = (   0.0000000   0.0000000   0.0000000), wk =   0.0002170
        k(    2) = (   0.0000000   0.0000000   0.0631586), wk =   0.0004340
        k(    3) = (   0.0000000   0.0000000   0.1263172), wk =   0.0004340
        k(    4) = (   0.0000000   0.0000000   0.1894759), wk =   0.0004340
        k(    5) = (   0.0000000   0.0000000  -0.2526345), wk =   0.0002170
        k(    6) = (   0.0000000   0.0481125   0.0000000), wk =   0.0013021
        k(    7) = (   0.0000000   0.0481125   0.0631586), wk =   0.0026042
        k(    8) = (   0.0000000   0.0481125   0.1263172), wk =   0.0026042
        k(    9) = (   0.0000000   0.0481125   0.1894759), wk =   0.0026042
        k(   10) = (   0.0000000   0.0481125  -0.2526345), wk =   0.0013021
        k(   11) = (   0.0000000   0.0962250   0.0000000), wk =   0.0013021
        k(   12) = (   0.0000000   0.0962250   0.0631586), wk =   0.0026042
        k(   13) = (   0.0000000   0.0962250   0.1263172), wk =   0.0026042
        k(   14) = (   0.0000000   0.0962250   0.1894759), wk =   0.0026042
        k(   15) = (   0.0000000   0.0962250  -0.2526345), wk =   0.0013021
        k(   16) = (   0.0000000   0.1443376   0.0000000), wk =   0.0013021
        k(   17) = (   0.0000000   0.1443376   0.0631586), wk =   0.0026042
        k(   18) = (   0.0000000   0.1443376   0.1263172), wk =   0.0026042
        k(   19) = (   0.0000000   0.1443376   0.1894759), wk =   0.0026042
        k(   20) = (   0.0000000   0.1443376  -0.2526345), wk =   0.0013021
        k(   21) = (   0.0000000   0.1924501   0.0000000), wk =   0.0013021
        k(   22) = (   0.0000000   0.1924501   0.0631586), wk =   0.0026042
        k(   23) = (   0.0000000   0.1924501   0.1263172), wk =   0.0026042
        k(   24) = (   0.0000000   0.1924501   0.1894759), wk =   0.0026042
        k(   25) = (   0.0000000   0.1924501  -0.2526345), wk =   0.0013021
        k(   26) = (   0.0000000   0.2405626   0.0000000), wk =   0.0013021
        k(   27) = (   0.0000000   0.2405626   0.0631586), wk =   0.0026042
        k(   28) = (   0.0000000   0.2405626   0.1263172), wk =   0.0026042
        k(   29) = (   0.0000000   0.2405626   0.1894759), wk =   0.0026042
        k(   30) = (   0.0000000   0.2405626  -0.2526345), wk =   0.0013021
        k(   31) = (   0.0000000   0.2886751   0.0000000), wk =   0.0013021
        k(   32) = (   0.0000000   0.2886751   0.0631586), wk =   0.0026042
        k(   33) = (   0.0000000   0.2886751   0.1263172), wk =   0.0026042
        k(   34) = (   0.0000000   0.2886751   0.1894759), wk =   0.0026042
        k(   35) = (   0.0000000   0.2886751  -0.2526345), wk =   0.0013021
        k(   36) = (   0.0000000   0.3367877   0.0000000), wk =   0.0013021
        k(   37) = (   0.0000000   0.3367877   0.0631586), wk =   0.0026042
        k(   38) = (   0.0000000   0.3367877   0.1263172), wk =   0.0026042
        k(   39) = (   0.0000000   0.3367877   0.1894759), wk =   0.0026042
        k(   40) = (   0.0000000   0.3367877  -0.2526345), wk =   0.0013021
        k(   41) = (   0.0000000   0.3849002   0.0000000), wk =   0.0013021
        k(   42) = (   0.0000000   0.3849002   0.0631586), wk =   0.0026042
        k(   43) = (   0.0000000   0.3849002   0.1263172), wk =   0.0026042
        k(   44) = (   0.0000000   0.3849002   0.1894759), wk =   0.0026042
        k(   45) = (   0.0000000   0.3849002  -0.2526345), wk =   0.0013021
        k(   46) = (   0.0000000   0.4330127   0.0000000), wk =   0.0013021
        k(   47) = (   0.0000000   0.4330127   0.0631586), wk =   0.0026042
        k(   48) = (   0.0000000   0.4330127   0.1263172), wk =   0.0026042
        k(   49) = (   0.0000000   0.4330127   0.1894759), wk =   0.0026042
        k(   50) = (   0.0000000   0.4330127  -0.2526345), wk =   0.0013021
        k(   51) = (   0.0000000   0.4811252   0.0000000), wk =   0.0013021
        k(   52) = (   0.0000000   0.4811252   0.0631586), wk =   0.0026042
        k(   53) = (   0.0000000   0.4811252   0.1263172), wk =   0.0026042
        k(   54) = (   0.0000000   0.4811252   0.1894759), wk =   0.0026042
        k(   55) = (   0.0000000   0.4811252  -0.2526345), wk =   0.0013021
        k(   56) = (   0.0000000   0.5292377   0.0000000), wk =   0.0013021
        k(   57) = (   0.0000000   0.5292377   0.0631586), wk =   0.0026042
        k(   58) = (   0.0000000   0.5292377   0.1263172), wk =   0.0026042
        k(   59) = (   0.0000000   0.5292377   0.1894759), wk =   0.0026042
        k(   60) = (   0.0000000   0.5292377  -0.2526345), wk =   0.0013021
        k(   61) = (   0.0000000  -0.5773503   0.0000000), wk =   0.0006510
        k(   62) = (   0.0000000  -0.5773503   0.0631586), wk =   0.0013021
        k(   63) = (   0.0000000  -0.5773503   0.1263172), wk =   0.0013021
        k(   64) = (   0.0000000  -0.5773503   0.1894759), wk =   0.0013021
        k(   65) = (   0.0000000  -0.5773503  -0.2526345), wk =   0.0006510
        k(   66) = (   0.0416667   0.0721688   0.0000000), wk =   0.0013021
        k(   67) = (   0.0416667   0.0721688   0.0631586), wk =   0.0013021
        k(   68) = (   0.0416667   0.0721688   0.1263172), wk =   0.0013021
        k(   69) = (   0.0416667   0.0721688   0.1894759), wk =   0.0013021
        k(   70) = (   0.0416667   0.0721688  -0.2526345), wk =   0.0013021
        k(   71) = (   0.0416667   0.1202813   0.0000000), wk =   0.0026042
        k(   72) = (   0.0416667   0.1202813   0.0631586), wk =   0.0026042
        k(   73) = (   0.0416667   0.1202813   0.1263172), wk =   0.0026042
        k(   74) = (   0.0416667   0.1202813   0.1894759), wk =   0.0026042
        k(   75) = (   0.0416667   0.1202813  -0.2526345), wk =   0.0026042
        k(   76) = (   0.0416667   0.1683938   0.0000000), wk =   0.0026042
        k(   77) = (   0.0416667   0.1683938   0.0631586), wk =   0.0026042
        k(   78) = (   0.0416667   0.1683938   0.1263172), wk =   0.0026042
        k(   79) = (   0.0416667   0.1683938   0.1894759), wk =   0.0026042
        k(   80) = (   0.0416667   0.1683938  -0.2526345), wk =   0.0026042
        k(   81) = (   0.0416667   0.2165064   0.0000000), wk =   0.0026042
        k(   82) = (   0.0416667   0.2165064   0.0631586), wk =   0.0026042
        k(   83) = (   0.0416667   0.2165064   0.1263172), wk =   0.0026042
        k(   84) = (   0.0416667   0.2165064   0.1894759), wk =   0.0026042
        k(   85) = (   0.0416667   0.2165064  -0.2526345), wk =   0.0026042
        k(   86) = (   0.0416667   0.2646189   0.0000000), wk =   0.0026042
        k(   87) = (   0.0416667   0.2646189   0.0631586), wk =   0.0026042
        k(   88) = (   0.0416667   0.2646189   0.1263172), wk =   0.0026042
        k(   89) = (   0.0416667   0.2646189   0.1894759), wk =   0.0026042
        k(   90) = (   0.0416667   0.2646189  -0.2526345), wk =   0.0026042
        k(   91) = (   0.0416667   0.3127314   0.0000000), wk =   0.0026042
        k(   92) = (   0.0416667   0.3127314   0.0631586), wk =   0.0026042
        k(   93) = (   0.0416667   0.3127314   0.1263172), wk =   0.0026042
        k(   94) = (   0.0416667   0.3127314   0.1894759), wk =   0.0026042
        k(   95) = (   0.0416667   0.3127314  -0.2526345), wk =   0.0026042
        k(   96) = (   0.0416667   0.3608439   0.0000000), wk =   0.0026042
        k(   97) = (   0.0416667   0.3608439   0.0631586), wk =   0.0026042
        k(   98) = (   0.0416667   0.3608439   0.1263172), wk =   0.0026042
        k(   99) = (   0.0416667   0.3608439   0.1894759), wk =   0.0026042
        k(  100) = (   0.0416667   0.3608439  -0.2526345), wk =   0.0026042
        k(  101) = (   0.0416667   0.4089564   0.0000000), wk =   0.0026042
        k(  102) = (   0.0416667   0.4089564   0.0631586), wk =   0.0026042
        k(  103) = (   0.0416667   0.4089564   0.1263172), wk =   0.0026042
        k(  104) = (   0.0416667   0.4089564   0.1894759), wk =   0.0026042
        k(  105) = (   0.0416667   0.4089564  -0.2526345), wk =   0.0026042
        k(  106) = (   0.0416667   0.4570690   0.0000000), wk =   0.0026042
        k(  107) = (   0.0416667   0.4570690   0.0631586), wk =   0.0026042
        k(  108) = (   0.0416667   0.4570690   0.1263172), wk =   0.0026042
        k(  109) = (   0.0416667   0.4570690   0.1894759), wk =   0.0026042
        k(  110) = (   0.0416667   0.4570690  -0.2526345), wk =   0.0026042
        k(  111) = (   0.0416667   0.5051815   0.0000000), wk =   0.0026042
        k(  112) = (   0.0416667   0.5051815   0.0631586), wk =   0.0026042
        k(  113) = (   0.0416667   0.5051815   0.1263172), wk =   0.0026042
        k(  114) = (   0.0416667   0.5051815   0.1894759), wk =   0.0026042
        k(  115) = (   0.0416667   0.5051815  -0.2526345), wk =   0.0026042
        k(  116) = (   0.0416667   0.5532940   0.0000000), wk =   0.0026042
        k(  117) = (   0.0416667   0.5532940   0.0631586), wk =   0.0026042
        k(  118) = (   0.0416667   0.5532940   0.1263172), wk =   0.0026042
        k(  119) = (   0.0416667   0.5532940   0.1894759), wk =   0.0026042
        k(  120) = (   0.0416667   0.5532940  -0.2526345), wk =   0.0026042
        k(  121) = (   0.0833333   0.1443376   0.0000000), wk =   0.0013021
        k(  122) = (   0.0833333   0.1443376   0.0631586), wk =   0.0013021
        k(  123) = (   0.0833333   0.1443376   0.1263172), wk =   0.0013021
        k(  124) = (   0.0833333   0.1443376   0.1894759), wk =   0.0013021
        k(  125) = (   0.0833333   0.1443376  -0.2526345), wk =   0.0013021
        k(  126) = (   0.0833333   0.1924501   0.0000000), wk =   0.0026042
        k(  127) = (   0.0833333   0.1924501   0.0631586), wk =   0.0026042
        k(  128) = (   0.0833333   0.1924501   0.1263172), wk =   0.0026042
        k(  129) = (   0.0833333   0.1924501   0.1894759), wk =   0.0026042
        k(  130) = (   0.0833333   0.1924501  -0.2526345), wk =   0.0026042
        k(  131) = (   0.0833333   0.2405626   0.0000000), wk =   0.0026042
        k(  132) = (   0.0833333   0.2405626   0.0631586), wk =   0.0026042
        k(  133) = (   0.0833333   0.2405626   0.1263172), wk =   0.0026042
        k(  134) = (   0.0833333   0.2405626   0.1894759), wk =   0.0026042
        k(  135) = (   0.0833333   0.2405626  -0.2526345), wk =   0.0026042
        k(  136) = (   0.0833333   0.2886751   0.0000000), wk =   0.0026042
        k(  137) = (   0.0833333   0.2886751   0.0631586), wk =   0.0026042
        k(  138) = (   0.0833333   0.2886751   0.1263172), wk =   0.0026042
        k(  139) = (   0.0833333   0.2886751   0.1894759), wk =   0.0026042
        k(  140) = (   0.0833333   0.2886751  -0.2526345), wk =   0.0026042
        k(  141) = (   0.0833333   0.3367877   0.0000000), wk =   0.0026042
        k(  142) = (   0.0833333   0.3367877   0.0631586), wk =   0.0026042
        k(  143) = (   0.0833333   0.3367877   0.1263172), wk =   0.0026042
        k(  144) = (   0.0833333   0.3367877   0.1894759), wk =   0.0026042
        k(  145) = (   0.0833333   0.3367877  -0.2526345), wk =   0.0026042
        k(  146) = (   0.0833333   0.3849002   0.0000000), wk =   0.0026042
        k(  147) = (   0.0833333   0.3849002   0.0631586), wk =   0.0026042
        k(  148) = (   0.0833333   0.3849002   0.1263172), wk =   0.0026042
        k(  149) = (   0.0833333   0.3849002   0.1894759), wk =   0.0026042
        k(  150) = (   0.0833333   0.3849002  -0.2526345), wk =   0.0026042
        k(  151) = (   0.0833333   0.4330127   0.0000000), wk =   0.0026042
        k(  152) = (   0.0833333   0.4330127   0.0631586), wk =   0.0026042
        k(  153) = (   0.0833333   0.4330127   0.1263172), wk =   0.0026042
        k(  154) = (   0.0833333   0.4330127   0.1894759), wk =   0.0026042
        k(  155) = (   0.0833333   0.4330127  -0.2526345), wk =   0.0026042
        k(  156) = (   0.0833333   0.4811252   0.0000000), wk =   0.0026042
        k(  157) = (   0.0833333   0.4811252   0.0631586), wk =   0.0026042
        k(  158) = (   0.0833333   0.4811252   0.1263172), wk =   0.0026042
        k(  159) = (   0.0833333   0.4811252   0.1894759), wk =   0.0026042
        k(  160) = (   0.0833333   0.4811252  -0.2526345), wk =   0.0026042
        k(  161) = (   0.0833333   0.5292377   0.0000000), wk =   0.0026042
        k(  162) = (   0.0833333   0.5292377   0.0631586), wk =   0.0026042
        k(  163) = (   0.0833333   0.5292377   0.1263172), wk =   0.0026042
        k(  164) = (   0.0833333   0.5292377   0.1894759), wk =   0.0026042
        k(  165) = (   0.0833333   0.5292377  -0.2526345), wk =   0.0026042
        k(  166) = (   0.0833333   0.5773503   0.0000000), wk =   0.0013021
        k(  167) = (   0.0833333   0.5773503   0.0631586), wk =   0.0013021
        k(  168) = (   0.0833333   0.5773503   0.1263172), wk =   0.0013021
        k(  169) = (   0.0833333   0.5773503   0.1894759), wk =   0.0013021
        k(  170) = (   0.0833333   0.5773503  -0.2526345), wk =   0.0013021
        k(  171) = (   0.1250000   0.2165064   0.0000000), wk =   0.0013021
        k(  172) = (   0.1250000   0.2165064   0.0631586), wk =   0.0013021
        k(  173) = (   0.1250000   0.2165064   0.1263172), wk =   0.0013021
        k(  174) = (   0.1250000   0.2165064   0.1894759), wk =   0.0013021
        k(  175) = (   0.1250000   0.2165064  -0.2526345), wk =   0.0013021
        k(  176) = (   0.1250000   0.2646189   0.0000000), wk =   0.0026042
        k(  177) = (   0.1250000   0.2646189   0.0631586), wk =   0.0026042
        k(  178) = (   0.1250000   0.2646189   0.1263172), wk =   0.0026042
        k(  179) = (   0.1250000   0.2646189   0.1894759), wk =   0.0026042
        k(  180) = (   0.1250000   0.2646189  -0.2526345), wk =   0.0026042
        k(  181) = (   0.1250000   0.3127314   0.0000000), wk =   0.0026042
        k(  182) = (   0.1250000   0.3127314   0.0631586), wk =   0.0026042
        k(  183) = (   0.1250000   0.3127314   0.1263172), wk =   0.0026042
        k(  184) = (   0.1250000   0.3127314   0.1894759), wk =   0.0026042
        k(  185) = (   0.1250000   0.3127314  -0.2526345), wk =   0.0026042
        k(  186) = (   0.1250000   0.3608439   0.0000000), wk =   0.0026042
        k(  187) = (   0.1250000   0.3608439   0.0631586), wk =   0.0026042
        k(  188) = (   0.1250000   0.3608439   0.1263172), wk =   0.0026042
        k(  189) = (   0.1250000   0.3608439   0.1894759), wk =   0.0026042
        k(  190) = (   0.1250000   0.3608439  -0.2526345), wk =   0.0026042
        k(  191) = (   0.1250000   0.4089564   0.0000000), wk =   0.0026042
        k(  192) = (   0.1250000   0.4089564   0.0631586), wk =   0.0026042
        k(  193) = (   0.1250000   0.4089564   0.1263172), wk =   0.0026042
        k(  194) = (   0.1250000   0.4089564   0.1894759), wk =   0.0026042
        k(  195) = (   0.1250000   0.4089564  -0.2526345), wk =   0.0026042
        k(  196) = (   0.1250000   0.4570690   0.0000000), wk =   0.0026042
        k(  197) = (   0.1250000   0.4570690   0.0631586), wk =   0.0026042
        k(  198) = (   0.1250000   0.4570690   0.1263172), wk =   0.0026042
        k(  199) = (   0.1250000   0.4570690   0.1894759), wk =   0.0026042
        k(  200) = (   0.1250000   0.4570690  -0.2526345), wk =   0.0026042
        k(  201) = (   0.1250000   0.5051815   0.0000000), wk =   0.0026042
        k(  202) = (   0.1250000   0.5051815   0.0631586), wk =   0.0026042
        k(  203) = (   0.1250000   0.5051815   0.1263172), wk =   0.0026042
        k(  204) = (   0.1250000   0.5051815   0.1894759), wk =   0.0026042
        k(  205) = (   0.1250000   0.5051815  -0.2526345), wk =   0.0026042
        k(  206) = (   0.1250000   0.5532940   0.0000000), wk =   0.0026042
        k(  207) = (   0.1250000   0.5532940   0.0631586), wk =   0.0026042
        k(  208) = (   0.1250000   0.5532940   0.1263172), wk =   0.0026042
        k(  209) = (   0.1250000   0.5532940   0.1894759), wk =   0.0026042
        k(  210) = (   0.1250000   0.5532940  -0.2526345), wk =   0.0026042
        k(  211) = (   0.1666667   0.2886751   0.0000000), wk =   0.0013021
        k(  212) = (   0.1666667   0.2886751   0.0631586), wk =   0.0013021
        k(  213) = (   0.1666667   0.2886751   0.1263172), wk =   0.0013021
        k(  214) = (   0.1666667   0.2886751   0.1894759), wk =   0.0013021
        k(  215) = (   0.1666667   0.2886751  -0.2526345), wk =   0.0013021
        k(  216) = (   0.1666667   0.3367877   0.0000000), wk =   0.0026042
        k(  217) = (   0.1666667   0.3367877   0.0631586), wk =   0.0026042
        k(  218) = (   0.1666667   0.3367877   0.1263172), wk =   0.0026042
        k(  219) = (   0.1666667   0.3367877   0.1894759), wk =   0.0026042
        k(  220) = (   0.1666667   0.3367877  -0.2526345), wk =   0.0026042
        k(  221) = (   0.1666667   0.3849002   0.0000000), wk =   0.0026042
        k(  222) = (   0.1666667   0.3849002   0.0631586), wk =   0.0026042
        k(  223) = (   0.1666667   0.3849002   0.1263172), wk =   0.0026042
        k(  224) = (   0.1666667   0.3849002   0.1894759), wk =   0.0026042
        k(  225) = (   0.1666667   0.3849002  -0.2526345), wk =   0.0026042
        k(  226) = (   0.1666667   0.4330127   0.0000000), wk =   0.0026042
        k(  227) = (   0.1666667   0.4330127   0.0631586), wk =   0.0026042
        k(  228) = (   0.1666667   0.4330127   0.1263172), wk =   0.0026042
        k(  229) = (   0.1666667   0.4330127   0.1894759), wk =   0.0026042
        k(  230) = (   0.1666667   0.4330127  -0.2526345), wk =   0.0026042
        k(  231) = (   0.1666667   0.4811252   0.0000000), wk =   0.0026042
        k(  232) = (   0.1666667   0.4811252   0.0631586), wk =   0.0026042
        k(  233) = (   0.1666667   0.4811252   0.1263172), wk =   0.0026042
        k(  234) = (   0.1666667   0.4811252   0.1894759), wk =   0.0026042
        k(  235) = (   0.1666667   0.4811252  -0.2526345), wk =   0.0026042
        k(  236) = (   0.1666667   0.5292377   0.0000000), wk =   0.0026042
        k(  237) = (   0.1666667   0.5292377   0.0631586), wk =   0.0026042
        k(  238) = (   0.1666667   0.5292377   0.1263172), wk =   0.0026042
        k(  239) = (   0.1666667   0.5292377   0.1894759), wk =   0.0026042
        k(  240) = (   0.1666667   0.5292377  -0.2526345), wk =   0.0026042
        k(  241) = (   0.1666667   0.5773503   0.0000000), wk =   0.0013021
        k(  242) = (   0.1666667   0.5773503   0.0631586), wk =   0.0013021
        k(  243) = (   0.1666667   0.5773503   0.1263172), wk =   0.0013021
        k(  244) = (   0.1666667   0.5773503   0.1894759), wk =   0.0013021
        k(  245) = (   0.1666667   0.5773503  -0.2526345), wk =   0.0013021
        k(  246) = (   0.2083333   0.3608439   0.0000000), wk =   0.0013021
        k(  247) = (   0.2083333   0.3608439   0.0631586), wk =   0.0013021
        k(  248) = (   0.2083333   0.3608439   0.1263172), wk =   0.0013021
        k(  249) = (   0.2083333   0.3608439   0.1894759), wk =   0.0013021
        k(  250) = (   0.2083333   0.3608439  -0.2526345), wk =   0.0013021
        k(  251) = (   0.2083333   0.4089564   0.0000000), wk =   0.0026042
        k(  252) = (   0.2083333   0.4089564   0.0631586), wk =   0.0026042
        k(  253) = (   0.2083333   0.4089564   0.1263172), wk =   0.0026042
        k(  254) = (   0.2083333   0.4089564   0.1894759), wk =   0.0026042
        k(  255) = (   0.2083333   0.4089564  -0.2526345), wk =   0.0026042
        k(  256) = (   0.2083333   0.4570690   0.0000000), wk =   0.0026042
        k(  257) = (   0.2083333   0.4570690   0.0631586), wk =   0.0026042
        k(  258) = (   0.2083333   0.4570690   0.1263172), wk =   0.0026042
        k(  259) = (   0.2083333   0.4570690   0.1894759), wk =   0.0026042
        k(  260) = (   0.2083333   0.4570690  -0.2526345), wk =   0.0026042
        k(  261) = (   0.2083333   0.5051815   0.0000000), wk =   0.0026042
        k(  262) = (   0.2083333   0.5051815   0.0631586), wk =   0.0026042
        k(  263) = (   0.2083333   0.5051815   0.1263172), wk =   0.0026042
        k(  264) = (   0.2083333   0.5051815   0.1894759), wk =   0.0026042
        k(  265) = (   0.2083333   0.5051815  -0.2526345), wk =   0.0026042
        k(  266) = (   0.2083333   0.5532940   0.0000000), wk =   0.0026042
        k(  267) = (   0.2083333   0.5532940   0.0631586), wk =   0.0026042
        k(  268) = (   0.2083333   0.5532940   0.1263172), wk =   0.0026042
        k(  269) = (   0.2083333   0.5532940   0.1894759), wk =   0.0026042
        k(  270) = (   0.2083333   0.5532940  -0.2526345), wk =   0.0026042
        k(  271) = (   0.2500000   0.4330127   0.0000000), wk =   0.0013021
        k(  272) = (   0.2500000   0.4330127   0.0631586), wk =   0.0013021
        k(  273) = (   0.2500000   0.4330127   0.1263172), wk =   0.0013021
        k(  274) = (   0.2500000   0.4330127   0.1894759), wk =   0.0013021
        k(  275) = (   0.2500000   0.4330127  -0.2526345), wk =   0.0013021
        k(  276) = (   0.2500000   0.4811252   0.0000000), wk =   0.0026042
        k(  277) = (   0.2500000   0.4811252   0.0631586), wk =   0.0026042
        k(  278) = (   0.2500000   0.4811252   0.1263172), wk =   0.0026042
        k(  279) = (   0.2500000   0.4811252   0.1894759), wk =   0.0026042
        k(  280) = (   0.2500000   0.4811252  -0.2526345), wk =   0.0026042
        k(  281) = (   0.2500000   0.5292377   0.0000000), wk =   0.0026042
        k(  282) = (   0.2500000   0.5292377   0.0631586), wk =   0.0026042
        k(  283) = (   0.2500000   0.5292377   0.1263172), wk =   0.0026042
        k(  284) = (   0.2500000   0.5292377   0.1894759), wk =   0.0026042
        k(  285) = (   0.2500000   0.5292377  -0.2526345), wk =   0.0026042
        k(  286) = (   0.2500000   0.5773503   0.0000000), wk =   0.0013021
        k(  287) = (   0.2500000   0.5773503   0.0631586), wk =   0.0013021
        k(  288) = (   0.2500000   0.5773503   0.1263172), wk =   0.0013021
        k(  289) = (   0.2500000   0.5773503   0.1894759), wk =   0.0013021
        k(  290) = (   0.2500000   0.5773503  -0.2526345), wk =   0.0013021
        k(  291) = (   0.2916667   0.5051815   0.0000000), wk =   0.0013021
        k(  292) = (   0.2916667   0.5051815   0.0631586), wk =   0.0013021
        k(  293) = (   0.2916667   0.5051815   0.1263172), wk =   0.0013021
        k(  294) = (   0.2916667   0.5051815   0.1894759), wk =   0.0013021
        k(  295) = (   0.2916667   0.5051815  -0.2526345), wk =   0.0013021
        k(  296) = (   0.2916667   0.5532940   0.0000000), wk =   0.0026042
        k(  297) = (   0.2916667   0.5532940   0.0631586), wk =   0.0026042
        k(  298) = (   0.2916667   0.5532940   0.1263172), wk =   0.0026042
        k(  299) = (   0.2916667   0.5532940   0.1894759), wk =   0.0026042
        k(  300) = (   0.2916667   0.5532940  -0.2526345), wk =   0.0026042
        k(  301) = (   0.3333333   0.5773503   0.0000000), wk =   0.0004340
        k(  302) = (   0.3333333   0.5773503   0.0631586), wk =   0.0004340
        k(  303) = (   0.3333333   0.5773503   0.1263172), wk =   0.0004340
        k(  304) = (   0.3333333   0.5773503   0.1894759), wk =   0.0004340
        k(  305) = (   0.3333333   0.5773503  -0.2526345), wk =   0.0004340
        k(  306) = (  -0.0416667  -0.0721688   0.0631586), wk =   0.0013021
        k(  307) = (  -0.0416667  -0.0721688   0.1263172), wk =   0.0013021
        k(  308) = (  -0.0416667  -0.0721688   0.1894759), wk =   0.0013021
        k(  309) = (  -0.0416667  -0.1202813   0.0631586), wk =   0.0026042
        k(  310) = (  -0.0416667  -0.1202813   0.1263172), wk =   0.0026042
        k(  311) = (  -0.0416667  -0.1202813   0.1894759), wk =   0.0026042
        k(  312) = (  -0.0416667  -0.1683938   0.0631586), wk =   0.0026042
        k(  313) = (  -0.0416667  -0.1683938   0.1263172), wk =   0.0026042
        k(  314) = (  -0.0416667  -0.1683938   0.1894759), wk =   0.0026042
        k(  315) = (  -0.0416667  -0.2165064   0.0631586), wk =   0.0026042
        k(  316) = (  -0.0416667  -0.2165064   0.1263172), wk =   0.0026042
        k(  317) = (  -0.0416667  -0.2165064   0.1894759), wk =   0.0026042
        k(  318) = (  -0.0416667  -0.2646189   0.0631586), wk =   0.0026042
        k(  319) = (  -0.0416667  -0.2646189   0.1263172), wk =   0.0026042
        k(  320) = (  -0.0416667  -0.2646189   0.1894759), wk =   0.0026042
        k(  321) = (  -0.0416667  -0.3127314   0.0631586), wk =   0.0026042
        k(  322) = (  -0.0416667  -0.3127314   0.1263172), wk =   0.0026042
        k(  323) = (  -0.0416667  -0.3127314   0.1894759), wk =   0.0026042
        k(  324) = (  -0.0416667  -0.3608439   0.0631586), wk =   0.0026042
        k(  325) = (  -0.0416667  -0.3608439   0.1263172), wk =   0.0026042
        k(  326) = (  -0.0416667  -0.3608439   0.1894759), wk =   0.0026042
        k(  327) = (  -0.0416667  -0.4089564   0.0631586), wk =   0.0026042
        k(  328) = (  -0.0416667  -0.4089564   0.1263172), wk =   0.0026042
        k(  329) = (  -0.0416667  -0.4089564   0.1894759), wk =   0.0026042
        k(  330) = (  -0.0416667  -0.4570690   0.0631586), wk =   0.0026042
        k(  331) = (  -0.0416667  -0.4570690   0.1263172), wk =   0.0026042
        k(  332) = (  -0.0416667  -0.4570690   0.1894759), wk =   0.0026042
        k(  333) = (  -0.0416667  -0.5051815   0.0631586), wk =   0.0026042
        k(  334) = (  -0.0416667  -0.5051815   0.1263172), wk =   0.0026042
        k(  335) = (  -0.0416667  -0.5051815   0.1894759), wk =   0.0026042
        k(  336) = (  -0.0416667  -0.5532940   0.0631586), wk =   0.0026042
        k(  337) = (  -0.0416667  -0.5532940   0.1263172), wk =   0.0026042
        k(  338) = (  -0.0416667  -0.5532940   0.1894759), wk =   0.0026042
        k(  339) = (  -0.0833333  -0.1443376   0.0631586), wk =   0.0013021
        k(  340) = (  -0.0833333  -0.1443376   0.1263172), wk =   0.0013021
        k(  341) = (  -0.0833333  -0.1443376   0.1894759), wk =   0.0013021
        k(  342) = (  -0.0833333  -0.1924501   0.0631586), wk =   0.0026042
        k(  343) = (  -0.0833333  -0.1924501   0.1263172), wk =   0.0026042
        k(  344) = (  -0.0833333  -0.1924501   0.1894759), wk =   0.0026042
        k(  345) = (  -0.0833333  -0.2405626   0.0631586), wk =   0.0026042
        k(  346) = (  -0.0833333  -0.2405626   0.1263172), wk =   0.0026042
        k(  347) = (  -0.0833333  -0.2405626   0.1894759), wk =   0.0026042
        k(  348) = (  -0.0833333  -0.2886751   0.0631586), wk =   0.0026042
        k(  349) = (  -0.0833333  -0.2886751   0.1263172), wk =   0.0026042
        k(  350) = (  -0.0833333  -0.2886751   0.1894759), wk =   0.0026042
        k(  351) = (  -0.0833333  -0.3367877   0.0631586), wk =   0.0026042
        k(  352) = (  -0.0833333  -0.3367877   0.1263172), wk =   0.0026042
        k(  353) = (  -0.0833333  -0.3367877   0.1894759), wk =   0.0026042
        k(  354) = (  -0.0833333  -0.3849002   0.0631586), wk =   0.0026042
        k(  355) = (  -0.0833333  -0.3849002   0.1263172), wk =   0.0026042
        k(  356) = (  -0.0833333  -0.3849002   0.1894759), wk =   0.0026042
        k(  357) = (  -0.0833333  -0.4330127   0.0631586), wk =   0.0026042
        k(  358) = (  -0.0833333  -0.4330127   0.1263172), wk =   0.0026042
        k(  359) = (  -0.0833333  -0.4330127   0.1894759), wk =   0.0026042
        k(  360) = (  -0.0833333  -0.4811252   0.0631586), wk =   0.0026042
        k(  361) = (  -0.0833333  -0.4811252   0.1263172), wk =   0.0026042
        k(  362) = (  -0.0833333  -0.4811252   0.1894759), wk =   0.0026042
        k(  363) = (  -0.0833333  -0.5292377   0.0631586), wk =   0.0026042
        k(  364) = (  -0.0833333  -0.5292377   0.1263172), wk =   0.0026042
        k(  365) = (  -0.0833333  -0.5292377   0.1894759), wk =   0.0026042
        k(  366) = (  -0.0833333  -0.5773503   0.0631586), wk =   0.0013021
        k(  367) = (  -0.0833333  -0.5773503   0.1263172), wk =   0.0013021
        k(  368) = (  -0.0833333  -0.5773503   0.1894759), wk =   0.0013021
        k(  369) = (  -0.1250000  -0.2165064   0.0631586), wk =   0.0013021
        k(  370) = (  -0.1250000  -0.2165064   0.1263172), wk =   0.0013021
        k(  371) = (  -0.1250000  -0.2165064   0.1894759), wk =   0.0013021
        k(  372) = (  -0.1250000  -0.2646189   0.0631586), wk =   0.0026042
        k(  373) = (  -0.1250000  -0.2646189   0.1263172), wk =   0.0026042
        k(  374) = (  -0.1250000  -0.2646189   0.1894759), wk =   0.0026042
        k(  375) = (  -0.1250000  -0.3127314   0.0631586), wk =   0.0026042
        k(  376) = (  -0.1250000  -0.3127314   0.1263172), wk =   0.0026042
        k(  377) = (  -0.1250000  -0.3127314   0.1894759), wk =   0.0026042
        k(  378) = (  -0.1250000  -0.3608439   0.0631586), wk =   0.0026042
        k(  379) = (  -0.1250000  -0.3608439   0.1263172), wk =   0.0026042
        k(  380) = (  -0.1250000  -0.3608439   0.1894759), wk =   0.0026042
        k(  381) = (  -0.1250000  -0.4089564   0.0631586), wk =   0.0026042
        k(  382) = (  -0.1250000  -0.4089564   0.1263172), wk =   0.0026042
        k(  383) = (  -0.1250000  -0.4089564   0.1894759), wk =   0.0026042
        k(  384) = (  -0.1250000  -0.4570690   0.0631586), wk =   0.0026042
        k(  385) = (  -0.1250000  -0.4570690   0.1263172), wk =   0.0026042
        k(  386) = (  -0.1250000  -0.4570690   0.1894759), wk =   0.0026042
        k(  387) = (  -0.1250000  -0.5051815   0.0631586), wk =   0.0026042
        k(  388) = (  -0.1250000  -0.5051815   0.1263172), wk =   0.0026042
        k(  389) = (  -0.1250000  -0.5051815   0.1894759), wk =   0.0026042
        k(  390) = (  -0.1250000  -0.5532940   0.0631586), wk =   0.0026042
        k(  391) = (  -0.1250000  -0.5532940   0.1263172), wk =   0.0026042
        k(  392) = (  -0.1250000  -0.5532940   0.1894759), wk =   0.0026042
        k(  393) = (  -0.1666667  -0.2886751   0.0631586), wk =   0.0013021
        k(  394) = (  -0.1666667  -0.2886751   0.1263172), wk =   0.0013021
        k(  395) = (  -0.1666667  -0.2886751   0.1894759), wk =   0.0013021
        k(  396) = (  -0.1666667  -0.3367877   0.0631586), wk =   0.0026042
        k(  397) = (  -0.1666667  -0.3367877   0.1263172), wk =   0.0026042
        k(  398) = (  -0.1666667  -0.3367877   0.1894759), wk =   0.0026042
        k(  399) = (  -0.1666667  -0.3849002   0.0631586), wk =   0.0026042
        k(  400) = (  -0.1666667  -0.3849002   0.1263172), wk =   0.0026042
        k(  401) = (  -0.1666667  -0.3849002   0.1894759), wk =   0.0026042
        k(  402) = (  -0.1666667  -0.4330127   0.0631586), wk =   0.0026042
        k(  403) = (  -0.1666667  -0.4330127   0.1263172), wk =   0.0026042
        k(  404) = (  -0.1666667  -0.4330127   0.1894759), wk =   0.0026042
        k(  405) = (  -0.1666667  -0.4811252   0.0631586), wk =   0.0026042
        k(  406) = (  -0.1666667  -0.4811252   0.1263172), wk =   0.0026042
        k(  407) = (  -0.1666667  -0.4811252   0.1894759), wk =   0.0026042
        k(  408) = (  -0.1666667  -0.5292377   0.0631586), wk =   0.0026042
        k(  409) = (  -0.1666667  -0.5292377   0.1263172), wk =   0.0026042
        k(  410) = (  -0.1666667  -0.5292377   0.1894759), wk =   0.0026042
        k(  411) = (  -0.1666667  -0.5773503   0.0631586), wk =   0.0013021
        k(  412) = (  -0.1666667  -0.5773503   0.1263172), wk =   0.0013021
        k(  413) = (  -0.1666667  -0.5773503   0.1894759), wk =   0.0013021
        k(  414) = (  -0.2083333  -0.3608439   0.0631586), wk =   0.0013021
        k(  415) = (  -0.2083333  -0.3608439   0.1263172), wk =   0.0013021
        k(  416) = (  -0.2083333  -0.3608439   0.1894759), wk =   0.0013021
        k(  417) = (  -0.2083333  -0.4089564   0.0631586), wk =   0.0026042
        k(  418) = (  -0.2083333  -0.4089564   0.1263172), wk =   0.0026042
        k(  419) = (  -0.2083333  -0.4089564   0.1894759), wk =   0.0026042
        k(  420) = (  -0.2083333  -0.4570690   0.0631586), wk =   0.0026042
        k(  421) = (  -0.2083333  -0.4570690   0.1263172), wk =   0.0026042
        k(  422) = (  -0.2083333  -0.4570690   0.1894759), wk =   0.0026042
        k(  423) = (  -0.2083333  -0.5051815   0.0631586), wk =   0.0026042
        k(  424) = (  -0.2083333  -0.5051815   0.1263172), wk =   0.0026042
        k(  425) = (  -0.2083333  -0.5051815   0.1894759), wk =   0.0026042
        k(  426) = (  -0.2083333  -0.5532940   0.0631586), wk =   0.0026042
        k(  427) = (  -0.2083333  -0.5532940   0.1263172), wk =   0.0026042
        k(  428) = (  -0.2083333  -0.5532940   0.1894759), wk =   0.0026042
        k(  429) = (  -0.2500000  -0.4330127   0.0631586), wk =   0.0013021
        k(  430) = (  -0.2500000  -0.4330127   0.1263172), wk =   0.0013021
        k(  431) = (  -0.2500000  -0.4330127   0.1894759), wk =   0.0013021
        k(  432) = (  -0.2500000  -0.4811252   0.0631586), wk =   0.0026042
        k(  433) = (  -0.2500000  -0.4811252   0.1263172), wk =   0.0026042
        k(  434) = (  -0.2500000  -0.4811252   0.1894759), wk =   0.0026042
        k(  435) = (  -0.2500000  -0.5292377   0.0631586), wk =   0.0026042
        k(  436) = (  -0.2500000  -0.5292377   0.1263172), wk =   0.0026042
        k(  437) = (  -0.2500000  -0.5292377   0.1894759), wk =   0.0026042
        k(  438) = (  -0.2500000  -0.5773503   0.0631586), wk =   0.0013021
        k(  439) = (  -0.2500000  -0.5773503   0.1263172), wk =   0.0013021
        k(  440) = (  -0.2500000  -0.5773503   0.1894759), wk =   0.0013021
        k(  441) = (  -0.2916667  -0.5051815   0.0631586), wk =   0.0013021
        k(  442) = (  -0.2916667  -0.5051815   0.1263172), wk =   0.0013021
        k(  443) = (  -0.2916667  -0.5051815   0.1894759), wk =   0.0013021
        k(  444) = (  -0.2916667  -0.5532940   0.0631586), wk =   0.0026042
        k(  445) = (  -0.2916667  -0.5532940   0.1263172), wk =   0.0026042
        k(  446) = (  -0.2916667  -0.5532940   0.1894759), wk =   0.0026042
        k(  447) = (  -0.3333333  -0.5773503   0.0631586), wk =   0.0004340
        k(  448) = (  -0.3333333  -0.5773503   0.1263172), wk =   0.0004340
        k(  449) = (  -0.3333333  -0.5773503   0.1894759), wk =   0.0004340

                       cryst. coord.
        k(    1) = (   0.0000000   0.0000000   0.0000000), wk =   0.0002170
        k(    2) = (   0.0000000   0.0000000   0.1250000), wk =   0.0004340
        k(    3) = (   0.0000000   0.0000000   0.2500000), wk =   0.0004340
        k(    4) = (   0.0000000   0.0000000   0.3750000), wk =   0.0004340
        k(    5) = (   0.0000000   0.0000000  -0.5000000), wk =   0.0002170
        k(    6) = (   0.0000000   0.0416667   0.0000000), wk =   0.0013021
        k(    7) = (   0.0000000   0.0416667   0.1250000), wk =   0.0026042
        k(    8) = (   0.0000000   0.0416667   0.2500000), wk =   0.0026042
        k(    9) = (   0.0000000   0.0416667   0.3750000), wk =   0.0026042
        k(   10) = (   0.0000000   0.0416667  -0.5000000), wk =   0.0013021
        k(   11) = (   0.0000000   0.0833333   0.0000000), wk =   0.0013021
        k(   12) = (   0.0000000   0.0833333   0.1250000), wk =   0.0026042
        k(   13) = (   0.0000000   0.0833333   0.2500000), wk =   0.0026042
        k(   14) = (   0.0000000   0.0833333   0.3750000), wk =   0.0026042
        k(   15) = (   0.0000000   0.0833333  -0.5000000), wk =   0.0013021
        k(   16) = (   0.0000000   0.1250000   0.0000000), wk =   0.0013021
        k(   17) = (   0.0000000   0.1250000   0.1250000), wk =   0.0026042
        k(   18) = (   0.0000000   0.1250000   0.2500000), wk =   0.0026042
        k(   19) = (   0.0000000   0.1250000   0.3750000), wk =   0.0026042
        k(   20) = (   0.0000000   0.1250000  -0.5000000), wk =   0.0013021
        k(   21) = (   0.0000000   0.1666667   0.0000000), wk =   0.0013021
        k(   22) = (   0.0000000   0.1666667   0.1250000), wk =   0.0026042
        k(   23) = (   0.0000000   0.1666667   0.2500000), wk =   0.0026042
        k(   24) = (   0.0000000   0.1666667   0.3750000), wk =   0.0026042
        k(   25) = (   0.0000000   0.1666667  -0.5000000), wk =   0.0013021
        k(   26) = (   0.0000000   0.2083333   0.0000000), wk =   0.0013021
        k(   27) = (   0.0000000   0.2083333   0.1250000), wk =   0.0026042
        k(   28) = (   0.0000000   0.2083333   0.2500000), wk =   0.0026042
        k(   29) = (   0.0000000   0.2083333   0.3750000), wk =   0.0026042
        k(   30) = (   0.0000000   0.2083333  -0.5000000), wk =   0.0013021
        k(   31) = (   0.0000000   0.2500000   0.0000000), wk =   0.0013021
        k(   32) = (   0.0000000   0.2500000   0.1250000), wk =   0.0026042
        k(   33) = (   0.0000000   0.2500000   0.2500000), wk =   0.0026042
        k(   34) = (   0.0000000   0.2500000   0.3750000), wk =   0.0026042
        k(   35) = (   0.0000000   0.2500000  -0.5000000), wk =   0.0013021
        k(   36) = (   0.0000000   0.2916667   0.0000000), wk =   0.0013021
        k(   37) = (   0.0000000   0.2916667   0.1250000), wk =   0.0026042
        k(   38) = (   0.0000000   0.2916667   0.2500000), wk =   0.0026042
        k(   39) = (   0.0000000   0.2916667   0.3750000), wk =   0.0026042
        k(   40) = (   0.0000000   0.2916667  -0.5000000), wk =   0.0013021
        k(   41) = (   0.0000000   0.3333333   0.0000000), wk =   0.0013021
        k(   42) = (   0.0000000   0.3333333   0.1250000), wk =   0.0026042
        k(   43) = (   0.0000000   0.3333333   0.2500000), wk =   0.0026042
        k(   44) = (   0.0000000   0.3333333   0.3750000), wk =   0.0026042
        k(   45) = (   0.0000000   0.3333333  -0.5000000), wk =   0.0013021
        k(   46) = (   0.0000000   0.3750000   0.0000000), wk =   0.0013021
        k(   47) = (   0.0000000   0.3750000   0.1250000), wk =   0.0026042
        k(   48) = (   0.0000000   0.3750000   0.2500000), wk =   0.0026042
        k(   49) = (   0.0000000   0.3750000   0.3750000), wk =   0.0026042
        k(   50) = (   0.0000000   0.3750000  -0.5000000), wk =   0.0013021
        k(   51) = (   0.0000000   0.4166667   0.0000000), wk =   0.0013021
        k(   52) = (   0.0000000   0.4166667   0.1250000), wk =   0.0026042
        k(   53) = (   0.0000000   0.4166667   0.2500000), wk =   0.0026042
        k(   54) = (   0.0000000   0.4166667   0.3750000), wk =   0.0026042
        k(   55) = (   0.0000000   0.4166667  -0.5000000), wk =   0.0013021
        k(   56) = (   0.0000000   0.4583333   0.0000000), wk =   0.0013021
        k(   57) = (   0.0000000   0.4583333   0.1250000), wk =   0.0026042
        k(   58) = (   0.0000000   0.4583333   0.2500000), wk =   0.0026042
        k(   59) = (   0.0000000   0.4583333   0.3750000), wk =   0.0026042
        k(   60) = (   0.0000000   0.4583333  -0.5000000), wk =   0.0013021
        k(   61) = (   0.0000000  -0.5000000   0.0000000), wk =   0.0006510
        k(   62) = (   0.0000000  -0.5000000   0.1250000), wk =   0.0013021
        k(   63) = (   0.0000000  -0.5000000   0.2500000), wk =   0.0013021
        k(   64) = (   0.0000000  -0.5000000   0.3750000), wk =   0.0013021
        k(   65) = (   0.0000000  -0.5000000  -0.5000000), wk =   0.0006510
        k(   66) = (   0.0416667   0.0416667   0.0000000), wk =   0.0013021
        k(   67) = (   0.0416667   0.0416667   0.1250000), wk =   0.0013021
        k(   68) = (   0.0416667   0.0416667   0.2500000), wk =   0.0013021
        k(   69) = (   0.0416667   0.0416667   0.3750000), wk =   0.0013021
        k(   70) = (   0.0416667   0.0416667  -0.5000000), wk =   0.0013021
        k(   71) = (   0.0416667   0.0833333   0.0000000), wk =   0.0026042
        k(   72) = (   0.0416667   0.0833333   0.1250000), wk =   0.0026042
        k(   73) = (   0.0416667   0.0833333   0.2500000), wk =   0.0026042
        k(   74) = (   0.0416667   0.0833333   0.3750000), wk =   0.0026042
        k(   75) = (   0.0416667   0.0833333  -0.5000000), wk =   0.0026042
        k(   76) = (   0.0416667   0.1250000   0.0000000), wk =   0.0026042
        k(   77) = (   0.0416667   0.1250000   0.1250000), wk =   0.0026042
        k(   78) = (   0.0416667   0.1250000   0.2500000), wk =   0.0026042
        k(   79) = (   0.0416667   0.1250000   0.3750000), wk =   0.0026042
        k(   80) = (   0.0416667   0.1250000  -0.5000000), wk =   0.0026042
        k(   81) = (   0.0416667   0.1666667   0.0000000), wk =   0.0026042
        k(   82) = (   0.0416667   0.1666667   0.1250000), wk =   0.0026042
        k(   83) = (   0.0416667   0.1666667   0.2500000), wk =   0.0026042
        k(   84) = (   0.0416667   0.1666667   0.3750000), wk =   0.0026042
        k(   85) = (   0.0416667   0.1666667  -0.5000000), wk =   0.0026042
        k(   86) = (   0.0416667   0.2083333   0.0000000), wk =   0.0026042
        k(   87) = (   0.0416667   0.2083333   0.1250000), wk =   0.0026042
        k(   88) = (   0.0416667   0.2083333   0.2500000), wk =   0.0026042
        k(   89) = (   0.0416667   0.2083333   0.3750000), wk =   0.0026042
        k(   90) = (   0.0416667   0.2083333  -0.5000000), wk =   0.0026042
        k(   91) = (   0.0416667   0.2500000   0.0000000), wk =   0.0026042
        k(   92) = (   0.0416667   0.2500000   0.1250000), wk =   0.0026042
        k(   93) = (   0.0416667   0.2500000   0.2500000), wk =   0.0026042
        k(   94) = (   0.0416667   0.2500000   0.3750000), wk =   0.0026042
        k(   95) = (   0.0416667   0.2500000  -0.5000000), wk =   0.0026042
        k(   96) = (   0.0416667   0.2916667   0.0000000), wk =   0.0026042
        k(   97) = (   0.0416667   0.2916667   0.1250000), wk =   0.0026042
        k(   98) = (   0.0416667   0.2916667   0.2500000), wk =   0.0026042
        k(   99) = (   0.0416667   0.2916667   0.3750000), wk =   0.0026042
        k(  100) = (   0.0416667   0.2916667  -0.5000000), wk =   0.0026042
        k(  101) = (   0.0416667   0.3333333   0.0000000), wk =   0.0026042
        k(  102) = (   0.0416667   0.3333333   0.1250000), wk =   0.0026042
        k(  103) = (   0.0416667   0.3333333   0.2500000), wk =   0.0026042
        k(  104) = (   0.0416667   0.3333333   0.3750000), wk =   0.0026042
        k(  105) = (   0.0416667   0.3333333  -0.5000000), wk =   0.0026042
        k(  106) = (   0.0416667   0.3750000   0.0000000), wk =   0.0026042
        k(  107) = (   0.0416667   0.3750000   0.1250000), wk =   0.0026042
        k(  108) = (   0.0416667   0.3750000   0.2500000), wk =   0.0026042
        k(  109) = (   0.0416667   0.3750000   0.3750000), wk =   0.0026042
        k(  110) = (   0.0416667   0.3750000  -0.5000000), wk =   0.0026042
        k(  111) = (   0.0416667   0.4166667   0.0000000), wk =   0.0026042
        k(  112) = (   0.0416667   0.4166667   0.1250000), wk =   0.0026042
        k(  113) = (   0.0416667   0.4166667   0.2500000), wk =   0.0026042
        k(  114) = (   0.0416667   0.4166667   0.3750000), wk =   0.0026042
        k(  115) = (   0.0416667   0.4166667  -0.5000000), wk =   0.0026042
        k(  116) = (   0.0416667   0.4583333   0.0000000), wk =   0.0026042
        k(  117) = (   0.0416667   0.4583333   0.1250000), wk =   0.0026042
        k(  118) = (   0.0416667   0.4583333   0.2500000), wk =   0.0026042
        k(  119) = (   0.0416667   0.4583333   0.3750000), wk =   0.0026042
        k(  120) = (   0.0416667   0.4583333  -0.5000000), wk =   0.0026042
        k(  121) = (   0.0833333   0.0833333   0.0000000), wk =   0.0013021
        k(  122) = (   0.0833333   0.0833333   0.1250000), wk =   0.0013021
        k(  123) = (   0.0833333   0.0833333   0.2500000), wk =   0.0013021
        k(  124) = (   0.0833333   0.0833333   0.3750000), wk =   0.0013021
        k(  125) = (   0.0833333   0.0833333  -0.5000000), wk =   0.0013021
        k(  126) = (   0.0833333   0.1250000   0.0000000), wk =   0.0026042
        k(  127) = (   0.0833333   0.1250000   0.1250000), wk =   0.0026042
        k(  128) = (   0.0833333   0.1250000   0.2500000), wk =   0.0026042
        k(  129) = (   0.0833333   0.1250000   0.3750000), wk =   0.0026042
        k(  130) = (   0.0833333   0.1250000  -0.5000000), wk =   0.0026042
        k(  131) = (   0.0833333   0.1666667   0.0000000), wk =   0.0026042
        k(  132) = (   0.0833333   0.1666667   0.1250000), wk =   0.0026042
        k(  133) = (   0.0833333   0.1666667   0.2500000), wk =   0.0026042
        k(  134) = (   0.0833333   0.1666667   0.3750000), wk =   0.0026042
        k(  135) = (   0.0833333   0.1666667  -0.5000000), wk =   0.0026042
        k(  136) = (   0.0833333   0.2083333   0.0000000), wk =   0.0026042
        k(  137) = (   0.0833333   0.2083333   0.1250000), wk =   0.0026042
        k(  138) = (   0.0833333   0.2083333   0.2500000), wk =   0.0026042
        k(  139) = (   0.0833333   0.2083333   0.3750000), wk =   0.0026042
        k(  140) = (   0.0833333   0.2083333  -0.5000000), wk =   0.0026042
        k(  141) = (   0.0833333   0.2500000   0.0000000), wk =   0.0026042
        k(  142) = (   0.0833333   0.2500000   0.1250000), wk =   0.0026042
        k(  143) = (   0.0833333   0.2500000   0.2500000), wk =   0.0026042
        k(  144) = (   0.0833333   0.2500000   0.3750000), wk =   0.0026042
        k(  145) = (   0.0833333   0.2500000  -0.5000000), wk =   0.0026042
        k(  146) = (   0.0833333   0.2916667   0.0000000), wk =   0.0026042
        k(  147) = (   0.0833333   0.2916667   0.1250000), wk =   0.0026042
        k(  148) = (   0.0833333   0.2916667   0.2500000), wk =   0.0026042
        k(  149) = (   0.0833333   0.2916667   0.3750000), wk =   0.0026042
        k(  150) = (   0.0833333   0.2916667  -0.5000000), wk =   0.0026042
        k(  151) = (   0.0833333   0.3333333   0.0000000), wk =   0.0026042
        k(  152) = (   0.0833333   0.3333333   0.1250000), wk =   0.0026042
        k(  153) = (   0.0833333   0.3333333   0.2500000), wk =   0.0026042
        k(  154) = (   0.0833333   0.3333333   0.3750000), wk =   0.0026042
        k(  155) = (   0.0833333   0.3333333  -0.5000000), wk =   0.0026042
        k(  156) = (   0.0833333   0.3750000   0.0000000), wk =   0.0026042
        k(  157) = (   0.0833333   0.3750000   0.1250000), wk =   0.0026042
        k(  158) = (   0.0833333   0.3750000   0.2500000), wk =   0.0026042
        k(  159) = (   0.0833333   0.3750000   0.3750000), wk =   0.0026042
        k(  160) = (   0.0833333   0.3750000  -0.5000000), wk =   0.0026042
        k(  161) = (   0.0833333   0.4166667   0.0000000), wk =   0.0026042
        k(  162) = (   0.0833333   0.4166667   0.1250000), wk =   0.0026042
        k(  163) = (   0.0833333   0.4166667   0.2500000), wk =   0.0026042
        k(  164) = (   0.0833333   0.4166667   0.3750000), wk =   0.0026042
        k(  165) = (   0.0833333   0.4166667  -0.5000000), wk =   0.0026042
        k(  166) = (   0.0833333   0.4583333   0.0000000), wk =   0.0013021
        k(  167) = (   0.0833333   0.4583333   0.1250000), wk =   0.0013021
        k(  168) = (   0.0833333   0.4583333   0.2500000), wk =   0.0013021
        k(  169) = (   0.0833333   0.4583333   0.3750000), wk =   0.0013021
        k(  170) = (   0.0833333   0.4583333  -0.5000000), wk =   0.0013021
        k(  171) = (   0.1250000   0.1250000   0.0000000), wk =   0.0013021
        k(  172) = (   0.1250000   0.1250000   0.1250000), wk =   0.0013021
        k(  173) = (   0.1250000   0.1250000   0.2500000), wk =   0.0013021
        k(  174) = (   0.1250000   0.1250000   0.3750000), wk =   0.0013021
        k(  175) = (   0.1250000   0.1250000  -0.5000000), wk =   0.0013021
        k(  176) = (   0.1250000   0.1666667   0.0000000), wk =   0.0026042
        k(  177) = (   0.1250000   0.1666667   0.1250000), wk =   0.0026042
        k(  178) = (   0.1250000   0.1666667   0.2500000), wk =   0.0026042
        k(  179) = (   0.1250000   0.1666667   0.3750000), wk =   0.0026042
        k(  180) = (   0.1250000   0.1666667  -0.5000000), wk =   0.0026042
        k(  181) = (   0.1250000   0.2083333   0.0000000), wk =   0.0026042
        k(  182) = (   0.1250000   0.2083333   0.1250000), wk =   0.0026042
        k(  183) = (   0.1250000   0.2083333   0.2500000), wk =   0.0026042
        k(  184) = (   0.1250000   0.2083333   0.3750000), wk =   0.0026042
        k(  185) = (   0.1250000   0.2083333  -0.5000000), wk =   0.0026042
        k(  186) = (   0.1250000   0.2500000   0.0000000), wk =   0.0026042
        k(  187) = (   0.1250000   0.2500000   0.1250000), wk =   0.0026042
        k(  188) = (   0.1250000   0.2500000   0.2500000), wk =   0.0026042
        k(  189) = (   0.1250000   0.2500000   0.3750000), wk =   0.0026042
        k(  190) = (   0.1250000   0.2500000  -0.5000000), wk =   0.0026042
        k(  191) = (   0.1250000   0.2916667   0.0000000), wk =   0.0026042
        k(  192) = (   0.1250000   0.2916667   0.1250000), wk =   0.0026042
        k(  193) = (   0.1250000   0.2916667   0.2500000), wk =   0.0026042
        k(  194) = (   0.1250000   0.2916667   0.3750000), wk =   0.0026042
        k(  195) = (   0.1250000   0.2916667  -0.5000000), wk =   0.0026042
        k(  196) = (   0.1250000   0.3333333   0.0000000), wk =   0.0026042
        k(  197) = (   0.1250000   0.3333333   0.1250000), wk =   0.0026042
        k(  198) = (   0.1250000   0.3333333   0.2500000), wk =   0.0026042
        k(  199) = (   0.1250000   0.3333333   0.3750000), wk =   0.0026042
        k(  200) = (   0.1250000   0.3333333  -0.5000000), wk =   0.0026042
        k(  201) = (   0.1250000   0.3750000   0.0000000), wk =   0.0026042
        k(  202) = (   0.1250000   0.3750000   0.1250000), wk =   0.0026042
        k(  203) = (   0.1250000   0.3750000   0.2500000), wk =   0.0026042
        k(  204) = (   0.1250000   0.3750000   0.3750000), wk =   0.0026042
        k(  205) = (   0.1250000   0.3750000  -0.5000000), wk =   0.0026042
        k(  206) = (   0.1250000   0.4166667   0.0000000), wk =   0.0026042
        k(  207) = (   0.1250000   0.4166667   0.1250000), wk =   0.0026042
        k(  208) = (   0.1250000   0.4166667   0.2500000), wk =   0.0026042
        k(  209) = (   0.1250000   0.4166667   0.3750000), wk =   0.0026042
        k(  210) = (   0.1250000   0.4166667  -0.5000000), wk =   0.0026042
        k(  211) = (   0.1666667   0.1666667   0.0000000), wk =   0.0013021
        k(  212) = (   0.1666667   0.1666667   0.1250000), wk =   0.0013021
        k(  213) = (   0.1666667   0.1666667   0.2500000), wk =   0.0013021
        k(  214) = (   0.1666667   0.1666667   0.3750000), wk =   0.0013021
        k(  215) = (   0.1666667   0.1666667  -0.5000000), wk =   0.0013021
        k(  216) = (   0.1666667   0.2083333   0.0000000), wk =   0.0026042
        k(  217) = (   0.1666667   0.2083333   0.1250000), wk =   0.0026042
        k(  218) = (   0.1666667   0.2083333   0.2500000), wk =   0.0026042
        k(  219) = (   0.1666667   0.2083333   0.3750000), wk =   0.0026042
        k(  220) = (   0.1666667   0.2083333  -0.5000000), wk =   0.0026042
        k(  221) = (   0.1666667   0.2500000   0.0000000), wk =   0.0026042
        k(  222) = (   0.1666667   0.2500000   0.1250000), wk =   0.0026042
        k(  223) = (   0.1666667   0.2500000   0.2500000), wk =   0.0026042
        k(  224) = (   0.1666667   0.2500000   0.3750000), wk =   0.0026042
        k(  225) = (   0.1666667   0.2500000  -0.5000000), wk =   0.0026042
        k(  226) = (   0.1666667   0.2916667   0.0000000), wk =   0.0026042
        k(  227) = (   0.1666667   0.2916667   0.1250000), wk =   0.0026042
        k(  228) = (   0.1666667   0.2916667   0.2500000), wk =   0.0026042
        k(  229) = (   0.1666667   0.2916667   0.3750000), wk =   0.0026042
        k(  230) = (   0.1666667   0.2916667  -0.5000000), wk =   0.0026042
        k(  231) = (   0.1666667   0.3333333   0.0000000), wk =   0.0026042
        k(  232) = (   0.1666667   0.3333333   0.1250000), wk =   0.0026042
        k(  233) = (   0.1666667   0.3333333   0.2500000), wk =   0.0026042
        k(  234) = (   0.1666667   0.3333333   0.3750000), wk =   0.0026042
        k(  235) = (   0.1666667   0.3333333  -0.5000000), wk =   0.0026042
        k(  236) = (   0.1666667   0.3750000   0.0000000), wk =   0.0026042
        k(  237) = (   0.1666667   0.3750000   0.1250000), wk =   0.0026042
        k(  238) = (   0.1666667   0.3750000   0.2500000), wk =   0.0026042
        k(  239) = (   0.1666667   0.3750000   0.3750000), wk =   0.0026042
        k(  240) = (   0.1666667   0.3750000  -0.5000000), wk =   0.0026042
        k(  241) = (   0.1666667   0.4166667   0.0000000), wk =   0.0013021
        k(  242) = (   0.1666667   0.4166667   0.1250000), wk =   0.0013021
        k(  243) = (   0.1666667   0.4166667   0.2500000), wk =   0.0013021
        k(  244) = (   0.1666667   0.4166667   0.3750000), wk =   0.0013021
        k(  245) = (   0.1666667   0.4166667  -0.5000000), wk =   0.0013021
        k(  246) = (   0.2083333   0.2083333   0.0000000), wk =   0.0013021
        k(  247) = (   0.2083333   0.2083333   0.1250000), wk =   0.0013021
        k(  248) = (   0.2083333   0.2083333   0.2500000), wk =   0.0013021
        k(  249) = (   0.2083333   0.2083333   0.3750000), wk =   0.0013021
        k(  250) = (   0.2083333   0.2083333  -0.5000000), wk =   0.0013021
        k(  251) = (   0.2083333   0.2500000   0.0000000), wk =   0.0026042
        k(  252) = (   0.2083333   0.2500000   0.1250000), wk =   0.0026042
        k(  253) = (   0.2083333   0.2500000   0.2500000), wk =   0.0026042
        k(  254) = (   0.2083333   0.2500000   0.3750000), wk =   0.0026042
        k(  255) = (   0.2083333   0.2500000  -0.5000000), wk =   0.0026042
        k(  256) = (   0.2083333   0.2916667   0.0000000), wk =   0.0026042
        k(  257) = (   0.2083333   0.2916667   0.1250000), wk =   0.0026042
        k(  258) = (   0.2083333   0.2916667   0.2500000), wk =   0.0026042
        k(  259) = (   0.2083333   0.2916667   0.3750000), wk =   0.0026042
        k(  260) = (   0.2083333   0.2916667  -0.5000000), wk =   0.0026042
        k(  261) = (   0.2083333   0.3333333   0.0000000), wk =   0.0026042
        k(  262) = (   0.2083333   0.3333333   0.1250000), wk =   0.0026042
        k(  263) = (   0.2083333   0.3333333   0.2500000), wk =   0.0026042
        k(  264) = (   0.2083333   0.3333333   0.3750000), wk =   0.0026042
        k(  265) = (   0.2083333   0.3333333  -0.5000000), wk =   0.0026042
        k(  266) = (   0.2083333   0.3750000   0.0000000), wk =   0.0026042
        k(  267) = (   0.2083333   0.3750000   0.1250000), wk =   0.0026042
        k(  268) = (   0.2083333   0.3750000   0.2500000), wk =   0.0026042
        k(  269) = (   0.2083333   0.3750000   0.3750000), wk =   0.0026042
        k(  270) = (   0.2083333   0.3750000  -0.5000000), wk =   0.0026042
        k(  271) = (   0.2500000   0.2500000   0.0000000), wk =   0.0013021
        k(  272) = (   0.2500000   0.2500000   0.1250000), wk =   0.0013021
        k(  273) = (   0.2500000   0.2500000   0.2500000), wk =   0.0013021
        k(  274) = (   0.2500000   0.2500000   0.3750000), wk =   0.0013021
        k(  275) = (   0.2500000   0.2500000  -0.5000000), wk =   0.0013021
        k(  276) = (   0.2500000   0.2916667   0.0000000), wk =   0.0026042
        k(  277) = (   0.2500000   0.2916667   0.1250000), wk =   0.0026042
        k(  278) = (   0.2500000   0.2916667   0.2500000), wk =   0.0026042
        k(  279) = (   0.2500000   0.2916667   0.3750000), wk =   0.0026042
        k(  280) = (   0.2500000   0.2916667  -0.5000000), wk =   0.0026042
        k(  281) = (   0.2500000   0.3333333   0.0000000), wk =   0.0026042
        k(  282) = (   0.2500000   0.3333333   0.1250000), wk =   0.0026042
        k(  283) = (   0.2500000   0.3333333   0.2500000), wk =   0.0026042
        k(  284) = (   0.2500000   0.3333333   0.3750000), wk =   0.0026042
        k(  285) = (   0.2500000   0.3333333  -0.5000000), wk =   0.0026042
        k(  286) = (   0.2500000   0.3750000   0.0000000), wk =   0.0013021
        k(  287) = (   0.2500000   0.3750000   0.1250000), wk =   0.0013021
        k(  288) = (   0.2500000   0.3750000   0.2500000), wk =   0.0013021
        k(  289) = (   0.2500000   0.3750000   0.3750000), wk =   0.0013021
        k(  290) = (   0.2500000   0.3750000  -0.5000000), wk =   0.0013021
        k(  291) = (   0.2916667   0.2916667   0.0000000), wk =   0.0013021
        k(  292) = (   0.2916667   0.2916667   0.1250000), wk =   0.0013021
        k(  293) = (   0.2916667   0.2916667   0.2500000), wk =   0.0013021
        k(  294) = (   0.2916667   0.2916667   0.3750000), wk =   0.0013021
        k(  295) = (   0.2916667   0.2916667  -0.5000000), wk =   0.0013021
        k(  296) = (   0.2916667   0.3333333   0.0000000), wk =   0.0026042
        k(  297) = (   0.2916667   0.3333333   0.1250000), wk =   0.0026042
        k(  298) = (   0.2916667   0.3333333   0.2500000), wk =   0.0026042
        k(  299) = (   0.2916667   0.3333333   0.3750000), wk =   0.0026042
        k(  300) = (   0.2916667   0.3333333  -0.5000000), wk =   0.0026042
        k(  301) = (   0.3333333   0.3333333   0.0000000), wk =   0.0004340
        k(  302) = (   0.3333333   0.3333333   0.1250000), wk =   0.0004340
        k(  303) = (   0.3333333   0.3333333   0.2500000), wk =   0.0004340
        k(  304) = (   0.3333333   0.3333333   0.3750000), wk =   0.0004340
        k(  305) = (   0.3333333   0.3333333  -0.5000000), wk =   0.0004340
        k(  306) = (  -0.0416667  -0.0416667   0.1250000), wk =   0.0013021
        k(  307) = (  -0.0416667  -0.0416667   0.2500000), wk =   0.0013021
        k(  308) = (  -0.0416667  -0.0416667   0.3750000), wk =   0.0013021
        k(  309) = (  -0.0416667  -0.0833333   0.1250000), wk =   0.0026042
        k(  310) = (  -0.0416667  -0.0833333   0.2500000), wk =   0.0026042
        k(  311) = (  -0.0416667  -0.0833333   0.3750000), wk =   0.0026042
        k(  312) = (  -0.0416667  -0.1250000   0.1250000), wk =   0.0026042
        k(  313) = (  -0.0416667  -0.1250000   0.2500000), wk =   0.0026042
        k(  314) = (  -0.0416667  -0.1250000   0.3750000), wk =   0.0026042
        k(  315) = (  -0.0416667  -0.1666667   0.1250000), wk =   0.0026042
        k(  316) = (  -0.0416667  -0.1666667   0.2500000), wk =   0.0026042
        k(  317) = (  -0.0416667  -0.1666667   0.3750000), wk =   0.0026042
        k(  318) = (  -0.0416667  -0.2083333   0.1250000), wk =   0.0026042
        k(  319) = (  -0.0416667  -0.2083333   0.2500000), wk =   0.0026042
        k(  320) = (  -0.0416667  -0.2083333   0.3750000), wk =   0.0026042
        k(  321) = (  -0.0416667  -0.2500000   0.1250000), wk =   0.0026042
        k(  322) = (  -0.0416667  -0.2500000   0.2500000), wk =   0.0026042
        k(  323) = (  -0.0416667  -0.2500000   0.3750000), wk =   0.0026042
        k(  324) = (  -0.0416667  -0.2916667   0.1250000), wk =   0.0026042
        k(  325) = (  -0.0416667  -0.2916667   0.2500000), wk =   0.0026042
        k(  326) = (  -0.0416667  -0.2916667   0.3750000), wk =   0.0026042
        k(  327) = (  -0.0416667  -0.3333333   0.1250000), wk =   0.0026042
        k(  328) = (  -0.0416667  -0.3333333   0.2500000), wk =   0.0026042
        k(  329) = (  -0.0416667  -0.3333333   0.3750000), wk =   0.0026042
        k(  330) = (  -0.0416667  -0.3750000   0.1250000), wk =   0.0026042
        k(  331) = (  -0.0416667  -0.3750000   0.2500000), wk =   0.0026042
        k(  332) = (  -0.0416667  -0.3750000   0.3750000), wk =   0.0026042
        k(  333) = (  -0.0416667  -0.4166667   0.1250000), wk =   0.0026042
        k(  334) = (  -0.0416667  -0.4166667   0.2500000), wk =   0.0026042
        k(  335) = (  -0.0416667  -0.4166667   0.3750000), wk =   0.0026042
        k(  336) = (  -0.0416667  -0.4583333   0.1250000), wk =   0.0026042
        k(  337) = (  -0.0416667  -0.4583333   0.2500000), wk =   0.0026042
        k(  338) = (  -0.0416667  -0.4583333   0.3750000), wk =   0.0026042
        k(  339) = (  -0.0833333  -0.0833333   0.1250000), wk =   0.0013021
        k(  340) = (  -0.0833333  -0.0833333   0.2500000), wk =   0.0013021
        k(  341) = (  -0.0833333  -0.0833333   0.3750000), wk =   0.0013021
        k(  342) = (  -0.0833333  -0.1250000   0.1250000), wk =   0.0026042
        k(  343) = (  -0.0833333  -0.1250000   0.2500000), wk =   0.0026042
        k(  344) = (  -0.0833333  -0.1250000   0.3750000), wk =   0.0026042
        k(  345) = (  -0.0833333  -0.1666667   0.1250000), wk =   0.0026042
        k(  346) = (  -0.0833333  -0.1666667   0.2500000), wk =   0.0026042
        k(  347) = (  -0.0833333  -0.1666667   0.3750000), wk =   0.0026042
        k(  348) = (  -0.0833333  -0.2083333   0.1250000), wk =   0.0026042
        k(  349) = (  -0.0833333  -0.2083333   0.2500000), wk =   0.0026042
        k(  350) = (  -0.0833333  -0.2083333   0.3750000), wk =   0.0026042
        k(  351) = (  -0.0833333  -0.2500000   0.1250000), wk =   0.0026042
        k(  352) = (  -0.0833333  -0.2500000   0.2500000), wk =   0.0026042
        k(  353) = (  -0.0833333  -0.2500000   0.3750000), wk =   0.0026042
        k(  354) = (  -0.0833333  -0.2916667   0.1250000), wk =   0.0026042
        k(  355) = (  -0.0833333  -0.2916667   0.2500000), wk =   0.0026042
        k(  356) = (  -0.0833333  -0.2916667   0.3750000), wk =   0.0026042
        k(  357) = (  -0.0833333  -0.3333333   0.1250000), wk =   0.0026042
        k(  358) = (  -0.0833333  -0.3333333   0.2500000), wk =   0.0026042
        k(  359) = (  -0.0833333  -0.3333333   0.3750000), wk =   0.0026042
        k(  360) = (  -0.0833333  -0.3750000   0.1250000), wk =   0.0026042
        k(  361) = (  -0.0833333  -0.3750000   0.2500000), wk =   0.0026042
        k(  362) = (  -0.0833333  -0.3750000   0.3750000), wk =   0.0026042
        k(  363) = (  -0.0833333  -0.4166667   0.1250000), wk =   0.0026042
        k(  364) = (  -0.0833333  -0.4166667   0.2500000), wk =   0.0026042
        k(  365) = (  -0.0833333  -0.4166667   0.3750000), wk =   0.0026042
        k(  366) = (  -0.0833333  -0.4583333   0.1250000), wk =   0.0013021
        k(  367) = (  -0.0833333  -0.4583333   0.2500000), wk =   0.0013021
        k(  368) = (  -0.0833333  -0.4583333   0.3750000), wk =   0.0013021
        k(  369) = (  -0.1250000  -0.1250000   0.1250000), wk =   0.0013021
        k(  370) = (  -0.1250000  -0.1250000   0.2500000), wk =   0.0013021
        k(  371) = (  -0.1250000  -0.1250000   0.3750000), wk =   0.0013021
        k(  372) = (  -0.1250000  -0.1666667   0.1250000), wk =   0.0026042
        k(  373) = (  -0.1250000  -0.1666667   0.2500000), wk =   0.0026042
        k(  374) = (  -0.1250000  -0.1666667   0.3750000), wk =   0.0026042
        k(  375) = (  -0.1250000  -0.2083333   0.1250000), wk =   0.0026042
        k(  376) = (  -0.1250000  -0.2083333   0.2500000), wk =   0.0026042
        k(  377) = (  -0.1250000  -0.2083333   0.3750000), wk =   0.0026042
        k(  378) = (  -0.1250000  -0.2500000   0.1250000), wk =   0.0026042
        k(  379) = (  -0.1250000  -0.2500000   0.2500000), wk =   0.0026042
        k(  380) = (  -0.1250000  -0.2500000   0.3750000), wk =   0.0026042
        k(  381) = (  -0.1250000  -0.2916667   0.1250000), wk =   0.0026042
        k(  382) = (  -0.1250000  -0.2916667   0.2500000), wk =   0.0026042
        k(  383) = (  -0.1250000  -0.2916667   0.3750000), wk =   0.0026042
        k(  384) = (  -0.1250000  -0.3333333   0.1250000), wk =   0.0026042
        k(  385) = (  -0.1250000  -0.3333333   0.2500000), wk =   0.0026042
        k(  386) = (  -0.1250000  -0.3333333   0.3750000), wk =   0.0026042
        k(  387) = (  -0.1250000  -0.3750000   0.1250000), wk =   0.0026042
        k(  388) = (  -0.1250000  -0.3750000   0.2500000), wk =   0.0026042
        k(  389) = (  -0.1250000  -0.3750000   0.3750000), wk =   0.0026042
        k(  390) = (  -0.1250000  -0.4166667   0.1250000), wk =   0.0026042
        k(  391) = (  -0.1250000  -0.4166667   0.2500000), wk =   0.0026042
        k(  392) = (  -0.1250000  -0.4166667   0.3750000), wk =   0.0026042
        k(  393) = (  -0.1666667  -0.1666667   0.1250000), wk =   0.0013021
        k(  394) = (  -0.1666667  -0.1666667   0.2500000), wk =   0.0013021
        k(  395) = (  -0.1666667  -0.1666667   0.3750000), wk =   0.0013021
        k(  396) = (  -0.1666667  -0.2083333   0.1250000), wk =   0.0026042
        k(  397) = (  -0.1666667  -0.2083333   0.2500000), wk =   0.0026042
        k(  398) = (  -0.1666667  -0.2083333   0.3750000), wk =   0.0026042
        k(  399) = (  -0.1666667  -0.2500000   0.1250000), wk =   0.0026042
        k(  400) = (  -0.1666667  -0.2500000   0.2500000), wk =   0.0026042
        k(  401) = (  -0.1666667  -0.2500000   0.3750000), wk =   0.0026042
        k(  402) = (  -0.1666667  -0.2916667   0.1250000), wk =   0.0026042
        k(  403) = (  -0.1666667  -0.2916667   0.2500000), wk =   0.0026042
        k(  404) = (  -0.1666667  -0.2916667   0.3750000), wk =   0.0026042
        k(  405) = (  -0.1666667  -0.3333333   0.1250000), wk =   0.0026042
        k(  406) = (  -0.1666667  -0.3333333   0.2500000), wk =   0.0026042
        k(  407) = (  -0.1666667  -0.3333333   0.3750000), wk =   0.0026042
        k(  408) = (  -0.1666667  -0.3750000   0.1250000), wk =   0.0026042
        k(  409) = (  -0.1666667  -0.3750000   0.2500000), wk =   0.0026042
        k(  410) = (  -0.1666667  -0.3750000   0.3750000), wk =   0.0026042
        k(  411) = (  -0.1666667  -0.4166667   0.1250000), wk =   0.0013021
        k(  412) = (  -0.1666667  -0.4166667   0.2500000), wk =   0.0013021
        k(  413) = (  -0.1666667  -0.4166667   0.3750000), wk =   0.0013021
        k(  414) = (  -0.2083333  -0.2083333   0.1250000), wk =   0.0013021
        k(  415) = (  -0.2083333  -0.2083333   0.2500000), wk =   0.0013021
        k(  416) = (  -0.2083333  -0.2083333   0.3750000), wk =   0.0013021
        k(  417) = (  -0.2083333  -0.2500000   0.1250000), wk =   0.0026042
        k(  418) = (  -0.2083333  -0.2500000   0.2500000), wk =   0.0026042
        k(  419) = (  -0.2083333  -0.2500000   0.3750000), wk =   0.0026042
        k(  420) = (  -0.2083333  -0.2916667   0.1250000), wk =   0.0026042
        k(  421) = (  -0.2083333  -0.2916667   0.2500000), wk =   0.0026042
        k(  422) = (  -0.2083333  -0.2916667   0.3750000), wk =   0.0026042
        k(  423) = (  -0.2083333  -0.3333333   0.1250000), wk =   0.0026042
        k(  424) = (  -0.2083333  -0.3333333   0.2500000), wk =   0.0026042
        k(  425) = (  -0.2083333  -0.3333333   0.3750000), wk =   0.0026042
        k(  426) = (  -0.2083333  -0.3750000   0.1250000), wk =   0.0026042
        k(  427) = (  -0.2083333  -0.3750000   0.2500000), wk =   0.0026042
        k(  428) = (  -0.2083333  -0.3750000   0.3750000), wk =   0.0026042
        k(  429) = (  -0.2500000  -0.2500000   0.1250000), wk =   0.0013021
        k(  430) = (  -0.2500000  -0.2500000   0.2500000), wk =   0.0013021
        k(  431) = (  -0.2500000  -0.2500000   0.3750000), wk =   0.0013021
        k(  432) = (  -0.2500000  -0.2916667   0.1250000), wk =   0.0026042
        k(  433) = (  -0.2500000  -0.2916667   0.2500000), wk =   0.0026042
        k(  434) = (  -0.2500000  -0.2916667   0.3750000), wk =   0.0026042
        k(  435) = (  -0.2500000  -0.3333333   0.1250000), wk =   0.0026042
        k(  436) = (  -0.2500000  -0.3333333   0.2500000), wk =   0.0026042
        k(  437) = (  -0.2500000  -0.3333333   0.3750000), wk =   0.0026042
        k(  438) = (  -0.2500000  -0.3750000   0.1250000), wk =   0.0013021
        k(  439) = (  -0.2500000  -0.3750000   0.2500000), wk =   0.0013021
        k(  440) = (  -0.2500000  -0.3750000   0.3750000), wk =   0.0013021
        k(  441) = (  -0.2916667  -0.2916667   0.1250000), wk =   0.0013021
        k(  442) = (  -0.2916667  -0.2916667   0.2500000), wk =   0.0013021
        k(  443) = (  -0.2916667  -0.2916667   0.3750000), wk =   0.0013021
        k(  444) = (  -0.2916667  -0.3333333   0.1250000), wk =   0.0026042
        k(  445) = (  -0.2916667  -0.3333333   0.2500000), wk =   0.0026042
        k(  446) = (  -0.2916667  -0.3333333   0.3750000), wk =   0.0026042
        k(  447) = (  -0.3333333  -0.3333333   0.1250000), wk =   0.0004340
        k(  448) = (  -0.3333333  -0.3333333   0.2500000), wk =   0.0004340
        k(  449) = (  -0.3333333  -0.3333333   0.3750000), wk =   0.0004340

     Dense  grid:   256907 G-vectors     FFT dimensions: (  72,  72, 135)

     Smooth grid:    90927 G-vectors     FFT dimensions: (  48,  48,  96)

     Dynamical RAM for                 wfc:      11.10 MB

     Dynamical RAM for     wfc (w. buffer):      11.10 MB

     Dynamical RAM for           str. fact:      11.76 MB

     Dynamical RAM for           local pot:       0.00 MB

     Dynamical RAM for          nlocal pot:      19.07 MB

     Dynamical RAM for                qrad:       5.27 MB

     Dynamical RAM for          rho,v,vnew:      55.56 MB

     Dynamical RAM for           G-vectors:      15.39 MB

     Dynamical RAM for          h,s,v(r/c):       0.75 MB

     Dynamical RAM for          <psi|beta>:       0.11 MB

     Dynamical RAM for                 psi:      22.19 MB

     Dynamical RAM for                hpsi:      22.19 MB

     Dynamical RAM for                spsi:      22.19 MB

     Dynamical RAM for      wfcinit/wfcrot:      22.29 MB

     Dynamical RAM for           addusdens:     756.58 MB

     Estimated static dynamical RAM per process >     165.87 MB

     Estimated max dynamical RAM per process >     922.44 MB

     Check: negative core charge=   -0.000006
     Generating pointlists ...
     new r_m :   0.1587 (alat units)  1.4998 (a.u.) for type    1
     new r_m :   0.1587 (alat units)  1.4998 (a.u.) for type    2
     new r_m :   0.3005 (alat units)  2.8404 (a.u.) for type    3

[...]
     1.9651   1.9888   1.9949   2.1085   2.2376   2.2631   2.4771   2.5764
     2.6924   3.8596   4.0840   4.1974   4.2368   4.7578   4.8017   4.8429
     4.8729   5.5036   7.7467   8.6344   9.3107  10.8609  11.1151  11.4664

     occupation numbers 
     1.0000   1.0000   1.0000   1.0000   1.0000   1.0000   1.0000   1.0000
     1.0000   1.0000   1.0000   1.0000   1.0000   1.0000   1.0000   1.0000
     1.0000   1.0000   1.0000   1.0000   1.0000   1.0000   1.0000   1.0000
     1.0000   1.0000   1.0000   1.0000   1.0000   1.0000   1.0000   1.0000
     1.0000   1.0000   1.0000   1.0000   1.0000   1.0000   1.0000   1.0000
     1.0496   1.0578   1.0599   1.0830   0.9942   0.9537   0.4185   0.2031
     0.0643   0.0000   0.0000   0.0000   0.0000   0.0000   0.0000   0.0000
     0.0000   0.0000   0.0000   0.0000   0.0000   0.0000   0.0000   0.0000

          k =-0.2500-0.5774 0.0632 ( 11365 PWs)   bands (ev):

   -92.6822 -92.6816 -92.6757 -56.0119 -56.0034 -56.0016 -55.9753 -55.9730
   -55.9716 -55.8006 -55.7998 -55.7933 -52.1812 -24.1010 -24.1009 -24.0538
   -15.8058 -15.8041 -15.5448 -14.9042 -14.8536 -14.8529  -3.3202  -2.9966
    -2.9902  -2.2792  -2.2656  -2.2638  -1.9141  -1.9141  -1.8515  -1.2650
    -1.2447  -1.0508  -0.3289  -0.3187  -0.3170   0.6651   0.9731   0.9787
     1.9627   1.9936   1.9938   2.0989   2.2540   2.2558   2.4755   2.6290
     2.6357   3.9817   4.0568   4.2021   4.2672   4.6547   4.7932   4.8032
     4.8579   5.4775   7.8673   8.5615   9.2861  10.8902  11.1436  11.2386

     occupation numbers 
     1.0000   1.0000   1.0000   1.0000   1.0000   1.0000   1.0000   1.0000
     1.0000   1.0000   1.0000   1.0000   1.0000   1.0000   1.0000   1.0000
     1.0000   1.0000   1.0000   1.0000   1.0000   1.0000   1.0000   1.0000
     1.0000   1.0000   1.0000   1.0000   1.0000   1.0000   1.0000   1.0000
     1.0000   1.0000   1.0000   1.0000   1.0000   1.0000   1.0000   1.0000
     1.0488   1.0595   1.0595   1.0833   0.9691   0.9661   0.4227   0.1257
     0.1176   0.0000   0.0000   0.0000   0.0000   0.0000   0.0000   0.0000
     0.0000   0.0000   0.0000   0.0000   0.0000   0.0000   0.0000   0.0000

          k =-0.2500-0.5774 0.1263 ( 11358 PWs)   bands (ev):

   -92.6821 -92.6816 -92.6757 -56.0119 -56.0034 -56.0016 -55.9753 -55.9730
   -55.9716 -55.8006 -55.7998 -55.7932 -52.1812 -24.1010 -24.1009 -24.0538
   -15.8058 -15.8041 -15.5448 -14.9042 -14.8536 -14.8529  -3.3202  -2.9967
    -2.9902  -2.2793  -2.2657  -2.2638  -1.9141  -1.9141  -1.8515  -1.2644
    -1.2443  -1.0505  -0.3289  -0.3186  -0.3170   0.6651   0.9726   0.9780
     1.9626   1.9934   1.9934   2.0989   2.2538   2.2557   2.4753   2.6287
     2.6356   3.9783   4.0556   4.2035   4.2720   4.6587   4.7928   4.8020
     4.8579   5.4760   7.8682   8.5586   9.3020  10.8869  11.1399  11.2586

     occupation numbers 
     1.0000   1.0000   1.0000   1.0000   1.0000   1.0000   1.0000   1.0000
     1.0000   1.0000   1.0000   1.0000   1.0000   1.0000   1.0000   1.0000
     1.0000   1.0000   1.0000   1.0000   1.0000   1.0000   1.0000   1.0000
     1.0000   1.0000   1.0000   1.0000   1.0000   1.0000   1.0000   1.0000
     1.0000   1.0000   1.0000   1.0000   1.0000   1.0000   1.0000   1.0000
     1.0488   1.0594   1.0594   1.0833   0.9694   0.9663   0.4232   0.1261
     0.1178   0.0000   0.0000   0.0000   0.0000   0.0000   0.0000   0.0000
     0.0000   0.0000   0.0000   0.0000   0.0000   0.0000   0.0000   0.0000

          k =-0.2500-0.5774 0.1895 ( 11354 PWs)   bands (ev):

   -92.6821 -92.6816 -92.6757 -56.0120 -56.0034 -56.0016 -55.9753 -55.9730
   -55.9716 -55.8006 -55.7997 -55.7932 -52.1812 -24.1010 -24.1009 -24.0538
   -15.8058 -15.8041 -15.5448 -14.9042 -14.8536 -14.8529  -3.3202  -2.9968
    -2.9903  -2.2794  -2.2657  -2.2639  -1.9141  -1.9140  -1.8515  -1.2639
    -1.2440  -1.0503  -0.3289  -0.3186  -0.3170   0.6652   0.9723   0.9776
     1.9624   1.9929   1.9931   2.0989   2.2536   2.2555   2.4754   2.6300
     2.6364   3.9336   4.0385   4.1995   4.3248   4.6845   4.7917   4.7998
     4.8579   5.4847   7.8421   8.5283   9.2854  10.9274  11.1622  11.3495

     occupation numbers 
     1.0000   1.0000   1.0000   1.0000   1.0000   1.0000   1.0000   1.0000
     1.0000   1.0000   1.0000   1.0000   1.0000   1.0000   1.0000   1.0000
     1.0000   1.0000   1.0000   1.0000   1.0000   1.0000   1.0000   1.0000
     1.0000   1.0000   1.0000   1.0000   1.0000   1.0000   1.0000   1.0000
     1.0000   1.0000   1.0000   1.0000   1.0000   1.0000   1.0000   1.0000
     1.0487   1.0592   1.0593   1.0833   0.9697   0.9666   0.4229   0.1245
     0.1168   0.0000   0.0000   0.0000   0.0000   0.0000   0.0000   0.0000
     0.0000   0.0000   0.0000   0.0000   0.0000   0.0000   0.0000   0.0000

          k =-0.2917-0.5052 0.0632 ( 11350 PWs)   bands (ev):

   -92.6822 -92.6816 -92.6757 -56.0097 -56.0083 -55.9988 -55.9755 -55.9736
   -55.9709 -55.8007 -55.7996 -55.7932 -52.1812 -24.1010 -24.1009 -24.0538
   -15.9074 -15.6246 -15.6232 -14.8846 -14.8842 -14.8405  -3.1904  -3.1883
    -2.9364  -2.3210  -2.3113  -2.1849  -1.9760  -1.8511  -1.8487  -1.3056
    -1.1226  -1.1075  -0.3784  -0.3760  -0.2097   0.7636   0.7708   1.0607
     1.9796   1.9832   1.9998   2.1691   2.1711   2.2469   2.5255   2.5294
     2.6935   3.9088   4.1233   4.1625   4.1746   4.8060   4.8093   4.8163
     5.0165   5.2873   7.7837   8.7752   9.1569  10.7650  11.4710  11.4919

     occupation numbers 
     1.0000   1.0000   1.0000   1.0000   1.0000   1.0000   1.0000   1.0000
     1.0000   1.0000   1.0000   1.0000   1.0000   1.0000   1.0000   1.0000
     1.0000   1.0000   1.0000   1.0000   1.0000   1.0000   1.0000   1.0000
     1.0000   1.0000   1.0000   1.0000   1.0000   1.0000   1.0000   1.0000
     1.0000   1.0000   1.0000   1.0000   1.0000   1.0000   1.0000   1.0000
     1.0546   1.0559   1.0616   1.0637   1.0624   0.9804   0.3030   0.2944
     0.0635   0.0000   0.0000   0.0000   0.0000   0.0000   0.0000   0.0000
     0.0000   0.0000   0.0000   0.0000   0.0000   0.0000   0.0000   0.0000

          k =-0.2917-0.5052 0.1263 ( 11354 PWs)   bands (ev):

   -92.6822 -92.6816 -92.6757 -56.0097 -56.0083 -55.9988 -55.9755 -55.9736
   -55.9709 -55.8007 -55.7996 -55.7932 -52.1812 -24.1010 -24.1009 -24.0538
   -15.9074 -15.6246 -15.6232 -14.8846 -14.8842 -14.8405  -3.1904  -3.1883
    -2.9365  -2.3211  -2.3113  -2.1850  -1.9759  -1.8511  -1.8487  -1.3051
    -1.1222  -1.1073  -0.3784  -0.3760  -0.2097   0.7634   0.7706   1.0597
     1.9795   1.9832   1.9990   2.1691   2.1710   2.2469   2.5251   2.5292
     2.6937   3.9055   4.1265   4.1624   4.1782   4.8065   4.8094   4.8163
     5.0155   5.2867   7.7792   8.7819   9.1684  10.7919  11.4537  11.4615

     occupation numbers 
     1.0000   1.0000   1.0000   1.0000   1.0000   1.0000   1.0000   1.0000
     1.0000   1.0000   1.0000   1.0000   1.0000   1.0000   1.0000   1.0000
     1.0000   1.0000   1.0000   1.0000   1.0000   1.0000   1.0000   1.0000
     1.0000   1.0000   1.0000   1.0000   1.0000   1.0000   1.0000   1.0000
     1.0000   1.0000   1.0000   1.0000   1.0000   1.0000   1.0000   1.0000
     1.0546   1.0559   1.0613   1.0637   1.0625   0.9804   0.3038   0.2948
     0.0633   0.0000   0.0000   0.0000   0.0000   0.0000   0.0000   0.0000
     0.0000   0.0000   0.0000   0.0000   0.0000   0.0000   0.0000   0.0000

          k =-0.2917-0.5052 0.1895 ( 11346 PWs)   bands (ev):

   -92.6822 -92.6816 -92.6757 -56.0097 -56.0083 -55.9989 -55.9755 -55.9735
   -55.9709 -55.8007 -55.7996 -55.7932 -52.1812 -24.1010 -24.1008 -24.0538
   -15.9073 -15.6246 -15.6232 -14.8846 -14.8842 -14.8405  -3.1904  -3.1883
    -2.9367  -2.3212  -2.3114  -2.1849  -1.9760  -1.8511  -1.8487  -1.3046
    -1.1218  -1.1070  -0.3784  -0.3760  -0.2096   0.7635   0.7706   1.0590
     1.9793   1.9830   1.9981   2.1690   2.1709   2.2469   2.5254   2.5294
     2.6958   3.8553   4.1240   4.1558   4.2299   4.8085   4.8102   4.8163
     5.0285   5.2967   7.7473   8.7596   9.1492  10.8816  11.4522  11.5055

     occupation numbers 
     1.0000   1.0000   1.0000   1.0000   1.0000   1.0000   1.0000   1.0000
     1.0000   1.0000   1.0000   1.0000   1.0000   1.0000   1.0000   1.0000
     1.0000   1.0000   1.0000   1.0000   1.0000   1.0000   1.0000   1.0000
     1.0000   1.0000   1.0000   1.0000   1.0000   1.0000   1.0000   1.0000
     1.0000   1.0000   1.0000   1.0000   1.0000   1.0000   1.0000   1.0000
     1.0545   1.0558   1.0610   1.0637   1.0625   0.9804   0.3032   0.2944
     0.0618   0.0000   0.0000   0.0000   0.0000   0.0000   0.0000   0.0000
     0.0000   0.0000   0.0000   0.0000   0.0000   0.0000   0.0000   0.0000

          k =-0.2917-0.5533 0.0632 ( 11357 PWs)   bands (ev):

   -92.6821 -92.6817 -92.6757 -56.0093 -56.0059 -56.0023 -55.9750 -55.9728
   -55.9716 -55.8004 -55.7999 -55.7933 -52.1812 -24.1010 -24.1009 -24.0538
   -15.8133 -15.7182 -15.6309 -14.8845 -14.8676 -14.8530  -3.2048  -3.0921
    -3.0058  -2.2939  -2.2844  -2.2400  -1.9346  -1.8926  -1.8717  -1.2666
    -1.1949  -1.1219  -0.3220  -0.3185  -0.2629   0.7669   0.8733   0.9736
     1.9801   1.9912   1.9985   2.1463   2.1993   2.2241   2.5273   2.5809
     2.6383   3.9964   4.0876   4.1470   4.3115   4.7993   4.8189   4.8396
     4.8508   5.1762   7.9122   8.6974   9.0351  10.9651  11.3745  11.5412

     occupation numbers 
     1.0000   1.0000   1.0000   1.0000   1.0000   1.0000   1.0000   1.0000
     1.0000   1.0000   1.0000   1.0000   1.0000   1.0000   1.0000   1.0000
     1.0000   1.0000   1.0000   1.0000   1.0000   1.0000   1.0000   1.0000
     1.0000   1.0000   1.0000   1.0000   1.0000   1.0000   1.0000   1.0000
     1.0000   1.0000   1.0000   1.0000   1.0000   1.0000   1.0000   1.0000
     1.0548   1.0586   1.0611   1.0749   1.0400   1.0125   0.2989   0.1953
     0.1146   0.0000   0.0000   0.0000   0.0000   0.0000   0.0000   0.0000
     0.0000   0.0000   0.0000   0.0000   0.0000   0.0000   0.0000   0.0000

          k =-0.2917-0.5533 0.1263 ( 11364 PWs)   bands (ev):

   -92.6821 -92.6817 -92.6757 -56.0093 -56.0059 -56.0023 -55.9750 -55.9727
   -55.9716 -55.8004 -55.7999 -55.7933 -52.1812 -24.1010 -24.1009 -24.0539
   -15.8133 -15.7182 -15.6309 -14.8845 -14.8676 -14.8530  -3.2049  -3.0922
    -3.0059  -2.2940  -2.2845  -2.2401  -1.9345  -1.8926  -1.8717  -1.2661
    -1.1945  -1.1216  -0.3220  -0.3185  -0.2629   0.7667   0.8729   0.9730
     1.9800   1.9910   1.9980   2.1463   2.1993   2.2240   2.5271   2.5807
     2.6382   3.9941   4.0871   4.1470   4.3155   4.8010   4.8188   4.8397
     4.8504   5.1760   7.9151   8.6993   9.0448  10.9615  11.3718  11.5136

     occupation numbers 
     1.0000   1.0000   1.0000   1.0000   1.0000   1.0000   1.0000   1.0000
     1.0000   1.0000   1.0000   1.0000   1.0000   1.0000   1.0000   1.0000
     1.0000   1.0000   1.0000   1.0000   1.0000   1.0000   1.0000   1.0000
     1.0000   1.0000   1.0000   1.0000   1.0000   1.0000   1.0000   1.0000
     1.0000   1.0000   1.0000   1.0000   1.0000   1.0000   1.0000   1.0000
     1.0548   1.0586   1.0610   1.0749   1.0400   1.0125   0.2995   0.1958
     0.1148   0.0000   0.0000   0.0000   0.0000   0.0000   0.0000   0.0000
     0.0000   0.0000   0.0000   0.0000   0.0000   0.0000   0.0000   0.0000

          k =-0.2917-0.5533 0.1895 ( 11338 PWs)   bands (ev):

   -92.6820 -92.6817 -92.6757 -56.0093 -56.0059 -56.0023 -55.9750 -55.9727
   -55.9716 -55.8004 -55.7998 -55.7933 -52.1812 -24.1010 -24.1009 -24.0538
   -15.8133 -15.7182 -15.6309 -14.8845 -14.8676 -14.8530  -3.2049  -3.0922
    -3.0060  -2.2940  -2.2845  -2.2401  -1.9345  -1.8925  -1.8717  -1.2656
    -1.1941  -1.1213  -0.3220  -0.3184  -0.2629   0.7668   0.8729   0.9727
     1.9797   1.9907   1.9975   2.1463   2.1993   2.2240   2.5274   2.5813
     2.6393   3.9536   4.0735   4.1390   4.3651   4.8089   4.8187   4.8401
     4.8611   5.1883   7.8896   8.6715   9.0229  11.0249  11.4450  11.5326

     occupation numbers 
     1.0000   1.0000   1.0000   1.0000   1.0000   1.0000   1.0000   1.0000
     1.0000   1.0000   1.0000   1.0000   1.0000   1.0000   1.0000   1.0000
     1.0000   1.0000   1.0000   1.0000   1.0000   1.0000   1.0000   1.0000
     1.0000   1.0000   1.0000   1.0000   1.0000   1.0000   1.0000   1.0000
     1.0000   1.0000   1.0000   1.0000   1.0000   1.0000   1.0000   1.0000
     1.0547   1.0585   1.0608   1.0749   1.0400   1.0125   0.2988   0.1948
     0.1135   0.0000   0.0000   0.0000   0.0000   0.0000   0.0000   0.0000
     0.0000   0.0000   0.0000   0.0000   0.0000   0.0000   0.0000   0.0000

          k =-0.3333-0.5774 0.0632 ( 11319 PWs)   bands (ev):

   -92.6819 -92.6819 -92.6757 -56.0074 -56.0051 -56.0051 -55.9748 -55.9721
   -55.9721 -55.8001 -55.8001 -55.7933 -52.1812 -24.1009 -24.1009 -24.0537
   -15.7236 -15.7212 -15.7212 -14.8680 -14.8672 -14.8672  -3.1030  -3.0973
    -3.0973  -2.2817  -2.2705  -2.2705  -1.9041  -1.9041  -1.9020  -1.2176
    -1.1909  -1.1909  -0.2914  -0.2914  -0.2890   0.8692   0.8692   0.8791
     1.9900   1.9939   1.9939   2.1837   2.1847   2.1847   2.5777   2.5853
     2.5853   4.0334   4.0979   4.0979   4.3953   4.8315   4.8321   4.8321
     4.9360   4.9360   7.9633   8.8230   8.8230  11.0589  11.4597  11.4597

     occupation numbers 
     1.0000   1.0000   1.0000   1.0000   1.0000   1.0000   1.0000   1.0000
     1.0000   1.0000   1.0000   1.0000   1.0000   1.0000   1.0000   1.0000
     1.0000   1.0000   1.0000   1.0000   1.0000   1.0000   1.0000   1.0000
     1.0000   1.0000   1.0000   1.0000   1.0000   1.0000   1.0000   1.0000
     1.0000   1.0000   1.0000   1.0000   1.0000   1.0000   1.0000   1.0000
     1.0582   1.0596   1.0596   1.0536   1.0527   1.0527   0.2009   0.1880
     0.1880   0.0000   0.0000   0.0000   0.0000   0.0000   0.0000   0.0000
     0.0000   0.0000   0.0000   0.0000   0.0000   0.0000   0.0000   0.0000

          k =-0.3333-0.5774 0.1263 ( 11379 PWs)   bands (ev):

   -92.6819 -92.6819 -92.6757 -56.0075 -56.0052 -56.0052 -55.9748 -55.9721
   -55.9721 -55.8002 -55.8002 -55.7933 -52.1812 -24.1010 -24.1010 -24.0539
   -15.7237 -15.7212 -15.7212 -14.8681 -14.8672 -14.8672  -3.1032  -3.0974
    -3.0974  -2.2819  -2.2706  -2.2706  -1.9041  -1.9041  -1.9020  -1.2170
    -1.1907  -1.1907  -0.2914  -0.2914  -0.2890   0.8688   0.8688   0.8786
     1.9896   1.9936   1.9936   2.1836   2.1847   2.1847   2.5772   2.5852
     2.5852   4.0320   4.0974   4.0974   4.3976   4.8315   4.8320   4.8320
     4.9369   4.9369   7.9692   8.8274   8.8274  11.0371  11.4529  11.4529

     occupation numbers 
     1.0000   1.0000   1.0000   1.0000   1.0000   1.0000   1.0000   1.0000
     1.0000   1.0000   1.0000   1.0000   1.0000   1.0000   1.0000   1.0000
     1.0000   1.0000   1.0000   1.0000   1.0000   1.0000   1.0000   1.0000
     1.0000   1.0000   1.0000   1.0000   1.0000   1.0000   1.0000   1.0000
     1.0000   1.0000   1.0000   1.0000   1.0000   1.0000   1.0000   1.0000
     1.0581   1.0595   1.0595   1.0536   1.0527   1.0527   0.2017   0.1883
     0.1883   0.0000   0.0000   0.0000   0.0000   0.0000   0.0000   0.0000
     0.0000   0.0000   0.0000   0.0000   0.0000   0.0000   0.0000   0.0000

          k =-0.3333-0.5774 0.1895 ( 11349 PWs)   bands (ev):

   -92.6819 -92.6819 -92.6757 -56.0075 -56.0052 -56.0052 -55.9748 -55.9721
   -55.9721 -55.8001 -55.8001 -55.7933 -52.1812 -24.1009 -24.1009 -24.0538
   -15.7237 -15.7212 -15.7212 -14.8680 -14.8672 -14.8672  -3.1032  -3.0974
    -3.0974  -2.2819  -2.2707  -2.2707  -1.9042  -1.9042  -1.9020  -1.2165
    -1.1904  -1.1904  -0.2913  -0.2913  -0.2890   0.8688   0.8688   0.8785
     1.9891   1.9934   1.9934   2.1836   2.1847   2.1847   2.5781   2.5856
     2.5856   3.9959   4.0864   4.0864   4.4413   4.8315   4.8320   4.8320
     4.9536   4.9536   7.9460   8.8009   8.8009  11.0885  11.5246  11.5246

     occupation numbers 
     1.0000   1.0000   1.0000   1.0000   1.0000   1.0000   1.0000   1.0000
     1.0000   1.0000   1.0000   1.0000   1.0000   1.0000   1.0000   1.0000
     1.0000   1.0000   1.0000   1.0000   1.0000   1.0000   1.0000   1.0000
     1.0000   1.0000   1.0000   1.0000   1.0000   1.0000   1.0000   1.0000
     1.0000   1.0000   1.0000   1.0000   1.0000   1.0000   1.0000   1.0000
     1.0579   1.0594   1.0594   1.0536   1.0527   1.0527   0.2002   0.1876
     0.1876   0.0000   0.0000   0.0000   0.0000   0.0000   0.0000   0.0000
     0.0000   0.0000   0.0000   0.0000   0.0000   0.0000   0.0000   0.0000

     the Fermi energy is     2.4842 ev
     (compare with:     2.4831 eV, computed in scf)

     Writing all to output data dir ../Na_s3_c9.9_d0.75/out/pw.save/ :
     XML data file, pseudopotentials, collected wavefunctions
 
     init_run     :     23.03s CPU      5.26s WALL (       1 calls)
     electrons    :    621.88s CPU    622.02s WALL (       1 calls)

     Called by init_run:
     wfcinit      :      0.00s CPU      0.00s WALL (       1 calls)
     wfcinit:atom :      1.43s CPU      1.45s WALL (     898 calls)
     wfcinit:wfcr :      7.83s CPU      7.91s WALL (     898 calls)
     potinit      :     21.38s CPU      3.53s WALL (       1 calls)
     hinit0       :      0.56s CPU      0.54s WALL (       1 calls)

     Called by electrons:
     c_bands      :    621.82s CPU    621.96s WALL (       1 calls)
     v_of_rho     :      0.04s CPU      0.06s WALL (       1 calls)
     v_h          :      0.02s CPU      0.01s WALL (       1 calls)
     v_xc         :      0.02s CPU      0.06s WALL (       1 calls)
     newd         :      0.05s CPU      0.08s WALL (       1 calls)
                                        0.08s GPU  (       1 calls)
     PAW_pot      :     11.29s CPU      1.46s WALL (       1 calls)

     Called by c_bands:
     init_us_2    :      0.38s CPU      0.49s WALL (     898 calls)
     cegterg      :    609.89s CPU    608.37s WALL (    4919 calls)

     Called by sum_band:

     Called by *egterg:
     cdiaghg      :    232.13s CPU    234.33s WALL (   93667 calls)
                                      233.19s GPU  (   93667 calls)
     cegterg:over :     27.70s CPU     28.09s WALL (   92769 calls)
     cegterg:upda :     50.43s CPU     50.51s WALL (   92769 calls)
     cegterg:last :     11.05s CPU     10.79s WALL (   48165 calls)
     h_psi        :    236.13s CPU    235.01s WALL (   98586 calls)
                                      233.75s GPU  (   98586 calls)
     s_psi        :     30.06s CPU     30.84s WALL (   98586 calls)
     g_psi        :      0.44s CPU      4.99s WALL (   92769 calls)
                                        3.77s GPU  (   92769 calls)

     Called by h_psi:
     h_psi:calbec :      2.71s CPU      7.86s WALL (   98586 calls)
                                        6.66s GPU  (   98586 calls)
     vloc_psi     :    189.15s CPU    186.53s WALL (   98586 calls)
                                      185.28s GPU  (   98586 calls)
     add_vuspsi   :     28.35s CPU     33.61s WALL (   98586 calls)
                                       32.38s GPU  (   98586 calls)

     General routines
     calbec       :      2.46s CPU      2.61s WALL (   98586 calls)
     fft          :      6.47s CPU      1.09s WALL (      23 calls)
                                        0.00s GPU  (      21 calls)
     ffts         :      3.57s CPU      0.90s WALL (       2 calls)
     fftw         :      7.57s CPU    104.64s WALL (  475484 calls)
                                       99.16s GPU  (  475484 calls)
     interpolate  :     10.05s CPU      2.00s WALL (       2 calls)
     davcio       :      7.43s CPU      2.81s WALL (    1796 calls)
 
     Parallel routines

     PAW routines
     PAW_pot      :     11.29s CPU      1.46s WALL (       1 calls)
 
     PWSCF        :  10m55.59s CPU  10m32.99s WALL

 
   This run was terminated on:   4:19:39  12Jul2026            

=------------------------------------------------------------------------------=
   JOB DONE.
=------------------------------------------------------------------------------=
Warning: ieee_divide_by_zero is signaling
Warning: ieee_inexact is signaling
FORTRAN STOP
