
     Program PWSCF v.7.3.1 starts on 12Jul2026 at  4:20:30 

     This program is part of the open-source Quantum ESPRESSO suite
     for quantum simulation of materials; please cite
         "P. Giannozzi et al., J. Phys.:Condens. Matter 21 395502 (2009);
         "P. Giannozzi et al., J. Phys.:Condens. Matter 29 465901 (2017);
         "P. Giannozzi et al., J. Chem. Phys. 152 154105 (2020);
          URL http://www.quantum-espresso.org", 
     in publications or presentations arising from this work. More details at
     http://www.quantum-espresso.org/quote

     Parallel version (MPI & OpenMP), running on      14 processor cores
     Number of MPI processes:                 1
     Threads/MPI process:                    14

     MPI processes distributed on     1 nodes
     763157 MiB available memory on the printing compute node when the environment starts
 
     Reading input from pw.in

     Current dimensions of program PWSCF are:
     Max number of different atomic species (ntypx) = 10
     Max number of k-points (npk) =  40000
     Max angular momentum in pseudopotentials (lmaxx) =  4
     file Co.pbe-spn-kjpaw_psl.0.3.1.UPF: wavefunction(s)  3P 3D renormalized
     file O.pbe-n-kjpaw_psl.1.0.0.UPF: wavefunction(s)  2S 2P renormalized
     file Na.pbe-spn-kjpaw_psl.1.0.0.UPF: wavefunction(s)  2P renormalized
 
     Subspace diagonalization in iterative solution of the eigenvalue problem:
     a serial algorithm will be used

 
     G-vector sticks info
     --------------------
     sticks:   dense  smooth     PW     G-vecs:    dense   smooth      PW
     Sum         979     499    151                59641    21167    3581
 
     Using Slab Decomposition
 


     bravais-lattice index     =            4
     lattice parameter (alat)  =       5.4575  a.u.
     unit-cell volume          =     336.3339 (a.u.)^3
     number of atoms/cell      =            4
     number of atomic types    =            3
     number of electrons       =        38.00
     number of Kohn-Sham states=           27
     kinetic-energy cutoff     =      60.0000  Ry
     charge density cutoff     =     480.0000  Ry
     scf convergence threshold =      1.0E-07
     mixing beta               =       0.3000
     number of iterations used =            8  local-TF  mixing
     Exchange-correlation= SLA  PW   PBX  PBC
                           (   1   4   3   4   0   0   0)

     GPU acceleration is ACTIVE.  4 visible GPUs per MPI rank
     GPU-aware MPI enabled


     GPU used by master process:

        Device Number: 0
        Device name: NVIDIA A100-SXM4-80GB
        Compute capability : 80
        Ratio of single to double precision performance  : 2
        Memory Clock Rate (KHz): 1593000
        Memory Bus Width (bits): 5120
        Peak Memory Bandwidth (GB/s): ******

     celldm(1)=   5.457529  celldm(2)=   0.000000  celldm(3)=   2.389197
     celldm(4)=   0.000000  celldm(5)=   0.000000  celldm(6)=   0.000000

     crystal axes: (cart. coord. in units of alat)
               a(1) = (   1.000000   0.000000   0.000000 )  
               a(2) = (  -0.500000   0.866025   0.000000 )  
               a(3) = (   0.000000   0.000000   2.389197 )  

     reciprocal axes: (cart. coord. in units 2 pi/alat)
               b(1) = (  1.000000  0.577350 -0.000000 )  
               b(2) = (  0.000000  1.154701  0.000000 )  
               b(3) = (  0.000000 -0.000000  0.418551 )  


     PseudoPot. # 1 for Co read from file:
     ../../pseudo/Co.pbe-spn-kjpaw_psl.0.3.1.UPF
     MD5 check sum: 3c0a43779828c046024e4f3be63f8e67
     Pseudo is Projector augmented-wave + core cor, Zval = 17.0
     Generated using &quot;atomic&quot; code by A. Dal Corso  v.6.2.2
     Shape of augmentation charge: PSQ
     Using radial grid of 1193 points,  6 beta functions with: 
                l(1) =   0
                l(2) =   0
                l(3) =   1
                l(4) =   1
                l(5) =   2
                l(6) =   2
     Q(r) pseudized with 0 coefficients 


     PseudoPot. # 2 for O  read from file:
     ../../pseudo/O.pbe-n-kjpaw_psl.1.0.0.UPF
     MD5 check sum: e99d9cef9b487d1ca56f5b95ecd0fd7a
     Pseudo is Projector augmented-wave + core cor, Zval =  6.0
     Generated using &quot;atomic&quot; code by A. Dal Corso  v.6.3
     Shape of augmentation charge: PSQ
     Using radial grid of 1095 points,  4 beta functions with: 
                l(1) =   0
                l(2) =   0
                l(3) =   1
                l(4) =   1
     Q(r) pseudized with 0 coefficients 


     PseudoPot. # 3 for Na read from file:
     ../../pseudo/Na.pbe-spn-kjpaw_psl.1.0.0.UPF
     MD5 check sum: 05b4deb74e3932c23ab016979dc8b5d4
     Pseudo is Projector augmented-wave + core cor, Zval =  9.0
     Generated using &quot;atomic&quot; code by A. Dal Corso  v.6.3
     Shape of augmentation charge: PSQ
     Using radial grid of 1121 points,  4 beta functions with: 
                l(1) =   0
                l(2) =   0
                l(3) =   1
                l(4) =   1
     Q(r) pseudized with 0 coefficients 


     atomic species   valence    mass     pseudopotential
     Co               17.00    58.93300     Co( 1.00)
     O                 6.00    15.99900     O ( 1.00)
     Na                9.00    22.98977     Na( 1.00)

     Starting magnetic structure 
     atomic species   magnetization
     Co              0.300
     O               0.000
     Na              0.000

      6 Sym. Ops. (no inversion) found


                                    s                        frac. trans.

      isym =  1     identity                                     

 cryst.   s( 1) = (     1          0          0      )
                  (     0          1          0      )
                  (     0          0          1      )

 cart.    s( 1) = (  1.0000000  0.0000000  0.0000000 )
                  (  0.0000000  1.0000000  0.0000000 )
                  (  0.0000000  0.0000000  1.0000000 )


      isym =  2     120 deg rotation - cryst. axis [0,0,1]       

 cryst.   s( 2) = (     0          1          0      )
                  (    -1         -1          0      )
                  (     0          0          1      )

 cart.    s( 2) = ( -0.5000000 -0.8660254  0.0000000 )
                  (  0.8660254 -0.5000000  0.0000000 )
                  (  0.0000000  0.0000000  1.0000000 )


      isym =  3     120 deg rotation - cryst. axis [0,0,-1]      

 cryst.   s( 3) = (    -1         -1          0      )
                  (     1          0          0      )
                  (     0          0          1      )

 cart.    s( 3) = ( -0.5000000  0.8660254  0.0000000 )
                  ( -0.8660254 -0.5000000  0.0000000 )
                  (  0.0000000  0.0000000  1.0000000 )


      isym =  4     inv. 180 deg rotation - cart. axis [1,0,0]   

 cryst.   s( 4) = (    -1          0          0      )
                  (     1          1          0      )
                  (     0          0          1      )

 cart.    s( 4) = ( -1.0000000  0.0000000  0.0000000 )
                  (  0.0000000  1.0000000  0.0000000 )
                  (  0.0000000  0.0000000  1.0000000 )


      isym =  5     inv. 180 deg rotation - cryst. axis [0,1,0]  

 cryst.   s( 5) = (     1          1          0      )
                  (     0         -1          0      )
                  (     0          0          1      )

 cart.    s( 5) = (  0.5000000  0.8660254  0.0000000 )
                  (  0.8660254 -0.5000000  0.0000000 )
                  (  0.0000000  0.0000000  1.0000000 )


      isym =  6     inv. 180 deg rotation - cryst. axis [1,1,0]  

 cryst.   s( 6) = (     0         -1          0      )
                  (    -1          0          0      )
                  (     0          0          1      )

 cart.    s( 6) = (  0.5000000 -0.8660254  0.0000000 )
                  ( -0.8660254 -0.5000000  0.0000000 )
                  (  0.0000000  0.0000000  1.0000000 )


     point group C_3v (3m)  
     there are  3 classes
     the character table:

       E     2C3   3s_v 
A_1    1.00  1.00  1.00
A_2    1.00  1.00 -1.00
E      2.00 -1.00  0.00

     the symmetry operations in each class and the name of the first element:

     E        1
          identity                                               
     2C3      2    3
          120 deg rotation - cryst. axis [0,0,1]                 
     3s_v     4    5    6
          inv. 180 deg rotation - cart. axis [1,0,0]             

   Cartesian axes

     site n.     atom                  positions (alat units)
         1        Co     tau(   1) = (   0.0000000   0.0000000   0.0000000  )
         2        O      tau(   2) = (  -0.0000000   0.5773503   0.3324100  )
         3        O      tau(   3) = (   0.5000000   0.2886751   2.0567867  )
         4        Na     tau(   4) = (   0.0000000   0.0000000   1.3677285  )

   Crystallographic axes

     site n.     atom                  positions (cryst. coord.)
         1        Co     tau(   1) = (  0.0000000  0.0000000  0.0000000  )
         2        O      tau(   2) = (  0.3333333  0.6666667  0.1391304  )
         3        O      tau(   3) = (  0.6666667  0.3333333  0.8608696  )
         4        Na     tau(   4) = (  0.0000000  0.0000000  0.5724638  )

     number of k points=    69  Marzari-Vanderbilt smearing, width (Ry)=  0.0200
                       cart. coord. in units 2pi/alat
        k(    1) = (   0.0000000   0.0000000   0.0000000), wk =   0.0017361
        k(    2) = (   0.0000000   0.0000000   0.1046377), wk =   0.0034722
        k(    3) = (   0.0000000   0.0000000  -0.2092754), wk =   0.0017361
        k(    4) = (   0.0000000   0.0962250   0.0000000), wk =   0.0104167
        k(    5) = (   0.0000000   0.0962250   0.1046377), wk =   0.0104167
        k(    6) = (   0.0000000   0.0962250  -0.2092754), wk =   0.0104167
        k(    7) = (   0.0000000   0.1924501   0.0000000), wk =   0.0104167
        k(    8) = (   0.0000000   0.1924501   0.1046377), wk =   0.0104167
        k(    9) = (   0.0000000   0.1924501  -0.2092754), wk =   0.0104167
        k(   10) = (   0.0000000   0.2886751   0.0000000), wk =   0.0104167
        k(   11) = (   0.0000000   0.2886751   0.1046377), wk =   0.0104167
        k(   12) = (   0.0000000   0.2886751  -0.2092754), wk =   0.0104167
        k(   13) = (   0.0000000   0.3849002   0.0000000), wk =   0.0104167
        k(   14) = (   0.0000000   0.3849002   0.1046377), wk =   0.0104167
        k(   15) = (   0.0000000   0.3849002  -0.2092754), wk =   0.0104167
        k(   16) = (   0.0000000   0.4811252   0.0000000), wk =   0.0104167
        k(   17) = (   0.0000000   0.4811252   0.1046377), wk =   0.0104167
        k(   18) = (   0.0000000   0.4811252  -0.2092754), wk =   0.0104167
        k(   19) = (   0.0000000  -0.5773503   0.0000000), wk =   0.0052083
        k(   20) = (   0.0000000  -0.5773503   0.1046377), wk =   0.0104167
        k(   21) = (   0.0000000  -0.5773503  -0.2092754), wk =   0.0052083
        k(   22) = (   0.0833333   0.1443376   0.0000000), wk =   0.0104167
        k(   23) = (   0.0833333   0.1443376   0.1046377), wk =   0.0208333
        k(   24) = (   0.0833333   0.1443376  -0.2092754), wk =   0.0104167
        k(   25) = (   0.0833333   0.2405626   0.0000000), wk =   0.0208333
        k(   26) = (   0.0833333   0.2405626   0.1046377), wk =   0.0208333
        k(   27) = (   0.0833333   0.2405626  -0.2092754), wk =   0.0208333
        k(   28) = (   0.0833333   0.3367877   0.0000000), wk =   0.0208333
        k(   29) = (   0.0833333   0.3367877   0.1046377), wk =   0.0208333
        k(   30) = (   0.0833333   0.3367877  -0.2092754), wk =   0.0208333
        k(   31) = (   0.0833333   0.4330127   0.0000000), wk =   0.0208333
        k(   32) = (   0.0833333   0.4330127   0.1046377), wk =   0.0208333
        k(   33) = (   0.0833333   0.4330127  -0.2092754), wk =   0.0208333
        k(   34) = (   0.0833333   0.5292377   0.0000000), wk =   0.0208333
        k(   35) = (   0.0833333   0.5292377   0.1046377), wk =   0.0208333
        k(   36) = (   0.0833333   0.5292377  -0.2092754), wk =   0.0208333
        k(   37) = (   0.1666667   0.2886751   0.0000000), wk =   0.0104167
        k(   38) = (   0.1666667   0.2886751   0.1046377), wk =   0.0208333
        k(   39) = (   0.1666667   0.2886751  -0.2092754), wk =   0.0104167
        k(   40) = (   0.1666667   0.3849002   0.0000000), wk =   0.0208333
        k(   41) = (   0.1666667   0.3849002   0.1046377), wk =   0.0208333
        k(   42) = (   0.1666667   0.3849002  -0.2092754), wk =   0.0208333
        k(   43) = (   0.1666667   0.4811252   0.0000000), wk =   0.0208333
        k(   44) = (   0.1666667   0.4811252   0.1046377), wk =   0.0208333
        k(   45) = (   0.1666667   0.4811252  -0.2092754), wk =   0.0208333
        k(   46) = (   0.1666667   0.5773503   0.0000000), wk =   0.0104167
        k(   47) = (   0.1666667   0.5773503   0.1046377), wk =   0.0208333
        k(   48) = (   0.1666667   0.5773503  -0.2092754), wk =   0.0104167
        k(   49) = (   0.2500000   0.4330127   0.0000000), wk =   0.0104167
        k(   50) = (   0.2500000   0.4330127   0.1046377), wk =   0.0208333
        k(   51) = (   0.2500000   0.4330127  -0.2092754), wk =   0.0104167
        k(   52) = (   0.2500000   0.5292377   0.0000000), wk =   0.0208333
        k(   53) = (   0.2500000   0.5292377   0.1046377), wk =   0.0208333
        k(   54) = (   0.2500000   0.5292377  -0.2092754), wk =   0.0208333
        k(   55) = (   0.3333333   0.5773503   0.0000000), wk =   0.0034722
        k(   56) = (   0.3333333   0.5773503   0.1046377), wk =   0.0069444
        k(   57) = (   0.3333333   0.5773503  -0.2092754), wk =   0.0034722
        k(   58) = (   0.0000000  -0.0962250   0.1046377), wk =   0.0104167
        k(   59) = (   0.0000000  -0.1924501   0.1046377), wk =   0.0104167
        k(   60) = (   0.0000000  -0.2886751   0.1046377), wk =   0.0104167
        k(   61) = (   0.0000000  -0.3849002   0.1046377), wk =   0.0104167
        k(   62) = (   0.0000000  -0.4811252   0.1046377), wk =   0.0104167
        k(   63) = (  -0.0833333  -0.2405626   0.1046377), wk =   0.0208333
        k(   64) = (  -0.0833333  -0.3367877   0.1046377), wk =   0.0208333
        k(   65) = (  -0.0833333  -0.4330127   0.1046377), wk =   0.0208333
        k(   66) = (  -0.0833333  -0.5292377   0.1046377), wk =   0.0208333
        k(   67) = (  -0.1666667  -0.3849002   0.1046377), wk =   0.0208333
        k(   68) = (  -0.1666667  -0.4811252   0.1046377), wk =   0.0208333
        k(   69) = (  -0.2500000  -0.5292377   0.1046377), wk =   0.0208333

                       cryst. coord.
        k(    1) = (   0.0000000   0.0000000   0.0000000), wk =   0.0017361
        k(    2) = (   0.0000000   0.0000000   0.2500000), wk =   0.0034722
        k(    3) = (   0.0000000   0.0000000  -0.5000000), wk =   0.0017361
        k(    4) = (   0.0000000   0.0833333   0.0000000), wk =   0.0104167
        k(    5) = (   0.0000000   0.0833333   0.2500000), wk =   0.0104167
        k(    6) = (   0.0000000   0.0833333  -0.5000000), wk =   0.0104167
        k(    7) = (   0.0000000   0.1666667   0.0000000), wk =   0.0104167
        k(    8) = (   0.0000000   0.1666667   0.2500000), wk =   0.0104167
        k(    9) = (   0.0000000   0.1666667  -0.5000000), wk =   0.0104167
        k(   10) = (   0.0000000   0.2500000   0.0000000), wk =   0.0104167
        k(   11) = (   0.0000000   0.2500000   0.2500000), wk =   0.0104167
        k(   12) = (   0.0000000   0.2500000  -0.5000000), wk =   0.0104167
        k(   13) = (   0.0000000   0.3333333   0.0000000), wk =   0.0104167
        k(   14) = (   0.0000000   0.3333333   0.2500000), wk =   0.0104167
        k(   15) = (   0.0000000   0.3333333  -0.5000000), wk =   0.0104167
        k(   16) = (   0.0000000   0.4166667   0.0000000), wk =   0.0104167
        k(   17) = (   0.0000000   0.4166667   0.2500000), wk =   0.0104167
        k(   18) = (   0.0000000   0.4166667  -0.5000000), wk =   0.0104167
        k(   19) = (   0.0000000  -0.5000000   0.0000000), wk =   0.0052083
        k(   20) = (   0.0000000  -0.5000000   0.2500000), wk =   0.0104167
        k(   21) = (   0.0000000  -0.5000000  -0.5000000), wk =   0.0052083
        k(   22) = (   0.0833333   0.0833333   0.0000000), wk =   0.0104167
        k(   23) = (   0.0833333   0.0833333   0.2500000), wk =   0.0208333
        k(   24) = (   0.0833333   0.0833333  -0.5000000), wk =   0.0104167
        k(   25) = (   0.0833333   0.1666667   0.0000000), wk =   0.0208333
        k(   26) = (   0.0833333   0.1666667   0.2500000), wk =   0.0208333
        k(   27) = (   0.0833333   0.1666667  -0.5000000), wk =   0.0208333
        k(   28) = (   0.0833333   0.2500000   0.0000000), wk =   0.0208333
        k(   29) = (   0.0833333   0.2500000   0.2500000), wk =   0.0208333
        k(   30) = (   0.0833333   0.2500000  -0.5000000), wk =   0.0208333
        k(   31) = (   0.0833333   0.3333333   0.0000000), wk =   0.0208333
        k(   32) = (   0.0833333   0.3333333   0.2500000), wk =   0.0208333
        k(   33) = (   0.0833333   0.3333333  -0.5000000), wk =   0.0208333
        k(   34) = (   0.0833333   0.4166667   0.0000000), wk =   0.0208333
        k(   35) = (   0.0833333   0.4166667   0.2500000), wk =   0.0208333
        k(   36) = (   0.0833333   0.4166667  -0.5000000), wk =   0.0208333
        k(   37) = (   0.1666667   0.1666667   0.0000000), wk =   0.0104167
        k(   38) = (   0.1666667   0.1666667   0.2500000), wk =   0.0208333
        k(   39) = (   0.1666667   0.1666667  -0.5000000), wk =   0.0104167
        k(   40) = (   0.1666667   0.2500000   0.0000000), wk =   0.0208333
        k(   41) = (   0.1666667   0.2500000   0.2500000), wk =   0.0208333
        k(   42) = (   0.1666667   0.2500000  -0.5000000), wk =   0.0208333
        k(   43) = (   0.1666667   0.3333333   0.0000000), wk =   0.0208333
        k(   44) = (   0.1666667   0.3333333   0.2500000), wk =   0.0208333
        k(   45) = (   0.1666667   0.3333333  -0.5000000), wk =   0.0208333
        k(   46) = (   0.1666667   0.4166667   0.0000000), wk =   0.0104167
        k(   47) = (   0.1666667   0.4166667   0.2500000), wk =   0.0208333
        k(   48) = (   0.1666667   0.4166667  -0.5000000), wk =   0.0104167
        k(   49) = (   0.2500000   0.2500000   0.0000000), wk =   0.0104167
        k(   50) = (   0.2500000   0.2500000   0.2500000), wk =   0.0208333
        k(   51) = (   0.2500000   0.2500000  -0.5000000), wk =   0.0104167
        k(   52) = (   0.2500000   0.3333333   0.0000000), wk =   0.0208333
        k(   53) = (   0.2500000   0.3333333   0.2500000), wk =   0.0208333
        k(   54) = (   0.2500000   0.3333333  -0.5000000), wk =   0.0208333
        k(   55) = (   0.3333333   0.3333333   0.0000000), wk =   0.0034722
        k(   56) = (   0.3333333   0.3333333   0.2500000), wk =   0.0069444
        k(   57) = (   0.3333333   0.3333333  -0.5000000), wk =   0.0034722
        k(   58) = (   0.0000000  -0.0833333   0.2500000), wk =   0.0104167
        k(   59) = (   0.0000000  -0.1666667   0.2500000), wk =   0.0104167
        k(   60) = (   0.0000000  -0.2500000   0.2500000), wk =   0.0104167
        k(   61) = (   0.0000000  -0.3333333   0.2500000), wk =   0.0104167
        k(   62) = (   0.0000000  -0.4166667   0.2500000), wk =   0.0104167
        k(   63) = (  -0.0833333  -0.1666667   0.2500000), wk =   0.0208333
        k(   64) = (  -0.0833333  -0.2500000   0.2500000), wk =   0.0208333
        k(   65) = (  -0.0833333  -0.3333333   0.2500000), wk =   0.0208333
        k(   66) = (  -0.0833333  -0.4166667   0.2500000), wk =   0.0208333
        k(   67) = (  -0.1666667  -0.2500000   0.2500000), wk =   0.0208333
        k(   68) = (  -0.1666667  -0.3333333   0.2500000), wk =   0.0208333
        k(   69) = (  -0.2500000  -0.3333333   0.2500000), wk =   0.0208333

     Dense  grid:    59641 G-vectors     FFT dimensions: (  40,  40,  96)

     Smooth grid:    21167 G-vectors     FFT dimensions: (  27,  27,  72)

     Dynamical RAM for                 wfc:       1.09 MB

     Dynamical RAM for     wfc (w. buffer):     151.18 MB

     Dynamical RAM for           str. fact:       2.73 MB

     Dynamical RAM for           local pot:       0.00 MB

     Dynamical RAM for          nlocal pot:       1.69 MB

     Dynamical RAM for                qrad:       5.27 MB

     Dynamical RAM for          rho,v,vnew:      12.49 MB

     Dynamical RAM for               rhoin:       4.16 MB

     Dynamical RAM for            rho*nmix:      29.12 MB

     Dynamical RAM for           G-vectors:       3.57 MB

     Dynamical RAM for          h,s,v(r/c):       0.13 MB

     Dynamical RAM for          <psi|beta>:       0.02 MB

     Dynamical RAM for                 psi:       2.18 MB

     Dynamical RAM for                hpsi:       2.18 MB

     Dynamical RAM for                spsi:       2.18 MB

     Dynamical RAM for      wfcinit/wfcrot:       2.19 MB

     Dynamical RAM for           addusdens:     172.00 MB

     Dynamical RAM for          addusforce:     173.84 MB

     Estimated static dynamical RAM per process >     191.78 MB

     Estimated max dynamical RAM per process >     394.74 MB

     Check: negative core charge=   -0.000008
     Generating pointlists ...
     new r_m :   0.2748 (alat units)  1.4998 (a.u.) for type    1
     new r_m :   0.2748 (alat units)  1.4998 (a.u.) for type    2
     new r_m :   0.3708 (alat units)  2.0238 (a.u.) for type    3

     Initial potential from superposition of free atoms

     starting charge      37.9934, renormalised to      38.0000
     Starting wfcs are   23 randomized atomic wfcs +    4 random wfcs
     Checking if some PAW data can be deallocated... 

     total cpu time spent up to now is        4.1 secs

     Self-consistent Calculation
[tb_dev] Currently allocated     6.54E-01 Mbytes, locked:    0 /   6
[tb_pin] Currently allocated     0.00E+00 Mbytes, locked:    0 /   0

     iteration #  1     ecut=    60.00 Ry     beta= 0.30
     Davidson diagonalization with overlap

---- Real-time Memory Report at c_bands before calling an iterative solver
           770 MiB given to the printing process from OS
             0 MiB allocation reported by mallinfo(arena+hblkhd)
        762773 MiB available memory on the node where the printing process lives
     GPU memory used/free/total (MiB): 1000 / 80150 / 81151
------------------
     ethr =  1.00E-02,  avg # of iterations =  9.7

     total cpu time spent up to now is        8.7 secs

     total energy              =    -569.09104264 Ry
     estimated scf accuracy    <       1.50859994 Ry

     total magnetization       =     4.00 Bohr mag/cell
     absolute magnetization    =     4.00 Bohr mag/cell
[tb_dev] Currently allocated     3.05E-05 Mbytes, locked:    0 /   2
[tb_pin] Currently allocated     0.00E+00 Mbytes, locked:    0 /   0

     iteration #  2     ecut=    60.00 Ry     beta= 0.30
     Davidson diagonalization with overlap

---- Real-time Memory Report at c_bands before calling an iterative solver
           811 MiB given to the printing process from OS
             0 MiB allocation reported by mallinfo(arena+hblkhd)
        762782 MiB available memory on the node where the printing process lives
     GPU memory used/free/total (MiB): 1014 / 80136 / 81151
------------------
     ethr =  3.97E-03,  avg # of iterations =  2.0

     total cpu time spent up to now is       10.6 secs

     total energy              =    -569.06500221 Ry
     estimated scf accuracy    <       0.53172303 Ry

     total magnetization       =     3.97 Bohr mag/cell
     absolute magnetization    =     3.97 Bohr mag/cell
[tb_dev] Currently allocated     3.05E-05 Mbytes, locked:    0 /   2
[tb_pin] Currently allocated     0.00E+00 Mbytes, locked:    0 /   0

     iteration #  3     ecut=    60.00 Ry     beta= 0.30
     Davidson diagonalization with overlap

---- Real-time Memory Report at c_bands before calling an iterative solver
           812 MiB given to the printing process from OS
             0 MiB allocation reported by mallinfo(arena+hblkhd)
        762799 MiB available memory on the node where the printing process lives
     GPU memory used/free/total (MiB): 1014 / 80136 / 81151
------------------
     ethr =  1.40E-03,  avg # of iterations =  2.6

     total cpu time spent up to now is       12.9 secs

     total energy              =    -569.28248582 Ry
     estimated scf accuracy    <       0.99000268 Ry

     total magnetization       =     1.56 Bohr mag/cell
     absolute magnetization    =     1.67 Bohr mag/cell
[tb_dev] Currently allocated     3.05E-05 Mbytes, locked:    0 /   2
[tb_pin] Currently allocated     0.00E+00 Mbytes, locked:    0 /   0

     iteration #  4     ecut=    60.00 Ry     beta= 0.30
     Davidson diagonalization with overlap

---- Real-time Memory Report at c_bands before calling an iterative solver
           814 MiB given to the printing process from OS
             0 MiB allocation reported by mallinfo(arena+hblkhd)
        762796 MiB available memory on the node where the printing process lives
     GPU memory used/free/total (MiB): 1014 / 80136 / 81151
------------------
     ethr =  1.40E-03,  avg # of iterations =  1.6

     total cpu time spent up to now is       14.8 secs

     total energy              =    -569.30364329 Ry
     estimated scf accuracy    <       2.03800154 Ry

     total magnetization       =     1.01 Bohr mag/cell
     absolute magnetization    =     1.29 Bohr mag/cell
[tb_dev] Currently allocated     3.05E-05 Mbytes, locked:    0 /   2
[tb_pin] Currently allocated     0.00E+00 Mbytes, locked:    0 /   0

     iteration #  5     ecut=    60.00 Ry     beta= 0.30
     Davidson diagonalization with overlap

---- Real-time Memory Report at c_bands before calling an iterative solver
           815 MiB given to the printing process from OS
             0 MiB allocation reported by mallinfo(arena+hblkhd)
        762796 MiB available memory on the node where the printing process lives
     GPU memory used/free/total (MiB): 1014 / 80136 / 81151
------------------
     ethr =  1.40E-03,  avg # of iterations =  1.4

     total cpu time spent up to now is       16.6 secs

     total energy              =    -569.08716556 Ry
     estimated scf accuracy    <       1.61608002 Ry

     total magnetization       =     0.77 Bohr mag/cell
     absolute magnetization    =     1.18 Bohr mag/cell
[tb_dev] Currently allocated     3.05E-05 Mbytes, locked:    0 /   2
[tb_pin] Currently allocated     0.00E+00 Mbytes, locked:    0 /   0

     iteration #  6     ecut=    60.00 Ry     beta= 0.30
     Davidson diagonalization with overlap

---- Real-time Memory Report at c_bands before calling an iterative solver
           816 MiB given to the printing process from OS
             0 MiB allocation reported by mallinfo(arena+hblkhd)
        762783 MiB available memory on the node where the printing process lives
     GPU memory used/free/total (MiB): 1014 / 80136 / 81151
------------------
     ethr =  1.40E-03,  avg # of iterations =  2.1

     total cpu time spent up to now is       18.6 secs

     total energy              =    -569.25289220 Ry
     estimated scf accuracy    <       0.05052922 Ry

     total magnetization       =     0.36 Bohr mag/cell
     absolute magnetization    =     0.64 Bohr mag/cell
[tb_dev] Currently allocated     3.05E-05 Mbytes, locked:    0 /   2
[tb_pin] Currently allocated     0.00E+00 Mbytes, locked:    0 /   0

     iteration #  7     ecut=    60.00 Ry     beta= 0.30
     Davidson diagonalization with overlap

---- Real-time Memory Report at c_bands before calling an iterative solver
           819 MiB given to the printing process from OS
             0 MiB allocation reported by mallinfo(arena+hblkhd)
        762786 MiB available memory on the node where the printing process lives
     GPU memory used/free/total (MiB): 1014 / 80136 / 81151
------------------
     ethr =  1.33E-04,  avg # of iterations =  8.0

     total cpu time spent up to now is       22.7 secs

     total energy              =    -569.26317850 Ry
     estimated scf accuracy    <       0.04879976 Ry

     total magnetization       =     0.20 Bohr mag/cell
     absolute magnetization    =     0.54 Bohr mag/cell
[tb_dev] Currently allocated     3.05E-05 Mbytes, locked:    0 /   2
[tb_pin] Currently allocated     0.00E+00 Mbytes, locked:    0 /   0

     iteration #  8     ecut=    60.00 Ry     beta= 0.30
     Davidson diagonalization with overlap

---- Real-time Memory Report at c_bands before calling an iterative solver
           821 MiB given to the printing process from OS
             0 MiB allocation reported by mallinfo(arena+hblkhd)
        762797 MiB available memory on the node where the printing process lives
     GPU memory used/free/total (MiB): 1014 / 80136 / 81151
------------------
     ethr =  1.28E-04,  avg # of iterations =  2.7

     total cpu time spent up to now is       25.0 secs

     total energy              =    -569.26905030 Ry
     estimated scf accuracy    <       0.01190173 Ry

     total magnetization       =    -0.11 Bohr mag/cell
     absolute magnetization    =     0.16 Bohr mag/cell
[tb_dev] Currently allocated     3.05E-05 Mbytes, locked:    0 /   2
[tb_pin] Currently allocated     0.00E+00 Mbytes, locked:    0 /   0

     iteration #  9     ecut=    60.00 Ry     beta= 0.30
     Davidson diagonalization with overlap

---- Real-time Memory Report at c_bands before calling an iterative solver
           823 MiB given to the printing process from OS
             0 MiB allocation reported by mallinfo(arena+hblkhd)
        762805 MiB available memory on the node where the printing process lives
     GPU memory used/free/total (MiB): 1014 / 80136 / 81151
------------------
     ethr =  3.13E-05,  avg # of iterations =  3.3

     total cpu time spent up to now is       27.4 secs

     total energy              =    -569.27546653 Ry
     estimated scf accuracy    <       0.01201836 Ry

     total magnetization       =     0.13 Bohr mag/cell
     absolute magnetization    =     0.34 Bohr mag/cell
[tb_dev] Currently allocated     3.05E-05 Mbytes, locked:    0 /   2
[tb_pin] Currently allocated     0.00E+00 Mbytes, locked:    0 /   0

     iteration # 10     ecut=    60.00 Ry     beta= 0.30
     Davidson diagonalization with overlap

---- Real-time Memory Report at c_bands before calling an iterative solver
           823 MiB given to the printing process from OS
             0 MiB allocation reported by mallinfo(arena+hblkhd)
        762810 MiB available memory on the node where the printing process lives
     GPU memory used/free/total (MiB): 1014 / 80136 / 81151
------------------
     ethr =  3.13E-05,  avg # of iterations =  1.6

     total cpu time spent up to now is       29.4 secs

     total energy              =    -569.27671444 Ry
     estimated scf accuracy    <       0.00138840 Ry

     total magnetization       =     0.13 Bohr mag/cell
     absolute magnetization    =     0.24 Bohr mag/cell
[tb_dev] Currently allocated     3.05E-05 Mbytes, locked:    0 /   2
[tb_pin] Currently allocated     0.00E+00 Mbytes, locked:    0 /   0

     iteration # 11     ecut=    60.00 Ry     beta= 0.30
     Davidson diagonalization with overlap

---- Real-time Memory Report at c_bands before calling an iterative solver
           825 MiB given to the printing process from OS
             0 MiB allocation reported by mallinfo(arena+hblkhd)
        762851 MiB available memory on the node where the printing process lives
     GPU memory used/free/total (MiB): 1014 / 80136 / 81151
------------------
     c_bands:  1 eigenvalues not converged
     c_bands:  1 eigenvalues not converged
     c_bands:  1 eigenvalues not converged
     ethr =  3.65E-06,  avg # of iterations =  8.7

     total cpu time spent up to now is       33.7 secs

     total energy              =    -569.27736710 Ry
     estimated scf accuracy    <       0.00020893 Ry

     total magnetization       =     0.16 Bohr mag/cell
     absolute magnetization    =     0.23 Bohr mag/cell
[tb_dev] Currently allocated     3.05E-05 Mbytes, locked:    0 /   2
[tb_pin] Currently allocated     0.00E+00 Mbytes, locked:    0 /   0

     iteration # 12     ecut=    60.00 Ry     beta= 0.30
     Davidson diagonalization with overlap

---- Real-time Memory Report at c_bands before calling an iterative solver
           825 MiB given to the printing process from OS
             0 MiB allocation reported by mallinfo(arena+hblkhd)
        762859 MiB available memory on the node where the printing process lives
     GPU memory used/free/total (MiB): 1014 / 80136 / 81151
------------------
     ethr =  5.50E-07,  avg # of iterations =  5.4

     total cpu time spent up to now is       37.0 secs

     total energy              =    -569.27749803 Ry
     estimated scf accuracy    <       0.00012774 Ry

     total magnetization       =     0.17 Bohr mag/cell
     absolute magnetization    =     0.23 Bohr mag/cell
[tb_dev] Currently allocated     3.05E-05 Mbytes, locked:    0 /   2
[tb_pin] Currently allocated     0.00E+00 Mbytes, locked:    0 /   0

     iteration # 13     ecut=    60.00 Ry     beta= 0.30
     Davidson diagonalization with overlap

---- Real-time Memory Report at c_bands before calling an iterative solver
           825 MiB given to the printing process from OS
             0 MiB allocation reported by mallinfo(arena+hblkhd)
        762840 MiB available memory on the node where the printing process lives
     GPU memory used/free/total (MiB): 1014 / 80136 / 81151
------------------
     ethr =  3.36E-07,  avg # of iterations =  2.0

     total cpu time spent up to now is       39.0 secs

     total energy              =    -569.27755563 Ry
     estimated scf accuracy    <       0.00009780 Ry

     total magnetization       =     0.15 Bohr mag/cell
     absolute magnetization    =     0.20 Bohr mag/cell
[tb_dev] Currently allocated     3.05E-05 Mbytes, locked:    0 /   2
[tb_pin] Currently allocated     0.00E+00 Mbytes, locked:    0 /   0

     iteration # 14     ecut=    60.00 Ry     beta= 0.30
     Davidson diagonalization with overlap

---- Real-time Memory Report at c_bands before calling an iterative solver
           825 MiB given to the printing process from OS
             0 MiB allocation reported by mallinfo(arena+hblkhd)
        762873 MiB available memory on the node where the printing process lives
     GPU memory used/free/total (MiB): 1014 / 80136 / 81151
------------------
     ethr =  2.57E-07,  avg # of iterations =  1.9

     total cpu time spent up to now is       41.0 secs

     total energy              =    -569.27754904 Ry
     estimated scf accuracy    <       0.00011110 Ry

     total magnetization       =     0.14 Bohr mag/cell
     absolute magnetization    =     0.19 Bohr mag/cell
[tb_dev] Currently allocated     3.05E-05 Mbytes, locked:    0 /   2
[tb_pin] Currently allocated     0.00E+00 Mbytes, locked:    0 /   0

     iteration # 15     ecut=    60.00 Ry     beta= 0.30
     Davidson diagonalization with overlap

---- Real-time Memory Report at c_bands before calling an iterative solver
           825 MiB given to the printing process from OS
             0 MiB allocation reported by mallinfo(arena+hblkhd)
        762896 MiB available memory on the node where the printing process lives
     GPU memory used/free/total (MiB): 1014 / 80136 / 81151
------------------
     ethr =  2.57E-07,  avg # of iterations =  1.2

     total cpu time spent up to now is       42.8 secs

     total energy              =    -569.27756248 Ry
     estimated scf accuracy    <       0.00000588 Ry

     total magnetization       =     0.15 Bohr mag/cell
     absolute magnetization    =     0.20 Bohr mag/cell
[tb_dev] Currently allocated     3.05E-05 Mbytes, locked:    0 /   2
[tb_pin] Currently allocated     0.00E+00 Mbytes, locked:    0 /   0

     iteration # 16     ecut=    60.00 Ry     beta= 0.30
     Davidson diagonalization with overlap

---- Real-time Memory Report at c_bands before calling an iterative solver
           825 MiB given to the printing process from OS
             0 MiB allocation reported by mallinfo(arena+hblkhd)
        762919 MiB available memory on the node where the printing process lives
     GPU memory used/free/total (MiB): 1014 / 80136 / 81151
------------------
     ethr =  1.55E-08,  avg # of iterations =  8.0

     total cpu time spent up to now is       46.9 secs

     total energy              =    -569.27756821 Ry
     estimated scf accuracy    <       0.00000128 Ry

     total magnetization       =     0.15 Bohr mag/cell
     absolute magnetization    =     0.19 Bohr mag/cell
[tb_dev] Currently allocated     3.05E-05 Mbytes, locked:    0 /   2
[tb_pin] Currently allocated     0.00E+00 Mbytes, locked:    0 /   0

     iteration # 17     ecut=    60.00 Ry     beta= 0.30
     Davidson diagonalization with overlap

---- Real-time Memory Report at c_bands before calling an iterative solver
           825 MiB given to the printing process from OS
             0 MiB allocation reported by mallinfo(arena+hblkhd)
        762934 MiB available memory on the node where the printing process lives
     GPU memory used/free/total (MiB): 1014 / 80136 / 81151
------------------
     ethr =  3.38E-09,  avg # of iterations =  3.9

     total cpu time spent up to now is       49.6 secs

     total energy              =    -569.27756874 Ry
     estimated scf accuracy    <       0.00000072 Ry

     total magnetization       =     0.15 Bohr mag/cell
     absolute magnetization    =     0.19 Bohr mag/cell
[tb_dev] Currently allocated     3.05E-05 Mbytes, locked:    0 /   2
[tb_pin] Currently allocated     0.00E+00 Mbytes, locked:    0 /   0

     iteration # 18     ecut=    60.00 Ry     beta= 0.30
     Davidson diagonalization with overlap

---- Real-time Memory Report at c_bands before calling an iterative solver
           825 MiB given to the printing process from OS
             0 MiB allocation reported by mallinfo(arena+hblkhd)
        762932 MiB available memory on the node where the printing process lives
     GPU memory used/free/total (MiB): 1014 / 80136 / 81151
------------------
     ethr =  1.90E-09,  avg # of iterations =  3.0

     total cpu time spent up to now is       52.1 secs

     total energy              =    -569.27756936 Ry
     estimated scf accuracy    <       0.00000016 Ry

     total magnetization       =     0.15 Bohr mag/cell
     absolute magnetization    =     0.19 Bohr mag/cell
[tb_dev] Currently allocated     3.05E-05 Mbytes, locked:    0 /   2
[tb_pin] Currently allocated     0.00E+00 Mbytes, locked:    0 /   0

     iteration # 19     ecut=    60.00 Ry     beta= 0.30
     Davidson diagonalization with overlap

---- Real-time Memory Report at c_bands before calling an iterative solver
           825 MiB given to the printing process from OS
             0 MiB allocation reported by mallinfo(arena+hblkhd)
        762903 MiB available memory on the node where the printing process lives
     GPU memory used/free/total (MiB): 1014 / 80136 / 81151
------------------
     ethr =  4.25E-10,  avg # of iterations =  5.4
 
     Magnetic moment per site  (integrated on atomic sphere of radius R)
     atom   1 (R=0.275)  charge= 14.1439  magn=  0.1359
     atom   2 (R=0.275)  charge=  5.2234  magn=  0.0105
     atom   3 (R=0.275)  charge=  5.2759  magn=  0.0077
     atom   4 (R=0.371)  charge=  8.0792  magn= -0.0060

     total cpu time spent up to now is       55.4 secs

     End of self-consistent calculation

 ------ SPIN UP ------------


          k = 0.0000 0.0000 0.0000 (  2625 PWs)   bands (ev):

   -87.5084 -50.7482 -50.7466 -50.7466 -45.9553 -17.7817 -17.7776 -17.7776
   -12.0421 -10.1617   1.3892   2.5108   2.5108   4.8773   5.8239   5.8239
     6.4724   6.5181   6.5181   7.9466  10.0448  10.0448  13.3843  15.2109
    17.8544  22.8649  24.7921

     occupation numbers 
     1.0000   1.0000   1.0000   1.0000   1.0000   1.0000   1.0000   1.0000
     1.0000   1.0000   1.0000   1.0000   1.0000   1.0000   1.0000   1.0000
     1.0000   1.0000   1.0000   0.0836   0.0000   0.0000   0.0000   0.0000
     0.0000   0.0000   0.0000

          k = 0.0000 0.0000 0.1046 (  2648 PWs)   bands (ev):

   -87.5084 -50.7484 -50.7467 -50.7467 -45.9554 -17.7823 -17.7778 -17.7778
   -12.0390 -10.1666   1.4776   2.5109   2.5109   4.4337   5.8234   5.8234
     6.5182   6.5182   7.0291   7.9145  10.0453  10.0453  12.7109  15.8465
    17.8582  22.8472  24.6795

     occupation numbers 
     1.0000   1.0000   1.0000   1.0000   1.0000   1.0000   1.0000   1.0000
     1.0000   1.0000   1.0000   1.0000   1.0000   1.0000   1.0000   1.0000
     1.0000   1.0000   1.0052   0.1166   0.0000   0.0000   0.0000   0.0000
     0.0000   0.0000   0.0000

          k = 0.0000 0.0000-0.2093 (  2672 PWs)   bands (ev):

   -87.5085 -50.7484 -50.7468 -50.7468 -45.9555 -17.7825 -17.7781 -17.7781
   -12.0359 -10.1714   1.5781   2.5110   2.5110   4.0936   5.8228   5.8228
     6.5182   6.5182   7.6040   7.7749  10.0457  10.0457  12.1876  16.3158
    17.8603  22.8458  24.5894

     occupation numbers 
     1.0000   1.0000   1.0000   1.0000   1.0000   1.0000   1.0000   1.0000
     1.0000   1.0000   1.0000   1.0000   1.0000   1.0000   1.0000   1.0000
     1.0000   1.0000   0.8218   0.3690   0.0000   0.0000   0.0000   0.0000
     0.0000   0.0000   0.0000

          k = 0.0000 0.0962 0.0000 (  2647 PWs)   bands (ev):

   -87.5081 -50.7506 -50.7478 -50.7476 -45.9530 -17.7982 -17.7821 -17.7781
   -11.9664 -10.1577   1.4835   2.3804   2.5558   5.0428   5.2934   5.5331
     6.5983   6.7072   6.7718   8.0405   9.8102   9.9958  13.5405  15.4973
    18.1536  22.6885  23.1924

     occupation numbers 
     1.0000   1.0000   1.0000   1.0000   1.0000   1.0000   1.0000   1.0000
     1.0000   1.0000   1.0000   1.0000   1.0000   1.0000   1.0000   1.0000
     1.0000   1.0000   1.0001   0.0272   0.0000   0.0000   0.0000   0.0000
     0.0000   0.0000   0.0000

          k = 0.0000 0.0962 0.1046 (  2651 PWs)   bands (ev):

   -87.5081 -50.7506 -50.7478 -50.7476 -45.9531 -17.7982 -17.7822 -17.7784
   -11.9635 -10.1622   1.5637   2.3697   2.5559   4.6689   5.2778   5.5328
     6.6827   6.7718   7.1224   7.9857   9.8512   9.9962  12.9151  16.1105
    18.1090  22.5750  23.3126

     occupation numbers 
     1.0000   1.0000   1.0000   1.0000   1.0000   1.0000   1.0000   1.0000
     1.0000   1.0000   1.0000   1.0000   1.0000   1.0000   1.0000   1.0000
     1.0000   1.0001   1.0167   0.0539   0.0000   0.0000   0.0000   0.0000
     0.0000   0.0000   0.0000

          k = 0.0000 0.0962-0.2093 (  2640 PWs)   bands (ev):

   -87.5081 -50.7505 -50.7477 -50.7477 -45.9530 -17.7981 -17.7822 -17.7782
   -11.9606 -10.1665   1.6563   2.3535   2.5560   4.3639   5.2919   5.5325
     6.6778   6.7717   7.6292   7.8540   9.8698   9.9968  12.4413  16.5892
    18.0386  22.7973  23.0052

     occupation numbers 
     1.0000   1.0000   1.0000   1.0000   1.0000   1.0000   1.0000   1.0000
     1.0000   1.0000   1.0000   1.0000   1.0000   1.0000   1.0000   1.0000
     1.0000   1.0001   0.7588   0.2036   0.0000   0.0000   0.0000   0.0000
     0.0000   0.0000   0.0000

          k = 0.0000 0.1925 0.0000 (  2649 PWs)   bands (ev):

   -87.5071 -50.7612 -50.7502 -50.7463 -45.9466 -17.8529 -17.7938 -17.7679
   -11.7524 -10.1486   1.7169   2.1613   2.6784   4.2651   5.0848   5.4526
     6.8213   6.9462   7.0975   8.2062   9.3576   9.8903  13.9002  16.2591
    18.8843  20.6020  22.6137

     occupation numbers 
     1.0000   1.0000   1.0000   1.0000   1.0000   1.0000   1.0000   1.0000
     1.0000   1.0000   1.0000   1.0000   1.0000   1.0000   1.0000   1.0000
     1.0002   1.0015   1.0126   0.0021   0.0000   0.0000   0.0000   0.0000
     0.0000   0.0000   0.0000

          k = 0.0000 0.1925 0.1046 (  2640 PWs)   bands (ev):

   -87.5071 -50.7612 -50.7501 -50.7462 -45.9466 -17.8528 -17.7938 -17.7678
   -11.7500 -10.1519   1.7538   2.1683   2.6785   4.2891   5.0846   5.1698
     6.7784   7.0975   7.3299   8.0377   9.5589   9.8903  13.3913  16.7979
    18.7317  20.4295  22.9896

     occupation numbers 
     1.0000   1.0000   1.0000   1.0000   1.0000   1.0000   1.0000   1.0000
     1.0000   1.0000   1.0000   1.0000   1.0000   1.0000   1.0000   1.0000
     1.0001   1.0126   1.0772   0.0282   0.0000   0.0000   0.0000   0.0000
     0.0000   0.0000   0.0000

          k = 0.0000 0.1925-0.2093 (  2640 PWs)   bands (ev):

   -87.5071 -50.7611 -50.7502 -50.7461 -45.9466 -17.8528 -17.7940 -17.7678
   -11.7477 -10.1552   1.8047   2.1619   2.6786   4.2988   4.9526   5.0844
     6.7712   7.0973   7.6357   7.9969   9.5658   9.8909  13.0850  17.2235
    18.5034  20.4852  23.0106

     occupation numbers 
     1.0000   1.0000   1.0000   1.0000   1.0000   1.0000   1.0000   1.0000
     1.0000   1.0000   1.0000   1.0000   1.0000   1.0000   1.0000   1.0000
     1.0001   1.0125   0.7418   0.0471   0.0000   0.0000   0.0000   0.0000
     0.0000   0.0000   0.0000

          k = 0.0000 0.2887 0.0000 (  2620 PWs)   bands (ev):

   -87.5058 -50.7756 -50.7535 -50.7440 -45.9377 -17.9265 -17.8096 -17.7535
   -11.4399 -10.1415   1.7614   2.2312   2.8397   3.3650   4.7097   5.5817
     6.8753   7.2521   7.2980   8.3572   9.2320   9.8182  14.3400  17.2343
    18.1441  19.9295  21.5533

     occupation numbers 
     1.0000   1.0000   1.0000   1.0000   1.0000   1.0000   1.0000   1.0000
     1.0000   1.0000   1.0000   1.0000   1.0000   1.0000   1.0000   1.0000
     1.0004   1.0528   1.0682   0.0001   0.0000   0.0000   0.0000   0.0000
     0.0000   0.0000   0.0000

          k = 0.0000 0.2887 0.1046 (  2638 PWs)   bands (ev):

   -87.5058 -50.7756 -50.7536 -50.7440 -45.9378 -17.9266 -17.8098 -17.7538
   -11.4382 -10.1437   1.7320   2.2800   2.8398   3.3892   4.7096   5.4930
     6.8150   7.2521   7.5004   7.9929   9.6371   9.8178  13.9795  17.6728
    17.9955  19.5665  21.6865

     occupation numbers 
     1.0000   1.0000   1.0000   1.0000   1.0000   1.0000   1.0000   1.0000
     1.0000   1.0000   1.0000   1.0000   1.0000   1.0000   1.0000   1.0000
     1.0001   1.0528   1.0145   0.0494   0.0000   0.0000   0.0000   0.0000
     0.0000   0.0000   0.0000

          k = 0.0000 0.2887-0.2093 (  2630 PWs)   bands (ev):

   -87.5058 -50.7756 -50.7536 -50.7440 -45.9377 -17.9265 -17.8097 -17.7537
   -11.4368 -10.1456   1.7211   2.2966   2.8399   3.4333   4.7094   5.3651
     6.8026   7.2520   7.5324   8.1242   9.5787   9.8182  13.9087  17.6160
    18.2926  19.3265  21.7838

     occupation numbers 
     1.0000   1.0000   1.0000   1.0000   1.0000   1.0000   1.0000   1.0000
     1.0000   1.0000   1.0000   1.0000   1.0000   1.0000   1.0000   1.0000
     1.0001   1.0527   0.9683   0.0083   0.0000   0.0000   0.0000   0.0000
     0.0000   0.0000   0.0000

          k = 0.0000 0.3849 0.0000 (  2640 PWs)   bands (ev):

   -87.5046 -50.7901 -50.7572 -50.7419 -45.9290 -17.9994 -17.8258 -17.7396
   -11.0960 -10.1457   1.4977   2.2611   2.9774   3.1835   4.4823   5.2857
     6.8490   7.2145   7.3867   8.7438   9.7075   9.8265  14.7425  16.1831
    18.1219  19.9492  20.3835

     occupation numbers 
     1.0000   1.0000   1.0000   1.0000   1.0000   1.0000   1.0000   1.0000
     1.0000   1.0000   1.0000   1.0000   1.0000   1.0000   1.0000   1.0000
     1.0003   1.0402   1.0830   0.0000   0.0000   0.0000   0.0000   0.0000
     0.0000   0.0000   0.0000

          k = 0.0000 0.3849 0.1046 (  2637 PWs)   bands (ev):

   -87.5046 -50.7901 -50.7571 -50.7419 -45.9289 -17.9995 -17.8257 -17.7396
   -11.0949 -10.1469   1.4853   2.2610   2.9776   3.2176   4.4821   5.2948
     6.8230   7.2146   7.4366   8.4055   9.8261  10.0934  14.5864  15.9496
    18.4928  19.7210  20.4076

     occupation numbers 
     1.0000   1.0000   1.0000   1.0000   1.0000   1.0000   1.0000   1.0000
     1.0000   1.0000   1.0000   1.0000   1.0000   1.0000   1.0000   1.0000
     1.0002   1.0402   1.0695   0.0000   0.0000   0.0000   0.0000   0.0000
     0.0000   0.0000   0.0000

          k = 0.0000 0.3849-0.2093 (  2628 PWs)   bands (ev):

   -87.5045 -50.7901 -50.7570 -50.7418 -45.9289 -17.9994 -17.8256 -17.7396
   -11.0944 -10.1475   1.4720   2.2501   2.9777   3.2782   4.4820   5.2524
     6.8202   7.2145   7.3968   8.5292   9.8264   9.9629  14.7417  15.8886
    18.5218  19.6771  20.3352

     occupation numbers 
     1.0000   1.0000   1.0000   1.0000   1.0000   1.0000   1.0000   1.0000
     1.0000   1.0000   1.0000   1.0000   1.0000   1.0000   1.0000   1.0000
     1.0002   1.0402   1.0820   0.0000   0.0000   0.0000   0.0000   0.0000
     0.0000   0.0000   0.0000

          k = 0.0000 0.4811 0.0000 (  2636 PWs)   bands (ev):

   -87.5036 -50.8006 -50.7597 -50.7402 -45.9225 -18.0521 -17.8375 -17.7292
   -10.8114 -10.1658   1.0781   2.2866   3.0448   3.4961   4.4084   4.8544
     6.7364   7.0937   7.3351   9.1797   9.8740  10.6553  13.8785  15.9150
    17.9346  19.3513  20.1597

     occupation numbers 
     1.0000   1.0000   1.0000   1.0000   1.0000   1.0000   1.0000   1.0000
     1.0000   1.0000   1.0000   1.0000   1.0000   1.0000   1.0000   1.0000
     1.0000   1.0120   1.0783   0.0000   0.0000   0.0000   0.0000   0.0000
     0.0000   0.0000   0.0000

          k = 0.0000 0.4811 0.1046 (  2641 PWs)   bands (ev):

   -87.5036 -50.8007 -50.7597 -50.7403 -45.9225 -18.0521 -17.8374 -17.7294
   -10.8109 -10.1664   1.0779   2.2720   3.0450   3.5099   4.4082   4.8862
     6.7267   7.0937   7.3385   9.0327   9.8736  10.8421  13.8253  15.6246
    18.5189  19.1883  19.9914

     occupation numbers 
     1.0000   1.0000   1.0000   1.0000   1.0000   1.0000   1.0000   1.0000
     1.0000   1.0000   1.0000   1.0000   1.0000   1.0000   1.0000   1.0000
     1.0000   1.0120   1.0791   0.0000   0.0000   0.0000   0.0000   0.0000
     0.0000   0.0000   0.0000

          k = 0.0000 0.4811-0.2093 (  2638 PWs)   bands (ev):

   -87.5036 -50.8007 -50.7596 -50.7403 -45.9225 -18.0522 -17.8373 -17.7294
   -10.8110 -10.1661   1.0730   2.2592   3.0451   3.5448   4.4082   4.8817
     6.7255   7.0937   7.3234   9.0986   9.8737  10.6965  13.8316  15.8566
    18.4206  19.0971  19.9863

     occupation numbers 
     1.0000   1.0000   1.0000   1.0000   1.0000   1.0000   1.0000   1.0000
     1.0000   1.0000   1.0000   1.0000   1.0000   1.0000   1.0000   1.0000
     1.0000   1.0120   1.0756   0.0000   0.0000   0.0000   0.0000   0.0000
     0.0000   0.0000   0.0000

          k = 0.0000-0.5774 0.0000 (  2642 PWs)   bands (ev):

   -87.5033 -50.8047 -50.7606 -50.7396 -45.9201 -18.0715 -17.8417 -17.7254
   -10.6939 -10.1827   0.8899   2.3560   3.0588   3.6259   4.4043   4.6772
     6.6590   7.0319   7.3101   9.3480   9.8980  11.5485  12.7600  16.6663
    16.9804  19.4318  20.0623

     occupation numbers 
     1.0000   1.0000   1.0000   1.0000   1.0000   1.0000   1.0000   1.0000
     1.0000   1.0000   1.0000   1.0000   1.0000   1.0000   1.0000   1.0000
     1.0000   1.0054   1.0719   0.0000   0.0000   0.0000   0.0000   0.0000
     0.0000   0.0000   0.0000

          k = 0.0000-0.5774 0.1046 (  2652 PWs)   bands (ev):

   -87.5033 -50.8047 -50.7606 -50.7398 -45.9201 -18.0715 -17.8417 -17.7257
   -10.6939 -10.1825   0.8897   2.3426   3.0590   3.6342   4.4042   4.7030
     6.6541   7.0319   7.3063   9.3375   9.8977  11.5456  12.6929  16.4810
    17.4426  19.2705  19.9828

     occupation numbers 
     1.0000   1.0000   1.0000   1.0000   1.0000   1.0000   1.0000   1.0000
     1.0000   1.0000   1.0000   1.0000   1.0000   1.0000   1.0000   1.0000
     1.0000   1.0054   1.0708   0.0000   0.0000   0.0000   0.0000   0.0000
     0.0000   0.0000   0.0000

          k = 0.0000-0.5774-0.2093 (  2648 PWs)   bands (ev):

   -87.5033 -50.8046 -50.7605 -50.7398 -45.9201 -18.0714 -17.8416 -17.7258
   -10.6940 -10.1824   0.8895   2.3294   3.0591   3.6424   4.4040   4.7289
     6.6488   7.0319   7.3024   9.3258   9.8976  11.5582  12.6050  16.4966
    17.7076  19.1144  19.8923

     occupation numbers 
     1.0000   1.0000   1.0000   1.0000   1.0000   1.0000   1.0000   1.0000
     1.0000   1.0000   1.0000   1.0000   1.0000   1.0000   1.0000   1.0000
     1.0000   1.0054   1.0696   0.0000   0.0000   0.0000   0.0000   0.0000
     0.0000   0.0000   0.0000

          k = 0.0833 0.1443 0.0000 (  2643 PWs)   bands (ev):

   -87.5074 -50.7576 -50.7495 -50.7467 -45.9486 -17.8346 -17.7911 -17.7711
   -11.8215 -10.1511   1.6514   2.2150   2.6315   4.6062   5.0604   5.4170
     6.8323   6.8429   7.0118   8.1664   9.4812   9.8999  13.7954  16.0233
    18.6756  21.3552  22.5748

     occupation numbers 
     1.0000   1.0000   1.0000   1.0000   1.0000   1.0000   1.0000   1.0000
     1.0000   1.0000   1.0000   1.0000   1.0000   1.0000   1.0000   1.0000
     1.0002   1.0002   1.0041   0.0042   0.0000   0.0000   0.0000   0.0000
     0.0000   0.0000   0.0000

          k = 0.0833 0.1443 0.1046 (  2651 PWs)   bands (ev):

   -87.5074 -50.7577 -50.7496 -50.7467 -45.9487 -17.8346 -17.7912 -17.7712
   -11.8190 -10.1548   1.7108   2.2053   2.6316   4.6104   4.9659   5.2045
     6.8387   6.9502   7.2746   8.1050   9.5607   9.8909  13.3027  16.5512
    18.5600  21.2308  22.7729

     occupation numbers 
     1.0000   1.0000   1.0000   1.0000   1.0000   1.0000   1.0000   1.0000
     1.0000   1.0000   1.0000   1.0000   1.0000   1.0000   1.0000   1.0000
     1.0002   1.0016   1.0605   0.0110   0.0000   0.0000   0.0000   0.0000
     0.0000   0.0000   0.0000

          k = 0.0833 0.1443-0.2093 (  2644 PWs)   bands (ev):

   -87.5074 -50.7576 -50.7496 -50.7466 -45.9486 -17.8346 -17.7913 -17.7711
   -11.8164 -10.1584   1.7774   2.1916   2.6317   4.6268   4.7689   5.1483
     6.8388   6.9592   7.6461   7.9711   9.6702   9.8691  12.8919  17.0428
    18.3664  21.2098  22.8579

     occupation numbers 
     1.0000   1.0000   1.0000   1.0000   1.0000   1.0000   1.0000   1.0000
     1.0000   1.0000   1.0000   1.0000   1.0000   1.0000   1.0000   1.0000
     1.0002   1.0018   0.7143   0.0638   0.0000   0.0000   0.0000   0.0000
     0.0000   0.0000   0.0000

          k = 0.0833 0.2406 0.0000 (  2650 PWs)   bands (ev):

   -87.5063 -50.7697 -50.7531 -50.7449 -45.9410 -17.8962 -17.8077 -17.7590
   -11.5581 -10.1425   1.8113   2.1674   2.7458   3.7421   4.6619   5.6166
     6.9011   7.1753   7.2601   8.3202   9.1829   9.7953  14.1889  16.9069
    18.9630  19.8299  21.9115

     occupation numbers 
     1.0000   1.0000   1.0000   1.0000   1.0000   1.0000   1.0000   1.0000
     1.0000   1.0000   1.0000   1.0000   1.0000   1.0000   1.0000   1.0000
     1.0007   1.0286   1.0555   0.0002   0.0000   0.0000   0.0000   0.0000
     0.0000   0.0000   0.0000

          k = 0.0833 0.2406 0.1046 (  2640 PWs)   bands (ev):

   -87.5063 -50.7696 -50.7531 -50.7448 -45.9410 -17.8961 -17.8077 -17.7589
   -11.5562 -10.1451   1.7958   2.2102   2.7472   3.7643   4.6610   5.4537
     6.8730   7.1745   7.4655   8.1073   9.4797   9.7654  13.8316  17.3265
    18.9034  19.4683  22.0366

     occupation numbers 
     1.0000   1.0000   1.0000   1.0000   1.0000   1.0000   1.0000   1.0000
     1.0000   1.0000   1.0000   1.0000   1.0000   1.0000   1.0000   1.0000
     1.0004   1.0284   1.0505   0.0106   0.0000   0.0000   0.0000   0.0000
     0.0000   0.0000   0.0000

          k = 0.0833 0.2406-0.2093 (  2628 PWs)   bands (ev):

   -87.5063 -50.7696 -50.7531 -50.7447 -45.9410 -17.8959 -17.8076 -17.7588
   -11.5543 -10.1475   1.7930   2.2370   2.7483   3.7938   4.6613   5.2889
     6.8772   7.1678   7.5940   8.1175   9.5586   9.7280  13.6254  17.6672
    18.7129  19.3984  22.2373

     occupation numbers 
     1.0000   1.0000   1.0000   1.0000   1.0000   1.0000   1.0000   1.0000
     1.0000   1.0000   1.0000   1.0000   1.0000   1.0000   1.0000   1.0000
     1.0005   1.0267   0.8456   0.0091   0.0000   0.0000   0.0000   0.0000
     0.0000   0.0000   0.0000

          k = 0.0833 0.3368 0.0000 (  2629 PWs)   bands (ev):

   -87.5050 -50.7834 -50.7571 -50.7426 -45.9321 -17.9660 -17.8267 -17.7447
   -11.2295 -10.1394   1.6996   2.2779   2.8770   3.2046   4.3659   5.4901
     6.9146   7.2859   7.3985   8.5888   9.3324   9.8230  14.6388  17.0774
    17.8977  20.1975  20.7762

     occupation numbers 
     1.0000   1.0000   1.0000   1.0000   1.0000   1.0000   1.0000   1.0000
     1.0000   1.0000   1.0000   1.0000   1.0000   1.0000   1.0000   1.0000
     1.0009   1.0643   1.0817   0.0000   0.0000   0.0000   0.0000   0.0000
     0.0000   0.0000   0.0000

          k = 0.0833 0.3368 0.1046 (  2641 PWs)   bands (ev):

   -87.5050 -50.7835 -50.7572 -50.7427 -45.9322 -17.9661 -17.8269 -17.7449
   -11.2282 -10.1410   1.6761   2.2944   2.8902   3.2294   4.3664   5.4677
     6.8879   7.2640   7.4807   8.2656   9.6415   9.8849  14.4314  16.9479
    18.1768  19.8055  20.8754

     occupation numbers 
     1.0000   1.0000   1.0000   1.0000   1.0000   1.0000   1.0000   1.0000
     1.0000   1.0000   1.0000   1.0000   1.0000   1.0000   1.0000   1.0000
     1.0006   1.0569   1.0366   0.0007   0.0000   0.0000   0.0000   0.0000
     0.0000   0.0000   0.0000

          k = 0.0833 0.3368-0.2093 (  2636 PWs)   bands (ev):

   -87.5050 -50.7835 -50.7572 -50.7426 -45.9322 -17.9660 -17.8269 -17.7448
   -11.2273 -10.1420   1.6594   2.2921   2.8964   3.2839   4.3657   5.4020
     6.8939   7.2584   7.4347   8.3897   9.6157   9.8403  14.4668  16.8573
    18.3542  19.6598  21.0087

     occupation numbers 
     1.0000   1.0000   1.0000   1.0000   1.0000   1.0000   1.0000   1.0000
     1.0000   1.0000   1.0000   1.0000   1.0000   1.0000   1.0000   1.0000
     1.0006   1.0549   1.0705   0.0001   0.0000   0.0000   0.0000   0.0000
     0.0000   0.0000   0.0000

          k = 0.0833 0.4330 0.0000 (  2636 PWs)   bands (ev):

   -87.5039 -50.7955 -50.7607 -50.7407 -45.9245 -18.0260 -17.8434 -17.7325
   -10.9146 -10.1485   1.3494   2.2078   3.0154   3.3808   4.2126   5.0721
     6.8569   7.1508   7.4031   9.0152   9.6576  10.3035  14.6197  15.8258
    18.3912  19.4663  20.1495

     occupation numbers 
     1.0000   1.0000   1.0000   1.0000   1.0000   1.0000   1.0000   1.0000
     1.0000   1.0000   1.0000   1.0000   1.0000   1.0000   1.0000   1.0000
     1.0003   1.0226   1.0809   0.0000   0.0000   0.0000   0.0000   0.0000
     0.0000   0.0000   0.0000

          k = 0.0833 0.4330 0.1046 (  2634 PWs)   bands (ev):

   -87.5039 -50.7954 -50.7607 -50.7408 -45.9245 -18.0259 -17.8434 -17.7326
   -10.9139 -10.1492   1.3460   2.1963   3.0178   3.4039   4.2126   5.0921
     6.8457   7.1501   7.4107   8.8113   9.7168  10.4780  14.6295  15.5244
    18.7561  19.3767  20.0673

     occupation numbers 
     1.0000   1.0000   1.0000   1.0000   1.0000   1.0000   1.0000   1.0000
     1.0000   1.0000   1.0000   1.0000   1.0000   1.0000   1.0000   1.0000
     1.0003   1.0224   1.0792   0.0000   0.0000   0.0000   0.0000   0.0000
     0.0000   0.0000   0.0000

          k = 0.0833 0.4330-0.2093 (  2646 PWs)   bands (ev):

   -87.5039 -50.7955 -50.7607 -50.7408 -45.9246 -18.0259 -17.8435 -17.7328
   -10.9138 -10.1493   1.3372   2.1860   3.0183   3.4484   4.2118   5.0746
     6.8515   7.1501   7.3751   8.9105   9.7055  10.3404  14.7047  15.6227
    18.5762  19.4836  20.1221

     occupation numbers 
     1.0000   1.0000   1.0000   1.0000   1.0000   1.0000   1.0000   1.0000
     1.0000   1.0000   1.0000   1.0000   1.0000   1.0000   1.0000   1.0000
     1.0003   1.0224   1.0833   0.0000   0.0000   0.0000   0.0000   0.0000
     0.0000   0.0000   0.0000

          k = 0.0833 0.5292 0.0000 (  2639 PWs)   bands (ev):

   -87.5033 -50.8024 -50.7628 -50.7397 -45.9201 -18.0602 -17.8531 -17.7255
   -10.7107 -10.1663   1.0195   2.2768   3.0749   3.6328   4.1647   4.7325
     6.7235   7.0748   7.3631   9.3070   9.7431  11.3437  13.2445  16.4037
    17.5369  19.2678  20.0796

     occupation numbers 
     1.0000   1.0000   1.0000   1.0000   1.0000   1.0000   1.0000   1.0000
     1.0000   1.0000   1.0000   1.0000   1.0000   1.0000   1.0000   1.0000
     1.0000   1.0096   1.0827   0.0000   0.0000   0.0000   0.0000   0.0000
     0.0000   0.0000   0.0000

          k = 0.0833 0.5292 0.1046 (  2637 PWs)   bands (ev):

   -87.5033 -50.8024 -50.7627 -50.7397 -45.9201 -18.0602 -17.8529 -17.7256
   -10.7105 -10.1665   1.0201   2.2650   3.0746   3.6377   4.1659   4.7600
     6.7172   7.0757   7.3598   9.2549   9.7609  11.3974  13.1588  16.2012
    18.0177  19.1292  19.9950

     occupation numbers 
     1.0000   1.0000   1.0000   1.0000   1.0000   1.0000   1.0000   1.0000
     1.0000   1.0000   1.0000   1.0000   1.0000   1.0000   1.0000   1.0000
     1.0000   1.0097   1.0824   0.0000   0.0000   0.0000   0.0000   0.0000
     0.0000   0.0000   0.0000

          k = 0.0833 0.5292-0.2093 (  2652 PWs)   bands (ev):

   -87.5033 -50.8024 -50.7628 -50.7398 -45.9202 -18.0602 -17.8531 -17.7259
   -10.7107 -10.1663   1.0181   2.2548   3.0747   3.6534   4.1669   4.7695
     6.7155   7.0761   7.3496   9.2908   9.7658  11.2851  13.1367  16.4214
    18.0130  18.9951  20.0269

     occupation numbers 
     1.0000   1.0000   1.0000   1.0000   1.0000   1.0000   1.0000   1.0000
     1.0000   1.0000   1.0000   1.0000   1.0000   1.0000   1.0000   1.0000
     1.0000   1.0097   1.0810   0.0000   0.0000   0.0000   0.0000   0.0000
     0.0000   0.0000   0.0000

          k = 0.1667 0.2887 0.0000 (  2643 PWs)   bands (ev):

   -87.5052 -50.7801 -50.7582 -50.7430 -45.9334 -17.9488 -17.8324 -17.7467
   -11.2781 -10.1367   1.7969   2.2772   2.8062   3.3184   4.1912   5.5795
     6.9452   7.3173   7.4256   8.5935   9.1411   9.7985  14.5978  17.6415
    17.8141  20.1150  20.8374

     occupation numbers 
     1.0000   1.0000   1.0000   1.0000   1.0000   1.0000   1.0000   1.0000
     1.0000   1.0000   1.0000   1.0000   1.0000   1.0000   1.0000   1.0000
     1.0015   1.0740   1.0744   0.0000   0.0000   0.0000   0.0000   0.0000
     0.0000   0.0000   0.0000

          k = 0.1667 0.2887 0.1046 (  2629 PWs)   bands (ev):

   -87.5052 -50.7801 -50.7581 -50.7429 -45.9333 -17.9488 -17.8321 -17.7466
   -11.2769 -10.1381   1.7726   2.2919   2.8210   3.3519   4.1905   5.5208
     6.9524   7.2834   7.4424   8.4929   9.3134   9.7959  14.4872  17.5123
    18.0774  19.7983  20.9002

     occupation numbers 
     1.0000   1.0000   1.0000   1.0000   1.0000   1.0000   1.0000   1.0000
     1.0000   1.0000   1.0000   1.0000   1.0000   1.0000   1.0000   1.0000
     1.0017   1.0635   1.0664   0.0000   0.0000   0.0000   0.0000   0.0000
     0.0000   0.0000   0.0000

          k = 0.1667 0.2887-0.2093 (  2632 PWs)   bands (ev):

   -87.5052 -50.7801 -50.7581 -50.7429 -45.9333 -17.9490 -17.8321 -17.7466
   -11.2757 -10.1395   1.7506   2.3038   2.8347   3.3888   4.1897   5.4600
     6.9600   7.2555   7.4535   8.4258   9.4552   9.7912  14.3775  17.5170
    18.1601  19.6517  21.0726

     occupation numbers 
     1.0000   1.0000   1.0000   1.0000   1.0000   1.0000   1.0000   1.0000
     1.0000   1.0000   1.0000   1.0000   1.0000   1.0000   1.0000   1.0000
     1.0019   1.0539   1.0595   0.0000   0.0000   0.0000   0.0000   0.0000
     0.0000   0.0000   0.0000

          k = 0.1667 0.3849 0.0000 (  2627 PWs)   bands (ev):

   -87.5041 -50.7899 -50.7636 -50.7410 -45.9257 -17.9981 -17.8594 -17.7345
   -10.9779 -10.1344   1.6861   2.1095   2.9777   3.2631   3.9405   5.2545
     6.9619   7.1935   7.5007   8.9321   9.3269  10.2024  14.9611  16.2891
    18.3643  19.7045  20.1478

     occupation numbers 
     1.0000   1.0000   1.0000   1.0000   1.0000   1.0000   1.0000   1.0000
     1.0000   1.0000   1.0000   1.0000   1.0000   1.0000   1.0000   1.0000
     1.0019   1.0337   1.0141   0.0000   0.0000   0.0000   0.0000   0.0000
     0.0000   0.0000   0.0000

          k = 0.1667 0.3849 0.1046 (  2638 PWs)   bands (ev):

   -87.5041 -50.7900 -50.7637 -50.7411 -45.9257 -17.9982 -17.8595 -17.7346
   -10.9773 -10.1351   1.6751   2.1032   2.9819   3.2967   3.9399   5.2538
     6.9630   7.1938   7.4771   8.8058   9.4208  10.2500  14.9900  16.1245
    18.3214  19.8549  20.1331

     occupation numbers 
     1.0000   1.0000   1.0000   1.0000   1.0000   1.0000   1.0000   1.0000
     1.0000   1.0000   1.0000   1.0000   1.0000   1.0000   1.0000   1.0000
     1.0020   1.0338   1.0401   0.0000   0.0000   0.0000   0.0000   0.0000
     0.0000   0.0000   0.0000

          k = 0.1667 0.3849-0.2093 (  2636 PWs)   bands (ev):

   -87.5041 -50.7900 -50.7636 -50.7411 -45.9257 -17.9982 -17.8594 -17.7346
   -10.9768 -10.1355   1.6613   2.0979   2.9813   3.3441   3.9378   5.2360
     6.9771   7.1987   7.4182   8.8921   9.3928  10.1879  15.1039  16.0594
    18.1991  20.0564  20.3791

     occupation numbers 
     1.0000   1.0000   1.0000   1.0000   1.0000   1.0000   1.0000   1.0000
     1.0000   1.0000   1.0000   1.0000   1.0000   1.0000   1.0000   1.0000
     1.0024   1.0352   1.0771   0.0000   0.0000   0.0000   0.0000   0.0000
     0.0000   0.0000   0.0000

          k = 0.1667 0.4811 0.0000 (  2625 PWs)   bands (ev):

   -87.5033 -50.7971 -50.7679 -50.7396 -45.9201 -18.0328 -17.8805 -17.7255
   -10.7416 -10.1365   1.3619   2.1271   2.9856   3.5646   3.8579   4.8307
     6.8232   7.1351   7.4909   9.1953   9.4658  11.1225  14.1328  16.2573
    18.0969  18.8761  20.1685

     occupation numbers 
     1.0000   1.0000   1.0000   1.0000   1.0000   1.0000   1.0000   1.0000
     1.0000   1.0000   1.0000   1.0000   1.0000   1.0000   1.0000   1.0000
     1.0002   1.0192   1.0257   0.0000   0.0000   0.0000   0.0000   0.0000
     0.0000   0.0000   0.0000

          k = 0.1667 0.4811 0.1046 (  2642 PWs)   bands (ev):

   -87.5033 -50.7971 -50.7680 -50.7397 -45.9201 -18.0330 -17.8807 -17.7257
   -10.7414 -10.1368   1.3619   2.1175   2.9843   3.5817   3.8536   4.8451
     6.8197   7.1370   7.4815   9.1535   9.5014  11.1178  14.0996  16.1448
    18.1473  19.0300  20.1752

     occupation numbers 
     1.0000   1.0000   1.0000   1.0000   1.0000   1.0000   1.0000   1.0000
     1.0000   1.0000   1.0000   1.0000   1.0000   1.0000   1.0000   1.0000
     1.0002   1.0196   1.0358   0.0000   0.0000   0.0000   0.0000   0.0000
     0.0000   0.0000   0.0000

          k = 0.1667 0.4811-0.2093 (  2642 PWs)   bands (ev):

   -87.5033 -50.7971 -50.7680 -50.7398 -45.9201 -18.0329 -17.8806 -17.7259
   -10.7415 -10.1366   1.3577   2.1112   2.9871   3.5963   3.8589   4.8426
     6.8224   7.1385   7.4589   9.2384   9.4864  10.9861  14.0957  16.3249
    17.9876  19.1454  20.2182

     occupation numbers 
     1.0000   1.0000   1.0000   1.0000   1.0000   1.0000   1.0000   1.0000
     1.0000   1.0000   1.0000   1.0000   1.0000   1.0000   1.0000   1.0000
     1.0002   1.0199   1.0556   0.0000   0.0000   0.0000   0.0000   0.0000
     0.0000   0.0000   0.0000

          k = 0.1667 0.5774 0.0000 (  2640 PWs)   bands (ev):

   -87.5030 -50.7998 -50.7696 -50.7392 -45.9181 -18.0456 -17.8885 -17.7223
   -10.6505 -10.1389   1.2070   2.1682   3.0270   3.6173   3.9173   4.6219
     6.7098   7.1720   7.4585   9.3346   9.4672  11.9946  13.1038  16.8924
    17.5152  18.4144  20.3324

     occupation numbers 
     1.0000   1.0000   1.0000   1.0000   1.0000   1.0000   1.0000   1.0000
     1.0000   1.0000   1.0000   1.0000   1.0000   1.0000   1.0000   1.0000
     1.0000   1.0278   1.0559   0.0000   0.0000   0.0000   0.0000   0.0000
     0.0000   0.0000   0.0000

          k = 0.1667 0.5774 0.1046 (  2648 PWs)   bands (ev):

   -87.5030 -50.7997 -50.7696 -50.7392 -45.9181 -18.0455 -17.8886 -17.7225
   -10.6506 -10.1388   1.2068   2.1622   3.0282   3.6168   3.9200   4.6348
     6.7081   7.1735   7.4500   9.3433   9.4942  11.9250  13.0409  16.8791
    17.7034  18.4431  20.2390

     occupation numbers 
     1.0000   1.0000   1.0000   1.0000   1.0000   1.0000   1.0000   1.0000
     1.0000   1.0000   1.0000   1.0000   1.0000   1.0000   1.0000   1.0000
     1.0000   1.0281   1.0618   0.0000   0.0000   0.0000   0.0000   0.0000
     0.0000   0.0000   0.0000

          k = 0.1667 0.5774-0.2093 (  2664 PWs)   bands (ev):

   -87.5030 -50.7998 -50.7697 -50.7394 -45.9181 -18.0456 -17.8887 -17.7229
   -10.6506 -10.1387   1.2065   2.1561   3.0294   3.6162   3.9228   4.6475
     6.7064   7.1751   7.4413   9.3560   9.5175  11.8623  12.9698  16.9213
    17.8104  18.4871  20.1790

     occupation numbers 
     1.0000   1.0000   1.0000   1.0000   1.0000   1.0000   1.0000   1.0000
     1.0000   1.0000   1.0000   1.0000   1.0000   1.0000   1.0000   1.0000
     1.0000   1.0286   1.0670   0.0000   0.0000   0.0000   0.0000   0.0000
     0.0000   0.0000   0.0000

          k = 0.2500 0.4330 0.0000 (  2639 PWs)   bands (ev):

   -87.5033 -50.7936 -50.7715 -50.7397 -45.9201 -18.0146 -17.8992 -17.7257
   -10.7560 -10.1227   1.6538   2.0002   2.8240   3.4703   3.8271   4.8833
     6.8636   7.1600   7.5614   9.1033   9.3620  11.0467  14.6530  16.2572
    17.6239  19.6339  20.2205

     occupation numbers 
     1.0000   1.0000   1.0000   1.0000   1.0000   1.0000   1.0000   1.0000
     1.0000   1.0000   1.0000   1.0000   1.0000   1.0000   1.0000   1.0000
     1.0004   1.0247   0.9157   0.0000   0.0000   0.0000   0.0000   0.0000
     0.0000   0.0000   0.0000

          k = 0.2500 0.4330 0.1046 (  2633 PWs)   bands (ev):

   -87.5033 -50.7935 -50.7715 -50.7397 -45.9201 -18.0146 -17.8991 -17.7257
   -10.7559 -10.1228   1.6507   1.9927   2.8264   3.4872   3.8292   4.8829
     6.8653   7.1623   7.5387   9.1621   9.3494  10.9625  14.6764  16.2687
    17.5352  19.7161  20.2018

     occupation numbers 
     1.0000   1.0000   1.0000   1.0000   1.0000   1.0000   1.0000   1.0000
     1.0000   1.0000   1.0000   1.0000   1.0000   1.0000   1.0000   1.0000
     1.0004   1.0253   0.9577   0.0000   0.0000   0.0000   0.0000   0.0000
     0.0000   0.0000   0.0000

          k = 0.2500 0.4330-0.2093 (  2632 PWs)   bands (ev):

   -87.5033 -50.7935 -50.7715 -50.7397 -45.9201 -18.0145 -17.8991 -17.7257
   -10.7557 -10.1229   1.6475   1.9854   2.8286   3.5037   3.8316   4.8826
     6.8670   7.1649   7.5161   9.2719   9.2863  10.8800  14.6879  16.2964
    17.4492  19.8060  20.1130

     occupation numbers 
     1.0000   1.0000   1.0000   1.0000   1.0000   1.0000   1.0000   1.0000
     1.0000   1.0000   1.0000   1.0000   1.0000   1.0000   1.0000   1.0000
     1.0004   1.0259   0.9934   0.0000   0.0000   0.0000   0.0000   0.0000
     0.0000   0.0000   0.0000

          k = 0.2500 0.5292 0.0000 (  2638 PWs)   bands (ev):

   -87.5028 -50.7941 -50.7775 -50.7389 -45.9169 -18.0163 -17.9298 -17.7205
   -10.6303 -10.1080   1.5607   2.0569   2.6229   3.6054   3.9740   4.5180
     6.6881   7.2848   7.5318   9.2137   9.3496  12.1201  13.6739  16.4989
    17.5210  18.6284  19.9513

     occupation numbers 
     1.0000   1.0000   1.0000   1.0000   1.0000   1.0000   1.0000   1.0000
     1.0000   1.0000   1.0000   1.0000   1.0000   1.0000   1.0000   1.0000
     1.0000   1.0640   0.9693   0.0000   0.0000   0.0000   0.0000   0.0000
     0.0000   0.0000   0.0000

          k = 0.2500 0.5292 0.1046 (  2645 PWs)   bands (ev):

   -87.5028 -50.7942 -50.7775 -50.7390 -45.9169 -18.0164 -17.9297 -17.7207
   -10.6303 -10.1080   1.5607   2.0529   2.6244   3.6107   3.9713   4.5219
     6.6882   7.2859   7.5229   9.2411   9.3685  12.0386  13.6151  16.4672
    17.5591  18.7918  19.9492

     occupation numbers 
     1.0000   1.0000   1.0000   1.0000   1.0000   1.0000   1.0000   1.0000
     1.0000   1.0000   1.0000   1.0000   1.0000   1.0000   1.0000   1.0000
     1.0000   1.0643   0.9834   0.0000   0.0000   0.0000   0.0000   0.0000
     0.0000   0.0000   0.0000

          k = 0.2500 0.5292-0.2093 (  2644 PWs)   bands (ev):

   -87.5028 -50.7942 -50.7775 -50.7390 -45.9169 -18.0165 -17.9296 -17.7208
   -10.6303 -10.1080   1.5593   2.0500   2.6275   3.6123   3.9746   4.5217
     6.6890   7.2869   7.5123   9.2908   9.3753  11.9323  13.5716  16.4744
    17.6237  18.8978  19.8879

     occupation numbers 
     1.0000   1.0000   1.0000   1.0000   1.0000   1.0000   1.0000   1.0000
     1.0000   1.0000   1.0000   1.0000   1.0000   1.0000   1.0000   1.0000
     1.0000   1.0647   0.9988   0.0000   0.0000   0.0000   0.0000   0.0000
     0.0000   0.0000   0.0000

          k = 0.3333 0.5774 0.0000 (  2649 PWs)   bands (ev):

   -87.5026 -50.7871 -50.7871 -50.7386 -45.9157 -17.9808 -17.9775 -17.7188
   -10.5952 -10.0909   1.7634   2.1374   2.1938   3.6903   4.2011   4.2061
     6.6255   7.4139   7.4930   9.2094   9.2994  12.9026  13.2392  16.0247
    18.0863  18.7179  18.9692

     occupation numbers 
     1.0000   1.0000   1.0000   1.0000   1.0000   1.0000   1.0000   1.0000
     1.0000   1.0000   1.0000   1.0000   1.0000   1.0000   1.0000   1.0000
     1.0000   1.0784   1.0234   0.0000   0.0000   0.0000   0.0000   0.0000
     0.0000   0.0000   0.0000

          k = 0.3333 0.5774 0.1046 (  2625 PWs)   bands (ev):

   -87.5026 -50.7869 -50.7869 -50.7386 -45.9157 -17.9804 -17.9771 -17.7187
   -10.5952 -10.0909   1.7617   2.1339   2.1995   3.6958   4.1915   4.2097
     6.6270   7.4108   7.4890   9.2385   9.3235  12.8206  13.1626  15.9934
    18.1374  18.8797  19.0221

     occupation numbers 
     1.0000   1.0000   1.0000   1.0000   1.0000   1.0000   1.0000   1.0000
     1.0000   1.0000   1.0000   1.0000   1.0000   1.0000   1.0000   1.0000
     1.0000   1.0792   1.0279   0.0000   0.0000   0.0000   0.0000   0.0000
     0.0000   0.0000   0.0000

          k = 0.3333 0.5774-0.2093 (  2646 PWs)   bands (ev):

   -87.5026 -50.7870 -50.7870 -50.7388 -45.9157 -17.9807 -17.9773 -17.7190
   -10.5952 -10.0909   1.7597   2.1303   2.2051   3.7012   4.1817   4.2131
     6.6284   7.4076   7.4850   9.2682   9.3478  12.7383  13.0858  15.9638
    18.1846  19.0505  19.0696

     occupation numbers 
     1.0000   1.0000   1.0000   1.0000   1.0000   1.0000   1.0000   1.0000
     1.0000   1.0000   1.0000   1.0000   1.0000   1.0000   1.0000   1.0000
     1.0000   1.0800   1.0322   0.0000   0.0000   0.0000   0.0000   0.0000
     0.0000   0.0000   0.0000

          k = 0.0000-0.0962 0.1046 (  2651 PWs)   bands (ev):

   -87.5081 -50.7506 -50.7478 -50.7477 -45.9531 -17.7982 -17.7822 -17.7784
   -11.9635 -10.1621   1.5647   2.3691   2.5559   4.6490   5.3066   5.5328
     6.6683   6.7717   7.1204   8.0098   9.8182   9.9965  12.9426  16.0939
    18.1123  22.7334  23.0858

     occupation numbers 
     1.0000   1.0000   1.0000   1.0000   1.0000   1.0000   1.0000   1.0000
     1.0000   1.0000   1.0000   1.0000   1.0000   1.0000   1.0000   1.0000
     1.0000   1.0001   1.0164   0.0403   0.0000   0.0000   0.0000   0.0000
     0.0000   0.0000   0.0000

          k = 0.0000-0.1925 0.1046 (  2640 PWs)   bands (ev):

   -87.5071 -50.7612 -50.7501 -50.7462 -45.9466 -17.8528 -17.7938 -17.7678
   -11.7501 -10.1518   1.7658   2.1548   2.6785   4.2677   5.0846   5.1931
     6.7783   7.0973   7.2828   8.2362   9.3366   9.8910  13.5298  16.6902
    18.7598  20.5687  22.7970

     occupation numbers 
     1.0000   1.0000   1.0000   1.0000   1.0000   1.0000   1.0000   1.0000
     1.0000   1.0000   1.0000   1.0000   1.0000   1.0000   1.0000   1.0000
     1.0001   1.0126   1.0633   0.0013   0.0000   0.0000   0.0000   0.0000
     0.0000   0.0000   0.0000

          k = 0.0000-0.2887 0.1046 (  2638 PWs)   bands (ev):

   -87.5058 -50.7756 -50.7536 -50.7440 -45.9378 -17.9266 -17.8098 -17.7537
   -11.4385 -10.1434   1.7482   2.2507   2.8398   3.4050   4.7095   5.4538
     6.8453   7.2520   7.3651   8.5708   9.0748   9.8185  14.2586  17.2466
    18.4048  19.5755  21.8292

     occupation numbers 
     1.0000   1.0000   1.0000   1.0000   1.0000   1.0000   1.0000   1.0000
     1.0000   1.0000   1.0000   1.0000   1.0000   1.0000   1.0000   1.0000
     1.0003   1.0527   1.0829   0.0000   0.0000   0.0000   0.0000   0.0000
     0.0000   0.0000   0.0000

          k = 0.0000-0.3849 0.1046 (  2637 PWs)   bands (ev):

   -87.5046 -50.7901 -50.7571 -50.7419 -45.9289 -17.9995 -17.8257 -17.7396
   -11.0955 -10.1463   1.4840   2.2498   2.9776   3.2437   4.4822   5.2451
     6.8463   7.2145   7.3544   8.9729   9.4673   9.8267  14.9031  16.0982
    18.1829  19.8332  20.3598

     occupation numbers 
     1.0000   1.0000   1.0000   1.0000   1.0000   1.0000   1.0000   1.0000
     1.0000   1.0000   1.0000   1.0000   1.0000   1.0000   1.0000   1.0000
     1.0003   1.0402   1.0817   0.0000   0.0000   0.0000   0.0000   0.0000
     0.0000   0.0000   0.0000

          k = 0.0000-0.4811 0.1046 (  2641 PWs)   bands (ev):

   -87.5036 -50.8007 -50.7597 -50.7403 -45.9225 -18.0521 -17.8374 -17.7294
   -10.8115 -10.1656   1.0732   2.2735   3.0449   3.5315   4.4082   4.8495
     6.7355   7.0936   7.3205   9.2671   9.8739  10.4901  13.8965  16.1614
    17.8403  19.2279  20.1683

     occupation numbers 
     1.0000   1.0000   1.0000   1.0000   1.0000   1.0000   1.0000   1.0000
     1.0000   1.0000   1.0000   1.0000   1.0000   1.0000   1.0000   1.0000
     1.0000   1.0120   1.0748   0.0000   0.0000   0.0000   0.0000   0.0000
     0.0000   0.0000   0.0000

          k =-0.0833-0.2406 0.1046 (  2640 PWs)   bands (ev):

   -87.5063 -50.7696 -50.7531 -50.7448 -45.9410 -17.8961 -17.8077 -17.7589
   -11.5562 -10.1449   1.8071   2.1951   2.7467   3.7671   4.6622   5.4394
     6.8972   7.1624   7.4076   8.3538   9.2171   9.7849  13.9546  17.1944
    19.0450  19.4879  22.1090

     occupation numbers 
     1.0000   1.0000   1.0000   1.0000   1.0000   1.0000   1.0000   1.0000
     1.0000   1.0000   1.0000   1.0000   1.0000   1.0000   1.0000   1.0000
     1.0007   1.0253   1.0800   0.0001   0.0000   0.0000   0.0000   0.0000
     0.0000   0.0000   0.0000

          k =-0.0833-0.3368 0.1046 (  2641 PWs)   bands (ev):

   -87.5050 -50.7835 -50.7572 -50.7427 -45.9322 -17.9660 -17.8269 -17.7449
   -11.2285 -10.1405   1.6815   2.2769   2.8852   3.2552   4.3652   5.4272
     6.9206   7.2825   7.3605   8.8024   9.1792   9.8057  14.6799  16.9115
    18.1610  19.9084  21.0315

     occupation numbers 
     1.0000   1.0000   1.0000   1.0000   1.0000   1.0000   1.0000   1.0000
     1.0000   1.0000   1.0000   1.0000   1.0000   1.0000   1.0000   1.0000
     1.0010   1.0632   1.0824   0.0000   0.0000   0.0000   0.0000   0.0000
     0.0000   0.0000   0.0000

          k =-0.0833-0.4330 0.1046 (  2634 PWs)   bands (ev):

   -87.5039 -50.7954 -50.7607 -50.7408 -45.9245 -18.0259 -17.8434 -17.7326
   -10.9144 -10.1486   1.3406   2.1970   3.0163   3.4254   4.2119   5.0548
     6.8630   7.1509   7.3692   9.1733   9.5966  10.1575  14.7033  15.9213
    18.2756  19.4931  20.2442

     occupation numbers 
     1.0000   1.0000   1.0000   1.0000   1.0000   1.0000   1.0000   1.0000
     1.0000   1.0000   1.0000   1.0000   1.0000   1.0000   1.0000   1.0000
     1.0003   1.0226   1.0831   0.0000   0.0000   0.0000   0.0000   0.0000
     0.0000   0.0000   0.0000

          k =-0.0833-0.5292 0.1046 (  2637 PWs)   bands (ev):

   -87.5033 -50.8024 -50.7627 -50.7397 -45.9201 -18.0602 -17.8529 -17.7256
   -10.7109 -10.1661   1.0175   2.2665   3.0752   3.6488   4.1659   4.7417
     6.7221   7.0751   7.3531   9.3467   9.7476  11.2260  13.2312  16.6296
    17.5276  19.1470  20.0967

     occupation numbers 
     1.0000   1.0000   1.0000   1.0000   1.0000   1.0000   1.0000   1.0000
     1.0000   1.0000   1.0000   1.0000   1.0000   1.0000   1.0000   1.0000
     1.0000   1.0096   1.0816   0.0000   0.0000   0.0000   0.0000   0.0000
     0.0000   0.0000   0.0000

          k =-0.1667-0.3849 0.1046 (  2638 PWs)   bands (ev):

   -87.5041 -50.7900 -50.7637 -50.7411 -45.9257 -17.9982 -17.8595 -17.7346
   -10.9775 -10.1348   1.6721   2.1037   2.9775   3.3101   3.9385   5.2372
     6.9749   7.1976   7.4439   9.0855   9.2320  10.1393  15.0733  16.2153
    18.2518  19.9688  20.2932

     occupation numbers 
     1.0000   1.0000   1.0000   1.0000   1.0000   1.0000   1.0000   1.0000
     1.0000   1.0000   1.0000   1.0000   1.0000   1.0000   1.0000   1.0000
     1.0024   1.0349   1.0655   0.0000   0.0000   0.0000   0.0000   0.0000
     0.0000   0.0000   0.0000

          k =-0.1667-0.4811 0.1046 (  2642 PWs)   bands (ev):

[...]
     0.0000   0.0000   0.0000

          k = 0.2500 0.4330-0.2093 (  2632 PWs)   bands (ev):

   -87.3384 -50.6458 -50.6236 -50.5534 -45.9240 -18.0198 -17.9038 -17.7294
   -10.7409 -10.1042   1.6741   2.0130   2.8516   3.5427   3.8687   4.9131
     7.0580   7.3212   7.6478   9.3460   9.3508  10.8102  14.6011  16.2812
    17.4252  19.8034  20.1138

     occupation numbers 
     1.0000   1.0000   1.0000   1.0000   1.0000   1.0000   1.0000   1.0000
     1.0000   1.0000   1.0000   1.0000   1.0000   1.0000   1.0000   1.0000
     1.0077   1.0750   0.7099   0.0000   0.0000   0.0000   0.0000   0.0000
     0.0000   0.0000   0.0000

          k = 0.2500 0.5292 0.0000 (  2638 PWs)   bands (ev):

   -87.3379 -50.6465 -50.6297 -50.5526 -45.9208 -18.0217 -17.9347 -17.7241
   -10.6156 -10.0890   1.5872   2.0843   2.6450   3.6374   4.0106   4.5486
     6.8887   7.4344   7.6735   9.2831   9.4220  12.0386  13.5881  16.4786
    17.5011  18.6225  19.9407

     occupation numbers 
     1.0000   1.0000   1.0000   1.0000   1.0000   1.0000   1.0000   1.0000
     1.0000   1.0000   1.0000   1.0000   1.0000   1.0000   1.0000   1.0000
     1.0006   1.0706   0.6397   0.0000   0.0000   0.0000   0.0000   0.0000
     0.0000   0.0000   0.0000

          k = 0.2500 0.5292 0.1046 (  2645 PWs)   bands (ev):

   -87.3379 -50.6465 -50.6297 -50.5527 -45.9208 -18.0217 -17.9346 -17.7243
   -10.6156 -10.0890   1.5872   2.0802   2.6464   3.6429   4.0076   4.5532
     6.8888   7.4358   7.6640   9.3126   9.4418  11.9546  13.5292  16.4462
    17.5399  18.7866  19.9437

     occupation numbers 
     1.0000   1.0000   1.0000   1.0000   1.0000   1.0000   1.0000   1.0000
     1.0000   1.0000   1.0000   1.0000   1.0000   1.0000   1.0000   1.0000
     1.0006   1.0699   0.6659   0.0000   0.0000   0.0000   0.0000   0.0000
     0.0000   0.0000   0.0000

          k = 0.2500 0.5292-0.2093 (  2644 PWs)   bands (ev):

   -87.3379 -50.6465 -50.6297 -50.5527 -45.9208 -18.0218 -17.9345 -17.7244
   -10.6156 -10.0890   1.5857   2.0771   2.6494   3.6445   4.0111   4.5533
     6.8897   7.4370   7.6527   9.3665   9.4486  11.8455  13.4845  16.4518
    17.6051  18.8939  19.8891

     occupation numbers 
     1.0000   1.0000   1.0000   1.0000   1.0000   1.0000   1.0000   1.0000
     1.0000   1.0000   1.0000   1.0000   1.0000   1.0000   1.0000   1.0000
     1.0006   1.0693   0.6965   0.0000   0.0000   0.0000   0.0000   0.0000
     0.0000   0.0000   0.0000

          k = 0.3333 0.5774 0.0000 (  2649 PWs)   bands (ev):

   -87.3377 -50.6394 -50.6393 -50.5523 -45.9196 -17.9858 -17.9826 -17.7224
   -10.5805 -10.0718   1.7922   2.1666   2.2114   3.7232   4.2138   4.2573
     6.8305   7.5583   7.6398   9.2812   9.3701  12.8186  13.1448  16.0091
    18.0604  18.7258  18.9519

     occupation numbers 
     1.0000   1.0000   1.0000   1.0000   1.0000   1.0000   1.0000   1.0000
     1.0000   1.0000   1.0000   1.0000   1.0000   1.0000   1.0000   1.0000
     1.0002   0.9218   0.7312   0.0000   0.0000   0.0000   0.0000   0.0000
     0.0000   0.0000   0.0000

          k = 0.3333 0.5774 0.1046 (  2625 PWs)   bands (ev):

   -87.3377 -50.6392 -50.6392 -50.5523 -45.9195 -17.9855 -17.9823 -17.7224
   -10.5805 -10.0718   1.7904   2.1629   2.2172   3.7289   4.2042   4.2610
     6.8321   7.5551   7.6356   9.3122   9.3954  12.7346  13.0671  15.9768
    18.1133  18.8899  19.0062

     occupation numbers 
     1.0000   1.0000   1.0000   1.0000   1.0000   1.0000   1.0000   1.0000
     1.0000   1.0000   1.0000   1.0000   1.0000   1.0000   1.0000   1.0000
     1.0002   0.9280   0.7421   0.0000   0.0000   0.0000   0.0000   0.0000
     0.0000   0.0000   0.0000

          k = 0.3333 0.5774-0.2093 (  2646 PWs)   bands (ev):

   -87.3377 -50.6393 -50.6393 -50.5525 -45.9196 -17.9857 -17.9825 -17.7226
   -10.5805 -10.0718   1.7884   2.1592   2.2228   3.7346   4.1944   4.2646
     6.8337   7.5519   7.6315   9.3439   9.4212  12.6501  12.9891  15.9463
    18.1623  19.0552  19.0634

     occupation numbers 
     1.0000   1.0000   1.0000   1.0000   1.0000   1.0000   1.0000   1.0000
     1.0000   1.0000   1.0000   1.0000   1.0000   1.0000   1.0000   1.0000
     1.0002   0.9341   0.7530   0.0000   0.0000   0.0000   0.0000   0.0000
     0.0000   0.0000   0.0000

          k = 0.0000-0.0962 0.1046 (  2651 PWs)   bands (ev):

   -87.3432 -50.6026 -50.5996 -50.5617 -45.9570 -17.8025 -17.7865 -17.7821
   -11.9482 -10.1450   1.6046   2.4099   2.5978   4.6572   5.3363   5.5670
     6.7932   6.9030   7.1631   8.1005   9.8861  10.0642  12.9365  16.1039
    18.1238  22.7089  23.0415

     occupation numbers 
     1.0000   1.0000   1.0000   1.0000   1.0000   1.0000   1.0000   1.0000
     1.0000   1.0000   1.0000   1.0000   1.0000   1.0000   1.0000   1.0000
     1.0001   1.0007   1.0255   0.0118   0.0000   0.0000   0.0000   0.0000
     0.0000   0.0000   0.0000

          k = 0.0000-0.1925 0.1046 (  2640 PWs)   bands (ev):

   -87.3423 -50.6132 -50.6021 -50.5600 -45.9505 -17.8574 -17.7981 -17.7716
   -11.7348 -10.1345   1.8018   2.1957   2.7185   4.2978   5.1265   5.2082
     6.9005   7.2261   7.3699   8.2801   9.4054   9.9572  13.5226  16.6980
    18.7730  20.4975  22.7934

     occupation numbers 
     1.0000   1.0000   1.0000   1.0000   1.0000   1.0000   1.0000   1.0000
     1.0000   1.0000   1.0000   1.0000   1.0000   1.0000   1.0000   1.0000
     1.0007   1.0439   1.0831   0.0005   0.0000   0.0000   0.0000   0.0000
     0.0000   0.0000   0.0000

          k = 0.0000-0.2887 0.1046 (  2638 PWs)   bands (ev):

   -87.3409 -50.6278 -50.6056 -50.5578 -45.9417 -17.9316 -17.8142 -17.7575
   -11.4232 -10.1257   1.7793   2.2890   2.8778   3.4395   4.7487   5.4742
     6.9779   7.3890   7.4998   8.5671   9.1318   9.8836  14.2483  17.2349
    18.3492  19.5921  21.8250

     occupation numbers 
     1.0000   1.0000   1.0000   1.0000   1.0000   1.0000   1.0000   1.0000
     1.0000   1.0000   1.0000   1.0000   1.0000   1.0000   1.0000   1.0000
     1.0025   1.0828   1.0153   0.0000   0.0000   0.0000   0.0000   0.0000
     0.0000   0.0000   0.0000

          k = 0.0000-0.3849 0.1046 (  2637 PWs)   bands (ev):

   -87.3397 -50.6424 -50.6091 -50.5556 -45.9328 -18.0047 -17.8302 -17.7433
   -11.0803 -10.1281   1.5140   2.2738   3.0152   3.2879   4.5126   5.2720
     6.9911   7.3624   7.5174   9.0243   9.4299   9.8927  14.8750  16.0417
    18.1814  19.8423  20.3686

     occupation numbers 
     1.0000   1.0000   1.0000   1.0000   1.0000   1.0000   1.0000   1.0000
     1.0000   1.0000   1.0000   1.0000   1.0000   1.0000   1.0000   1.0000
     1.0030   1.0826   0.9916   0.0000   0.0000   0.0000   0.0000   0.0000
     0.0000   0.0000   0.0000

          k = 0.0000-0.4811 0.1046 (  2641 PWs)   bands (ev):

   -87.3387 -50.6531 -50.6117 -50.5540 -45.9264 -18.0576 -17.8419 -17.7330
   -10.7966 -10.1469   1.1014   2.2918   3.0843   3.5773   4.4270   4.8782
     6.8962   7.2515   7.4841   9.3474   9.9417  10.4123  13.8220  16.1469
    17.8394  19.2204  20.1931

     occupation numbers 
     1.0000   1.0000   1.0000   1.0000   1.0000   1.0000   1.0000   1.0000
     1.0000   1.0000   1.0000   1.0000   1.0000   1.0000   1.0000   1.0000
     1.0006   1.0526   1.0331   0.0000   0.0000   0.0000   0.0000   0.0000
     0.0000   0.0000   0.0000

          k =-0.0833-0.2406 0.1046 (  2640 PWs)   bands (ev):

   -87.3414 -50.6218 -50.6051 -50.5586 -45.9449 -17.9009 -17.8121 -17.7626
   -11.5410 -10.1274   1.8387   2.2370   2.7850   3.7983   4.7051   5.4565
     7.0402   7.2700   7.5389   8.3656   9.2810   9.8470  13.9455  17.1989
    19.0052  19.4678  22.0940

     occupation numbers 
     1.0000   1.0000   1.0000   1.0000   1.0000   1.0000   1.0000   1.0000
     1.0000   1.0000   1.0000   1.0000   1.0000   1.0000   1.0000   1.0000
     1.0061   1.0590   0.9574   0.0001   0.0000   0.0000   0.0000   0.0000
     0.0000   0.0000   0.0000

          k =-0.0833-0.3368 0.1046 (  2641 PWs)   bands (ev):

   -87.3401 -50.6357 -50.6092 -50.5565 -45.9361 -17.9712 -17.8313 -17.7486
   -11.2133 -10.1226   1.7119   2.3066   2.9237   3.2935   4.4022   5.4513
     7.0698   7.4119   7.5218   8.8017   9.2186   9.8560  14.6650  16.8492
    18.1509  19.9270  21.0269

     occupation numbers 
     1.0000   1.0000   1.0000   1.0000   1.0000   1.0000   1.0000   1.0000
     1.0000   1.0000   1.0000   1.0000   1.0000   1.0000   1.0000   1.0000
     1.0090   1.0789   0.9850   0.0000   0.0000   0.0000   0.0000   0.0000
     0.0000   0.0000   0.0000

          k =-0.0833-0.4330 0.1046 (  2634 PWs)   bands (ev):

   -87.3390 -50.6478 -50.6127 -50.5545 -45.9284 -18.0312 -17.8479 -17.7362
   -10.8994 -10.1301   1.3694   2.2193   3.0522   3.4699   4.2393   5.0832
     7.0231   7.3112   7.5201   9.2480   9.6261  10.1257  14.6353  15.8995
    18.2716  19.4849  20.2653

     occupation numbers 
     1.0000   1.0000   1.0000   1.0000   1.0000   1.0000   1.0000   1.0000
     1.0000   1.0000   1.0000   1.0000   1.0000   1.0000   1.0000   1.0000
     1.0048   1.0723   0.9876   0.0000   0.0000   0.0000   0.0000   0.0000
     0.0000   0.0000   0.0000

          k =-0.0833-0.5292 0.1046 (  2637 PWs)   bands (ev):

   -87.3384 -50.6548 -50.6148 -50.5534 -45.9240 -18.0658 -17.8575 -17.7292
   -10.6962 -10.1472   1.0451   2.2859   3.1117   3.6938   4.1853   4.7695
     6.8969   7.2351   7.5060   9.4272   9.8142  11.1448  13.1580  16.6137
    17.5244  19.1359  20.1118

     occupation numbers 
     1.0000   1.0000   1.0000   1.0000   1.0000   1.0000   1.0000   1.0000
     1.0000   1.0000   1.0000   1.0000   1.0000   1.0000   1.0000   1.0000
     1.0006   1.0469   1.0073   0.0000   0.0000   0.0000   0.0000   0.0000
     0.0000   0.0000   0.0000

          k =-0.1667-0.3849 0.1046 (  2638 PWs)   bands (ev):

   -87.3392 -50.6423 -50.6157 -50.5549 -45.9296 -18.0035 -17.8641 -17.7383
   -10.9624 -10.1165   1.7011   2.1298   3.0081   3.3523   3.9744   5.2652
     7.1380   7.3737   7.5699   9.1081   9.3024  10.1192  15.0353  16.1582
    18.2358  19.9749  20.2955

     occupation numbers 
     1.0000   1.0000   1.0000   1.0000   1.0000   1.0000   1.0000   1.0000
     1.0000   1.0000   1.0000   1.0000   1.0000   1.0000   1.0000   1.0000
     1.0198   1.0833   0.8984   0.0000   0.0000   0.0000   0.0000   0.0000
     0.0000   0.0000   0.0000

          k =-0.1667-0.4811 0.1046 (  2642 PWs)   bands (ev):

   -87.3384 -50.6495 -50.6201 -50.5534 -45.9240 -18.0384 -17.8853 -17.7293
   -10.7269 -10.1176   1.3849   2.1453   3.0164   3.6171   3.8969   4.8575
     7.0122   7.2940   7.6070   9.3793   9.4934  10.9145  14.0579  16.4193
    17.9026  19.0106  20.2109

     occupation numbers 
     1.0000   1.0000   1.0000   1.0000   1.0000   1.0000   1.0000   1.0000
     1.0000   1.0000   1.0000   1.0000   1.0000   1.0000   1.0000   1.0000
     1.0041   1.0670   0.8146   0.0000   0.0000   0.0000   0.0000   0.0000
     0.0000   0.0000   0.0000

          k =-0.2500-0.5292 0.1046 (  2645 PWs)   bands (ev):

   -87.3379 -50.6465 -50.6297 -50.5527 -45.9208 -18.0217 -17.9346 -17.7243
   -10.6157 -10.0889   1.5857   2.0812   2.6478   3.6394   4.0139   4.5486
     6.8895   7.4355   7.6622   9.3313   9.4328  11.9267  13.5463  16.4840
    17.5630  18.7307  19.8742

     occupation numbers 
     1.0000   1.0000   1.0000   1.0000   1.0000   1.0000   1.0000   1.0000
     1.0000   1.0000   1.0000   1.0000   1.0000   1.0000   1.0000   1.0000
     1.0006   1.0700   0.6706   0.0000   0.0000   0.0000   0.0000   0.0000
     0.0000   0.0000   0.0000

     the Fermi energy is     7.7621 ev

!    total energy              =    -569.27756952 Ry
     total all-electron energy =     -3412.768125 Ry
     estimated scf accuracy    <       0.00000008 Ry
     smearing contrib. (-TS)   =       0.00634365 Ry
     internal energy E=F+TS    =    -569.28391317 Ry

     The total energy is F=E-TS. E is the sum of the following terms:
     one-electron contribution =    -433.53856536 Ry
     hartree contribution      =     234.58119122 Ry
     xc contribution           =     -60.18670335 Ry
     ewald contribution        =    -188.20998527 Ry
     one-center paw contrib.   =    -121.92985041 Ry
      -> PAW hartree energy AE =     344.57122496 Ry
      -> PAW hartree energy PS =    -344.55322496 Ry
      -> PAW xc energy AE      =    -179.10076967 Ry
      -> PAW xc energy PS      =      57.15291927 Ry
      -> total E_H with PAW    =     234.59919121 Ry
      -> total E_XC with PAW   =    -182.13455376 Ry

     total magnetization       =     0.15 Bohr mag/cell
     absolute magnetization    =     0.19 Bohr mag/cell

     convergence has been achieved in  19 iterations

     Forces acting on atoms (cartesian axes, Ry/au):

     atom    1 type  1   force =     0.00000000    0.00000000    0.04200166
     atom    2 type  2   force =     0.00000000    0.00000000   -0.00438374
     atom    3 type  2   force =     0.00000000    0.00000000   -0.04713600
     atom    4 type  3   force =     0.00000000    0.00000000    0.00951809
     The non-local contrib.  to forces
     atom    1 type  1   force =     0.00000000    0.00000000   -0.00902250
     atom    2 type  2   force =     0.00000000    0.00000000   -0.91459615
     atom    3 type  2   force =    -0.00000000   -0.00000000    0.46930611
     atom    4 type  3   force =     0.00000000    0.00000000   -0.22336538
     The ionic contribution  to forces
     atom    1 type  1   force =    -0.00000000   -0.00000000   11.05243542
     atom    2 type  2   force =     0.00000000   -0.00000000   29.50189661
     atom    3 type  2   force =    -0.00000000    0.00000000  -22.34621197
     atom    4 type  3   force =     0.00000000   -0.00000000  -18.20812006
     The local contribution  to forces
     atom    1 type  1   force =    -0.00000000   -0.00000000  -11.00133110
     atom    2 type  2   force =     0.00000001   -0.00000001  -28.59980608
     atom    3 type  2   force =    -0.00000001    0.00000001   21.83362063
     atom    4 type  3   force =    -0.00000000    0.00000000   18.44127565
     The core correction contribution to forces
     atom    1 type  1   force =     0.00000000   -0.00000000   -0.00037062
     atom    2 type  2   force =    -0.00000000    0.00000000    0.00777559
     atom    3 type  2   force =     0.00000000   -0.00000000   -0.00359816
     atom    4 type  3   force =     0.00000000   -0.00000000    0.00008799
     The Hubbard contrib.    to forces
     atom    1 type  1   force =     0.00000000    0.00000000    0.00000000
     atom    2 type  2   force =     0.00000000    0.00000000    0.00000000
     atom    3 type  2   force =     0.00000000    0.00000000    0.00000000
     atom    4 type  3   force =     0.00000000    0.00000000    0.00000000
     The SCF correction term to forces
     atom    1 type  1   force =     0.00000000    0.00000000    0.00026369
     atom    2 type  2   force =     0.00000000   -0.00000000    0.00031952
     atom    3 type  2   force =    -0.00000000    0.00000000   -0.00027938
     atom    4 type  3   force =    -0.00000000    0.00000000   -0.00038688

     Total force =     0.063998     Total SCF correction =     0.000632

     Writing all to output data dir ./out/pw.save/ :
     XML data file, charge density, pseudopotentials, collected wavefunctions
 
     init_run     :     12.99s CPU      3.66s WALL (       1 calls)
     electrons    :    119.25s CPU     51.30s WALL (       1 calls)
     forces       :      1.59s CPU      1.46s WALL (       1 calls)

     Called by init_run:
     wfcinit      :      0.64s CPU      0.74s WALL (       1 calls)
     wfcinit:atom :      0.11s CPU      0.11s WALL (     138 calls)
     wfcinit:wfcr :      0.39s CPU      0.43s WALL (     138 calls)
     potinit      :     11.81s CPU      2.30s WALL (       1 calls)
     hinit0       :      0.43s CPU      0.43s WALL (       1 calls)

     Called by electrons:
     c_bands      :     35.44s CPU     35.88s WALL (      19 calls)
     sum_band     :      4.31s CPU      4.32s WALL (      19 calls)
     v_of_rho     :      0.32s CPU      0.21s WALL (      20 calls)
     v_h          :      0.23s CPU      0.03s WALL (      20 calls)
     v_xc         :      0.10s CPU      0.19s WALL (      21 calls)
     newd         :      0.47s CPU      0.39s WALL (      20 calls)
                                        0.39s GPU  (      20 calls)
     PAW_pot      :     81.95s CPU     10.60s WALL (      20 calls)
     mix_rho      :      0.52s CPU      0.53s WALL (      19 calls)

     Called by c_bands:
     init_us_2    :      2.15s CPU      2.12s WALL (    5520 calls)
     cegterg      :     31.51s CPU     32.02s WALL (    2622 calls)

     Called by sum_band:
     sum_band:wei :      0.07s CPU      0.07s WALL (      19 calls)
                                        0.07s GPU  (      19 calls)
     sum_band:loo :      3.51s CPU      3.51s WALL (      19 calls)
                                        3.51s GPU  (      19 calls)
     sum_band:buf :      0.38s CPU      0.44s WALL (    2622 calls)
                                        0.40s GPU  (    2622 calls)
     sum_band:ini :      1.01s CPU      1.05s WALL (    2622 calls)
                                        1.02s GPU  (    2622 calls)
     sum_band:cal :      0.10s CPU      0.16s WALL (    2622 calls)
                                        0.12s GPU  (    2622 calls)
     sum_band:bec :      0.57s CPU      0.62s WALL (    2622 calls)
                                        0.59s GPU  (    2622 calls)
     addusdens    :      0.62s CPU      0.63s WALL (      19 calls)
                                        0.63s GPU  (      19 calls)
     addusd:skk   :      0.00s CPU      0.00s WALL (      57 calls)
                                        0.00s GPU  (      57 calls)

     Called by *egterg:
     cdiaghg      :     11.31s CPU     11.68s WALL (   12907 calls)
                                       11.53s GPU  (   12907 calls)
     cegterg:over :      2.33s CPU      2.43s WALL (   10285 calls)
     cegterg:upda :      1.85s CPU      1.87s WALL (   10285 calls)
     cegterg:last :      0.32s CPU      0.33s WALL (    5360 calls)
     h_psi        :     10.76s CPU     11.10s WALL (   13045 calls)
                                       10.95s GPU  (   13045 calls)
     s_psi        :      1.93s CPU      2.04s WALL (   13045 calls)
     g_psi        :      0.05s CPU      0.24s WALL (   10285 calls)
                                        0.11s GPU  (   10285 calls)

     Called by h_psi:
     h_psi:calbec :      0.35s CPU      0.65s WALL (   13045 calls)
                                        0.49s GPU  (   13045 calls)
     vloc_psi     :      7.34s CPU      7.50s WALL (   13045 calls)
                                        7.34s GPU  (   13045 calls)
     add_vuspsi   :      1.75s CPU      2.07s WALL (   13045 calls)
                                        1.91s GPU  (   13045 calls)

     General routines
     calbec       :      0.39s CPU      0.43s WALL (   16219 calls)
     fft          :      3.39s CPU      0.87s WALL (     513 calls)
                                        0.02s GPU  (     473 calls)
     ffts         :      4.43s CPU      0.80s WALL (     692 calls)
                                        0.02s GPU  (     652 calls)
     fftw         :      0.65s CPU      2.47s WALL (   42226 calls)
                                        2.00s GPU  (   42226 calls)
     interpolate  :      7.94s CPU      1.65s WALL (      40 calls)
 
     Parallel routines

     PAW routines
     PAW_pot      :     81.95s CPU     10.60s WALL (      20 calls)
     PAW_symme    :      0.02s CPU      0.00s WALL (      39 calls)
 
     PWSCF        :   2m15.41s CPU     57.00s WALL

 
   This run was terminated on:   4:21:27  12Jul2026            

=------------------------------------------------------------------------------=
   JOB DONE.
=------------------------------------------------------------------------------=
Warning: ieee_divide_by_zero is signaling
Warning: ieee_inexact is signaling
FORTRAN STOP
