
     Program PWSCF v.7.3.1 starts on 12Jul2026 at  7:10:31 

     This program is part of the open-source Quantum ESPRESSO suite
     for quantum simulation of materials; please cite
         "P. Giannozzi et al., J. Phys.:Condens. Matter 21 395502 (2009);
         "P. Giannozzi et al., J. Phys.:Condens. Matter 29 465901 (2017);
         "P. Giannozzi et al., J. Chem. Phys. 152 154105 (2020);
          URL http://www.quantum-espresso.org", 
     in publications or presentations arising from this work. More details at
     http://www.quantum-espresso.org/quote

     Parallel version (MPI & OpenMP), running on      14 processor cores
     Number of MPI processes:                 1
     Threads/MPI process:                    14

     MPI processes distributed on     1 nodes
     704172 MiB available memory on the printing compute node when the environment starts
 
     Reading input from pw.in

     Current dimensions of program PWSCF are:
     Max number of different atomic species (ntypx) = 10
     Max number of k-points (npk) =  40000
     Max angular momentum in pseudopotentials (lmaxx) =  4
     file Co.pbe-spn-kjpaw_psl.0.3.1.UPF: wavefunction(s)  3P 3D renormalized
     file O.pbe-n-kjpaw_psl.1.0.0.UPF: wavefunction(s)  2S 2P renormalized
     file Na.pbe-spn-kjpaw_psl.1.0.0.UPF: wavefunction(s)  2P renormalized
 
     Subspace diagonalization in iterative solution of the eigenvalue problem:
     a serial algorithm will be used

 
     G-vector sticks info
     --------------------
     sticks:   dense  smooth     PW     G-vecs:    dense   smooth      PW
     Sum        2941    1483    421               256907    90927   13645
 
     Using Slab Decomposition
 


     bravais-lattice index     =            4
     lattice parameter (alat)  =       9.4527  a.u.
     unit-cell volume          =    1447.6983 (a.u.)^3
     number of atoms/cell      =           10
     number of atomic types    =            3
     number of electrons       =        96.00
     number of Kohn-Sham states=           64
     kinetic-energy cutoff     =      60.0000  Ry
     charge density cutoff     =     480.0000  Ry
     scf convergence threshold =      1.0E-07
     mixing beta               =       0.3000
     number of iterations used =            8  local-TF  mixing
     Exchange-correlation= SLA  PW   PBX  PBC
                           (   1   4   3   4   0   0   0)

     GPU acceleration is ACTIVE.  1 visible GPUs per MPI rank
     GPU-aware MPI enabled


     GPU used by master process:

        Device Number: 0
        Device name: NVIDIA A100-SXM4-80GB
        Compute capability : 80
        Ratio of single to double precision performance  : 2
        Memory Clock Rate (KHz): 1593000
        Memory Bus Width (bits): 5120
        Peak Memory Bandwidth (GB/s): ******

     celldm(1)=   9.452718  celldm(2)=   0.000000  celldm(3)=   1.979144
     celldm(4)=   0.000000  celldm(5)=   0.000000  celldm(6)=   0.000000

     crystal axes: (cart. coord. in units of alat)
               a(1) = (   1.000000   0.000000   0.000000 )  
               a(2) = (  -0.500000   0.866025   0.000000 )  
               a(3) = (   0.000000   0.000000   1.979144 )  

     reciprocal axes: (cart. coord. in units 2 pi/alat)
               b(1) = (  1.000000  0.577350 -0.000000 )  
               b(2) = (  0.000000  1.154701  0.000000 )  
               b(3) = (  0.000000 -0.000000  0.505269 )  


     PseudoPot. # 1 for Co read from file:
     ../../pseudo/Co.pbe-spn-kjpaw_psl.0.3.1.UPF
     MD5 check sum: 3c0a43779828c046024e4f3be63f8e67
     Pseudo is Projector augmented-wave + core cor, Zval = 17.0
     Generated using &quot;atomic&quot; code by A. Dal Corso  v.6.2.2
     Shape of augmentation charge: PSQ
     Using radial grid of 1193 points,  6 beta functions with: 
                l(1) =   0
                l(2) =   0
                l(3) =   1
                l(4) =   1
                l(5) =   2
                l(6) =   2
     Q(r) pseudized with 0 coefficients 


     PseudoPot. # 2 for O  read from file:
     ../../pseudo/O.pbe-n-kjpaw_psl.1.0.0.UPF
     MD5 check sum: e99d9cef9b487d1ca56f5b95ecd0fd7a
     Pseudo is Projector augmented-wave + core cor, Zval =  6.0
     Generated using &quot;atomic&quot; code by A. Dal Corso  v.6.3
     Shape of augmentation charge: PSQ
     Using radial grid of 1095 points,  4 beta functions with: 
                l(1) =   0
                l(2) =   0
                l(3) =   1
                l(4) =   1
     Q(r) pseudized with 0 coefficients 


     PseudoPot. # 3 for Na read from file:
     ../../pseudo/Na.pbe-spn-kjpaw_psl.1.0.0.UPF
     MD5 check sum: 05b4deb74e3932c23ab016979dc8b5d4
     Pseudo is Projector augmented-wave + core cor, Zval =  9.0
     Generated using &quot;atomic&quot; code by A. Dal Corso  v.6.3
     Shape of augmentation charge: PSQ
     Using radial grid of 1121 points,  4 beta functions with: 
                l(1) =   0
                l(2) =   0
                l(3) =   1
                l(4) =   1
     Q(r) pseudized with 0 coefficients 


     atomic species   valence    mass     pseudopotential
     Co               17.00    58.93300     Co( 1.00)
     O                 6.00    15.99900     O ( 1.00)
     Na                9.00    22.98977     Na( 1.00)

     Starting magnetic structure 
     atomic species   magnetization
     Co              0.300
     O               0.000
     Na              0.000

     12 Sym. Ops., with inversion, found


                                    s                        frac. trans.

      isym =  1     identity                                     

 cryst.   s( 1) = (     1          0          0      )
                  (     0          1          0      )
                  (     0          0          1      )

 cart.    s( 1) = (  1.0000000  0.0000000  0.0000000 )
                  (  0.0000000  1.0000000  0.0000000 )
                  (  0.0000000  0.0000000  1.0000000 )


      isym =  2     180 deg rotation - cart. axis [0,1,0]        

 cryst.   s( 2) = (    -1          0          0      )
                  (     1          1          0      )
                  (     0          0         -1      )

 cart.    s( 2) = ( -1.0000000  0.0000000  0.0000000 )
                  (  0.0000000  1.0000000  0.0000000 )
                  (  0.0000000  0.0000000 -1.0000000 )


      isym =  3     120 deg rotation - cryst. axis [0,0,1]       

 cryst.   s( 3) = (     0          1          0      )
                  (    -1         -1          0      )
                  (     0          0          1      )

 cart.    s( 3) = ( -0.5000000 -0.8660254  0.0000000 )
                  (  0.8660254 -0.5000000  0.0000000 )
                  (  0.0000000  0.0000000  1.0000000 )


      isym =  4     120 deg rotation - cryst. axis [0,0,-1]      

 cryst.   s( 4) = (    -1         -1          0      )
                  (     1          0          0      )
                  (     0          0          1      )

 cart.    s( 4) = ( -0.5000000  0.8660254  0.0000000 )
                  ( -0.8660254 -0.5000000  0.0000000 )
                  (  0.0000000  0.0000000  1.0000000 )


      isym =  5     180 deg rotation - cryst. axis [1,-1,0]      

 cryst.   s( 5) = (     0         -1          0      )
                  (    -1          0          0      )
                  (     0          0         -1      )

 cart.    s( 5) = (  0.5000000 -0.8660254  0.0000000 )
                  ( -0.8660254 -0.5000000  0.0000000 )
                  (  0.0000000  0.0000000 -1.0000000 )


      isym =  6     180 deg rotation - cryst. axis [2,1,0]       

 cryst.   s( 6) = (     1          1          0      )
                  (     0         -1          0      )
                  (     0          0         -1      )

 cart.    s( 6) = (  0.5000000  0.8660254  0.0000000 )
                  (  0.8660254 -0.5000000  0.0000000 )
                  (  0.0000000  0.0000000 -1.0000000 )


      isym =  7     inversion                                    

 cryst.   s( 7) = (    -1          0          0      )
                  (     0         -1          0      )
                  (     0          0         -1      )

 cart.    s( 7) = ( -1.0000000  0.0000000  0.0000000 )
                  (  0.0000000 -1.0000000  0.0000000 )
                  (  0.0000000  0.0000000 -1.0000000 )


      isym =  8     inv. 180 deg rotation - cart. axis [0,1,0]   

 cryst.   s( 8) = (     1          0          0      )
                  (    -1         -1          0      )
                  (     0          0          1      )

 cart.    s( 8) = (  1.0000000  0.0000000  0.0000000 )
                  (  0.0000000 -1.0000000  0.0000000 )
                  (  0.0000000  0.0000000  1.0000000 )


      isym =  9     inv. 120 deg rotation - cryst. axis [0,0,1]  

 cryst.   s( 9) = (     0         -1          0      )
                  (     1          1          0      )
                  (     0          0         -1      )

 cart.    s( 9) = (  0.5000000  0.8660254  0.0000000 )
                  ( -0.8660254  0.5000000  0.0000000 )
                  (  0.0000000  0.0000000 -1.0000000 )


      isym = 10     inv. 120 deg rotation - cryst. axis [0,0,-1] 

 cryst.   s(10) = (     1          1          0      )
                  (    -1          0          0      )
                  (     0          0         -1      )

 cart.    s(10) = (  0.5000000 -0.8660254  0.0000000 )
                  (  0.8660254  0.5000000  0.0000000 )
                  (  0.0000000  0.0000000 -1.0000000 )


      isym = 11     inv. 180 deg rotation - cryst. axis [1,-1,0] 

 cryst.   s(11) = (     0          1          0      )
                  (     1          0          0      )
                  (     0          0          1      )

 cart.    s(11) = ( -0.5000000  0.8660254  0.0000000 )
                  (  0.8660254  0.5000000  0.0000000 )
                  (  0.0000000  0.0000000  1.0000000 )


      isym = 12     inv. 180 deg rotation - cryst. axis [2,1,0]  

 cryst.   s(12) = (    -1         -1          0      )
                  (     0          1          0      )
                  (     0          0          1      )

 cart.    s(12) = ( -0.5000000 -0.8660254  0.0000000 )
                  ( -0.8660254  0.5000000  0.0000000 )
                  (  0.0000000  0.0000000  1.0000000 )


     point group D_3d (-3m) 
     there are  6 classes
     the character table:

       E     2C3   3C2'  i     2S6   3s_d 
A_1g   1.00  1.00  1.00  1.00  1.00  1.00
A_2g   1.00  1.00 -1.00  1.00  1.00 -1.00
E_g    2.00 -1.00  0.00  2.00 -1.00  0.00
A_1u   1.00  1.00  1.00 -1.00 -1.00 -1.00
A_2u   1.00  1.00 -1.00 -1.00 -1.00  1.00
E_u    2.00 -1.00  0.00 -2.00  1.00  0.00

     the symmetry operations in each class and the name of the first element:

     E        1
          identity                                               
     2C3      3    4
          120 deg rotation - cryst. axis [0,0,1]                 
     3C2'     2    6    5
          180 deg rotation - cart. axis [0,1,0]                  
     i        7
          inversion                                              
     2S6      9   10
          inv. 120 deg rotation - cryst. axis [0,0,1]            
     3s_d     8   12   11
          inv. 180 deg rotation - cart. axis [0,1,0]             

   Cartesian axes

     site n.     atom                  positions (alat units)
         1        Co     tau(   1) = (   0.0000000   0.0000000   0.0000000  )
         2        Co     tau(   2) = (  -0.0000000   0.5773503   0.0000000  )
         3        Co     tau(   3) = (   0.5000000   0.2886751   0.0000000  )
         4        O      tau(   4) = (   0.1666667   0.2886751   0.1799222  )
         5        O      tau(   5) = (   0.6666667   0.0000000   0.1799222  )
         6        O      tau(   6) = (  -0.3333333   0.5773503   0.1799222  )
         7        O      tau(   7) = (   0.3333333   0.0000000   1.7992218  )
         8        O      tau(   8) = (   0.3333333   0.5773503   1.7992218  )
         9        O      tau(   9) = (  -0.1666667   0.2886751   1.7992218  )
        10        Na     tau(  10) = (   0.0000000   0.0000000   0.9895720  )

   Crystallographic axes

     site n.     atom                  positions (cryst. coord.)
         1        Co     tau(   1) = (  0.0000000  0.0000000  0.0000000  )
         2        Co     tau(   2) = (  0.3333333  0.6666667  0.0000000  )
         3        Co     tau(   3) = (  0.6666667  0.3333333  0.0000000  )
         4        O      tau(   4) = (  0.3333333  0.3333333  0.0909091  )
         5        O      tau(   5) = (  0.6666667  0.0000000  0.0909091  )
         6        O      tau(   6) = (  0.0000000  0.6666667  0.0909091  )
         7        O      tau(   7) = (  0.3333333  0.0000000  0.9090909  )
         8        O      tau(   8) = (  0.6666667  0.6666667  0.9090909  )
         9        O      tau(   9) = ( -0.0000000  0.3333333  0.9090909  )
        10        Na     tau(  10) = (  0.0000000  0.0000000  0.5000000  )

     number of k points=    14  Marzari-Vanderbilt smearing, width (Ry)=  0.0200
                       cart. coord. in units 2pi/alat
        k(    1) = (   0.0000000   0.0000000   0.0000000), wk =   0.0138889
        k(    2) = (   0.0000000   0.0000000  -0.2526345), wk =   0.0138889
        k(    3) = (   0.0000000   0.1924501   0.0000000), wk =   0.0833333
        k(    4) = (   0.0000000   0.1924501  -0.2526345), wk =   0.0833333
        k(    5) = (   0.0000000   0.3849002   0.0000000), wk =   0.0833333
        k(    6) = (   0.0000000   0.3849002  -0.2526345), wk =   0.0833333
        k(    7) = (   0.0000000  -0.5773503   0.0000000), wk =   0.0416667
        k(    8) = (   0.0000000  -0.5773503  -0.2526345), wk =   0.0416667
        k(    9) = (   0.1666667   0.2886751   0.0000000), wk =   0.0833333
        k(   10) = (   0.1666667   0.2886751  -0.2526345), wk =   0.0833333
        k(   11) = (   0.1666667   0.4811252   0.0000000), wk =   0.1666667
        k(   12) = (   0.1666667   0.4811252  -0.2526345), wk =   0.1666667
        k(   13) = (   0.3333333   0.5773503   0.0000000), wk =   0.0277778
        k(   14) = (   0.3333333   0.5773503  -0.2526345), wk =   0.0277778

                       cryst. coord.
        k(    1) = (   0.0000000   0.0000000   0.0000000), wk =   0.0138889
        k(    2) = (   0.0000000   0.0000000  -0.5000000), wk =   0.0138889
        k(    3) = (   0.0000000   0.1666667   0.0000000), wk =   0.0833333
        k(    4) = (   0.0000000   0.1666667  -0.5000000), wk =   0.0833333
        k(    5) = (   0.0000000   0.3333333   0.0000000), wk =   0.0833333
        k(    6) = (   0.0000000   0.3333333  -0.5000000), wk =   0.0833333
        k(    7) = (   0.0000000  -0.5000000   0.0000000), wk =   0.0416667
        k(    8) = (   0.0000000  -0.5000000  -0.5000000), wk =   0.0416667
        k(    9) = (   0.1666667   0.1666667   0.0000000), wk =   0.0833333
        k(   10) = (   0.1666667   0.1666667  -0.5000000), wk =   0.0833333
        k(   11) = (   0.1666667   0.3333333   0.0000000), wk =   0.1666667
        k(   12) = (   0.1666667   0.3333333  -0.5000000), wk =   0.1666667
        k(   13) = (   0.3333333   0.3333333   0.0000000), wk =   0.0277778
        k(   14) = (   0.3333333   0.3333333  -0.5000000), wk =   0.0277778

     Dense  grid:   256907 G-vectors     FFT dimensions: (  72,  72, 135)

     Smooth grid:    90927 G-vectors     FFT dimensions: (  48,  48,  96)

     Dynamical RAM for                 wfc:      11.10 MB

     Dynamical RAM for     wfc (w. buffer):     321.78 MB

     Dynamical RAM for           str. fact:      11.76 MB

     Dynamical RAM for           local pot:       0.00 MB

     Dynamical RAM for          nlocal pot:      19.07 MB

     Dynamical RAM for                qrad:       5.27 MB

     Dynamical RAM for          rho,v,vnew:      55.56 MB

     Dynamical RAM for               rhoin:      18.52 MB

     Dynamical RAM for            rho*nmix:     125.44 MB

     Dynamical RAM for           G-vectors:      15.39 MB

     Dynamical RAM for          h,s,v(r/c):       0.75 MB

     Dynamical RAM for          <psi|beta>:       0.11 MB

     Dynamical RAM for                 psi:      22.19 MB

     Dynamical RAM for                hpsi:      22.19 MB

     Dynamical RAM for                spsi:      22.19 MB

     Dynamical RAM for      wfcinit/wfcrot:      22.29 MB

     Dynamical RAM for           addusdens:     756.58 MB

     Dynamical RAM for          addusforce:     795.83 MB

     Estimated static dynamical RAM per process >     495.07 MB

     Estimated max dynamical RAM per process >       1.38 GB

     Check: negative core charge=   -0.000006
     Generating pointlists ...
     new r_m :   0.1563 (alat units)  1.4770 (a.u.) for type    1
     new r_m :   0.1563 (alat units)  1.4770 (a.u.) for type    2
     new r_m :   0.3612 (alat units)  3.4141 (a.u.) for type    3

     Initial potential from superposition of free atoms

     starting charge      95.9928, renormalised to      96.0000
     Starting wfcs are   59 randomized atomic wfcs +    5 random wfcs
     Checking if some PAW data can be deallocated... 

     total cpu time spent up to now is        5.5 secs

     Self-consistent Calculation
[tb_dev] Currently allocated     9.94E-01 Mbytes, locked:    0 /   6
[tb_pin] Currently allocated     0.00E+00 Mbytes, locked:    0 /   0

     iteration #  1     ecut=    60.00 Ry     beta= 0.30
     Davidson diagonalization with overlap

---- Real-time Memory Report at c_bands before calling an iterative solver
          1090 MiB given to the printing process from OS
             0 MiB allocation reported by mallinfo(arena+hblkhd)
        701340 MiB available memory on the node where the printing process lives
     GPU memory used/free/total (MiB): 1998 / 79152 / 81151
------------------
     ethr =  1.00E-02,  avg # of iterations = 10.9

     total cpu time spent up to now is        9.2 secs

     total energy              =   -1488.21918232 Ry
     estimated scf accuracy    <       6.20397590 Ry

     total magnetization       =    14.00 Bohr mag/cell
     absolute magnetization    =    14.00 Bohr mag/cell
[tb_dev] Currently allocated     7.63E-05 Mbytes, locked:    0 /   2
[tb_pin] Currently allocated     0.00E+00 Mbytes, locked:    0 /   0

     iteration #  2     ecut=    60.00 Ry     beta= 0.30
     Davidson diagonalization with overlap

---- Real-time Memory Report at c_bands before calling an iterative solver
          1151 MiB given to the printing process from OS
             0 MiB allocation reported by mallinfo(arena+hblkhd)
        701134 MiB available memory on the node where the printing process lives
     GPU memory used/free/total (MiB): 2084 / 79066 / 81151
------------------
     ethr =  6.46E-03,  avg # of iterations =  2.0

     total cpu time spent up to now is       11.7 secs

     total energy              =   -1488.62913432 Ry
     estimated scf accuracy    <       1.19999863 Ry

     total magnetization       =     9.80 Bohr mag/cell
     absolute magnetization    =     9.80 Bohr mag/cell
[tb_dev] Currently allocated     7.63E-05 Mbytes, locked:    0 /   2
[tb_pin] Currently allocated     0.00E+00 Mbytes, locked:    0 /   0

     iteration #  3     ecut=    60.00 Ry     beta= 0.30
     Davidson diagonalization with overlap

---- Real-time Memory Report at c_bands before calling an iterative solver
          1160 MiB given to the printing process from OS
             0 MiB allocation reported by mallinfo(arena+hblkhd)
        701086 MiB available memory on the node where the printing process lives
     GPU memory used/free/total (MiB): 2084 / 79066 / 81151
------------------
     ethr =  1.25E-03,  avg # of iterations =  3.9

     total cpu time spent up to now is       14.6 secs

     total energy              =   -1488.85624001 Ry
     estimated scf accuracy    <       1.95322337 Ry

     total magnetization       =     4.18 Bohr mag/cell
     absolute magnetization    =     4.96 Bohr mag/cell
[tb_dev] Currently allocated     7.63E-05 Mbytes, locked:    0 /   2
[tb_pin] Currently allocated     0.00E+00 Mbytes, locked:    0 /   0

     iteration #  4     ecut=    60.00 Ry     beta= 0.30
     Davidson diagonalization with overlap

---- Real-time Memory Report at c_bands before calling an iterative solver
          1169 MiB given to the printing process from OS
             0 MiB allocation reported by mallinfo(arena+hblkhd)
        701092 MiB available memory on the node where the printing process lives
     GPU memory used/free/total (MiB): 2084 / 79066 / 81151
------------------
     ethr =  1.25E-03,  avg # of iterations =  1.2

     total cpu time spent up to now is       17.0 secs

     total energy              =   -1489.06281077 Ry
     estimated scf accuracy    <       0.70474842 Ry

     total magnetization       =     6.12 Bohr mag/cell
     absolute magnetization    =     6.42 Bohr mag/cell
[tb_dev] Currently allocated     7.63E-05 Mbytes, locked:    0 /   2
[tb_pin] Currently allocated     0.00E+00 Mbytes, locked:    0 /   0

     iteration #  5     ecut=    60.00 Ry     beta= 0.30
     Davidson diagonalization with overlap

---- Real-time Memory Report at c_bands before calling an iterative solver
          1178 MiB given to the printing process from OS
             0 MiB allocation reported by mallinfo(arena+hblkhd)
        701056 MiB available memory on the node where the printing process lives
     GPU memory used/free/total (MiB): 2084 / 79066 / 81151
------------------
     c_bands:  1 eigenvalues not converged
     ethr =  7.34E-04,  avg # of iterations =  2.2

     total cpu time spent up to now is       19.6 secs

     total energy              =   -1489.16634565 Ry
     estimated scf accuracy    <       1.13561571 Ry

     total magnetization       =     2.47 Bohr mag/cell
     absolute magnetization    =     3.77 Bohr mag/cell
[tb_dev] Currently allocated     7.63E-05 Mbytes, locked:    0 /   2
[tb_pin] Currently allocated     0.00E+00 Mbytes, locked:    0 /   0

     iteration #  6     ecut=    60.00 Ry     beta= 0.30
     Davidson diagonalization with overlap

---- Real-time Memory Report at c_bands before calling an iterative solver
          1187 MiB given to the printing process from OS
             0 MiB allocation reported by mallinfo(arena+hblkhd)
        701051 MiB available memory on the node where the printing process lives
     GPU memory used/free/total (MiB): 2084 / 79066 / 81151
------------------
     ethr =  7.34E-04,  avg # of iterations =  2.4

     total cpu time spent up to now is       22.2 secs

     total energy              =   -1488.97603879 Ry
     estimated scf accuracy    <       0.43420678 Ry

     total magnetization       =     2.00 Bohr mag/cell
     absolute magnetization    =     3.15 Bohr mag/cell
[tb_dev] Currently allocated     7.63E-05 Mbytes, locked:    0 /   2
[tb_pin] Currently allocated     0.00E+00 Mbytes, locked:    0 /   0

     iteration #  7     ecut=    60.00 Ry     beta= 0.30
     Davidson diagonalization with overlap

---- Real-time Memory Report at c_bands before calling an iterative solver
          1195 MiB given to the printing process from OS
             0 MiB allocation reported by mallinfo(arena+hblkhd)
        701029 MiB available memory on the node where the printing process lives
     GPU memory used/free/total (MiB): 2084 / 79066 / 81151
------------------
     ethr =  4.52E-04,  avg # of iterations =  9.9

     total cpu time spent up to now is       25.7 secs

     total energy              =   -1489.16049634 Ry
     estimated scf accuracy    <       0.46223173 Ry

     total magnetization       =    -1.69 Bohr mag/cell
     absolute magnetization    =     1.69 Bohr mag/cell
[tb_dev] Currently allocated     7.63E-05 Mbytes, locked:    0 /   2
[tb_pin] Currently allocated     0.00E+00 Mbytes, locked:    0 /   0

     iteration #  8     ecut=    60.00 Ry     beta= 0.30
     Davidson diagonalization with overlap

---- Real-time Memory Report at c_bands before calling an iterative solver
          1203 MiB given to the printing process from OS
             0 MiB allocation reported by mallinfo(arena+hblkhd)
        700983 MiB available memory on the node where the printing process lives
     GPU memory used/free/total (MiB): 2084 / 79066 / 81151
------------------
     ethr =  4.52E-04,  avg # of iterations =  1.1

     total cpu time spent up to now is       28.2 secs

     total energy              =   -1489.14602185 Ry
     estimated scf accuracy    <       0.30703740 Ry

     total magnetization       =    -0.61 Bohr mag/cell
     absolute magnetization    =     0.63 Bohr mag/cell
[tb_dev] Currently allocated     7.63E-05 Mbytes, locked:    0 /   2
[tb_pin] Currently allocated     0.00E+00 Mbytes, locked:    0 /   0

     iteration #  9     ecut=    60.00 Ry     beta= 0.30
     Davidson diagonalization with overlap

---- Real-time Memory Report at c_bands before calling an iterative solver
          1214 MiB given to the printing process from OS
             0 MiB allocation reported by mallinfo(arena+hblkhd)
        700928 MiB available memory on the node where the printing process lives
     GPU memory used/free/total (MiB): 2084 / 79066 / 81151
------------------
     ethr =  3.20E-04,  avg # of iterations =  2.5

     total cpu time spent up to now is       30.8 secs

     total energy              =   -1489.05217305 Ry
     estimated scf accuracy    <       0.16693346 Ry

     total magnetization       =    -0.43 Bohr mag/cell
     absolute magnetization    =     0.46 Bohr mag/cell
[tb_dev] Currently allocated     7.63E-05 Mbytes, locked:    0 /   2
[tb_pin] Currently allocated     0.00E+00 Mbytes, locked:    0 /   0

     iteration # 10     ecut=    60.00 Ry     beta= 0.30
     Davidson diagonalization with overlap

---- Real-time Memory Report at c_bands before calling an iterative solver
          1224 MiB given to the printing process from OS
             0 MiB allocation reported by mallinfo(arena+hblkhd)
        700907 MiB available memory on the node where the printing process lives
     GPU memory used/free/total (MiB): 2084 / 79066 / 81151
------------------
     c_bands:  2 eigenvalues not converged
     ethr =  1.74E-04,  avg # of iterations =  9.4

     total cpu time spent up to now is       34.3 secs

     total energy              =   -1489.02070171 Ry
     estimated scf accuracy    <       2.11906201 Ry

     total magnetization       =    -3.16 Bohr mag/cell
     absolute magnetization    =     3.22 Bohr mag/cell
[tb_dev] Currently allocated     7.63E-05 Mbytes, locked:    0 /   2
[tb_pin] Currently allocated     0.00E+00 Mbytes, locked:    0 /   0

     iteration # 11     ecut=    60.00 Ry     beta= 0.30
     Davidson diagonalization with overlap

---- Real-time Memory Report at c_bands before calling an iterative solver
          1227 MiB given to the printing process from OS
             0 MiB allocation reported by mallinfo(arena+hblkhd)
        700897 MiB available memory on the node where the printing process lives
     GPU memory used/free/total (MiB): 2084 / 79066 / 81151
------------------
     ethr =  1.74E-04,  avg # of iterations =  1.9

     total cpu time spent up to now is       36.8 secs

     total energy              =   -1489.13830718 Ry
     estimated scf accuracy    <       0.01366366 Ry

     total magnetization       =    -1.43 Bohr mag/cell
     absolute magnetization    =     1.45 Bohr mag/cell
[tb_dev] Currently allocated     7.63E-05 Mbytes, locked:    0 /   2
[tb_pin] Currently allocated     0.00E+00 Mbytes, locked:    0 /   0

     iteration # 12     ecut=    60.00 Ry     beta= 0.30
     Davidson diagonalization with overlap

---- Real-time Memory Report at c_bands before calling an iterative solver
          1227 MiB given to the printing process from OS
             0 MiB allocation reported by mallinfo(arena+hblkhd)
        700846 MiB available memory on the node where the printing process lives
     GPU memory used/free/total (MiB): 2084 / 79066 / 81151
------------------
     c_bands:  2 eigenvalues not converged
     c_bands:  1 eigenvalues not converged
     c_bands:  1 eigenvalues not converged
     c_bands:  1 eigenvalues not converged
     c_bands:  1 eigenvalues not converged
     ethr =  1.42E-05,  avg # of iterations = 11.0

     total cpu time spent up to now is       40.5 secs

     total energy              =   -1489.14095105 Ry
     estimated scf accuracy    <       0.04085323 Ry

     total magnetization       =    -1.94 Bohr mag/cell
     absolute magnetization    =     1.96 Bohr mag/cell
[tb_dev] Currently allocated     7.63E-05 Mbytes, locked:    0 /   2
[tb_pin] Currently allocated     0.00E+00 Mbytes, locked:    0 /   0

     iteration # 13     ecut=    60.00 Ry     beta= 0.30
     Davidson diagonalization with overlap

---- Real-time Memory Report at c_bands before calling an iterative solver
          1227 MiB given to the printing process from OS
             0 MiB allocation reported by mallinfo(arena+hblkhd)
        700855 MiB available memory on the node where the printing process lives
     GPU memory used/free/total (MiB): 2084 / 79066 / 81151
------------------
     c_bands:  1 eigenvalues not converged
     ethr =  1.42E-05,  avg # of iterations =  3.4

     total cpu time spent up to now is       43.3 secs

     total energy              =   -1489.13261609 Ry
     estimated scf accuracy    <       0.13363273 Ry

     total magnetization       =    -2.72 Bohr mag/cell
     absolute magnetization    =     2.78 Bohr mag/cell
[tb_dev] Currently allocated     7.63E-05 Mbytes, locked:    0 /   2
[tb_pin] Currently allocated     0.00E+00 Mbytes, locked:    0 /   0

     iteration # 14     ecut=    60.00 Ry     beta= 0.30
     Davidson diagonalization with overlap

---- Real-time Memory Report at c_bands before calling an iterative solver
          1227 MiB given to the printing process from OS
             0 MiB allocation reported by mallinfo(arena+hblkhd)
        700888 MiB available memory on the node where the printing process lives
     GPU memory used/free/total (MiB): 2084 / 79066 / 81151
------------------
     ethr =  1.42E-05,  avg # of iterations =  2.0

     total cpu time spent up to now is       45.9 secs

     total energy              =   -1489.13727523 Ry
     estimated scf accuracy    <       0.00331921 Ry

     total magnetization       =    -2.23 Bohr mag/cell
     absolute magnetization    =     2.27 Bohr mag/cell
[tb_dev] Currently allocated     7.63E-05 Mbytes, locked:    0 /   2
[tb_pin] Currently allocated     0.00E+00 Mbytes, locked:    0 /   0

     iteration # 15     ecut=    60.00 Ry     beta= 0.30
     Davidson diagonalization with overlap

---- Real-time Memory Report at c_bands before calling an iterative solver
          1227 MiB given to the printing process from OS
             0 MiB allocation reported by mallinfo(arena+hblkhd)
        700898 MiB available memory on the node where the printing process lives
     GPU memory used/free/total (MiB): 2084 / 79066 / 81151
------------------
     ethr =  3.46E-06,  avg # of iterations =  7.3

     total cpu time spent up to now is       49.3 secs

     total energy              =   -1489.14224858 Ry
     estimated scf accuracy    <       0.02074776 Ry

     total magnetization       =    -2.59 Bohr mag/cell
     absolute magnetization    =     2.68 Bohr mag/cell
[tb_dev] Currently allocated     7.63E-05 Mbytes, locked:    0 /   2
[tb_pin] Currently allocated     0.00E+00 Mbytes, locked:    0 /   0

     iteration # 16     ecut=    60.00 Ry     beta= 0.30
     Davidson diagonalization with overlap

---- Real-time Memory Report at c_bands before calling an iterative solver
          1227 MiB given to the printing process from OS
             0 MiB allocation reported by mallinfo(arena+hblkhd)
        700918 MiB available memory on the node where the printing process lives
     GPU memory used/free/total (MiB): 2084 / 79066 / 81151
------------------
     ethr =  3.46E-06,  avg # of iterations =  1.8

     total cpu time spent up to now is       51.8 secs

     total energy              =   -1489.14353939 Ry
     estimated scf accuracy    <       0.00210059 Ry

     total magnetization       =    -2.49 Bohr mag/cell
     absolute magnetization    =     2.56 Bohr mag/cell
[tb_dev] Currently allocated     7.63E-05 Mbytes, locked:    0 /   2
[tb_pin] Currently allocated     0.00E+00 Mbytes, locked:    0 /   0

     iteration # 17     ecut=    60.00 Ry     beta= 0.30
     Davidson diagonalization with overlap

---- Real-time Memory Report at c_bands before calling an iterative solver
          1227 MiB given to the printing process from OS
             0 MiB allocation reported by mallinfo(arena+hblkhd)
        700926 MiB available memory on the node where the printing process lives
     GPU memory used/free/total (MiB): 2084 / 79066 / 81151
------------------
     ethr =  2.19E-06,  avg # of iterations =  1.7

     total cpu time spent up to now is       54.3 secs

     total energy              =   -1489.14371907 Ry
     estimated scf accuracy    <       0.00051306 Ry

     total magnetization       =    -2.48 Bohr mag/cell
     absolute magnetization    =     2.55 Bohr mag/cell
[tb_dev] Currently allocated     7.63E-05 Mbytes, locked:    0 /   2
[tb_pin] Currently allocated     0.00E+00 Mbytes, locked:    0 /   0

     iteration # 18     ecut=    60.00 Ry     beta= 0.30
     Davidson diagonalization with overlap

---- Real-time Memory Report at c_bands before calling an iterative solver
          1227 MiB given to the printing process from OS
             0 MiB allocation reported by mallinfo(arena+hblkhd)
        700955 MiB available memory on the node where the printing process lives
     GPU memory used/free/total (MiB): 2084 / 79066 / 81151
------------------
     ethr =  5.34E-07,  avg # of iterations =  4.2

     total cpu time spent up to now is       57.2 secs

     total energy              =   -1489.14391671 Ry
     estimated scf accuracy    <       0.00059282 Ry

     total magnetization       =    -2.48 Bohr mag/cell
     absolute magnetization    =     2.54 Bohr mag/cell
[tb_dev] Currently allocated     7.63E-05 Mbytes, locked:    0 /   2
[tb_pin] Currently allocated     0.00E+00 Mbytes, locked:    0 /   0

     iteration # 19     ecut=    60.00 Ry     beta= 0.30
     Davidson diagonalization with overlap

---- Real-time Memory Report at c_bands before calling an iterative solver
          1227 MiB given to the printing process from OS
             0 MiB allocation reported by mallinfo(arena+hblkhd)
        700941 MiB available memory on the node where the printing process lives
     GPU memory used/free/total (MiB): 2084 / 79066 / 81151
------------------
     ethr =  5.34E-07,  avg # of iterations =  1.5

     total cpu time spent up to now is       59.7 secs

     total energy              =   -1489.14394403 Ry
     estimated scf accuracy    <       0.00013701 Ry

     total magnetization       =    -2.50 Bohr mag/cell
     absolute magnetization    =     2.57 Bohr mag/cell
[tb_dev] Currently allocated     7.63E-05 Mbytes, locked:    0 /   2
[tb_pin] Currently allocated     0.00E+00 Mbytes, locked:    0 /   0

     iteration # 20     ecut=    60.00 Ry     beta= 0.30
     Davidson diagonalization with overlap

---- Real-time Memory Report at c_bands before calling an iterative solver
          1227 MiB given to the printing process from OS
             0 MiB allocation reported by mallinfo(arena+hblkhd)
        700939 MiB available memory on the node where the printing process lives
     GPU memory used/free/total (MiB): 2084 / 79066 / 81151
------------------
     ethr =  1.43E-07,  avg # of iterations =  6.6

     total cpu time spent up to now is       62.8 secs

     total energy              =   -1489.14399631 Ry
     estimated scf accuracy    <       0.00001344 Ry

     total magnetization       =    -2.51 Bohr mag/cell
     absolute magnetization    =     2.59 Bohr mag/cell
[tb_dev] Currently allocated     7.63E-05 Mbytes, locked:    0 /   2
[tb_pin] Currently allocated     0.00E+00 Mbytes, locked:    0 /   0

     iteration # 21     ecut=    60.00 Ry     beta= 0.30
     Davidson diagonalization with overlap

---- Real-time Memory Report at c_bands before calling an iterative solver
          1227 MiB given to the printing process from OS
             0 MiB allocation reported by mallinfo(arena+hblkhd)
        700943 MiB available memory on the node where the printing process lives
     GPU memory used/free/total (MiB): 2084 / 79066 / 81151
------------------
     c_bands:  1 eigenvalues not converged
     ethr =  1.40E-08,  avg # of iterations = 10.4

     total cpu time spent up to now is       66.5 secs

     total energy              =   -1489.14401187 Ry
     estimated scf accuracy    <       0.00000589 Ry

     total magnetization       =    -2.52 Bohr mag/cell
     absolute magnetization    =     2.59 Bohr mag/cell
[tb_dev] Currently allocated     7.63E-05 Mbytes, locked:    0 /   2
[tb_pin] Currently allocated     0.00E+00 Mbytes, locked:    0 /   0

     iteration # 22     ecut=    60.00 Ry     beta= 0.30
     Davidson diagonalization with overlap

---- Real-time Memory Report at c_bands before calling an iterative solver
          1227 MiB given to the printing process from OS
             0 MiB allocation reported by mallinfo(arena+hblkhd)
        700915 MiB available memory on the node where the printing process lives
     GPU memory used/free/total (MiB): 2084 / 79066 / 81151
------------------
     ethr =  6.14E-09,  avg # of iterations =  2.4

     total cpu time spent up to now is       69.1 secs

     total energy              =   -1489.14401428 Ry
     estimated scf accuracy    <       0.00000282 Ry

     total magnetization       =    -2.52 Bohr mag/cell
     absolute magnetization    =     2.60 Bohr mag/cell
[tb_dev] Currently allocated     7.63E-05 Mbytes, locked:    0 /   2
[tb_pin] Currently allocated     0.00E+00 Mbytes, locked:    0 /   0

     iteration # 23     ecut=    60.00 Ry     beta= 0.30
     Davidson diagonalization with overlap

---- Real-time Memory Report at c_bands before calling an iterative solver
          1227 MiB given to the printing process from OS
             0 MiB allocation reported by mallinfo(arena+hblkhd)
        700913 MiB available memory on the node where the printing process lives
     GPU memory used/free/total (MiB): 2084 / 79066 / 81151
------------------
     ethr =  2.94E-09,  avg # of iterations =  3.9

     total cpu time spent up to now is       71.9 secs

     total energy              =   -1489.14401496 Ry
     estimated scf accuracy    <       0.00000028 Ry

     total magnetization       =    -2.52 Bohr mag/cell
     absolute magnetization    =     2.60 Bohr mag/cell
[tb_dev] Currently allocated     7.63E-05 Mbytes, locked:    0 /   2
[tb_pin] Currently allocated     0.00E+00 Mbytes, locked:    0 /   0

     iteration # 24     ecut=    60.00 Ry     beta= 0.30
     Davidson diagonalization with overlap

---- Real-time Memory Report at c_bands before calling an iterative solver
          1227 MiB given to the printing process from OS
             0 MiB allocation reported by mallinfo(arena+hblkhd)
        700904 MiB available memory on the node where the printing process lives
     GPU memory used/free/total (MiB): 2084 / 79066 / 81151
------------------
     ethr =  2.92E-10,  avg # of iterations = 11.4

     total cpu time spent up to now is       75.8 secs

     total energy              =   -1489.14401533 Ry
     estimated scf accuracy    <       0.00000037 Ry

     total magnetization       =    -2.52 Bohr mag/cell
     absolute magnetization    =     2.60 Bohr mag/cell
[tb_dev] Currently allocated     7.63E-05 Mbytes, locked:    0 /   2
[tb_pin] Currently allocated     0.00E+00 Mbytes, locked:    0 /   0

     iteration # 25     ecut=    60.00 Ry     beta= 0.30
     Davidson diagonalization with overlap

---- Real-time Memory Report at c_bands before calling an iterative solver
          1227 MiB given to the printing process from OS
             0 MiB allocation reported by mallinfo(arena+hblkhd)
        700824 MiB available memory on the node where the printing process lives
     GPU memory used/free/total (MiB): 2084 / 79066 / 81151
------------------
     ethr =  2.92E-10,  avg # of iterations =  1.7

     total cpu time spent up to now is       78.2 secs

     total energy              =   -1489.14401538 Ry
     estimated scf accuracy    <       0.00000018 Ry

     total magnetization       =    -2.52 Bohr mag/cell
     absolute magnetization    =     2.60 Bohr mag/cell
[tb_dev] Currently allocated     7.63E-05 Mbytes, locked:    0 /   2
[tb_pin] Currently allocated     0.00E+00 Mbytes, locked:    0 /   0

     iteration # 26     ecut=    60.00 Ry     beta= 0.30
     Davidson diagonalization with overlap

---- Real-time Memory Report at c_bands before calling an iterative solver
          1227 MiB given to the printing process from OS
             0 MiB allocation reported by mallinfo(arena+hblkhd)
        700794 MiB available memory on the node where the printing process lives
     GPU memory used/free/total (MiB): 2084 / 79066 / 81151
------------------
     ethr =  1.85E-10,  avg # of iterations =  1.8
 
     Magnetic moment per site  (integrated on atomic sphere of radius R)
     atom   1 (R=0.156)  charge= 14.0188  magn= -0.6316
     atom   2 (R=0.156)  charge= 14.0180  magn= -0.6300
     atom   3 (R=0.156)  charge= 14.0180  magn= -0.6300
     atom   4 (R=0.156)  charge=  5.1695  magn= -0.0743
     atom   5 (R=0.156)  charge=  5.1695  magn= -0.0743
     atom   6 (R=0.156)  charge=  5.1695  magn= -0.0743
     atom   7 (R=0.156)  charge=  5.1695  magn= -0.0743
     atom   8 (R=0.156)  charge=  5.1695  magn= -0.0743
     atom   9 (R=0.156)  charge=  5.1695  magn= -0.0743
     atom  10 (R=0.361)  charge=  8.2081  magn=  0.0113

     total cpu time spent up to now is       80.6 secs

     End of self-consistent calculation

 ------ SPIN UP ------------


          k = 0.0000 0.0000 0.0000 ( 11393 PWs)   bands (ev):

   -92.7288 -92.7232 -92.7222 -56.0863 -56.0863 -56.0858 -56.0858 -56.0442
   -56.0442 -55.7866 -55.7772 -55.7759 -52.1313 -24.0482 -24.0482 -24.0128
   -17.0327 -15.1973 -15.1973 -15.1970 -15.1970 -14.7303  -2.9632  -2.9632
    -2.9593  -2.9593  -2.8645  -2.8645  -2.7383  -2.6391  -2.6330  -0.5760
    -0.5760  -0.5727  -0.5727  -0.3613  -0.3528   0.6712   1.0660   1.0660
     1.4014   1.4014   1.7010   1.7045   1.9685   2.4991   2.4991   2.4995
     2.4995   3.1433   4.4634   4.4634   4.4676   4.4676   5.3000   5.3000
     5.8970   8.5422   9.1825   9.1825   9.8884   9.8884  10.4971  10.6886

     occupation numbers 
     1.0000   1.0000   1.0000   1.0000   1.0000   1.0000   1.0000   1.0000
     1.0000   1.0000   1.0000   1.0000   1.0000   1.0000   1.0000   1.0000
     1.0000   1.0000   1.0000   1.0000   1.0000   1.0000   1.0000   1.0000
     1.0000   1.0000   1.0000   1.0000   1.0000   1.0000   1.0000   1.0000
     1.0000   1.0000   1.0000   1.0000   1.0000   1.0000   1.0000   1.0000
     1.0000   1.0000   1.0024   1.0025   1.0495   0.3729   0.3729   0.3718
     0.3718   0.0000   0.0000   0.0000   0.0000   0.0000   0.0000   0.0000
     0.0000   0.0000   0.0000   0.0000   0.0000   0.0000   0.0000   0.0000

          k = 0.0000 0.0000-0.2526 ( 11446 PWs)   bands (ev):

   -92.7288 -92.7232 -92.7222 -56.0864 -56.0864 -56.0859 -56.0859 -56.0443
   -56.0443 -55.7867 -55.7773 -55.7760 -52.1313 -24.0483 -24.0483 -24.0130
   -17.0327 -15.1973 -15.1973 -15.1970 -15.1970 -14.7304  -2.9632  -2.9632
    -2.9593  -2.9593  -2.8645  -2.8645  -2.7359  -2.6391  -2.6330  -0.5760
    -0.5760  -0.5727  -0.5727  -0.3614  -0.3528   0.6119   1.0660   1.0660
     1.4013   1.4013   1.7011   1.7045   2.1102   2.4990   2.4990   2.4994
     2.4994   3.0966   4.4638   4.4638   4.4680   4.4680   5.2999   5.2999
     5.6806   9.1744   9.1744   9.2756   9.8807   9.8807  10.6235  10.6841

     occupation numbers 
     1.0000   1.0000   1.0000   1.0000   1.0000   1.0000   1.0000   1.0000
     1.0000   1.0000   1.0000   1.0000   1.0000   1.0000   1.0000   1.0000
     1.0000   1.0000   1.0000   1.0000   1.0000   1.0000   1.0000   1.0000
     1.0000   1.0000   1.0000   1.0000   1.0000   1.0000   1.0000   1.0000
     1.0000   1.0000   1.0000   1.0000   1.0000   1.0000   1.0000   1.0000
     1.0000   1.0000   1.0024   1.0025   1.0831   0.3730   0.3730   0.3720
     0.3720   0.0001   0.0000   0.0000   0.0000   0.0000   0.0000   0.0000
     0.0000   0.0000   0.0000   0.0000   0.0000   0.0000   0.0000   0.0000

          k = 0.0000 0.1925 0.0000 ( 11360 PWs)   bands (ev):

   -92.7283 -92.7234 -92.7224 -56.0955 -56.0929 -56.0752 -56.0740 -56.0495
   -56.0456 -55.7857 -55.7776 -55.7762 -52.1313 -24.0483 -24.0482 -24.0127
   -16.9235 -15.3782 -15.2784 -15.1693 -15.0949 -14.7472  -3.4099  -3.1267
    -2.9727  -2.9446  -2.8358  -2.7906  -2.6234  -2.2572  -2.0454  -1.0452
    -0.9530  -0.7007  -0.6019   0.0653   0.1491   0.3560   0.4864   0.9265
     1.7207   1.7635   1.8036   1.8398   2.1873   2.2377   2.2519   2.6023
     2.6650   3.1516   4.4614   4.4752   4.4934   4.5970   5.0009   5.2160
     6.1118   7.4476   8.4592   8.8120   9.1555  10.7902  11.0259  11.6518

     occupation numbers 
     1.0000   1.0000   1.0000   1.0000   1.0000   1.0000   1.0000   1.0000
     1.0000   1.0000   1.0000   1.0000   1.0000   1.0000   1.0000   1.0000
     1.0000   1.0000   1.0000   1.0000   1.0000   1.0000   1.0000   1.0000
     1.0000   1.0000   1.0000   1.0000   1.0000   1.0000   1.0000   1.0000
     1.0000   1.0000   1.0000   1.0000   1.0000   1.0000   1.0000   1.0000
     1.0032   1.0059   1.0099   1.0152   1.0536   0.9993   0.9783   0.1672
     0.0905   0.0000   0.0000   0.0000   0.0000   0.0000   0.0000   0.0000
     0.0000   0.0000   0.0000   0.0000   0.0000   0.0000   0.0000   0.0000

          k = 0.0000 0.1925-0.2526 ( 11384 PWs)   bands (ev):

   -92.7283 -92.7234 -92.7224 -56.0955 -56.0929 -56.0753 -56.0739 -56.0496
   -56.0456 -55.7859 -55.7776 -55.7762 -52.1313 -24.0483 -24.0482 -24.0128
   -16.9235 -15.3782 -15.2784 -15.1693 -15.0949 -14.7472  -3.4099  -3.1267
    -2.9727  -2.9448  -2.8358  -2.7906  -2.6213  -2.2572  -2.0454  -1.0452
    -0.9531  -0.7005  -0.6019   0.0654   0.1491   0.3567   0.4813   0.8815
     1.7214   1.7635   1.8037   1.8275   2.2378   2.2520   2.3302   2.6021
     2.6648   3.0978   4.4616   4.4749   4.4950   4.5977   5.0205   5.2116
     5.9118   7.4382   8.4514   9.0302   9.6181  10.7140  11.0115  11.0560

     occupation numbers 
     1.0000   1.0000   1.0000   1.0000   1.0000   1.0000   1.0000   1.0000
     1.0000   1.0000   1.0000   1.0000   1.0000   1.0000   1.0000   1.0000
     1.0000   1.0000   1.0000   1.0000   1.0000   1.0000   1.0000   1.0000
     1.0000   1.0000   1.0000   1.0000   1.0000   1.0000   1.0000   1.0000
     1.0000   1.0000   1.0000   1.0000   1.0000   1.0000   1.0000   1.0000
     1.0032   1.0059   1.0099   1.0132   0.9992   0.9783   0.8208   0.1675
     0.0907   0.0001   0.0000   0.0000   0.0000   0.0000   0.0000   0.0000
     0.0000   0.0000   0.0000   0.0000   0.0000   0.0000   0.0000   0.0000

          k = 0.0000 0.3849 0.0000 ( 11350 PWs)   bands (ev):

   -92.7271 -92.7241 -92.7229 -56.1021 -56.0903 -56.0648 -56.0632 -56.0627
   -56.0495 -55.7837 -55.7788 -55.7770 -52.1312 -24.0485 -24.0483 -24.0126
   -16.6186 -15.7323 -15.3303 -15.2085 -14.9840 -14.7980  -3.8262  -3.0674
    -3.0053  -2.9282  -2.6055  -2.5470  -2.3349  -2.0644  -1.5799  -1.2151
    -1.0831  -0.9948  -0.6649  -0.6558  -0.1832   0.4058   0.7759   1.2759
     1.8478   1.8975   1.9589   1.9812   2.2493   2.2795   2.4443   2.7043
     2.7744   3.1208   4.3894   4.4711   4.4795   4.5449   4.9358   4.9859
     5.5740   6.6838   7.8642   8.4191   9.0852   9.6960  11.4818  11.6097

     occupation numbers 
     1.0000   1.0000   1.0000   1.0000   1.0000   1.0000   1.0000   1.0000
     1.0000   1.0000   1.0000   1.0000   1.0000   1.0000   1.0000   1.0000
     1.0000   1.0000   1.0000   1.0000   1.0000   1.0000   1.0000   1.0000
     1.0000   1.0000   1.0000   1.0000   1.0000   1.0000   1.0000   1.0000
     1.0000   1.0000   1.0000   1.0000   1.0000   1.0000   1.0000   1.0000
     1.0167   1.0277   1.0463   1.0539   0.9824   0.9305   0.5154   0.0585
     0.0244   0.0000   0.0000   0.0000   0.0000   0.0000   0.0000   0.0000
     0.0000   0.0000   0.0000   0.0000   0.0000   0.0000   0.0000   0.0000

          k = 0.0000 0.3849-0.2526 ( 11352 PWs)   bands (ev):

   -92.7271 -92.7241 -92.7229 -56.1020 -56.0903 -56.0649 -56.0632 -56.0627
   -56.0495 -55.7838 -55.7788 -55.7770 -52.1312 -24.0485 -24.0483 -24.0127
   -16.6186 -15.7323 -15.3303 -15.2085 -14.9840 -14.7980  -3.8261  -3.0677
    -3.0055  -2.9283  -2.6055  -2.5469  -2.3336  -2.0645  -1.5799  -1.2151
    -1.0832  -0.9942  -0.6647  -0.6550  -0.1833   0.4061   0.7757   1.2529
     1.8478   1.8976   1.9590   1.9812   2.2495   2.2598   2.4441   2.7023
     2.9468   3.0005   4.3800   4.4795   4.5091   4.5582   4.9363   4.9677
     5.5679   6.5570   7.8611   8.4073   9.1034  10.1415  11.6394  11.9892

     occupation numbers 
     1.0000   1.0000   1.0000   1.0000   1.0000   1.0000   1.0000   1.0000
     1.0000   1.0000   1.0000   1.0000   1.0000   1.0000   1.0000   1.0000
     1.0000   1.0000   1.0000   1.0000   1.0000   1.0000   1.0000   1.0000
     1.0000   1.0000   1.0000   1.0000   1.0000   1.0000   1.0000   1.0000
     1.0000   1.0000   1.0000   1.0000   1.0000   1.0000   1.0000   1.0000
     1.0167   1.0277   1.0463   1.0539   0.9820   0.9656   0.5158   0.0599
     0.0017   0.0006   0.0000   0.0000   0.0000   0.0000   0.0000   0.0000
     0.0000   0.0000   0.0000   0.0000   0.0000   0.0000   0.0000   0.0000

          k = 0.0000-0.5774 0.0000 ( 11352 PWs)   bands (ev):

   -92.7258 -92.7251 -92.7231 -56.1044 -56.0792 -56.0787 -56.0586 -56.0563
   -56.0558 -55.7816 -55.7806 -55.7774 -52.1312 -24.0487 -24.0484 -24.0126
   -16.1862 -16.1852 -15.3482 -15.2321 -14.8802 -14.8798  -3.9773  -3.0851
    -3.0794  -2.5320  -2.5304  -2.2021  -2.1319  -2.1277  -2.0038  -1.2334
    -1.2197  -0.8681  -0.7700  -0.7693  -0.6175   0.5245   1.2635   1.2648
     1.8316   1.8657   1.9562   1.9569   2.2964   2.5736   2.5765   2.6745
     2.6802   3.7866   4.1908   4.2538   4.2663   4.4911   4.7468   4.7594
     5.1376   7.3655   7.6612   8.0132   8.2049  10.7168  10.9297  11.2792

     occupation numbers 
     1.0000   1.0000   1.0000   1.0000   1.0000   1.0000   1.0000   1.0000
     1.0000   1.0000   1.0000   1.0000   1.0000   1.0000   1.0000   1.0000
     1.0000   1.0000   1.0000   1.0000   1.0000   1.0000   1.0000   1.0000
     1.0000   1.0000   1.0000   1.0000   1.0000   1.0000   1.0000   1.0000
     1.0000   1.0000   1.0000   1.0000   1.0000   1.0000   1.0000   1.0000
     1.0139   1.0202   1.0454   1.0456   0.8970   0.2144   0.2094   0.0818
     0.0768   0.0000   0.0000   0.0000   0.0000   0.0000   0.0000   0.0000
     0.0000   0.0000   0.0000   0.0000   0.0000   0.0000   0.0000   0.0000

          k = 0.0000-0.5774-0.2526 ( 11344 PWs)   bands (ev):

   -92.7258 -92.7251 -92.7231 -56.1043 -56.0792 -56.0787 -56.0585 -56.0562
   -56.0557 -55.7816 -55.7806 -55.7773 -52.1312 -24.0487 -24.0483 -24.0126
   -16.1862 -16.1852 -15.3482 -15.2321 -14.8802 -14.8798  -3.9773  -3.0855
    -3.0797  -2.5320  -2.5304  -2.2020  -2.1317  -2.1275  -2.0037  -1.2319
    -1.2188  -0.8680  -0.7700  -0.7692  -0.6173   0.5250   1.2612   1.2612
     1.8316   1.8656   1.9562   1.9569   2.2963   2.5623   2.5704   2.6811
     2.6838   3.7551   4.0855   4.3469   4.4355   4.4902   4.7069   4.7103
     5.1376   7.3218   7.6623   7.9633   8.1886  10.8693  11.1173  11.5196

     occupation numbers 
     1.0000   1.0000   1.0000   1.0000   1.0000   1.0000   1.0000   1.0000
     1.0000   1.0000   1.0000   1.0000   1.0000   1.0000   1.0000   1.0000
     1.0000   1.0000   1.0000   1.0000   1.0000   1.0000   1.0000   1.0000
     1.0000   1.0000   1.0000   1.0000   1.0000   1.0000   1.0000   1.0000
     1.0000   1.0000   1.0000   1.0000   1.0000   1.0000   1.0000   1.0000
     1.0139   1.0202   1.0454   1.0456   0.8973   0.2352   0.2203   0.0761
     0.0738   0.0000   0.0000   0.0000   0.0000   0.0000   0.0000   0.0000
     0.0000   0.0000   0.0000   0.0000   0.0000   0.0000   0.0000   0.0000

          k = 0.1667 0.2887 0.0000 ( 11373 PWs)   bands (ev):

   -92.7274 -92.7238 -92.7228 -56.0966 -56.0965 -56.0663 -56.0662 -56.0593
   -56.0478 -55.7843 -55.7783 -55.7769 -52.1313 -24.0485 -24.0484 -24.0127
   -16.7165 -15.5058 -15.5054 -15.0715 -15.0714 -14.7813  -3.4792  -3.4788
    -3.0509  -2.7414  -2.7373  -2.6490  -2.4208  -1.8422  -1.8386  -1.1508
    -1.1482  -0.7828  -0.7763  -0.5005   0.1675   0.4604   0.4623   1.1178
     1.9125   1.9137   1.9417   2.0959   2.0968   2.1060   2.6017   2.6047
     2.6048   3.1230   4.4146   4.4196   4.5555   4.7226   4.7228   5.1174
     6.4970   6.5019   6.7639   9.4028   9.8179  10.2421  10.4182  10.7365

     occupation numbers 
     1.0000   1.0000   1.0000   1.0000   1.0000   1.0000   1.0000   1.0000
     1.0000   1.0000   1.0000   1.0000   1.0000   1.0000   1.0000   1.0000
     1.0000   1.0000   1.0000   1.0000   1.0000   1.0000   1.0000   1.0000
     1.0000   1.0000   1.0000   1.0000   1.0000   1.0000   1.0000   1.0000
     1.0000   1.0000   1.0000   1.0000   1.0000   1.0000   1.0000   1.0000
     1.0318   1.0321   1.0406   1.0832   1.0832   1.0833   0.1681   0.1637
     0.1635   0.0000   0.0000   0.0000   0.0000   0.0000   0.0000   0.0000
     0.0000   0.0000   0.0000   0.0000   0.0000   0.0000   0.0000   0.0000

          k = 0.1667 0.2887-0.2526 ( 11348 PWs)   bands (ev):

   -92.7275 -92.7238 -92.7228 -56.0966 -56.0965 -56.0662 -56.0661 -56.0592
   -56.0478 -55.7845 -55.7783 -55.7769 -52.1312 -24.0484 -24.0482 -24.0127
   -16.7164 -15.5058 -15.5054 -15.0715 -15.0714 -14.7813  -3.4792  -3.4788
    -3.0512  -2.7414  -2.7373  -2.6490  -2.4192  -1.8422  -1.8386  -1.1508
    -1.1482  -0.7825  -0.7761  -0.4996   0.1676   0.4605   0.4624   1.0912
     1.9124   1.9137   1.9213   2.0960   2.0969   2.1060   2.6035   2.6044
     2.7408   3.0471   4.4142   4.4191   4.5774   4.7244   4.7245   5.1174
     6.3433   6.4929   6.7569   9.8503   9.8958  10.2403  10.4631  10.7676

     occupation numbers 
     1.0000   1.0000   1.0000   1.0000   1.0000   1.0000   1.0000   1.0000
     1.0000   1.0000   1.0000   1.0000   1.0000   1.0000   1.0000   1.0000
     1.0000   1.0000   1.0000   1.0000   1.0000   1.0000   1.0000   1.0000
     1.0000   1.0000   1.0000   1.0000   1.0000   1.0000   1.0000   1.0000
     1.0000   1.0000   1.0000   1.0000   1.0000   1.0000   1.0000   1.0000
     1.0318   1.0321   1.0343   1.0832   1.0832   1.0833   0.1655   0.1641
     0.0377   0.0002   0.0000   0.0000   0.0000   0.0000   0.0000   0.0000
     0.0000   0.0000   0.0000   0.0000   0.0000   0.0000   0.0000   0.0000

          k = 0.1667 0.4811 0.0000 ( 11356 PWs)   bands (ev):

   -92.7261 -92.7246 -92.7233 -56.0998 -56.0890 -56.0747 -56.0587 -56.0584
   -56.0521 -55.7822 -55.7797 -55.7778 -52.1312 -24.0486 -24.0484 -24.0127
   -16.3477 -15.9055 -15.5847 -15.0754 -14.9496 -14.8498  -3.7533  -3.2616
    -3.1424  -2.6093  -2.4456  -2.4257  -2.2107  -2.0585  -1.9484  -1.2396
    -1.1299  -0.9239  -0.8177  -0.6919  -0.3491   0.6059   0.9656   1.2523
     1.9268   1.9854   2.0182   2.0368   2.3369   2.3447   2.3829   2.5826
     2.8113   3.5335   4.2061   4.2371   4.3926   4.7838   4.9742   4.9871
     5.0511   6.2243   7.2052   8.5267   9.7784   9.9950  10.4003  11.5839

     occupation numbers 
     1.0000   1.0000   1.0000   1.0000   1.0000   1.0000   1.0000   1.0000
     1.0000   1.0000   1.0000   1.0000   1.0000   1.0000   1.0000   1.0000
     1.0000   1.0000   1.0000   1.0000   1.0000   1.0000   1.0000   1.0000
     1.0000   1.0000   1.0000   1.0000   1.0000   1.0000   1.0000   1.0000
     1.0000   1.0000   1.0000   1.0000   1.0000   1.0000   1.0000   1.0000
     1.0360   1.0554   1.0665   1.0722   0.8044   0.7852   0.6844   0.1988
     0.0146   0.0000   0.0000   0.0000   0.0000   0.0000   0.0000   0.0000
     0.0000   0.0000   0.0000   0.0000   0.0000   0.0000   0.0000   0.0000

          k = 0.1667 0.4811-0.2526 ( 11352 PWs)   bands (ev):

   -92.7261 -92.7246 -92.7233 -56.0998 -56.0890 -56.0746 -56.0587 -56.0584
   -56.0521 -55.7822 -55.7797 -55.7778 -52.1312 -24.0486 -24.0483 -24.0127
   -16.3477 -15.9055 -15.5847 -15.0754 -14.9496 -14.8498  -3.7533  -3.2617
    -3.1427  -2.6094  -2.4456  -2.4258  -2.2102  -2.0585  -1.9484  -1.2384
    -1.1290  -0.9236  -0.8177  -0.6919  -0.3490   0.6061   0.9651   1.2465
     1.9268   1.9854   2.0182   2.0334   2.3305   2.3447   2.3826   2.5808
     2.8249   3.5170   4.2182   4.2536   4.3904   4.8275   4.9629   4.9720
     5.0514   6.2233   7.1299   8.5152   9.8129   9.9948  10.6461  11.5987

     occupation numbers 
     1.0000   1.0000   1.0000   1.0000   1.0000   1.0000   1.0000   1.0000
     1.0000   1.0000   1.0000   1.0000   1.0000   1.0000   1.0000   1.0000
     1.0000   1.0000   1.0000   1.0000   1.0000   1.0000   1.0000   1.0000
     1.0000   1.0000   1.0000   1.0000   1.0000   1.0000   1.0000   1.0000
     1.0000   1.0000   1.0000   1.0000   1.0000   1.0000   1.0000   1.0000
     1.0360   1.0554   1.0665   1.0712   0.8201   0.7849   0.6852   0.2019
     0.0120   0.0000   0.0000   0.0000   0.0000   0.0000   0.0000   0.0000
     0.0000   0.0000   0.0000   0.0000   0.0000   0.0000   0.0000   0.0000

          k = 0.3333 0.5774 0.0000 ( 11370 PWs)   bands (ev):

   -92.7252 -92.7252 -92.7238 -56.0896 -56.0892 -56.0892 -56.0553 -56.0549
   -56.0549 -55.7805 -55.7805 -55.7786 -52.1312 -24.0486 -24.0486 -24.0127
   -15.9711 -15.9698 -15.9698 -14.9414 -14.9411 -14.9411  -3.3818  -3.3792
    -3.3792  -2.4064  -2.4019  -2.4019  -2.1994  -2.1994  -2.1980  -1.1972
    -1.1808  -1.1808  -0.5065  -0.5065  -0.5051   0.9653   0.9653   0.9702
     2.1222   2.1222   2.1224   2.1413   2.1432   2.1432   2.5411   2.5455
     2.5455   4.1011   4.1775   4.1775   4.4028   4.8805   4.8805   5.0494
     5.0494   5.0494   7.7017   8.6018   8.6018  11.0909  11.4840  11.4841

     occupation numbers 
     1.0000   1.0000   1.0000   1.0000   1.0000   1.0000   1.0000   1.0000
     1.0000   1.0000   1.0000   1.0000   1.0000   1.0000   1.0000   1.0000
     1.0000   1.0000   1.0000   1.0000   1.0000   1.0000   1.0000   1.0000
     1.0000   1.0000   1.0000   1.0000   1.0000   1.0000   1.0000   1.0000
     1.0000   1.0000   1.0000   1.0000   1.0000   1.0000   1.0000   1.0000
     1.0820   1.0820   1.0820   1.0779   1.0773   1.0773   0.2775   0.2683
     0.2683   0.0000   0.0000   0.0000   0.0000   0.0000   0.0000   0.0000
     0.0000   0.0000   0.0000   0.0000   0.0000   0.0000   0.0000   0.0000

          k = 0.3333 0.5774-0.2526 ( 11340 PWs)   bands (ev):

   -92.7251 -92.7251 -92.7237 -56.0895 -56.0892 -56.0892 -56.0552 -56.0548
   -56.0548 -55.7805 -55.7805 -55.7786 -52.1312 -24.0485 -24.0485 -24.0126
   -15.9711 -15.9698 -15.9698 -14.9414 -14.9411 -14.9411  -3.3820  -3.3793
    -3.3793  -2.4067  -2.4021  -2.4021  -2.1994  -2.1994  -2.1980  -1.1957
    -1.1800  -1.1800  -0.5065  -0.5065  -0.5051   0.9648   0.9648   0.9694
     2.1222   2.1222   2.1224   2.1396   2.1423   2.1423   2.5411   2.5457
     2.5457   4.0459   4.1599   4.1599   4.4714   4.9070   4.9070   5.0494
     5.0494   5.0495   7.6815   8.5788   8.5788  11.1108  11.5365  11.5371

     occupation numbers 
     1.0000   1.0000   1.0000   1.0000   1.0000   1.0000   1.0000   1.0000
     1.0000   1.0000   1.0000   1.0000   1.0000   1.0000   1.0000   1.0000
     1.0000   1.0000   1.0000   1.0000   1.0000   1.0000   1.0000   1.0000
     1.0000   1.0000   1.0000   1.0000   1.0000   1.0000   1.0000   1.0000
     1.0000   1.0000   1.0000   1.0000   1.0000   1.0000   1.0000   1.0000
     1.0820   1.0820   1.0820   1.0784   1.0776   1.0776   0.2774   0.2680
     0.2680   0.0000   0.0000   0.0000   0.0000   0.0000   0.0000   0.0000
     0.0000   0.0000   0.0000   0.0000   0.0000   0.0000   0.0000   0.0000

 ------ SPIN DOWN ----------


          k = 0.0000 0.0000 0.0000 ( 11393 PWs)   bands (ev):

   -93.5063 -93.5008 -93.5003 -56.7845 -56.7845 -56.7835 -56.7835 -56.7438
   -56.7438 -56.6613 -56.6521 -56.6519 -52.1296 -24.0460 -24.0460 -24.0113
   -17.1536 -15.3306 -15.3306 -15.3303 -15.3303 -14.8634  -3.1519  -3.1519
    -3.1475  -3.1475  -3.1015  -3.1015  -3.0971  -2.7380  -2.7316  -0.8923
    -0.8923  -0.8894  -0.8894  -0.4482  -0.4401   0.4673   0.6907   0.6907
     0.7279   0.7299   0.9799   0.9799   1.8266   1.8266   1.8292   1.8292
     1.9351   2.3783   4.1101   4.1101   4.1135   4.1135   4.9659   4.9659
     5.8844   8.4810   9.1979   9.1979   9.9399   9.9399  10.5218  10.7672

     occupation numbers 
     1.0000   1.0000   1.0000   1.0000   1.0000   1.0000   1.0000   1.0000
     1.0000   1.0000   1.0000   1.0000   1.0000   1.0000   1.0000   1.0000
     1.0000   1.0000   1.0000   1.0000   1.0000   1.0000   1.0000   1.0000
     1.0000   1.0000   1.0000   1.0000   1.0000   1.0000   1.0000   1.0000
     1.0000   1.0000   1.0000   1.0000   1.0000   1.0000   1.0000   1.0000
     1.0000   1.0000   1.0000   1.0000   1.0131   1.0131   1.0135   1.0135
     1.0385   0.6970   0.0000   0.0000   0.0000   0.0000   0.0000   0.0000
     0.0000   0.0000   0.0000   0.0000   0.0000   0.0000   0.0000   0.0000

          k = 0.0000 0.0000-0.2526 ( 11446 PWs)   bands (ev):

   -93.5063 -93.5008 -93.5003 -56.7846 -56.7846 -56.7836 -56.7836 -56.7438
   -56.7438 -56.6614 -56.6522 -56.6520 -52.1296 -24.0461 -24.0461 -24.0115
   -17.1536 -15.3306 -15.3306 -15.3303 -15.3303 -14.8634  -3.1519  -3.1519
    -3.1475  -3.1475  -3.1015  -3.1015  -3.0953  -2.7380  -2.7316  -0.8924
    -0.8924  -0.8894  -0.8894  -0.4483  -0.4401   0.4224   0.6907   0.6907
     0.7279   0.7298   0.9799   0.9799   1.8266   1.8266   1.8291   1.8291
     2.1316   2.2643   4.1104   4.1104   4.1138   4.1138   4.9658   4.9658
     5.6674   9.1901   9.1901   9.2221   9.9323   9.9323  10.4384  10.6377

     occupation numbers 
     1.0000   1.0000   1.0000   1.0000   1.0000   1.0000   1.0000   1.0000
     1.0000   1.0000   1.0000   1.0000   1.0000   1.0000   1.0000   1.0000
     1.0000   1.0000   1.0000   1.0000   1.0000   1.0000   1.0000   1.0000
     1.0000   1.0000   1.0000   1.0000   1.0000   1.0000   1.0000   1.0000
     1.0000   1.0000   1.0000   1.0000   1.0000   1.0000   1.0000   1.0000
     1.0000   1.0000   1.0000   1.0000   1.0131   1.0131   1.0135   1.0135
     1.0804   0.9580   0.0000   0.0000   0.0000   0.0000   0.0000   0.0000
     0.0000   0.0000   0.0000   0.0000   0.0000   0.0000   0.0000   0.0000

          k = 0.0000 0.1925 0.0000 ( 11360 PWs)   bands (ev):

   -93.5059 -93.5010 -93.5005 -56.7931 -56.7906 -56.7736 -56.7724 -56.7488
   -56.7450 -56.6605 -56.6524 -56.6521 -52.1295 -24.0461 -24.0460 -24.0111
   -17.0449 -15.5092 -15.4098 -15.3038 -15.2297 -14.8807  -3.5847  -3.2899
    -3.1765  -3.1740  -3.0244  -3.0128  -2.9816  -2.3789  -2.1746  -1.2599
    -1.1667  -1.0344  -0.9240  -0.1343  -0.0516   0.0792   0.1414   0.7263
     0.8120   0.8670   1.1666   1.3808   1.5520   1.5548   1.9544   2.0276
     2.0879   2.4719   4.0914   4.1180   4.1423   4.2530   4.6718   4.8867
     6.0925   7.4822   8.4874   8.7714   9.1847  10.7861  11.0621  11.6784

     occupation numbers 
     1.0000   1.0000   1.0000   1.0000   1.0000   1.0000   1.0000   1.0000
     1.0000   1.0000   1.0000   1.0000   1.0000   1.0000   1.0000   1.0000
     1.0000   1.0000   1.0000   1.0000   1.0000   1.0000   1.0000   1.0000
     1.0000   1.0000   1.0000   1.0000   1.0000   1.0000   1.0000   1.0000
     1.0000   1.0000   1.0000   1.0000   1.0000   1.0000   1.0000   1.0000
     1.0000   1.0000   1.0000   1.0000   1.0002   1.0002   1.0448   1.0694
     1.0826   0.4415   0.0000   0.0000   0.0000   0.0000   0.0000   0.0000
     0.0000   0.0000   0.0000   0.0000   0.0000   0.0000   0.0000   0.0000

          k = 0.0000 0.1925-0.2526 ( 11384 PWs)   bands (ev):

   -93.5059 -93.5010 -93.5005 -56.7931 -56.7906 -56.7736 -56.7724 -56.7489
   -56.7450 -56.6606 -56.6525 -56.6522 -52.1296 -24.0462 -24.0460 -24.0112
   -17.0449 -15.5092 -15.4098 -15.3038 -15.2297 -14.8807  -3.5847  -3.2899
    -3.1766  -3.1740  -3.0244  -3.0129  -2.9801  -2.3789  -2.1746  -1.2599
    -1.1668  -1.0343  -0.9240  -0.1343  -0.0516   0.0794   0.1393   0.6894
     0.8120   0.8670   1.1667   1.3771   1.5521   1.5548   1.9542   2.0274
     2.2852   2.3459   4.0916   4.1178   4.1435   4.2536   4.6855   4.8838
     5.8984   7.4732   8.4798   9.0760   9.5566  10.6636  11.0078  11.0587

     occupation numbers 
     1.0000   1.0000   1.0000   1.0000   1.0000   1.0000   1.0000   1.0000
     1.0000   1.0000   1.0000   1.0000   1.0000   1.0000   1.0000   1.0000
     1.0000   1.0000   1.0000   1.0000   1.0000   1.0000   1.0000   1.0000
     1.0000   1.0000   1.0000   1.0000   1.0000   1.0000   1.0000   1.0000
     1.0000   1.0000   1.0000   1.0000   1.0000   1.0000   1.0000   1.0000
     1.0000   1.0000   1.0000   1.0000   1.0002   1.0002   1.0447   1.0694
     0.9195   0.7821   0.0000   0.0000   0.0000   0.0000   0.0000   0.0000
     0.0000   0.0000   0.0000   0.0000   0.0000   0.0000   0.0000   0.0000

          k = 0.0000 0.3849 0.0000 ( 11350 PWs)   bands (ev):

   -93.5047 -93.5017 -93.5010 -56.7994 -56.7881 -56.7636 -56.7623 -56.7613
   -56.7488 -56.6585 -56.6538 -56.6527 -52.1295 -24.0463 -24.0461 -24.0111
   -16.7414 -15.8603 -15.4604 -15.3434 -15.1195 -14.9324  -4.0052  -3.2873
    -3.2156  -3.1030  -2.8271  -2.7143  -2.6839  -2.2237  -1.7694  -1.4071
    -1.3362  -1.2976  -0.9278  -0.8828  -0.4859   0.1855   0.5449   0.9334
     1.0796   1.2050   1.2376   1.2395   1.4442   1.7660   1.8108   2.1154
     2.1686   2.9590   4.0351   4.0765   4.1363   4.2073   4.6080   4.6639
     5.6081   6.6649   7.8947   8.4720   9.0782   9.6352  11.4699  11.6055

     occupation numbers 
     1.0000   1.0000   1.0000   1.0000   1.0000   1.0000   1.0000   1.0000
     1.0000   1.0000   1.0000   1.0000   1.0000   1.0000   1.0000   1.0000
     1.0000   1.0000   1.0000   1.0000   1.0000   1.0000   1.0000   1.0000
     1.0000   1.0000   1.0000   1.0000   1.0000   1.0000   1.0000   1.0000
     1.0000   1.0000   1.0000   1.0000   1.0000   1.0000   1.0000   1.0000
     1.0000   1.0000   1.0000   1.0000   1.0000   1.0061   1.0108   1.0828
     1.0662   0.0013   0.0000   0.0000   0.0000   0.0000   0.0000   0.0000
     0.0000   0.0000   0.0000   0.0000   0.0000   0.0000   0.0000   0.0000

          k = 0.0000 0.3849-0.2526 ( 11352 PWs)   bands (ev):

   -93.5047 -93.5017 -93.5010 -56.7994 -56.7881 -56.7637 -56.7623 -56.7613
   -56.7488 -56.6586 -56.6538 -56.6527 -52.1295 -24.0463 -24.0461 -24.0112
   -16.7414 -15.8603 -15.4604 -15.3434 -15.1195 -14.9324  -4.0051  -3.2876
    -3.2157  -3.1030  -2.8272  -2.7142  -2.6829  -2.2238  -1.7693  -1.4071
    -1.3357  -1.2977  -0.9278  -0.8823  -0.4860   0.1857   0.5449   0.9334
     1.0621   1.2049   1.2377   1.2395   1.4445   1.7566   1.8107   2.1141
     2.1984   2.9628   4.0296   4.0765   4.1712   4.2153   4.6084   4.6485
     5.6022   6.5448   7.8914   8.4606   9.0972  10.0728  11.4826  11.6030

     occupation numbers 
     1.0000   1.0000   1.0000   1.0000   1.0000   1.0000   1.0000   1.0000
     1.0000   1.0000   1.0000   1.0000   1.0000   1.0000   1.0000   1.0000
     1.0000   1.0000   1.0000   1.0000   1.0000   1.0000   1.0000   1.0000
     1.0000   1.0000   1.0000   1.0000   1.0000   1.0000   1.0000   1.0000
     1.0000   1.0000   1.0000   1.0000   1.0000   1.0000   1.0000   1.0000
     1.0000   1.0000   1.0000   1.0000   1.0000   1.0054   1.0108   1.0829
     1.0443   0.0012   0.0000   0.0000   0.0000   0.0000   0.0000   0.0000
     0.0000   0.0000   0.0000   0.0000   0.0000   0.0000   0.0000   0.0000

          k = 0.0000-0.5774 0.0000 ( 11352 PWs)   bands (ev):

   -93.5034 -93.5029 -93.5011 -56.8016 -56.7776 -56.7766 -56.7576 -56.7556
   -56.7546 -56.6561 -56.6559 -56.6529 -52.1295 -24.0465 -24.0462 -24.0111
   -16.3113 -16.3103 -15.4778 -15.3672 -15.0155 -15.0151  -4.1583  -3.2975
    -3.2924  -2.7381  -2.7363  -2.3885  -2.3853  -2.3155  -2.2387  -1.5089
    -1.4969  -1.2241  -1.0231  -1.0229  -0.7014   0.3298   0.9791   1.0433
     1.0446   1.0657   1.2458   1.2473   1.6434   1.8624   1.8664   2.0248
     2.0254   3.7967   3.9101   3.9202   4.0713   4.1883   4.4297   4.4857
     4.8174   7.3492   7.6924   8.0030   8.2582  10.6630  10.8686  11.2671

     occupation numbers 
     1.0000   1.0000   1.0000   1.0000   1.0000   1.0000   1.0000   1.0000
     1.0000   1.0000   1.0000   1.0000   1.0000   1.0000   1.0000   1.0000
     1.0000   1.0000   1.0000   1.0000   1.0000   1.0000   1.0000   1.0000
     1.0000   1.0000   1.0000   1.0000   1.0000   1.0000   1.0000   1.0000
     1.0000   1.0000   1.0000   1.0000   1.0000   1.0000   1.0000   1.0000
     1.0000   1.0000   1.0000   1.0000   1.0009   1.0195   1.0203   1.0686
     1.0688   0.0000   0.0000   0.0000   0.0000   0.0000   0.0000   0.0000
     0.0000   0.0000   0.0000   0.0000   0.0000   0.0000   0.0000   0.0000

          k = 0.0000-0.5774-0.2526 ( 11344 PWs)   bands (ev):

   -93.5034 -93.5029 -93.5011 -56.8016 -56.7777 -56.7767 -56.7575 -56.7556
   -56.7546 -56.6562 -56.6560 -56.6529 -52.1295 -24.0465 -24.0461 -24.0111
   -16.3113 -16.3103 -15.4778 -15.3672 -15.0155 -15.0151  -4.1582  -3.2978
    -3.2926  -2.7381  -2.7363  -2.3883  -2.3850  -2.3154  -2.2387  -1.5079
    -1.4963  -1.2239  -1.0231  -1.0230  -0.7013   0.3303   0.9791   1.0418
     1.0422   1.0657   1.2458   1.2473   1.6433   1.8664   1.8687   2.0176
     2.0212   3.6972   3.8669   4.0701   4.0750   4.3549   4.3811   4.3840
     4.8173   7.3111   7.6926   7.9576   8.2421  10.8118  11.0482  11.2632

     occupation numbers 
     1.0000   1.0000   1.0000   1.0000   1.0000   1.0000   1.0000   1.0000
     1.0000   1.0000   1.0000   1.0000   1.0000   1.0000   1.0000   1.0000
     1.0000   1.0000   1.0000   1.0000   1.0000   1.0000   1.0000   1.0000
     1.0000   1.0000   1.0000   1.0000   1.0000   1.0000   1.0000   1.0000
     1.0000   1.0000   1.0000   1.0000   1.0000   1.0000   1.0000   1.0000
     1.0000   1.0000   1.0000   1.0000   1.0009   1.0203   1.0208   1.0663
     1.0674   0.0000   0.0000   0.0000   0.0000   0.0000   0.0000   0.0000
     0.0000   0.0000   0.0000   0.0000   0.0000   0.0000   0.0000   0.0000

          k = 0.1667 0.2887 0.0000 ( 11373 PWs)   bands (ev):

   -93.5050 -93.5014 -93.5010 -56.7942 -56.7941 -56.7651 -56.7649 -56.7582
   -56.7472 -56.6591 -56.6531 -56.6529 -52.1295 -24.0463 -24.0462 -24.0112
   -16.8388 -15.6355 -15.6352 -15.2065 -15.2065 -14.9155  -3.6625  -3.6618
    -3.2738  -2.9182  -2.9143  -2.8761  -2.7731  -2.0030  -1.9995  -1.3434
    -1.3403  -1.1114  -1.1057  -0.7415  -0.1506   0.2348   0.2362   0.8778
     1.0300   1.0302   1.3711   1.3712   1.3743   1.5938   1.9873   1.9878
     2.1930   2.7659   4.0338   4.0382   4.2155   4.3888   4.3892   4.7982
     6.4781   6.5300   6.8127   9.3453   9.8122  10.2784  10.4119  10.7758

     occupation numbers 
     1.0000   1.0000   1.0000   1.0000   1.0000   1.0000   1.0000   1.0000
     1.0000   1.0000   1.0000   1.0000   1.0000   1.0000   1.0000   1.0000
     1.0000   1.0000   1.0000   1.0000   1.0000   1.0000   1.0000   1.0000
     1.0000   1.0000   1.0000   1.0000   1.0000   1.0000   1.0000   1.0000
     1.0000   1.0000   1.0000   1.0000   1.0000   1.0000   1.0000   1.0000
     1.0000   1.0000   1.0000   1.0000   1.0000   1.0004   1.0560   1.0562
     1.0490   0.0273   0.0000   0.0000   0.0000   0.0000   0.0000   0.0000
     0.0000   0.0000   0.0000   0.0000   0.0000   0.0000   0.0000   0.0000

          k = 0.1667 0.2887-0.2526 ( 11348 PWs)   bands (ev):

   -93.5051 -93.5014 -93.5010 -56.7942 -56.7940 -56.7650 -56.7648 -56.7582
   -56.7472 -56.6593 -56.6530 -56.6528 -52.1295 -24.0462 -24.0460 -24.0112
   -16.8388 -15.6355 -15.6351 -15.2065 -15.2065 -14.9155  -3.6625  -3.6618
    -3.2741  -2.9182  -2.9143  -2.8761  -2.7720  -2.0030  -1.9995  -1.3433
    -1.3402  -1.1112  -1.1055  -0.7410  -0.1505   0.2349   0.2363   0.8622
     1.0300   1.0302   1.3584   1.3713   1.3713   1.5938   1.9869   1.9876
     2.2456   2.7599   4.0337   4.0379   4.2337   4.3902   4.3904   4.7982
     6.3320   6.5214   6.8057   9.8322   9.8481  10.2767  10.4566  10.7994

     occupation numbers 
     1.0000   1.0000   1.0000   1.0000   1.0000   1.0000   1.0000   1.0000
     1.0000   1.0000   1.0000   1.0000   1.0000   1.0000   1.0000   1.0000
     1.0000   1.0000   1.0000   1.0000   1.0000   1.0000   1.0000   1.0000
     1.0000   1.0000   1.0000   1.0000   1.0000   1.0000   1.0000   1.0000
     1.0000   1.0000   1.0000   1.0000   1.0000   1.0000   1.0000   1.0000
     1.0000   1.0000   1.0000   1.0000   1.0000   1.0004   1.0559   1.0561
     0.9880   0.0296   0.0000   0.0000   0.0000   0.0000   0.0000   0.0000
     0.0000   0.0000   0.0000   0.0000   0.0000   0.0000   0.0000   0.0000

          k = 0.1667 0.4811 0.0000 ( 11356 PWs)   bands (ev):

   -93.5037 -93.5022 -93.5014 -56.7973 -56.7868 -56.7730 -56.7577 -56.7574
   -56.7513 -56.6570 -56.6547 -56.6535 -52.1295 -24.0464 -24.0462 -24.0112
   -16.4720 -16.0324 -15.7138 -15.2103 -15.0851 -14.9849  -3.9406  -3.4675
    -3.3577  -2.7901  -2.6623  -2.5838  -2.4996  -2.2575  -2.1523  -1.5007
    -1.4712  -1.2644  -1.0286  -0.8402  -0.6200   0.3769   0.7264   0.9682
     1.1625   1.2178   1.2768   1.4404   1.5488   1.7413   1.7804   1.9780
     2.0256   3.5345   3.8557   3.8651   3.9820   4.5027   4.6657   4.7321
     4.9809   6.2664   7.1887   8.5180   9.7734  10.0247  10.3529  11.5331

     occupation numbers 
     1.0000   1.0000   1.0000   1.0000   1.0000   1.0000   1.0000   1.0000
     1.0000   1.0000   1.0000   1.0000   1.0000   1.0000   1.0000   1.0000
     1.0000   1.0000   1.0000   1.0000   1.0000   1.0000   1.0000   1.0000
     1.0000   1.0000   1.0000   1.0000   1.0000   1.0000   1.0000   1.0000
     1.0000   1.0000   1.0000   1.0000   1.0000   1.0000   1.0000   1.0000
     1.0000   1.0000   1.0000   1.0000   1.0002   1.0043   1.0074   1.0528
     1.0688   0.0000   0.0000   0.0000   0.0000   0.0000   0.0000   0.0000
     0.0000   0.0000   0.0000   0.0000   0.0000   0.0000   0.0000   0.0000

          k = 0.1667 0.4811-0.2526 ( 11352 PWs)   bands (ev):

   -93.5037 -93.5022 -93.5014 -56.7973 -56.7869 -56.7730 -56.7577 -56.7574
   -56.7513 -56.6570 -56.6547 -56.6534 -52.1295 -24.0464 -24.0462 -24.0112
   -16.4719 -16.0324 -15.7138 -15.2103 -15.0851 -14.9849  -3.9407  -3.4677
    -3.3579  -2.7902  -2.6623  -2.5838  -2.4991  -2.2575  -2.1523  -1.4998
    -1.4706  -1.2642  -1.0286  -0.8403  -0.6199   0.3771   0.7262   0.9658
     1.1625   1.2178   1.2768   1.4372   1.5494   1.7410   1.7762   1.9764
     2.0312   3.4971   3.8509   3.9270   3.9809   4.5138   4.6606   4.7324
     4.9809   6.2640   7.1206   8.5094   9.8079  10.0318  10.5870  11.5476

     occupation numbers 
     1.0000   1.0000   1.0000   1.0000   1.0000   1.0000   1.0000   1.0000
     1.0000   1.0000   1.0000   1.0000   1.0000   1.0000   1.0000   1.0000
     1.0000   1.0000   1.0000   1.0000   1.0000   1.0000   1.0000   1.0000
     1.0000   1.0000   1.0000   1.0000   1.0000   1.0000   1.0000   1.0000
     1.0000   1.0000   1.0000   1.0000   1.0000   1.0000   1.0000   1.0000
     1.0000   1.0000   1.0000   1.0000   1.0002   1.0043   1.0070   1.0523
     1.0705   0.0000   0.0000   0.0000   0.0000   0.0000   0.0000   0.0000
     0.0000   0.0000   0.0000   0.0000   0.0000   0.0000   0.0000   0.0000

          k = 0.3333 0.5774 0.0000 ( 11370 PWs)   bands (ev):

   -93.5029 -93.5022 -93.5022 -56.7874 -56.7874 -56.7866 -56.7544 -56.7544
   -56.7537 -56.6552 -56.6552 -56.6549 -52.1295 -24.0464 -24.0464 -24.0112
   -16.0975 -16.0963 -16.0963 -15.0768 -15.0764 -15.0764  -3.5881  -3.5862
    -3.5862  -2.5760  -2.5719  -2.5719  -2.4160  -2.4160  -2.4144  -1.5441
    -1.5289  -1.5289  -0.7212  -0.7212  -0.7195   0.7031   0.7031   0.7077
     1.4680   1.4680   1.4695   1.4846   1.4846   1.4847   1.8008   1.8032
     1.8032   3.7498   3.7802   3.7802   4.3651   4.7388   4.7388   4.7393
     4.9249   4.9249   7.6872   8.5933   8.5933  11.0540  11.4261  11.4261

     occupation numbers 
     1.0000   1.0000   1.0000   1.0000   1.0000   1.0000   1.0000   1.0000
     1.0000   1.0000   1.0000   1.0000   1.0000   1.0000   1.0000   1.0000
     1.0000   1.0000   1.0000   1.0000   1.0000   1.0000   1.0000   1.0000
     1.0000   1.0000   1.0000   1.0000   1.0000   1.0000   1.0000   1.0000
     1.0000   1.0000   1.0000   1.0000   1.0000   1.0000   1.0000   1.0000
     1.0000   1.0000   1.0000   1.0000   1.0000   1.0000   1.0096   1.0099
     1.0099   0.0000   0.0000   0.0000   0.0000   0.0000   0.0000   0.0000
     0.0000   0.0000   0.0000   0.0000   0.0000   0.0000   0.0000   0.0000

          k = 0.3333 0.5774-0.2526 ( 11340 PWs)   bands (ev):

   -93.5029 -93.5022 -93.5022 -56.7874 -56.7874 -56.7866 -56.7543 -56.7543
   -56.7536 -56.6551 -56.6551 -56.6548 -52.1295 -24.0464 -24.0464 -24.0111
   -16.0975 -16.0963 -16.0963 -15.0768 -15.0764 -15.0764  -3.5882  -3.5863
    -3.5863  -2.5762  -2.5720  -2.5720  -2.4159  -2.4159  -2.4144  -1.5430
    -1.5283  -1.5283  -0.7211  -0.7211  -0.7194   0.7030   0.7030   0.7073
     1.4680   1.4680   1.4695   1.4843   1.4844   1.4844   1.8002   1.8030
     1.8030   3.7255   3.7718   3.7718   4.3986   4.7389   4.7389   4.7394
     4.9397   4.9397   7.6724   8.5745   8.5745  11.0734  11.4785  11.4787

     occupation numbers 
     1.0000   1.0000   1.0000   1.0000   1.0000   1.0000   1.0000   1.0000
     1.0000   1.0000   1.0000   1.0000   1.0000   1.0000   1.0000   1.0000
     1.0000   1.0000   1.0000   1.0000   1.0000   1.0000   1.0000   1.0000
     1.0000   1.0000   1.0000   1.0000   1.0000   1.0000   1.0000   1.0000
     1.0000   1.0000   1.0000   1.0000   1.0000   1.0000   1.0000   1.0000
     1.0000   1.0000   1.0000   1.0000   1.0000   1.0000   1.0095   1.0098
     1.0098   0.0000   0.0000   0.0000   0.0000   0.0000   0.0000   0.0000
     0.0000   0.0000   0.0000   0.0000   0.0000   0.0000   0.0000   0.0000

     the Fermi energy is     2.4879 ev

!    total energy              =   -1489.14401540 Ry
     total all-electron energy =     -9588.378823 Ry
     estimated scf accuracy    <       0.00000003 Ry
     smearing contrib. (-TS)   =       0.00895850 Ry
     internal energy E=F+TS    =   -1489.15297389 Ry

     The total energy is F=E-TS. E is the sum of the following terms:
     one-electron contribution =   -2472.88440936 Ry
     hartree contribution      =    1263.08215494 Ry
     xc contribution           =    -150.54546204 Ry
     ewald contribution        =     206.72366311 Ry
     one-center paw contrib.   =    -335.52892054 Ry
      -> PAW hartree energy AE =     885.20451563 Ry
      -> PAW hartree energy PS =    -882.93040231 Ry
      -> PAW xc energy AE      =    -480.44111208 Ry
      -> PAW xc energy PS      =     142.63807822 Ry
      -> total E_H with PAW    =    1265.35626826 Ry
      -> total E_XC with PAW   =    -488.34849590 Ry

     total magnetization       =    -2.52 Bohr mag/cell
     absolute magnetization    =     2.60 Bohr mag/cell

     convergence has been achieved in  26 iterations

     Forces acting on atoms (cartesian axes, Ry/au):

     atom    1 type  1   force =     0.00000000    0.00000000    0.00000000
     atom    2 type  1   force =     0.00000000   -0.00000000   -0.00000000
     atom    3 type  1   force =     0.00000000    0.00000000    0.00000000
     atom    4 type  2   force =    -0.00025968   -0.00044978    0.01273285
     atom    5 type  2   force =     0.00051936   -0.00000000    0.01273285
     atom    6 type  2   force =    -0.00025968    0.00044978    0.01273285
     atom    7 type  2   force =    -0.00051936    0.00000000   -0.01273285
     atom    8 type  2   force =     0.00025968    0.00044978   -0.01273285
     atom    9 type  2   force =     0.00025968   -0.00044978   -0.01273285
     atom   10 type  3   force =     0.00000000    0.00000000    0.00000000
     The non-local contrib.  to forces
     atom    1 type  1   force =     0.00000000    0.00000000    0.00000000
     atom    2 type  1   force =    -0.00000000   -0.00000000    0.00000000
     atom    3 type  1   force =     0.00000000   -0.00000000    0.00000000
     atom    4 type  2   force =    -0.00217515   -0.00376746   -1.09831475
     atom    5 type  2   force =     0.00435029   -0.00000000   -1.09831475
     atom    6 type  2   force =    -0.00217515    0.00376746   -1.09831475
     atom    7 type  2   force =    -0.00435029    0.00000000    1.09831475
     atom    8 type  2   force =     0.00217515    0.00376746    1.09831475
     atom    9 type  2   force =     0.00217515   -0.00376746    1.09831475
     atom   10 type  3   force =     0.00000000   -0.00000000    0.00000000
     The ionic contribution  to forces
     atom    1 type  1   force =    -0.00000000   -0.00000000    0.00000000
     atom    2 type  1   force =     0.00000002   -0.00000001    0.00000000
     atom    3 type  1   force =    -0.00000002    0.00000001    0.00000000
     atom    4 type  2   force =     0.03958871    0.06856967   38.06645956
     atom    5 type  2   force =    -0.07917742   -0.00000000   38.06645957
     atom    6 type  2   force =     0.03958871   -0.06856966   38.06645957
     atom    7 type  2   force =     0.07917742    0.00000000  -38.06645957
     atom    8 type  2   force =    -0.03958871   -0.06856967  -38.06645956
     atom    9 type  2   force =    -0.03958871    0.06856966  -38.06645957
     atom   10 type  3   force =     0.00000000   -0.00000000    0.00000000
     The local contribution  to forces
     atom    1 type  1   force =     0.00000000    0.00000000    0.00000000
     atom    2 type  1   force =     0.00000021   -0.00000012    0.00000000
     atom    3 type  1   force =    -0.00000021    0.00000012    0.00000000
     atom    4 type  2   force =    -0.03770405   -0.06530534  -36.96482452
     atom    5 type  2   force =     0.07540811    0.00000000  -36.96482452
     atom    6 type  2   force =    -0.03770405    0.06530534  -36.96482452
     atom    7 type  2   force =    -0.07540811   -0.00000000   36.96482452
     atom    8 type  2   force =     0.03770405    0.06530534   36.96482452
     atom    9 type  2   force =     0.03770405   -0.06530534   36.96482452
     atom   10 type  3   force =     0.00000000    0.00000000    0.00000000
     The core correction contribution to forces
     atom    1 type  1   force =     0.00000000    0.00000000    0.00000000
     atom    2 type  1   force =     0.00000000   -0.00000000    0.00000000
     atom    3 type  1   force =    -0.00000000    0.00000000    0.00000000
     atom    4 type  2   force =     0.00001933    0.00003348    0.00936949
     atom    5 type  2   force =    -0.00003866   -0.00000000    0.00936949
     atom    6 type  2   force =     0.00001933   -0.00003348    0.00936949
     atom    7 type  2   force =     0.00003866    0.00000000   -0.00936949
     atom    8 type  2   force =    -0.00001933   -0.00003348   -0.00936949
     atom    9 type  2   force =    -0.00001933    0.00003348   -0.00936949
     atom   10 type  3   force =     0.00000000    0.00000000    0.00000000
     The Hubbard contrib.    to forces
     atom    1 type  1   force =     0.00000000    0.00000000    0.00000000
     atom    2 type  1   force =     0.00000000    0.00000000    0.00000000
     atom    3 type  1   force =     0.00000000    0.00000000    0.00000000
     atom    4 type  2   force =     0.00000000    0.00000000    0.00000000
     atom    5 type  2   force =     0.00000000    0.00000000    0.00000000
     atom    6 type  2   force =     0.00000000    0.00000000    0.00000000
     atom    7 type  2   force =     0.00000000    0.00000000    0.00000000
     atom    8 type  2   force =     0.00000000    0.00000000    0.00000000
     atom    9 type  2   force =     0.00000000    0.00000000    0.00000000
     atom   10 type  3   force =     0.00000000    0.00000000    0.00000000
     The SCF correction term to forces
     atom    1 type  1   force =    -0.00000000    0.00000000    0.00000000
     atom    2 type  1   force =    -0.00000000    0.00000000    0.00000000
     atom    3 type  1   force =     0.00000000   -0.00000000    0.00000000
     atom    4 type  2   force =     0.00001148    0.00001988    0.00004307
     atom    5 type  2   force =    -0.00002296   -0.00000000    0.00004307
     atom    6 type  2   force =     0.00001148   -0.00001988    0.00004307
     atom    7 type  2   force =     0.00002296    0.00000000   -0.00004307
     atom    8 type  2   force =    -0.00001148   -0.00001988   -0.00004307
     atom    9 type  2   force =    -0.00001148    0.00001988   -0.00004307
     atom   10 type  3   force =    -0.00000000    0.00000000    0.00000000

     Total force =     0.031215     Total SCF correction =     0.000120

     Writing all to output data dir ./out/pw.save/ :
     XML data file, charge density, pseudopotentials, collected wavefunctions
 
     init_run     :     22.29s CPU      5.07s WALL (       1 calls)
     electrons    :    331.98s CPU     75.07s WALL (       1 calls)
     forces       :      0.81s CPU      0.77s WALL (       1 calls)

     Called by init_run:
     wfcinit      :      0.58s CPU      0.70s WALL (       1 calls)
     wfcinit:atom :      0.05s CPU      0.05s WALL (      28 calls)
     wfcinit:wfcr :      0.40s CPU      0.42s WALL (      28 calls)
     potinit      :     20.87s CPU      3.50s WALL (       1 calls)
     hinit0       :      0.66s CPU      0.64s WALL (       1 calls)

     Called by electrons:
     c_bands      :     28.69s CPU     28.81s WALL (      26 calls)
     sum_band     :      5.28s CPU      5.33s WALL (      26 calls)
     v_of_rho     :      0.72s CPU      0.45s WALL (      27 calls)
     v_h          :      0.44s CPU      0.12s WALL (      27 calls)
     v_xc         :      0.29s CPU      0.34s WALL (      28 calls)
     newd         :      0.66s CPU      0.58s WALL (      27 calls)
                                        0.58s GPU  (      27 calls)
     PAW_pot      :    304.99s CPU     39.30s WALL (      27 calls)
     mix_rho      :      1.46s CPU      1.45s WALL (      26 calls)

     Called by c_bands:
     init_us_2    :      0.95s CPU      0.93s WALL (    1512 calls)
     cegterg      :     22.86s CPU     23.00s WALL (     728 calls)

     Called by sum_band:
     sum_band:wei :      0.05s CPU      0.05s WALL (      26 calls)
                                        0.05s GPU  (      26 calls)
     sum_band:loo :      3.63s CPU      3.64s WALL (      26 calls)
                                        3.64s GPU  (      26 calls)
     sum_band:buf :      1.19s CPU      1.25s WALL (     728 calls)
                                        1.24s GPU  (     728 calls)
     sum_band:ini :      0.46s CPU      0.46s WALL (     728 calls)
                                        0.46s GPU  (     728 calls)
     sum_band:cal :      0.09s CPU      0.13s WALL (     728 calls)
                                        0.09s GPU  (     728 calls)
     sum_band:bec :      0.36s CPU      0.37s WALL (     728 calls)
                                        0.36s GPU  (     728 calls)
     addusdens    :      1.05s CPU      1.07s WALL (      26 calls)
                                        1.06s GPU  (      26 calls)
     addusd:skk   :      0.01s CPU      0.01s WALL (      78 calls)
                                        0.01s GPU  (      78 calls)

     Called by *egterg:
     cdiaghg      :      9.12s CPU      9.23s WALL (    4042 calls)
                                        9.18s GPU  (    4042 calls)
     cegterg:over :      1.08s CPU      1.09s WALL (    3314 calls)
     cegterg:upda :      1.12s CPU      1.13s WALL (    3314 calls)
     cegterg:last :      0.23s CPU      0.23s WALL (    1443 calls)
     h_psi        :      9.17s CPU      9.31s WALL (    4070 calls)
                                        9.26s GPU  (    4070 calls)
     s_psi        :      1.28s CPU      1.32s WALL (    4070 calls)
     g_psi        :      0.02s CPU      0.15s WALL (    3314 calls)
                                        0.10s GPU  (    3314 calls)

     Called by h_psi:
     h_psi:calbec :      0.18s CPU      0.39s WALL (    4070 calls)
                                        0.34s GPU  (    4070 calls)
     vloc_psi     :      7.12s CPU      7.17s WALL (    4070 calls)
                                        7.12s GPU  (    4070 calls)
     add_vuspsi   :      1.21s CPU      1.43s WALL (    4070 calls)
                                        1.38s GPU  (    4070 calls)

     General routines
     calbec       :      0.22s CPU      0.23s WALL (    4910 calls)
     fft          :      6.55s CPU      1.25s WALL (     688 calls)
                                        0.14s GPU  (     634 calls)
     ffts         :      3.70s CPU      0.95s WALL (    1239 calls)
                                        0.04s GPU  (    1185 calls)
     fftw         :      0.43s CPU      4.67s WALL (   20720 calls)
                                        4.44s GPU  (   20720 calls)
     interpolate  :     10.55s CPU      2.15s WALL (      54 calls)
 
     Parallel routines

     PAW routines
     PAW_pot      :    304.99s CPU     39.30s WALL (      27 calls)
     PAW_symme    :      0.05s CPU      0.03s WALL (      53 calls)
 
     PWSCF        :   5m55.92s CPU   1m21.62s WALL

 
   This run was terminated on:   7:11:53  12Jul2026            

=------------------------------------------------------------------------------=
   JOB DONE.
=------------------------------------------------------------------------------=
Warning: ieee_divide_by_zero is signaling
Warning: ieee_inexact is signaling
FORTRAN STOP
