
     Program PWSCF v.7.3.1 starts on 12Jul2026 at  2:22:26 

     This program is part of the open-source Quantum ESPRESSO suite
     for quantum simulation of materials; please cite
         "P. Giannozzi et al., J. Phys.:Condens. Matter 21 395502 (2009);
         "P. Giannozzi et al., J. Phys.:Condens. Matter 29 465901 (2017);
         "P. Giannozzi et al., J. Chem. Phys. 152 154105 (2020);
          URL http://www.quantum-espresso.org", 
     in publications or presentations arising from this work. More details at
     http://www.quantum-espresso.org/quote

     Parallel version (MPI & OpenMP), running on      14 processor cores
     Number of MPI processes:                 1
     Threads/MPI process:                    14

     MPI processes distributed on     1 nodes
     847851 MiB available memory on the printing compute node when the environment starts
 
     Reading input from pw.in

     Current dimensions of program PWSCF are:
     Max number of different atomic species (ntypx) = 10
     Max number of k-points (npk) =  40000
     Max angular momentum in pseudopotentials (lmaxx) =  4
     file Co.pbe-spn-kjpaw_psl.0.3.1.UPF: wavefunction(s)  3P 3D renormalized
     file O.pbe-n-kjpaw_psl.1.0.0.UPF: wavefunction(s)  2S 2P renormalized
     file Na.pbe-spn-kjpaw_psl.1.0.0.UPF: wavefunction(s)  2P renormalized
 
     Subspace diagonalization in iterative solution of the eigenvalue problem:
     a serial algorithm will be used

 
     G-vector sticks info
     --------------------
     sticks:   dense  smooth     PW     G-vecs:    dense   smooth      PW
     Sum        2941    1483    421               178951    63407    9467
 
     Using Slab Decomposition
 


     bravais-lattice index     =            4
     lattice parameter (alat)  =       9.4527  a.u.
     unit-cell volume          =    1009.0018 (a.u.)^3
     number of atoms/cell      =           10
     number of atomic types    =            3
     number of electrons       =        96.00
     number of Kohn-Sham states=           64
     kinetic-energy cutoff     =      60.0000  Ry
     charge density cutoff     =     480.0000  Ry
     scf convergence threshold =      1.0E-08
     mixing beta               =       0.3000
     number of iterations used =            8  plain     mixing
     Exchange-correlation= SLA  PW   PBX  PBC
                           (   1   4   3   4   0   0   0)

     GPU acceleration is ACTIVE.  1 visible GPUs per MPI rank
     GPU-aware MPI enabled


     GPU used by master process:

        Device Number: 0
        Device name: NVIDIA A100-SXM4-80GB
        Compute capability : 80
        Ratio of single to double precision performance  : 2
        Memory Clock Rate (KHz): 1593000
        Memory Bus Width (bits): 5120
        Peak Memory Bandwidth (GB/s): ******

     celldm(1)=   9.452718  celldm(2)=   0.000000  celldm(3)=   1.379403
     celldm(4)=   0.000000  celldm(5)=   0.000000  celldm(6)=   0.000000

     crystal axes: (cart. coord. in units of alat)
               a(1) = (   1.000000   0.000000   0.000000 )  
               a(2) = (  -0.500000   0.866025   0.000000 )  
               a(3) = (   0.000000   0.000000   1.379403 )  

     reciprocal axes: (cart. coord. in units 2 pi/alat)
               b(1) = (  1.000000  0.577350 -0.000000 )  
               b(2) = (  0.000000  1.154701  0.000000 )  
               b(3) = (  0.000000 -0.000000  0.724951 )  


     PseudoPot. # 1 for Co read from file:
     ../../pseudo/Co.pbe-spn-kjpaw_psl.0.3.1.UPF
     MD5 check sum: 3c0a43779828c046024e4f3be63f8e67
     Pseudo is Projector augmented-wave + core cor, Zval = 17.0
     Generated using &quot;atomic&quot; code by A. Dal Corso  v.6.2.2
     Shape of augmentation charge: PSQ
     Using radial grid of 1193 points,  6 beta functions with: 
                l(1) =   0
                l(2) =   0
                l(3) =   1
                l(4) =   1
                l(5) =   2
                l(6) =   2
     Q(r) pseudized with 0 coefficients 


     PseudoPot. # 2 for O  read from file:
     ../../pseudo/O.pbe-n-kjpaw_psl.1.0.0.UPF
     MD5 check sum: e99d9cef9b487d1ca56f5b95ecd0fd7a
     Pseudo is Projector augmented-wave + core cor, Zval =  6.0
     Generated using &quot;atomic&quot; code by A. Dal Corso  v.6.3
     Shape of augmentation charge: PSQ
     Using radial grid of 1095 points,  4 beta functions with: 
                l(1) =   0
                l(2) =   0
                l(3) =   1
                l(4) =   1
     Q(r) pseudized with 0 coefficients 


     PseudoPot. # 3 for Na read from file:
     ../../pseudo/Na.pbe-spn-kjpaw_psl.1.0.0.UPF
     MD5 check sum: 05b4deb74e3932c23ab016979dc8b5d4
     Pseudo is Projector augmented-wave + core cor, Zval =  9.0
     Generated using &quot;atomic&quot; code by A. Dal Corso  v.6.3
     Shape of augmentation charge: PSQ
     Using radial grid of 1121 points,  4 beta functions with: 
                l(1) =   0
                l(2) =   0
                l(3) =   1
                l(4) =   1
     Q(r) pseudized with 0 coefficients 


     atomic species   valence    mass     pseudopotential
     Co               17.00    58.93300     Co( 1.00)
     O                 6.00    15.99900     O ( 1.00)
     Na                9.00    22.98977     Na( 1.00)

     Starting magnetic structure 
     atomic species   magnetization
     Co              0.300
     O               0.000
     Na              0.000

      6 Sym. Ops. (no inversion) found ( 4 have fractional translation)


                                    s                        frac. trans.

      isym =  1     identity                                     

 cryst.   s( 1) = (     1          0          0      )
                  (     0          1          0      )
                  (     0          0          1      )

 cart.    s( 1) = (  1.0000000  0.0000000  0.0000000 )
                  (  0.0000000  1.0000000  0.0000000 )
                  (  0.0000000  0.0000000  1.0000000 )


      isym =  2     120 deg rotation - cryst. axis [0,0,1]       

 cryst.   s( 2) = (     0          1          0      )    f =(  0.3333333 )
                  (    -1         -1          0      )       ( -0.3333333 )
                  (     0          0          1      )       (  0.0000000 )

 cart.    s( 2) = ( -0.5000000 -0.8660254  0.0000000 )    f =(  0.5000000 )
                  (  0.8660254 -0.5000000  0.0000000 )       ( -0.2886751 )
                  (  0.0000000  0.0000000  1.0000000 )       (  0.0000000 )


      isym =  3     120 deg rotation - cryst. axis [0,0,-1]      

 cryst.   s( 3) = (    -1         -1          0      )    f =( -0.3333333 )
                  (     1          0          0      )       (  0.3333333 )
                  (     0          0          1      )       (  0.0000000 )

 cart.    s( 3) = ( -0.5000000  0.8660254  0.0000000 )    f =( -0.5000000 )
                  ( -0.8660254 -0.5000000  0.0000000 )       (  0.2886751 )
                  (  0.0000000  0.0000000  1.0000000 )       (  0.0000000 )


      isym =  4     inv. 180 deg rotation - cart. axis [0,1,0]   

 cryst.   s( 4) = (     1          0          0      )    f =( -0.3333333 )
                  (    -1         -1          0      )       (  0.3333333 )
                  (     0          0          1      )       (  0.0000000 )

 cart.    s( 4) = (  1.0000000  0.0000000  0.0000000 )    f =( -0.5000000 )
                  (  0.0000000 -1.0000000  0.0000000 )       (  0.2886751 )
                  (  0.0000000  0.0000000  1.0000000 )       (  0.0000000 )


      isym =  5     inv. 180 deg rotation - cryst. axis [1,-1,0] 

 cryst.   s( 5) = (     0          1          0      )
                  (     1          0          0      )
                  (     0          0          1      )

 cart.    s( 5) = ( -0.5000000  0.8660254  0.0000000 )
                  (  0.8660254  0.5000000  0.0000000 )
                  (  0.0000000  0.0000000  1.0000000 )


      isym =  6     inv. 180 deg rotation - cryst. axis [2,1,0]  

 cryst.   s( 6) = (    -1         -1          0      )    f =(  0.3333333 )
                  (     0          1          0      )       ( -0.3333333 )
                  (     0          0          1      )       (  0.0000000 )

 cart.    s( 6) = ( -0.5000000 -0.8660254  0.0000000 )    f =(  0.5000000 )
                  ( -0.8660254  0.5000000  0.0000000 )       ( -0.2886751 )
                  (  0.0000000  0.0000000  1.0000000 )       (  0.0000000 )


     point group C_3v (3m)  
     there are  3 classes
     the character table:

       E     2C3   3s_v 
A_1    1.00  1.00  1.00
A_2    1.00  1.00 -1.00
E      2.00 -1.00  0.00

     the symmetry operations in each class and the name of the first element:

     E        1
          identity                                               
     2C3      2    3
          120 deg rotation - cryst. axis [0,0,1]                 
     3s_v     4    6    5
          inv. 180 deg rotation - cart. axis [0,1,0]             

   Cartesian axes

     site n.     atom                  positions (alat units)
         1        Co     tau(   1) = (   0.0000000   0.0000000   0.0000000  )
         2        Co     tau(   2) = (  -0.0000000   0.5773503   0.0000000  )
         3        Co     tau(   3) = (   0.5000000   0.2886751   0.0000000  )
         4        O      tau(   4) = (   0.1666667   0.2886751   0.1919170  )
         5        O      tau(   5) = (   0.6666667   0.0000000   0.1919170  )
         6        O      tau(   6) = (  -0.3333333   0.5773503   0.1919170  )
         7        O      tau(   7) = (   0.3333333   0.0000000   1.1874864  )
         8        O      tau(   8) = (   0.3333333   0.5773503   1.1874864  )
         9        O      tau(   9) = (  -0.1666667   0.2886751   1.1874864  )
        10        Na     tau(  10) = (   0.1666667   0.2886751   0.7896584  )

   Crystallographic axes

     site n.     atom                  positions (cryst. coord.)
         1        Co     tau(   1) = (  0.0000000  0.0000000  0.0000000  )
         2        Co     tau(   2) = (  0.3333333  0.6666667  0.0000000  )
         3        Co     tau(   3) = (  0.6666667  0.3333333  0.0000000  )
         4        O      tau(   4) = (  0.3333333  0.3333333  0.1391304  )
         5        O      tau(   5) = (  0.6666667  0.0000000  0.1391304  )
         6        O      tau(   6) = (  0.0000000  0.6666667  0.1391304  )
         7        O      tau(   7) = (  0.3333333  0.0000000  0.8608696  )
         8        O      tau(   8) = (  0.6666667  0.6666667  0.8608696  )
         9        O      tau(   9) = ( -0.0000000  0.3333333  0.8608696  )
        10        Na     tau(  10) = (  0.3333333  0.3333333  0.5724638  )

     number of k points=    17  Marzari-Vanderbilt smearing, width (Ry)=  0.0200
                       cart. coord. in units 2pi/alat
        k(    1) = (   0.0000000   0.0000000   0.0000000), wk =   0.0092593
        k(    2) = (   0.0000000   0.0000000   0.2416504), wk =   0.0185185
        k(    3) = (   0.0000000   0.1924501   0.0000000), wk =   0.0555556
        k(    4) = (   0.0000000   0.1924501   0.2416504), wk =   0.1111111
        k(    5) = (   0.0000000   0.3849002   0.0000000), wk =   0.0555556
        k(    6) = (   0.0000000   0.3849002   0.2416504), wk =   0.1111111
        k(    7) = (   0.0000000  -0.5773503   0.0000000), wk =   0.0277778
        k(    8) = (   0.0000000  -0.5773503   0.2416504), wk =   0.0555556
        k(    9) = (   0.1666667   0.2886751   0.0000000), wk =   0.0555556
        k(   10) = (   0.1666667   0.2886751   0.2416504), wk =   0.0555556
        k(   11) = (   0.1666667   0.4811252   0.0000000), wk =   0.1111111
        k(   12) = (   0.1666667   0.4811252   0.2416504), wk =   0.1111111
        k(   13) = (   0.3333333   0.5773503   0.0000000), wk =   0.0185185
        k(   14) = (   0.3333333   0.5773503   0.2416504), wk =   0.0185185
        k(   15) = (  -0.1666667  -0.2886751   0.2416504), wk =   0.0555556
        k(   16) = (  -0.1666667  -0.4811252   0.2416504), wk =   0.1111111
        k(   17) = (  -0.3333333  -0.5773503   0.2416504), wk =   0.0185185

                       cryst. coord.
        k(    1) = (   0.0000000   0.0000000   0.0000000), wk =   0.0092593
        k(    2) = (   0.0000000   0.0000000   0.3333333), wk =   0.0185185
        k(    3) = (   0.0000000   0.1666667   0.0000000), wk =   0.0555556
        k(    4) = (   0.0000000   0.1666667   0.3333333), wk =   0.1111111
        k(    5) = (   0.0000000   0.3333333   0.0000000), wk =   0.0555556
        k(    6) = (   0.0000000   0.3333333   0.3333333), wk =   0.1111111
        k(    7) = (   0.0000000  -0.5000000   0.0000000), wk =   0.0277778
        k(    8) = (   0.0000000  -0.5000000   0.3333333), wk =   0.0555556
        k(    9) = (   0.1666667   0.1666667   0.0000000), wk =   0.0555556
        k(   10) = (   0.1666667   0.1666667   0.3333333), wk =   0.0555556
        k(   11) = (   0.1666667   0.3333333   0.0000000), wk =   0.1111111
        k(   12) = (   0.1666667   0.3333333   0.3333333), wk =   0.1111111
        k(   13) = (   0.3333333   0.3333333   0.0000000), wk =   0.0185185
        k(   14) = (   0.3333333   0.3333333   0.3333333), wk =   0.0185185
        k(   15) = (  -0.1666667  -0.1666667   0.3333333), wk =   0.0555556
        k(   16) = (  -0.1666667  -0.3333333   0.3333333), wk =   0.1111111
        k(   17) = (  -0.3333333  -0.3333333   0.3333333), wk =   0.0185185

     Dense  grid:   178951 G-vectors     FFT dimensions: (  72,  72,  96)

     Smooth grid:    63407 G-vectors     FFT dimensions: (  48,  48,  72)

     Dynamical RAM for                 wfc:       7.73 MB

     Dynamical RAM for     wfc (w. buffer):     270.67 MB

     Dynamical RAM for           str. fact:       8.19 MB

     Dynamical RAM for           local pot:       0.00 MB

     Dynamical RAM for          nlocal pot:      13.29 MB

     Dynamical RAM for                qrad:       5.27 MB

     Dynamical RAM for          rho,v,vnew:      39.16 MB

     Dynamical RAM for               rhoin:      13.05 MB

     Dynamical RAM for            rho*nmix:      87.38 MB

     Dynamical RAM for           G-vectors:      10.72 MB

     Dynamical RAM for          h,s,v(r/c):       0.75 MB

     Dynamical RAM for          <psi|beta>:       0.11 MB

     Dynamical RAM for                 psi:      15.47 MB

     Dynamical RAM for                hpsi:      15.47 MB

     Dynamical RAM for                spsi:      15.47 MB

     Dynamical RAM for      wfcinit/wfcrot:      15.56 MB

     Dynamical RAM for           addusdens:     527.00 MB

     Dynamical RAM for          addusforce:     554.35 MB

     Estimated static dynamical RAM per process >     394.07 MB

     Estimated max dynamical RAM per process >       1.01 GB

     Check: negative core charge=   -0.000008
     Generating pointlists ...
     new r_m :   0.1587 (alat units)  1.4998 (a.u.) for type    1
     new r_m :   0.1587 (alat units)  1.4998 (a.u.) for type    2
     new r_m :   0.2141 (alat units)  2.0238 (a.u.) for type    3

     Initial potential from superposition of free atoms

     starting charge      95.9928, renormalised to      96.0000
     Starting wfcs are   59 randomized atomic wfcs +    5 random wfcs
     Checking if some PAW data can be deallocated... 

     total cpu time spent up to now is        5.4 secs

     Self-consistent Calculation
[tb_dev] Currently allocated     9.94E-01 Mbytes, locked:    0 /   6
[tb_pin] Currently allocated     0.00E+00 Mbytes, locked:    0 /   0

     iteration #  1     ecut=    60.00 Ry     beta= 0.30
     Davidson diagonalization with overlap

---- Real-time Memory Report at c_bands before calling an iterative solver
           970 MiB given to the printing process from OS
             0 MiB allocation reported by mallinfo(arena+hblkhd)
        847254 MiB available memory on the node where the printing process lives
     GPU memory used/free/total (MiB): 1616 / 79534 / 81151
------------------
     ethr =  1.00E-02,  avg # of iterations =  9.7

     total cpu time spent up to now is        9.1 secs

     total energy              =   -1486.74469032 Ry
     estimated scf accuracy    <       6.13779295 Ry

     total magnetization       =    14.00 Bohr mag/cell
     absolute magnetization    =    14.00 Bohr mag/cell
[tb_dev] Currently allocated     7.63E-05 Mbytes, locked:    0 /   2
[tb_pin] Currently allocated     0.00E+00 Mbytes, locked:    0 /   0

     iteration #  2     ecut=    60.00 Ry     beta= 0.30
     Davidson diagonalization with overlap

---- Real-time Memory Report at c_bands before calling an iterative solver
          1026 MiB given to the printing process from OS
             0 MiB allocation reported by mallinfo(arena+hblkhd)
        847155 MiB available memory on the node where the printing process lives
     GPU memory used/free/total (MiB): 1666 / 79484 / 81151
------------------
     ethr =  6.39E-03,  avg # of iterations =  2.0

     total cpu time spent up to now is       11.7 secs

     total energy              =   -1487.44673068 Ry
     estimated scf accuracy    <      17.91086348 Ry

     total magnetization       =     1.64 Bohr mag/cell
     absolute magnetization    =     2.00 Bohr mag/cell
[tb_dev] Currently allocated     7.63E-05 Mbytes, locked:    0 /   2
[tb_pin] Currently allocated     0.00E+00 Mbytes, locked:    0 /   0

     iteration #  3     ecut=    60.00 Ry     beta= 0.30
     Davidson diagonalization with overlap

---- Real-time Memory Report at c_bands before calling an iterative solver
          1032 MiB given to the printing process from OS
             0 MiB allocation reported by mallinfo(arena+hblkhd)
        847145 MiB available memory on the node where the printing process lives
     GPU memory used/free/total (MiB): 1666 / 79484 / 81151
------------------
     ethr =  6.39E-03,  avg # of iterations =  1.0

     total cpu time spent up to now is       14.1 secs

     total energy              =   -1488.82787427 Ry
     estimated scf accuracy    <       0.47313693 Ry

     total magnetization       =     8.53 Bohr mag/cell
     absolute magnetization    =     8.56 Bohr mag/cell
[tb_dev] Currently allocated     7.63E-05 Mbytes, locked:    0 /   2
[tb_pin] Currently allocated     0.00E+00 Mbytes, locked:    0 /   0

     iteration #  4     ecut=    60.00 Ry     beta= 0.30
     Davidson diagonalization with overlap

---- Real-time Memory Report at c_bands before calling an iterative solver
          1036 MiB given to the printing process from OS
             0 MiB allocation reported by mallinfo(arena+hblkhd)
        847139 MiB available memory on the node where the printing process lives
     GPU memory used/free/total (MiB): 1666 / 79484 / 81151
------------------
     c_bands:  1 eigenvalues not converged
     ethr =  4.93E-04,  avg # of iterations =  7.6

     total cpu time spent up to now is       17.6 secs

     total energy              =   -1489.01102652 Ry
     estimated scf accuracy    <       0.83861896 Ry

     total magnetization       =     5.52 Bohr mag/cell
     absolute magnetization    =     5.99 Bohr mag/cell
[tb_dev] Currently allocated     7.63E-05 Mbytes, locked:    0 /   2
[tb_pin] Currently allocated     0.00E+00 Mbytes, locked:    0 /   0

     iteration #  5     ecut=    60.00 Ry     beta= 0.30
     Davidson diagonalization with overlap

---- Real-time Memory Report at c_bands before calling an iterative solver
          1045 MiB given to the printing process from OS
             0 MiB allocation reported by mallinfo(arena+hblkhd)
        847140 MiB available memory on the node where the printing process lives
     GPU memory used/free/total (MiB): 1666 / 79484 / 81151
------------------
     ethr =  4.93E-04,  avg # of iterations =  2.0

     total cpu time spent up to now is       20.1 secs

     total energy              =   -1489.10836091 Ry
     estimated scf accuracy    <       0.59381988 Ry

     total magnetization       =     4.73 Bohr mag/cell
     absolute magnetization    =     5.38 Bohr mag/cell
[tb_dev] Currently allocated     7.63E-05 Mbytes, locked:    0 /   2
[tb_pin] Currently allocated     0.00E+00 Mbytes, locked:    0 /   0

     iteration #  6     ecut=    60.00 Ry     beta= 0.30
     Davidson diagonalization with overlap

---- Real-time Memory Report at c_bands before calling an iterative solver
          1049 MiB given to the printing process from OS
             0 MiB allocation reported by mallinfo(arena+hblkhd)
        847178 MiB available memory on the node where the printing process lives
     GPU memory used/free/total (MiB): 1666 / 79484 / 81151
------------------
     ethr =  4.93E-04,  avg # of iterations =  2.2

     negative rho (up, down):  1.309E-04 5.376E-04

     total cpu time spent up to now is       22.7 secs

     total energy              =   -1489.25783290 Ry
     estimated scf accuracy    <       0.20018697 Ry

     total magnetization       =     2.60 Bohr mag/cell
     absolute magnetization    =     3.93 Bohr mag/cell
[tb_dev] Currently allocated     7.63E-05 Mbytes, locked:    0 /   2
[tb_pin] Currently allocated     0.00E+00 Mbytes, locked:    0 /   0

     iteration #  7     ecut=    60.00 Ry     beta= 0.30
     Davidson diagonalization with overlap

---- Real-time Memory Report at c_bands before calling an iterative solver
          1058 MiB given to the printing process from OS
             0 MiB allocation reported by mallinfo(arena+hblkhd)
        847196 MiB available memory on the node where the printing process lives
     GPU memory used/free/total (MiB): 1666 / 79484 / 81151
------------------
     c_bands:  1 eigenvalues not converged
     ethr =  2.09E-04,  avg # of iterations =  6.2

     total cpu time spent up to now is       25.9 secs

     total energy              =   -1489.29002462 Ry
     estimated scf accuracy    <       0.02436249 Ry

     total magnetization       =     2.37 Bohr mag/cell
     absolute magnetization    =     2.71 Bohr mag/cell
[tb_dev] Currently allocated     7.63E-05 Mbytes, locked:    0 /   2
[tb_pin] Currently allocated     0.00E+00 Mbytes, locked:    0 /   0

     iteration #  8     ecut=    60.00 Ry     beta= 0.30
     Davidson diagonalization with overlap

---- Real-time Memory Report at c_bands before calling an iterative solver
          1063 MiB given to the printing process from OS
             0 MiB allocation reported by mallinfo(arena+hblkhd)
        847205 MiB available memory on the node where the printing process lives
     GPU memory used/free/total (MiB): 1666 / 79484 / 81151
------------------
     c_bands:  1 eigenvalues not converged
     c_bands:  1 eigenvalues not converged
     c_bands:  1 eigenvalues not converged
     c_bands:  2 eigenvalues not converged
     c_bands:  1 eigenvalues not converged
     ethr =  2.54E-05,  avg # of iterations = 12.9

     total cpu time spent up to now is       30.4 secs

     total energy              =   -1489.31041657 Ry
     estimated scf accuracy    <       0.07478912 Ry

     total magnetization       =     2.00 Bohr mag/cell
     absolute magnetization    =     2.72 Bohr mag/cell
[tb_dev] Currently allocated     7.63E-05 Mbytes, locked:    0 /   2
[tb_pin] Currently allocated     0.00E+00 Mbytes, locked:    0 /   0

     iteration #  9     ecut=    60.00 Ry     beta= 0.30
     Davidson diagonalization with overlap

---- Real-time Memory Report at c_bands before calling an iterative solver
          1069 MiB given to the printing process from OS
             0 MiB allocation reported by mallinfo(arena+hblkhd)
        847206 MiB available memory on the node where the printing process lives
     GPU memory used/free/total (MiB): 1666 / 79484 / 81151
------------------
     ethr =  2.54E-05,  avg # of iterations =  2.3

     total cpu time spent up to now is       33.0 secs

     total energy              =   -1489.31945815 Ry
     estimated scf accuracy    <       0.03734857 Ry

     total magnetization       =     2.03 Bohr mag/cell
     absolute magnetization    =     2.47 Bohr mag/cell
[tb_dev] Currently allocated     7.63E-05 Mbytes, locked:    0 /   2
[tb_pin] Currently allocated     0.00E+00 Mbytes, locked:    0 /   0

     iteration # 10     ecut=    60.00 Ry     beta= 0.30
     Davidson diagonalization with overlap

---- Real-time Memory Report at c_bands before calling an iterative solver
          1073 MiB given to the printing process from OS
             0 MiB allocation reported by mallinfo(arena+hblkhd)
        847506 MiB available memory on the node where the printing process lives
     GPU memory used/free/total (MiB): 1666 / 79484 / 81151
------------------
     ethr =  2.54E-05,  avg # of iterations =  1.6

     total cpu time spent up to now is       35.8 secs

     total energy              =   -1489.32301132 Ry
     estimated scf accuracy    <       0.00341087 Ry

     total magnetization       =     2.39 Bohr mag/cell
     absolute magnetization    =     2.45 Bohr mag/cell
[tb_dev] Currently allocated     7.63E-05 Mbytes, locked:    0 /   2
[tb_pin] Currently allocated     0.00E+00 Mbytes, locked:    0 /   0

     iteration # 11     ecut=    60.00 Ry     beta= 0.30
     Davidson diagonalization with overlap

---- Real-time Memory Report at c_bands before calling an iterative solver
          1074 MiB given to the printing process from OS
             0 MiB allocation reported by mallinfo(arena+hblkhd)
        847314 MiB available memory on the node where the printing process lives
     GPU memory used/free/total (MiB): 1666 / 79484 / 81151
------------------
     c_bands:  1 eigenvalues not converged
     ethr =  3.55E-06,  avg # of iterations =  8.6

     total cpu time spent up to now is       39.8 secs

     total energy              =   -1489.32268549 Ry
     estimated scf accuracy    <       0.00124579 Ry

     total magnetization       =     2.37 Bohr mag/cell
     absolute magnetization    =     2.42 Bohr mag/cell
[tb_dev] Currently allocated     7.63E-05 Mbytes, locked:    0 /   2
[tb_pin] Currently allocated     0.00E+00 Mbytes, locked:    0 /   0

     iteration # 12     ecut=    60.00 Ry     beta= 0.30
     Davidson diagonalization with overlap

---- Real-time Memory Report at c_bands before calling an iterative solver
          1074 MiB given to the printing process from OS
             0 MiB allocation reported by mallinfo(arena+hblkhd)
        846806 MiB available memory on the node where the printing process lives
     GPU memory used/free/total (MiB): 1666 / 79484 / 81151
------------------
     ethr =  1.30E-06,  avg # of iterations =  6.5

     total cpu time spent up to now is       43.3 secs

     total energy              =   -1489.32473763 Ry
     estimated scf accuracy    <       0.00684090 Ry

     total magnetization       =     2.42 Bohr mag/cell
     absolute magnetization    =     2.44 Bohr mag/cell
[tb_dev] Currently allocated     7.63E-05 Mbytes, locked:    0 /   2
[tb_pin] Currently allocated     0.00E+00 Mbytes, locked:    0 /   0

     iteration # 13     ecut=    60.00 Ry     beta= 0.30
     Davidson diagonalization with overlap

---- Real-time Memory Report at c_bands before calling an iterative solver
          1075 MiB given to the printing process from OS
             0 MiB allocation reported by mallinfo(arena+hblkhd)
        846803 MiB available memory on the node where the printing process lives
     GPU memory used/free/total (MiB): 1666 / 79484 / 81151
------------------
     ethr =  1.30E-06,  avg # of iterations =  4.0

     total cpu time spent up to now is       46.2 secs

     total energy              =   -1489.32526196 Ry
     estimated scf accuracy    <       0.00076946 Ry

     total magnetization       =     2.35 Bohr mag/cell
     absolute magnetization    =     2.38 Bohr mag/cell
[tb_dev] Currently allocated     7.63E-05 Mbytes, locked:    0 /   2
[tb_pin] Currently allocated     0.00E+00 Mbytes, locked:    0 /   0

     iteration # 14     ecut=    60.00 Ry     beta= 0.30
     Davidson diagonalization with overlap

---- Real-time Memory Report at c_bands before calling an iterative solver
          1077 MiB given to the printing process from OS
             0 MiB allocation reported by mallinfo(arena+hblkhd)
        846665 MiB available memory on the node where the printing process lives
     GPU memory used/free/total (MiB): 1666 / 79484 / 81151
------------------
     ethr =  8.02E-07,  avg # of iterations =  1.6

     total cpu time spent up to now is       48.7 secs

     total energy              =   -1489.32529129 Ry
     estimated scf accuracy    <       0.00009149 Ry

     total magnetization       =     2.31 Bohr mag/cell
     absolute magnetization    =     2.35 Bohr mag/cell
[tb_dev] Currently allocated     7.63E-05 Mbytes, locked:    0 /   2
[tb_pin] Currently allocated     0.00E+00 Mbytes, locked:    0 /   0

     iteration # 15     ecut=    60.00 Ry     beta= 0.30
     Davidson diagonalization with overlap

---- Real-time Memory Report at c_bands before calling an iterative solver
          1077 MiB given to the printing process from OS
             0 MiB allocation reported by mallinfo(arena+hblkhd)
        847126 MiB available memory on the node where the printing process lives
     GPU memory used/free/total (MiB): 1666 / 79484 / 81151
------------------
     ethr =  9.53E-08,  avg # of iterations =  5.9

     total cpu time spent up to now is       52.0 secs

     total energy              =   -1489.32533088 Ry
     estimated scf accuracy    <       0.00006001 Ry

     total magnetization       =     2.28 Bohr mag/cell
     absolute magnetization    =     2.32 Bohr mag/cell
[tb_dev] Currently allocated     7.63E-05 Mbytes, locked:    0 /   2
[tb_pin] Currently allocated     0.00E+00 Mbytes, locked:    0 /   0

     iteration # 16     ecut=    60.00 Ry     beta= 0.30
     Davidson diagonalization with overlap

---- Real-time Memory Report at c_bands before calling an iterative solver
          1077 MiB given to the printing process from OS
             0 MiB allocation reported by mallinfo(arena+hblkhd)
        846977 MiB available memory on the node where the printing process lives
     GPU memory used/free/total (MiB): 1666 / 79484 / 81151
------------------
     ethr =  6.25E-08,  avg # of iterations =  4.0

     total cpu time spent up to now is       54.9 secs

     total energy              =   -1489.32534549 Ry
     estimated scf accuracy    <       0.00000175 Ry

     total magnetization       =     2.30 Bohr mag/cell
     absolute magnetization    =     2.34 Bohr mag/cell
[tb_dev] Currently allocated     7.63E-05 Mbytes, locked:    0 /   2
[tb_pin] Currently allocated     0.00E+00 Mbytes, locked:    0 /   0

     iteration # 17     ecut=    60.00 Ry     beta= 0.30
     Davidson diagonalization with overlap

---- Real-time Memory Report at c_bands before calling an iterative solver
          1077 MiB given to the printing process from OS
             0 MiB allocation reported by mallinfo(arena+hblkhd)
        846483 MiB available memory on the node where the printing process lives
     GPU memory used/free/total (MiB): 1666 / 79484 / 81151
------------------
     ethr =  1.83E-09,  avg # of iterations = 14.5

     total cpu time spent up to now is       59.7 secs

     total energy              =   -1489.32535013 Ry
     estimated scf accuracy    <       0.00000119 Ry

     total magnetization       =     2.30 Bohr mag/cell
     absolute magnetization    =     2.34 Bohr mag/cell
[tb_dev] Currently allocated     7.63E-05 Mbytes, locked:    0 /   2
[tb_pin] Currently allocated     0.00E+00 Mbytes, locked:    0 /   0

     iteration # 18     ecut=    60.00 Ry     beta= 0.30
     Davidson diagonalization with overlap

---- Real-time Memory Report at c_bands before calling an iterative solver
          1077 MiB given to the printing process from OS
             0 MiB allocation reported by mallinfo(arena+hblkhd)
        846449 MiB available memory on the node where the printing process lives
     GPU memory used/free/total (MiB): 1666 / 79484 / 81151
------------------
     ethr =  1.24E-09,  avg # of iterations =  2.1

     total cpu time spent up to now is       62.2 secs

     total energy              =   -1489.32535047 Ry
     estimated scf accuracy    <       0.00000015 Ry

     total magnetization       =     2.30 Bohr mag/cell
     absolute magnetization    =     2.34 Bohr mag/cell
[tb_dev] Currently allocated     7.63E-05 Mbytes, locked:    0 /   2
[tb_pin] Currently allocated     0.00E+00 Mbytes, locked:    0 /   0

     iteration # 19     ecut=    60.00 Ry     beta= 0.30
     Davidson diagonalization with overlap

---- Real-time Memory Report at c_bands before calling an iterative solver
          1077 MiB given to the printing process from OS
             0 MiB allocation reported by mallinfo(arena+hblkhd)
        846460 MiB available memory on the node where the printing process lives
     GPU memory used/free/total (MiB): 1666 / 79484 / 81151
------------------
     ethr =  1.61E-10,  avg # of iterations =  9.4

     total cpu time spent up to now is       66.1 secs

     total energy              =   -1489.32535065 Ry
     estimated scf accuracy    <       0.00000006 Ry

     total magnetization       =     2.30 Bohr mag/cell
     absolute magnetization    =     2.34 Bohr mag/cell
[tb_dev] Currently allocated     7.63E-05 Mbytes, locked:    0 /   2
[tb_pin] Currently allocated     0.00E+00 Mbytes, locked:    0 /   0

     iteration # 20     ecut=    60.00 Ry     beta= 0.30
     Davidson diagonalization with overlap

---- Real-time Memory Report at c_bands before calling an iterative solver
          1078 MiB given to the printing process from OS
             0 MiB allocation reported by mallinfo(arena+hblkhd)
        846440 MiB available memory on the node where the printing process lives
     GPU memory used/free/total (MiB): 1666 / 79484 / 81151
------------------
     ethr =  6.08E-11,  avg # of iterations =  4.9

     total cpu time spent up to now is       69.1 secs

     total energy              =   -1489.32535068 Ry
     estimated scf accuracy    <       0.00000001 Ry

     total magnetization       =     2.30 Bohr mag/cell
     absolute magnetization    =     2.34 Bohr mag/cell
[tb_dev] Currently allocated     7.63E-05 Mbytes, locked:    0 /   2
[tb_pin] Currently allocated     0.00E+00 Mbytes, locked:    0 /   0

     iteration # 21     ecut=    60.00 Ry     beta= 0.30
     Davidson diagonalization with overlap

---- Real-time Memory Report at c_bands before calling an iterative solver
          1078 MiB given to the printing process from OS
             0 MiB allocation reported by mallinfo(arena+hblkhd)
        846452 MiB available memory on the node where the printing process lives
     GPU memory used/free/total (MiB): 1666 / 79484 / 81151
------------------
     ethr =  1.34E-11,  avg # of iterations =  8.5
 
     Magnetic moment per site  (integrated on atomic sphere of radius R)
     atom   1 (R=0.159)  charge= 14.0984  magn=  0.5914
     atom   2 (R=0.159)  charge= 14.0984  magn=  0.5914
     atom   3 (R=0.159)  charge= 14.0984  magn=  0.5914
     atom   4 (R=0.159)  charge=  5.2235  magn=  0.0451
     atom   5 (R=0.159)  charge=  5.2131  magn=  0.0699
     atom   6 (R=0.159)  charge=  5.2131  magn=  0.0699
     atom   7 (R=0.159)  charge=  5.2388  magn=  0.0541
     atom   8 (R=0.159)  charge=  5.2388  magn=  0.0541
     atom   9 (R=0.159)  charge=  5.2388  magn=  0.0541
     atom  10 (R=0.214)  charge=  7.9807  magn=  0.0016

     total cpu time spent up to now is       72.8 secs

     End of self-consistent calculation

 ------ SPIN UP ------------


          k = 0.0000 0.0000 0.0000 (  7923 PWs)   bands (ev):

   -91.3707 -91.3651 -91.3651 -54.6151 -54.6133 -54.6133 -54.6131 -54.5935
   -54.5905 -54.5905 -54.5702 -54.5702 -47.3067 -19.2282 -19.2282 -19.1814
   -14.8692 -13.2488 -13.2488 -13.1605 -13.1076 -12.9609  -1.1876  -1.0430
    -0.9421  -0.8883  -0.8883  -0.6726  -0.6726  -0.5439  -0.5439   0.9933
     0.9933   1.0742   1.1600   1.4376   1.4376   2.4331   2.8113   2.8113
     2.8455   2.8455   3.0160   3.0160   3.8810   3.8810   3.9091   3.9157
     4.0301   5.9424   6.0041   6.0041   6.0150   6.7406   6.7406   7.6889
    12.5965  13.2104  14.1782  14.1782  15.0948  15.0948  15.5498  15.8727

     occupation numbers 
     1.0000   1.0000   1.0000   1.0000   1.0000   1.0000   1.0000   1.0000
     1.0000   1.0000   1.0000   1.0000   1.0000   1.0000   1.0000   1.0000
     1.0000   1.0000   1.0000   1.0000   1.0000   1.0000   1.0000   1.0000
     1.0000   1.0000   1.0000   1.0000   1.0000   1.0000   1.0000   1.0000
     1.0000   1.0000   1.0000   1.0000   1.0000   1.0000   1.0000   1.0000
     1.0000   1.0000   1.0000   1.0000   1.0182   1.0182   1.0244   1.0260
     1.0622   0.0000   0.0000   0.0000   0.0000   0.0000   0.0000   0.0000
     0.0000   0.0000   0.0000   0.0000   0.0000   0.0000   0.0000   0.0000

          k = 0.0000 0.0000 0.2417 (  7928 PWs)   bands (ev):

   -91.3707 -91.3651 -91.3651 -54.6150 -54.6132 -54.6132 -54.6131 -54.5936
   -54.5906 -54.5906 -54.5704 -54.5704 -47.3067 -19.2281 -19.2281 -19.1818
   -14.8670 -13.2488 -13.2488 -13.1608 -13.1076 -12.9637  -1.1533  -1.0434
    -0.9436  -0.8899  -0.8899  -0.6727  -0.6727  -0.5422  -0.5422   0.9955
     0.9955   1.0781   1.1619   1.4342   1.4342   2.2884   2.8117   2.8117
     2.8454   2.8454   3.0160   3.0160   3.8792   3.8792   3.9065   3.9140
     4.0766   5.9562   6.0127   6.0127   6.0227   6.7403   6.7403   8.0583
    11.3285  14.1229  14.1229  14.2008  15.0312  15.0312  15.5637  15.8324

     occupation numbers 
     1.0000   1.0000   1.0000   1.0000   1.0000   1.0000   1.0000   1.0000
     1.0000   1.0000   1.0000   1.0000   1.0000   1.0000   1.0000   1.0000
     1.0000   1.0000   1.0000   1.0000   1.0000   1.0000   1.0000   1.0000
     1.0000   1.0000   1.0000   1.0000   1.0000   1.0000   1.0000   1.0000
     1.0000   1.0000   1.0000   1.0000   1.0000   1.0000   1.0000   1.0000
     1.0000   1.0000   1.0000   1.0000   1.0179   1.0179   1.0238   1.0256
     1.0763   0.0000   0.0000   0.0000   0.0000   0.0000   0.0000   0.0000
     0.0000   0.0000   0.0000   0.0000   0.0000   0.0000   0.0000   0.0000

          k = 0.0000 0.1925 0.0000 (  7914 PWs)   bands (ev):

   -91.3703 -91.3654 -91.3653 -54.6220 -54.6192 -54.6054 -54.6040 -54.5923
   -54.5906 -54.5906 -54.5744 -54.5713 -47.3066 -19.2284 -19.2282 -19.1814
   -14.7663 -13.3572 -13.2862 -13.1576 -13.0981 -12.9634  -1.3882  -1.1351
    -1.0489  -0.9429  -0.8222  -0.7753  -0.6037  -0.1658   0.0171   0.7270
     0.7825   0.9270   1.0231   1.7378   1.8160   2.1705   2.2736   2.6778
     2.8936   2.9599   3.2408   3.4434   3.6399   3.6538   3.9899   4.0582
     4.0795   5.9639   6.0167   6.0448   6.0949   6.4658   6.6641   7.9604
    12.7588  12.9174  13.5572  13.6206  14.4222  15.7544  16.2296  16.4888

     occupation numbers 
     1.0000   1.0000   1.0000   1.0000   1.0000   1.0000   1.0000   1.0000
     1.0000   1.0000   1.0000   1.0000   1.0000   1.0000   1.0000   1.0000
     1.0000   1.0000   1.0000   1.0000   1.0000   1.0000   1.0000   1.0000
     1.0000   1.0000   1.0000   1.0000   1.0000   1.0000   1.0000   1.0000
     1.0000   1.0000   1.0000   1.0000   1.0000   1.0000   1.0000   1.0000
     1.0000   1.0000   1.0000   1.0000   1.0006   1.0007   1.0484   1.0712
     1.0769   0.0000   0.0000   0.0000   0.0000   0.0000   0.0000   0.0000
     0.0000   0.0000   0.0000   0.0000   0.0000   0.0000   0.0000   0.0000

          k = 0.0000 0.1925 0.2417 (  7936 PWs)   bands (ev):

   -91.3703 -91.3654 -91.3653 -54.6220 -54.6192 -54.6053 -54.6041 -54.5924
   -54.5907 -54.5906 -54.5744 -54.5714 -47.3067 -19.2284 -19.2282 -19.1817
   -14.7643 -13.3568 -13.2861 -13.1582 -13.0983 -12.9659  -1.3906  -1.1344
    -1.0167  -0.9459  -0.8240  -0.7792  -0.6038  -0.1649   0.0174   0.7266
     0.7814   0.9340   1.0241   1.7422   1.8161   2.1715   2.2572   2.5703
     2.8934   2.9600   3.2407   3.4404   3.6410   3.6548   3.9853   4.0525
     4.1289   5.9782   6.0227   6.0474   6.1028   6.4449   6.6676   8.2930
    11.6797  12.7519  13.5195  14.3478  14.5805  15.7918  16.2814  16.5166

     occupation numbers 
     1.0000   1.0000   1.0000   1.0000   1.0000   1.0000   1.0000   1.0000
     1.0000   1.0000   1.0000   1.0000   1.0000   1.0000   1.0000   1.0000
     1.0000   1.0000   1.0000   1.0000   1.0000   1.0000   1.0000   1.0000
     1.0000   1.0000   1.0000   1.0000   1.0000   1.0000   1.0000   1.0000
     1.0000   1.0000   1.0000   1.0000   1.0000   1.0000   1.0000   1.0000
     1.0000   1.0000   1.0000   1.0000   1.0006   1.0007   1.0468   1.0695
     1.0833   0.0000   0.0000   0.0000   0.0000   0.0000   0.0000   0.0000
     0.0000   0.0000   0.0000   0.0000   0.0000   0.0000   0.0000   0.0000

          k = 0.0000 0.3849 0.0000 (  7930 PWs)   bands (ev):

   -91.3691 -91.3662 -91.3656 -54.6276 -54.6171 -54.5999 -54.5971 -54.5960
   -54.5901 -54.5872 -54.5810 -54.5742 -47.3067 -19.2287 -19.2284 -19.1813
   -14.4803 -13.6635 -13.3312 -13.1968 -13.0501 -12.9735  -1.7969  -1.0412
    -0.9568  -0.9188  -0.7205  -0.5684  -0.4433   0.0414   0.2817   0.5661
     0.6515   0.7682   1.1649   1.1827   1.6546   2.0157   2.3898   2.9740
     2.9971   3.3130   3.3738   3.3911   3.4223   3.8041   3.8445   4.0659
     4.1135   5.9645   5.9837   6.0110   6.0432   6.4138   6.4355   8.6780
    11.1578  13.1040  13.3905  13.8216  14.4702  15.0718  15.7403  16.7182

     occupation numbers 
     1.0000   1.0000   1.0000   1.0000   1.0000   1.0000   1.0000   1.0000
     1.0000   1.0000   1.0000   1.0000   1.0000   1.0000   1.0000   1.0000
     1.0000   1.0000   1.0000   1.0000   1.0000   1.0000   1.0000   1.0000
     1.0000   1.0000   1.0000   1.0000   1.0000   1.0000   1.0000   1.0000
     1.0000   1.0000   1.0000   1.0000   1.0000   1.0000   1.0000   1.0000
     1.0000   1.0000   1.0000   1.0000   1.0000   1.0073   1.0121   1.0734
     1.0827   0.0000   0.0000   0.0000   0.0000   0.0000   0.0000   0.0000
     0.0000   0.0000   0.0000   0.0000   0.0000   0.0000   0.0000   0.0000

          k = 0.0000 0.3849 0.2417 (  7917 PWs)   bands (ev):

   -91.3691 -91.3662 -91.3656 -54.6276 -54.6172 -54.5998 -54.5971 -54.5959
   -54.5901 -54.5871 -54.5809 -54.5742 -47.3066 -19.2287 -19.2283 -19.1814
   -14.4785 -13.6627 -13.3310 -13.1973 -13.0512 -12.9752  -1.7997  -1.0508
    -0.9643  -0.9211  -0.6928  -0.5709  -0.4432   0.0424   0.2800   0.5814
     0.6526   0.7683   1.1660   1.1884   1.6541   2.0297   2.3888   2.9113
     2.9889   3.3129   3.3761   3.3925   3.4247   3.7920   3.8402   4.1004
     4.1051   5.9255   5.9663   6.0208   6.0522   6.4174   6.4529   8.8971
    11.1275  12.5752  12.9493  13.7532  15.0241  15.4725  16.1662  16.8148

     occupation numbers 
     1.0000   1.0000   1.0000   1.0000   1.0000   1.0000   1.0000   1.0000
     1.0000   1.0000   1.0000   1.0000   1.0000   1.0000   1.0000   1.0000
     1.0000   1.0000   1.0000   1.0000   1.0000   1.0000   1.0000   1.0000
     1.0000   1.0000   1.0000   1.0000   1.0000   1.0000   1.0000   1.0000
     1.0000   1.0000   1.0000   1.0000   1.0000   1.0000   1.0000   1.0000
     1.0000   1.0000   1.0000   1.0000   1.0000   1.0062   1.0115   1.0811
     1.0818   0.0000   0.0000   0.0000   0.0000   0.0000   0.0000   0.0000
     0.0000   0.0000   0.0000   0.0000   0.0000   0.0000   0.0000   0.0000

          k = 0.0000-0.5774 0.0000 (  7928 PWs)   bands (ev):

   -91.3676 -91.3676 -91.3657 -54.6297 -54.6080 -54.6068 -54.5969 -54.5962
   -54.5882 -54.5879 -54.5793 -54.5773 -47.3066 -19.2289 -19.2286 -19.1812
   -14.0946 -14.0602 -13.3496 -13.2189 -13.0171 -12.9886  -1.9475  -1.0751
    -1.0162  -0.5610  -0.5402  -0.3028  -0.2395  -0.1695  -0.0310   0.4861
     0.5215   0.6872   1.0897   1.0988   1.5444   2.1095   2.8930   2.8990
     2.9936   3.2626   3.3320   3.3448   3.6984   3.8140   3.8396   4.0092
     4.0423   5.8255   5.8523   6.0227   6.1477   6.1924   6.6162   9.5591
     9.9555  12.9221  13.5067  14.0838  14.2809  15.4336  15.6106  15.7327

     occupation numbers 
     1.0000   1.0000   1.0000   1.0000   1.0000   1.0000   1.0000   1.0000
     1.0000   1.0000   1.0000   1.0000   1.0000   1.0000   1.0000   1.0000
     1.0000   1.0000   1.0000   1.0000   1.0000   1.0000   1.0000   1.0000
     1.0000   1.0000   1.0000   1.0000   1.0000   1.0000   1.0000   1.0000
     1.0000   1.0000   1.0000   1.0000   1.0000   1.0000   1.0000   1.0000
     1.0000   1.0000   1.0000   1.0000   1.0015   1.0083   1.0114   1.0550
     1.0663   0.0000   0.0000   0.0000   0.0000   0.0000   0.0000   0.0000
     0.0000   0.0000   0.0000   0.0000   0.0000   0.0000   0.0000   0.0000

          k = 0.0000-0.5774 0.2417 (  7914 PWs)   bands (ev):

   -91.3676 -91.3676 -91.3657 -54.6296 -54.6081 -54.6069 -54.5968 -54.5962
   -54.5881 -54.5879 -54.5792 -54.5772 -47.3066 -19.2290 -19.2283 -19.1813
   -14.0923 -14.0599 -13.3493 -13.2193 -13.0194 -12.9890  -1.9503  -1.0897
    -1.0248  -0.5592  -0.5370  -0.3079  -0.2275  -0.1620  -0.0309   0.5034
     0.5336   0.6891   1.0895   1.0985   1.5446   2.1289   2.8794   2.8800
     2.9918   3.2626   3.3330   3.3461   3.6956   3.8305   3.8519   3.9885
     4.0260   5.7765   5.8156   6.0228   6.1768   6.2150   6.6159   9.6478
    10.0350  12.7349  13.4372  13.7334  13.8752  15.7964  16.3946  16.5389

     occupation numbers 
     1.0000   1.0000   1.0000   1.0000   1.0000   1.0000   1.0000   1.0000
     1.0000   1.0000   1.0000   1.0000   1.0000   1.0000   1.0000   1.0000
     1.0000   1.0000   1.0000   1.0000   1.0000   1.0000   1.0000   1.0000
     1.0000   1.0000   1.0000   1.0000   1.0000   1.0000   1.0000   1.0000
     1.0000   1.0000   1.0000   1.0000   1.0000   1.0000   1.0000   1.0000
     1.0000   1.0000   1.0000   1.0000   1.0015   1.0102   1.0132   1.0479
     1.0608   0.0000   0.0000   0.0000   0.0000   0.0000   0.0000   0.0000
     0.0000   0.0000   0.0000   0.0000   0.0000   0.0000   0.0000   0.0000

          k = 0.1667 0.2887 0.0000 (  7899 PWs)   bands (ev):

   -91.3695 -91.3657 -91.3657 -54.6235 -54.6217 -54.6008 -54.5979 -54.5946
   -54.5903 -54.5878 -54.5800 -54.5730 -47.3066 -19.2286 -19.2283 -19.1812
   -14.5719 -13.4762 -13.4541 -13.1208 -13.0859 -12.9701  -1.4903  -1.4279
    -0.9532  -0.8109  -0.7560  -0.7334  -0.4771   0.1684   0.1765   0.6677
     0.7054   0.8600   0.9026   1.3321   1.9845   2.0641   2.1004   2.8548
     3.1180   3.1218   3.3509   3.4611   3.4615   3.6764   4.0052   4.0063
     4.0931   5.9427   5.9836   6.0284   6.2018   6.2313   6.5907   8.4445
    11.9665  12.2346  13.2491  14.1815  15.2010  15.4010  15.7716  15.8501

     occupation numbers 
     1.0000   1.0000   1.0000   1.0000   1.0000   1.0000   1.0000   1.0000
     1.0000   1.0000   1.0000   1.0000   1.0000   1.0000   1.0000   1.0000
     1.0000   1.0000   1.0000   1.0000   1.0000   1.0000   1.0000   1.0000
     1.0000   1.0000   1.0000   1.0000   1.0000   1.0000   1.0000   1.0000
     1.0000   1.0000   1.0000   1.0000   1.0000   1.0000   1.0000   1.0000
     1.0000   1.0000   1.0000   1.0000   1.0000   1.0011   1.0537   1.0540
     1.0799   0.0000   0.0000   0.0000   0.0000   0.0000   0.0000   0.0000
     0.0000   0.0000   0.0000   0.0000   0.0000   0.0000   0.0000   0.0000

          k = 0.1667 0.2887 0.2417 (  7926 PWs)   bands (ev):

   -91.3694 -91.3657 -91.3657 -54.6236 -54.6218 -54.6008 -54.5980 -54.5946
   -54.5904 -54.5878 -54.5800 -54.5730 -47.3067 -19.2286 -19.2284 -19.1815
   -14.5701 -13.4755 -13.4540 -13.1218 -13.0860 -12.9721  -1.4946  -1.4295
    -0.9623  -0.7871  -0.7537  -0.7364  -0.4771   0.1671   0.1747   0.6757
     0.7114   0.8609   0.9025   1.3376   1.9846   2.0731   2.1064   2.7799
     3.1175   3.1216   3.3303   3.4622   3.4629   3.6765   4.0000   4.0022
     4.1403   5.9262   5.9771   5.9889   6.2112   6.2383   6.5907   8.7424
    11.9302  12.2058  12.2745  15.1129  15.1672  15.3346  15.7390  15.7845

     occupation numbers 
     1.0000   1.0000   1.0000   1.0000   1.0000   1.0000   1.0000   1.0000
     1.0000   1.0000   1.0000   1.0000   1.0000   1.0000   1.0000   1.0000
     1.0000   1.0000   1.0000   1.0000   1.0000   1.0000   1.0000   1.0000
     1.0000   1.0000   1.0000   1.0000   1.0000   1.0000   1.0000   1.0000
     1.0000   1.0000   1.0000   1.0000   1.0000   1.0000   1.0000   1.0000
     1.0000   1.0000   1.0000   1.0000   1.0000   1.0011   1.0518   1.0526
     1.0828   0.0000   0.0000   0.0000   0.0000   0.0000   0.0000   0.0000
     0.0000   0.0000   0.0000   0.0000   0.0000   0.0000   0.0000   0.0000

          k = 0.1667 0.4811 0.0000 (  7898 PWs)   bands (ev):

   -91.3681 -91.3667 -91.3660 -54.6256 -54.6159 -54.6040 -54.5974 -54.5955
   -54.5881 -54.5879 -54.5796 -54.5757 -47.3066 -19.2288 -19.2284 -19.1811
   -14.2284 -13.8208 -13.5360 -13.1192 -13.0372 -12.9885  -1.7282  -1.2441
    -1.0816  -0.6452  -0.5083  -0.4813  -0.2922  -0.0237   0.0207   0.4310
     0.5072   0.6517   1.1250   1.3784   1.5370   2.1980   2.5749   2.9118
     3.1571   3.3524   3.3695   3.3991   3.5627   3.7838   3.8094   3.9748
     3.9966   5.6952   5.8030   5.9366   6.3212   6.4591   6.5363   9.2949
    10.5666  11.7183  13.8223  14.6005  15.0134  15.1800  15.2326  16.2487

     occupation numbers 
     1.0000   1.0000   1.0000   1.0000   1.0000   1.0000   1.0000   1.0000
     1.0000   1.0000   1.0000   1.0000   1.0000   1.0000   1.0000   1.0000
     1.0000   1.0000   1.0000   1.0000   1.0000   1.0000   1.0000   1.0000
     1.0000   1.0000   1.0000   1.0000   1.0000   1.0000   1.0000   1.0000
     1.0000   1.0000   1.0000   1.0000   1.0000   1.0000   1.0000   1.0000
     1.0000   1.0000   1.0000   1.0000   1.0001   1.0055   1.0078   1.0433
     1.0507   0.0000   0.0000   0.0000   0.0000   0.0000   0.0000   0.0000
     0.0000   0.0000   0.0000   0.0000   0.0000   0.0000   0.0000   0.0000

          k = 0.1667 0.4811 0.2417 (  7912 PWs)   bands (ev):

   -91.3681 -91.3668 -91.3660 -54.6256 -54.6160 -54.6040 -54.5974 -54.5956
   -54.5881 -54.5879 -54.5796 -54.5758 -47.3066 -19.2288 -19.2285 -19.1813
   -14.2269 -13.8199 -13.5357 -13.1200 -13.0383 -12.9895  -1.7320  -1.2528
    -1.0935  -0.6481  -0.5012  -0.4772  -0.2894  -0.0217   0.0198   0.4489
     0.5178   0.6581   1.1254   1.3786   1.5372   2.2143   2.5776   2.8934
     3.1556   3.3520   3.3691   3.3850   3.5660   3.7829   3.8027   3.9792
     4.0157   5.6308   5.7665   5.9188   6.3316   6.4649   6.5377   9.4919
    10.6399  11.7469  13.1772  14.3043  14.7603  15.1846  16.0916  16.7383

     occupation numbers 
     1.0000   1.0000   1.0000   1.0000   1.0000   1.0000   1.0000   1.0000
     1.0000   1.0000   1.0000   1.0000   1.0000   1.0000   1.0000   1.0000
     1.0000   1.0000   1.0000   1.0000   1.0000   1.0000   1.0000   1.0000
     1.0000   1.0000   1.0000   1.0000   1.0000   1.0000   1.0000   1.0000
     1.0000   1.0000   1.0000   1.0000   1.0000   1.0000   1.0000   1.0000
     1.0000   1.0000   1.0000   1.0000   1.0001   1.0055   1.0071   1.0448
     1.0573   0.0000   0.0000   0.0000   0.0000   0.0000   0.0000   0.0000
     0.0000   0.0000   0.0000   0.0000   0.0000   0.0000   0.0000   0.0000

          k = 0.3333 0.5774 0.0000 (  7920 PWs)   bands (ev):

   -91.3670 -91.3670 -91.3670 -54.6170 -54.6170 -54.6147 -54.5960 -54.5960
   -54.5889 -54.5865 -54.5771 -54.5771 -47.3066 -19.2287 -19.2287 -19.1812
   -13.9119 -13.8647 -13.8647 -13.0658 -13.0206 -13.0206  -1.4155  -1.3178
    -1.3178  -0.5023  -0.5023  -0.4858  -0.1312  -0.1312  -0.1093   0.3015
     0.4026   0.4026   1.4719   1.4719   1.5031   2.5698   2.5850   2.5850
     3.3436   3.3558   3.3558   3.6071   3.6099   3.6099   3.8164   3.8486
     3.8486   5.6770   5.7434   5.7434   6.5306   6.5306   6.5621   9.9878
    10.5134  10.5134  14.1851  14.5163  14.5163  15.8753  15.9883  15.9883

     occupation numbers 
     1.0000   1.0000   1.0000   1.0000   1.0000   1.0000   1.0000   1.0000
     1.0000   1.0000   1.0000   1.0000   1.0000   1.0000   1.0000   1.0000
     1.0000   1.0000   1.0000   1.0000   1.0000   1.0000   1.0000   1.0000
     1.0000   1.0000   1.0000   1.0000   1.0000   1.0000   1.0000   1.0000
     1.0000   1.0000   1.0000   1.0000   1.0000   1.0000   1.0000   1.0000
     1.0000   1.0000   1.0000   1.0003   1.0003   1.0003   1.0085   1.0127
     1.0127   0.0000   0.0000   0.0000   0.0000   0.0000   0.0000   0.0000
     0.0000   0.0000   0.0000   0.0000   0.0000   0.0000   0.0000   0.0000

          k = 0.3333 0.5774 0.2417 (  7899 PWs)   bands (ev):

   -91.3670 -91.3670 -91.3670 -54.6170 -54.6170 -54.6147 -54.5959 -54.5959
   -54.5889 -54.5864 -54.5770 -54.5770 -47.3066 -19.2287 -19.2287 -19.1812
   -13.9095 -13.8645 -13.8645 -13.0682 -13.0209 -13.0209  -1.4283  -1.3232
    -1.3232  -0.5041  -0.5041  -0.4889  -0.1313  -0.1313  -0.1094   0.3285
     0.4173   0.4173   1.4720   1.4720   1.5033   2.5774   2.5892   2.5892
     3.3359   3.3508   3.3508   3.6073   3.6099   3.6099   3.8285   3.8569
     3.8569   5.6144   5.7013   5.7013   6.5306   6.5306   6.5617  10.1303
    10.6303  10.6303  13.7704  14.1391  14.1391  16.3842  16.3842  16.4658

     occupation numbers 
     1.0000   1.0000   1.0000   1.0000   1.0000   1.0000   1.0000   1.0000
     1.0000   1.0000   1.0000   1.0000   1.0000   1.0000   1.0000   1.0000
     1.0000   1.0000   1.0000   1.0000   1.0000   1.0000   1.0000   1.0000
     1.0000   1.0000   1.0000   1.0000   1.0000   1.0000   1.0000   1.0000
     1.0000   1.0000   1.0000   1.0000   1.0000   1.0000   1.0000   1.0000
     1.0000   1.0000   1.0000   1.0003   1.0003   1.0003   1.0099   1.0140
     1.0140   0.0000   0.0000   0.0000   0.0000   0.0000   0.0000   0.0000
     0.0000   0.0000   0.0000   0.0000   0.0000   0.0000   0.0000   0.0000

          k =-0.1667-0.2887 0.2417 (  7926 PWs)   bands (ev):

   -91.3694 -91.3657 -91.3657 -54.6236 -54.6218 -54.6008 -54.5980 -54.5946
   -54.5904 -54.5878 -54.5800 -54.5730 -47.3067 -19.2286 -19.2284 -19.1815
   -14.5700 -13.4751 -13.4539 -13.1223 -13.0861 -12.9722  -1.4949  -1.4300
    -0.9545  -0.7908  -0.7562  -0.7358  -0.4771   0.1676   0.1753   0.6742
     0.7097   0.8652   0.9062   1.3348   1.9845   2.0659   2.1020   2.7798
     3.1189   3.1227   3.3326   3.4627   3.4636   3.6764   3.9959   3.9992
     4.1297   5.9554   5.9933   6.0227   6.2037   6.2322   6.5907   8.6617
    11.8421  12.1060  12.3600  15.1554  15.1987  15.5492  15.9865  16.1273

     occupation numbers 
     1.0000   1.0000   1.0000   1.0000   1.0000   1.0000   1.0000   1.0000
     1.0000   1.0000   1.0000   1.0000   1.0000   1.0000   1.0000   1.0000
     1.0000   1.0000   1.0000   1.0000   1.0000   1.0000   1.0000   1.0000
     1.0000   1.0000   1.0000   1.0000   1.0000   1.0000   1.0000   1.0000
     1.0000   1.0000   1.0000   1.0000   1.0000   1.0000   1.0000   1.0000
     1.0000   1.0000   1.0000   1.0000   1.0000   1.0011   1.0505   1.0516
     1.0833   0.0000   0.0000   0.0000   0.0000   0.0000   0.0000   0.0000
     0.0000   0.0000   0.0000   0.0000   0.0000   0.0000   0.0000   0.0000

          k =-0.1667-0.4811 0.2417 (  7912 PWs)   bands (ev):

   -91.3681 -91.3668 -91.3660 -54.6256 -54.6160 -54.6040 -54.5974 -54.5956
   -54.5881 -54.5879 -54.5796 -54.5757 -47.3066 -19.2288 -19.2285 -19.1813
   -14.2268 -13.8197 -13.5353 -13.1206 -13.0385 -12.9896  -1.7321  -1.2514
    -1.0894  -0.6487  -0.5018  -0.4813  -0.2901  -0.0238   0.0196   0.4550
     0.5205   0.6630   1.1247   1.3786   1.5370   2.2026   2.5683   2.8838
     3.1590   3.3546   3.3693   3.3904   3.5672   3.7777   3.8074   3.9656
     3.9948   5.6938   5.8077   5.9433   6.3226   6.4613   6.5366   9.3701
    10.5223  11.5656  13.3773  14.5883  15.0442  15.6019  16.0457  16.6438

     occupation numbers 
     1.0000   1.0000   1.0000   1.0000   1.0000   1.0000   1.0000   1.0000
     1.0000   1.0000   1.0000   1.0000   1.0000   1.0000   1.0000   1.0000
     1.0000   1.0000   1.0000   1.0000   1.0000   1.0000   1.0000   1.0000
     1.0000   1.0000   1.0000   1.0000   1.0000   1.0000   1.0000   1.0000
     1.0000   1.0000   1.0000   1.0000   1.0000   1.0000   1.0000   1.0000
     1.0000   1.0000   1.0000   1.0000   1.0001   1.0051   1.0076   1.0403
     1.0501   0.0000   0.0000   0.0000   0.0000   0.0000   0.0000   0.0000
     0.0000   0.0000   0.0000   0.0000   0.0000   0.0000   0.0000   0.0000

          k =-0.3333-0.5774 0.2417 (  7899 PWs)   bands (ev):

   -91.3670 -91.3670 -91.3670 -54.6170 -54.6170 -54.6147 -54.5959 -54.5959
   -54.5889 -54.5864 -54.5770 -54.5770 -47.3066 -19.2287 -19.2287 -19.1812
   -13.9088 -13.8644 -13.8644 -13.0690 -13.0210 -13.0210  -1.4254  -1.3222
    -1.3222  -0.5064  -0.5064  -0.4930  -0.1313  -0.1313  -0.1092   0.3359
     0.4221   0.4221   1.4720   1.4720   1.5031   2.5585   2.5785   2.5785
     3.3436   3.3557   3.3557   3.6073   3.6099   3.6099   3.8065   3.8416
     3.8416   5.6853   5.7495   5.7495   6.5306   6.5306   6.5620   9.9405
    10.4543  10.4543  14.1587  14.5579  14.5579  16.2468  16.2468  16.4745

     occupation numbers 
     1.0000   1.0000   1.0000   1.0000   1.0000   1.0000   1.0000   1.0000
     1.0000   1.0000   1.0000   1.0000   1.0000   1.0000   1.0000   1.0000
     1.0000   1.0000   1.0000   1.0000   1.0000   1.0000   1.0000   1.0000
     1.0000   1.0000   1.0000   1.0000   1.0000   1.0000   1.0000   1.0000
     1.0000   1.0000   1.0000   1.0000   1.0000   1.0000   1.0000   1.0000
     1.0000   1.0000   1.0000   1.0003   1.0003   1.0003   1.0075   1.0117
     1.0117   0.0000   0.0000   0.0000   0.0000   0.0000   0.0000   0.0000
     0.0000   0.0000   0.0000   0.0000   0.0000   0.0000   0.0000   0.0000

 ------ SPIN DOWN ----------


          k = 0.0000 0.0000 0.0000 (  7923 PWs)   bands (ev):

   -90.6467 -90.6409 -90.6409 -53.9645 -53.9640 -53.9640 -53.9635 -53.9239
   -53.9239 -53.7789 -53.7693 -53.7693 -47.3055 -19.2269 -19.2269 -19.1797
   -14.7749 -13.1506 -13.1506 -13.0681 -12.9833 -12.8538  -0.9419  -0.8429
    -0.7904  -0.7414  -0.7414  -0.4722  -0.4722  -0.4313  -0.4313   1.2365
     1.2365   1.3408   1.4579   1.5092   1.5092   2.5975   3.0837   3.0837
     3.4320   3.4320   3.8284   3.8284   4.4662   4.4662   4.4862   4.5145
     4.8904   6.2577   6.3120   6.3120   6.3362   7.0506   7.0506   7.7045
    12.6741  13.3221  14.1787  14.1787  15.0940  15.0940  15.5850  15.8747

     occupation numbers 
     1.0000   1.0000   1.0000   1.0000   1.0000   1.0000   1.0000   1.0000
     1.0000   1.0000   1.0000   1.0000   1.0000   1.0000   1.0000   1.0000
     1.0000   1.0000   1.0000   1.0000   1.0000   1.0000   1.0000   1.0000
     1.0000   1.0000   1.0000   1.0000   1.0000   1.0000   1.0000   1.0000
     1.0000   1.0000   1.0000   1.0000   1.0000   1.0000   1.0000   1.0000
     1.0000   1.0000   1.0099   1.0099   0.5231   0.5231   0.4691   0.3959
     0.0065   0.0000   0.0000   0.0000   0.0000   0.0000   0.0000   0.0000
     0.0000   0.0000   0.0000   0.0000   0.0000   0.0000   0.0000   0.0000

          k = 0.0000 0.0000 0.2417 (  7928 PWs)   bands (ev):

   -90.6467 -90.6409 -90.6409 -53.9644 -53.9638 -53.9638 -53.9633 -53.9241
   -53.9241 -53.7791 -53.7694 -53.7694 -47.3055 -19.2268 -19.2268 -19.1801
   -14.7727 -13.1506 -13.1506 -13.0686 -12.9833 -12.8564  -0.9379  -0.8073
    -0.7919  -0.7430  -0.7430  -0.4713  -0.4713  -0.4306  -0.4306   1.2389
     1.2389   1.3443   1.4599   1.5057   1.5057   2.4442   3.0836   3.0836
     3.4320   3.4320   3.8291   3.8291   4.4646   4.4646   4.4839   4.5128
     4.9409   6.2720   6.3209   6.3209   6.3443   7.0503   7.0503   8.0763
    11.4067  14.1176  14.1176  14.2957  15.0274  15.0274  15.5965  15.8315

     occupation numbers 
     1.0000   1.0000   1.0000   1.0000   1.0000   1.0000   1.0000   1.0000
     1.0000   1.0000   1.0000   1.0000   1.0000   1.0000   1.0000   1.0000
     1.0000   1.0000   1.0000   1.0000   1.0000   1.0000   1.0000   1.0000
     1.0000   1.0000   1.0000   1.0000   1.0000   1.0000   1.0000   1.0000
     1.0000   1.0000   1.0000   1.0000   1.0000   1.0000   1.0000   1.0000
     1.0000   1.0000   1.0100   1.0100   0.5276   0.5276   0.4753   0.4001
     0.0028   0.0000   0.0000   0.0000   0.0000   0.0000   0.0000   0.0000
     0.0000   0.0000   0.0000   0.0000   0.0000   0.0000   0.0000   0.0000

          k = 0.0000 0.1925 0.0000 (  7914 PWs)   bands (ev):

   -90.6462 -90.6412 -90.6410 -53.9729 -53.9704 -53.9537 -53.9523 -53.9290
   -53.9252 -53.7782 -53.7698 -53.7695 -47.3055 -19.2271 -19.2269 -19.1796
   -14.6718 -13.2589 -13.1881 -13.0599 -12.9801 -12.8560  -1.2513  -1.0014
    -0.7938  -0.7452  -0.6803  -0.5569  -0.3835  -0.0589   0.1348   0.9037
     0.9688   1.1972   1.2956   1.8926   1.9836   2.3849   2.5374   2.8486
     3.7284   3.8319   3.8805   3.9344   4.2537   4.2704   4.5456   4.6090
     4.9103   6.2762   6.3425   6.3679   6.3991   6.7793   6.9682   7.9758
    12.7844  12.9677  13.6167  13.6692  14.4279  15.7661  16.2695  16.4823

     occupation numbers 
     1.0000   1.0000   1.0000   1.0000   1.0000   1.0000   1.0000   1.0000
     1.0000   1.0000   1.0000   1.0000   1.0000   1.0000   1.0000   1.0000
     1.0000   1.0000   1.0000   1.0000   1.0000   1.0000   1.0000   1.0000
     1.0000   1.0000   1.0000   1.0000   1.0000   1.0000   1.0000   1.0000
     1.0000   1.0000   1.0000   1.0000   1.0000   1.0000   1.0000   1.0000
     1.0025   1.0104   1.0182   1.0310   1.0110   0.9879   0.3215   0.1960
     0.0047   0.0000   0.0000   0.0000   0.0000   0.0000   0.0000   0.0000
     0.0000   0.0000   0.0000   0.0000   0.0000   0.0000   0.0000   0.0000

          k = 0.0000 0.1925 0.2417 (  7936 PWs)   bands (ev):

   -90.6462 -90.6412 -90.6411 -53.9730 -53.9704 -53.9537 -53.9524 -53.9290
   -53.9253 -53.7783 -53.7698 -53.7697 -47.3055 -19.2271 -19.2269 -19.1800
   -14.6697 -13.2585 -13.1879 -13.0607 -12.9803 -12.8583  -1.2538  -1.0025
    -0.7954  -0.7135  -0.6771  -0.5601  -0.3835  -0.0580   0.1350   0.9027
     0.9668   1.2053   1.2965   1.8979   1.9839   2.3870   2.5052   2.7512
     3.7288   3.8273   3.8806   3.9346   4.2548   4.2712   4.5412   4.6035
     4.9616   6.2919   6.3470   6.3721   6.4064   6.7510   6.9729   8.3180
    11.7543  12.7503  13.5127  14.3518  14.6756  15.7975  16.3463  16.5616

     occupation numbers 
     1.0000   1.0000   1.0000   1.0000   1.0000   1.0000   1.0000   1.0000
     1.0000   1.0000   1.0000   1.0000   1.0000   1.0000   1.0000   1.0000
     1.0000   1.0000   1.0000   1.0000   1.0000   1.0000   1.0000   1.0000
     1.0000   1.0000   1.0000   1.0000   1.0000   1.0000   1.0000   1.0000
     1.0000   1.0000   1.0000   1.0000   1.0000   1.0000   1.0000   1.0000
     1.0025   1.0098   1.0182   1.0310   1.0095   0.9867   0.3316   0.2053
     0.0020   0.0000   0.0000   0.0000   0.0000   0.0000   0.0000   0.0000
     0.0000   0.0000   0.0000   0.0000   0.0000   0.0000   0.0000   0.0000

          k = 0.0000 0.3849 0.0000 (  7930 PWs)   bands (ev):

   -90.6450 -90.6420 -90.6414 -53.9791 -53.9680 -53.9438 -53.9421 -53.9417
   -53.9290 -53.7764 -53.7713 -53.7701 -47.3055 -19.2274 -19.2271 -19.1796
   -14.3850 -13.5651 -13.2339 -13.0919 -12.9418 -12.8642  -1.6559  -0.8778
    -0.7746  -0.7546  -0.4523  -0.4161  -0.2364   0.1867   0.4476   0.8354
     0.9021   0.9690   1.3187   1.3656   1.8939   2.1803   2.5726   3.1414
     3.8943   3.9029   4.0433   4.0577   4.2359   4.2698   4.4114   4.6221
     4.8798   6.2857   6.3068   6.3278   6.4025   6.6975   6.7284   8.6912
    11.1598  13.1001  13.4498  13.8343  14.5801  15.1123  15.7831  16.8348

     occupation numbers 
     1.0000   1.0000   1.0000   1.0000   1.0000   1.0000   1.0000   1.0000
     1.0000   1.0000   1.0000   1.0000   1.0000   1.0000   1.0000   1.0000
     1.0000   1.0000   1.0000   1.0000   1.0000   1.0000   1.0000   1.0000
     1.0000   1.0000   1.0000   1.0000   1.0000   1.0000   1.0000   1.0000
     1.0000   1.0000   1.0000   1.0000   1.0000   1.0000   1.0000   1.0000
     1.0210   1.0229   1.0666   1.0711   1.0317   0.9888   0.6744   0.1747
     0.0076   0.0000   0.0000   0.0000   0.0000   0.0000   0.0000   0.0000
     0.0000   0.0000   0.0000   0.0000   0.0000   0.0000   0.0000   0.0000

          k = 0.0000 0.3849 0.2417 (  7917 PWs)   bands (ev):

   -90.6450 -90.6421 -90.6414 -53.9792 -53.9680 -53.9437 -53.9420 -53.9416
   -53.9290 -53.7762 -53.7713 -53.7702 -47.3055 -19.2274 -19.2270 -19.1797
   -14.3832 -13.5643 -13.2336 -13.0926 -12.9429 -12.8657  -1.6586  -0.8864
    -0.7792  -0.7627  -0.4520  -0.3883  -0.2355   0.1874   0.4460   0.8474
     0.9025   0.9756   1.3196   1.3747   1.8931   2.1953   2.5705   3.0677
     3.8942   3.9014   4.0444   4.0588   4.2236   4.2713   4.4083   4.6110
     4.9164   6.2378   6.2877   6.3437   6.4035   6.7011   6.7499   8.9223
    11.1314  12.6415  12.9435  13.7606  15.0740  15.5680  16.2165  16.9009

     occupation numbers 
     1.0000   1.0000   1.0000   1.0000   1.0000   1.0000   1.0000   1.0000
     1.0000   1.0000   1.0000   1.0000   1.0000   1.0000   1.0000   1.0000
     1.0000   1.0000   1.0000   1.0000   1.0000   1.0000   1.0000   1.0000
     1.0000   1.0000   1.0000   1.0000   1.0000   1.0000   1.0000   1.0000
     1.0000   1.0000   1.0000   1.0000   1.0000   1.0000   1.0000   1.0000
     1.0210   1.0226   1.0669   1.0714   1.0439   0.9865   0.6828   0.1927
     0.0043   0.0000   0.0000   0.0000   0.0000   0.0000   0.0000   0.0000
     0.0000   0.0000   0.0000   0.0000   0.0000   0.0000   0.0000   0.0000

          k = 0.0000-0.5774 0.0000 (  7928 PWs)   bands (ev):

   -90.6435 -90.6435 -90.6415 -53.9814 -53.9573 -53.9568 -53.9378 -53.9356
   -53.9350 -53.7737 -53.7737 -53.7703 -47.3055 -19.2276 -19.2273 -19.1795
   -14.0038 -13.9573 -13.2525 -13.1129 -12.9145 -12.8747  -1.8046  -0.8911
    -0.8281  -0.3826  -0.3617  -0.2154  -0.0066   0.0740   0.1671   0.6998
     0.7472   1.0090   1.2871   1.3079   1.6122   2.2614   3.0615   3.0701
     3.8300   3.9483   3.9669   3.9687   4.3316   4.4776   4.5162   4.6522
     4.6753   6.1489   6.1787   6.3974   6.4519   6.4855   6.8923   9.5712
     9.9566  12.9181  13.5149  14.1331  14.3358  15.4763  15.7206  15.8519

     occupation numbers 
     1.0000   1.0000   1.0000   1.0000   1.0000   1.0000   1.0000   1.0000
     1.0000   1.0000   1.0000   1.0000   1.0000   1.0000   1.0000   1.0000
     1.0000   1.0000   1.0000   1.0000   1.0000   1.0000   1.0000   1.0000
     1.0000   1.0000   1.0000   1.0000   1.0000   1.0000   1.0000   1.0000
     1.0000   1.0000   1.0000   1.0000   1.0000   1.0000   1.0000   1.0000
     1.0101   1.0350   1.0408   1.0413   0.8745   0.4922   0.3916   0.1322
     0.1052   0.0000   0.0000   0.0000   0.0000   0.0000   0.0000   0.0000
     0.0000   0.0000   0.0000   0.0000   0.0000   0.0000   0.0000   0.0000

          k = 0.0000-0.5774 0.2417 (  7914 PWs)   bands (ev):

   -90.6435 -90.6435 -90.6415 -53.9813 -53.9574 -53.9569 -53.9377 -53.9355
   -53.9349 -53.7736 -53.7736 -53.7704 -47.3055 -19.2277 -19.2270 -19.1796
   -14.0014 -13.9570 -13.2523 -13.1135 -12.9167 -12.8751  -1.8074  -0.9066
    -0.8374  -0.3815  -0.3599  -0.2210   0.0055   0.0808   0.1672   0.7251
     0.7650   1.0101   1.2871   1.3078   1.6125   2.2814   3.0377   3.0538
     3.8274   3.9483   3.9673   3.9690   4.3302   4.4578   4.5011   4.6669
     4.6858   6.0907   6.1344   6.4034   6.4792   6.5116   6.8920   9.6691
    10.0446  12.7290  13.4583  13.7768  13.9362  15.8458  16.4899  16.6429

     occupation numbers 
     1.0000   1.0000   1.0000   1.0000   1.0000   1.0000   1.0000   1.0000
     1.0000   1.0000   1.0000   1.0000   1.0000   1.0000   1.0000   1.0000
     1.0000   1.0000   1.0000   1.0000   1.0000   1.0000   1.0000   1.0000
     1.0000   1.0000   1.0000   1.0000   1.0000   1.0000   1.0000   1.0000
     1.0000   1.0000   1.0000   1.0000   1.0000   1.0000   1.0000   1.0000
     1.0098   1.0350   1.0409   1.0414   0.8776   0.5462   0.4301   0.1144
     0.0943   0.0000   0.0000   0.0000   0.0000   0.0000   0.0000   0.0000
     0.0000   0.0000   0.0000   0.0000   0.0000   0.0000   0.0000   0.0000

          k = 0.1667 0.2887 0.0000 (  7899 PWs)   bands (ev):

   -90.6454 -90.6415 -90.6415 -53.9742 -53.9736 -53.9453 -53.9447 -53.9383
   -53.9274 -53.7769 -53.7703 -53.7703 -47.3055 -19.2273 -19.2270 -19.1795
   -14.4769 -13.3814 -13.3508 -13.0262 -12.9683 -12.8618  -1.3483  -1.2816
    -0.7443  -0.6223  -0.5928  -0.5104  -0.2647   0.3223   0.3250   0.8652
     0.9035   1.0917   1.1498   1.5223   2.2320   2.2331   2.2921   3.0332
     3.8664   4.0346   4.0416   4.0935   4.0999   4.1171   4.5411   4.5492
     4.9037   6.2857   6.3321   6.3565   6.4943   6.5266   6.8854   8.4570
    11.9702  12.2316  13.3178  14.2917  15.2047  15.4298  15.8148  15.8690

     occupation numbers 
     1.0000   1.0000   1.0000   1.0000   1.0000   1.0000   1.0000   1.0000
     1.0000   1.0000   1.0000   1.0000   1.0000   1.0000   1.0000   1.0000
     1.0000   1.0000   1.0000   1.0000   1.0000   1.0000   1.0000   1.0000
     1.0000   1.0000   1.0000   1.0000   1.0000   1.0000   1.0000   1.0000
     1.0000   1.0000   1.0000   1.0000   1.0000   1.0000   1.0000   1.0000
     1.0155   1.0637   1.0660   1.0799   1.0810   1.0830   0.3318   0.3134
     0.0052   0.0000   0.0000   0.0000   0.0000   0.0000   0.0000   0.0000
     0.0000   0.0000   0.0000   0.0000   0.0000   0.0000   0.0000   0.0000

          k = 0.1667 0.2887 0.2417 (  7926 PWs)   bands (ev):

   -90.6454 -90.6415 -90.6415 -53.9742 -53.9737 -53.9453 -53.9448 -53.9383
   -53.9274 -53.7768 -53.7705 -53.7705 -47.3055 -19.2273 -19.2271 -19.1798
   -14.4750 -13.3808 -13.3507 -13.0274 -12.9684 -12.8636  -1.3525  -1.2831
    -0.7555  -0.6266  -0.5961  -0.4748  -0.2648   0.3209   0.3232   0.8696
     0.9069   1.0965   1.1526   1.5308   2.2328   2.2428   2.2984   2.9451
     3.8549   4.0333   4.0407   4.0947   4.1006   4.1172   4.5366   4.5457
     4.9503   6.2582   6.3149   6.3247   6.5031   6.5336   6.8853   8.7718
    11.9360  12.2016  12.3392  15.1209  15.2507  15.3822  15.7852  15.8059

     occupation numbers 
     1.0000   1.0000   1.0000   1.0000   1.0000   1.0000   1.0000   1.0000
     1.0000   1.0000   1.0000   1.0000   1.0000   1.0000   1.0000   1.0000
     1.0000   1.0000   1.0000   1.0000   1.0000   1.0000   1.0000   1.0000
     1.0000   1.0000   1.0000   1.0000   1.0000   1.0000   1.0000   1.0000
     1.0000   1.0000   1.0000   1.0000   1.0000   1.0000   1.0000   1.0000
     1.0136   1.0633   1.0657   1.0801   1.0811   1.0830   0.3423   0.3212
     0.0024   0.0000   0.0000   0.0000   0.0000   0.0000   0.0000   0.0000
     0.0000   0.0000   0.0000   0.0000   0.0000   0.0000   0.0000   0.0000

          k = 0.1667 0.4811 0.0000 (  7898 PWs)   bands (ev):

   -90.6440 -90.6426 -90.6418 -53.9770 -53.9667 -53.9530 -53.9380 -53.9374
   -53.9315 -53.7746 -53.7721 -53.7709 -47.3055 -19.2275 -19.2271 -19.1794
   -14.1327 -13.7227 -13.4364 -13.0197 -12.9284 -12.8770  -1.5794  -1.0733
    -0.8893  -0.5029  -0.3710  -0.2639  -0.0815   0.1628   0.2055   0.6874
     0.7546   0.9637   1.2949   1.4906   1.7544   2.3723   2.7569   3.1047
     3.9283   3.9581   3.9925   4.0443   4.3037   4.3292   4.4138   4.5667
     4.7804   6.0443   6.1581   6.3155   6.6037   6.7408   6.8136   9.3038
    10.5687  11.7173  13.8791  14.6459  15.0280  15.2377  15.3241  16.3596

     occupation numbers 
     1.0000   1.0000   1.0000   1.0000   1.0000   1.0000   1.0000   1.0000
     1.0000   1.0000   1.0000   1.0000   1.0000   1.0000   1.0000   1.0000
     1.0000   1.0000   1.0000   1.0000   1.0000   1.0000   1.0000   1.0000
     1.0000   1.0000   1.0000   1.0000   1.0000   1.0000   1.0000   1.0000
     1.0000   1.0000   1.0000   1.0000   1.0000   1.0000   1.0000   1.0000
     1.0293   1.0380   1.0493   1.0669   0.9316   0.8798   0.6677   0.2756
     0.0312   0.0000   0.0000   0.0000   0.0000   0.0000   0.0000   0.0000
     0.0000   0.0000   0.0000   0.0000   0.0000   0.0000   0.0000   0.0000

          k = 0.1667 0.4811 0.2417 (  7912 PWs)   bands (ev):

   -90.6440 -90.6426 -90.6418 -53.9771 -53.9667 -53.9529 -53.9380 -53.9375
   -53.9315 -53.7745 -53.7722 -53.7709 -47.3055 -19.2275 -19.2272 -19.1796
   -14.1311 -13.7219 -13.4361 -13.0208 -12.9294 -12.8778  -1.5831  -1.0821
    -0.9018  -0.5063  -0.3764  -0.2506  -0.0764   0.1637   0.2048   0.7097
     0.7710   0.9702   1.2954   1.4909   1.7547   2.3898   2.7584   3.0770
     3.9243   3.9506   3.9913   4.0440   4.2975   4.3252   4.4142   4.5699
     4.8058   5.9685   6.1159   6.2950   6.6152   6.7477   6.8151   9.5161
    10.6490  11.7474  13.2348  14.3537  14.7925  15.2092  16.1998  16.8169

     occupation numbers 
     1.0000   1.0000   1.0000   1.0000   1.0000   1.0000   1.0000   1.0000
     1.0000   1.0000   1.0000   1.0000   1.0000   1.0000   1.0000   1.0000
     1.0000   1.0000   1.0000   1.0000   1.0000   1.0000   1.0000   1.0000
     1.0000   1.0000   1.0000   1.0000   1.0000   1.0000   1.0000   1.0000
     1.0000   1.0000   1.0000   1.0000   1.0000   1.0000   1.0000   1.0000
     1.0282   1.0357   1.0489   1.0668   0.9431   0.8885   0.6667   0.2690
     0.0223   0.0000   0.0000   0.0000   0.0000   0.0000   0.0000   0.0000
     0.0000   0.0000   0.0000   0.0000   0.0000   0.0000   0.0000   0.0000

          k = 0.3333 0.5774 0.0000 (  7920 PWs)   bands (ev):

   -90.6428 -90.6428 -90.6428 -53.9675 -53.9667 -53.9667 -53.9346 -53.9346
   -53.9338 -53.7726 -53.7726 -53.7726 -47.3055 -19.2274 -19.2274 -19.1795
   -13.8252 -13.7612 -13.7612 -12.9755 -12.9061 -12.9061  -1.2487  -1.1415
    -1.1415  -0.3671  -0.3671  -0.3505   0.0601   0.0601   0.0871   0.5903
     0.7160   0.7160   1.6388   1.6388   1.6845   2.7427   2.7840   2.7840
     3.9516   3.9791   3.9791   4.1843   4.1843   4.1937   4.5698   4.5951
     4.5951   6.0508   6.1210   6.1210   6.8038   6.8038   6.8383   9.9985
    10.5114  10.5114  14.2316  14.5651  14.5651  15.9767  16.0972  16.0972

     occupation numbers 
     1.0000   1.0000   1.0000   1.0000   1.0000   1.0000   1.0000   1.0000
     1.0000   1.0000   1.0000   1.0000   1.0000   1.0000   1.0000   1.0000
     1.0000   1.0000   1.0000   1.0000   1.0000   1.0000   1.0000   1.0000
     1.0000   1.0000   1.0000   1.0000   1.0000   1.0000   1.0000   1.0000
     1.0000   1.0000   1.0000   1.0000   1.0000   1.0000   1.0000   1.0000
     1.0360   1.0448   1.0448   1.0708   1.0708   1.0660   0.2692   0.2202
     0.2202   0.0000   0.0000   0.0000   0.0000   0.0000   0.0000   0.0000
     0.0000   0.0000   0.0000   0.0000   0.0000   0.0000   0.0000   0.0000

          k = 0.3333 0.5774 0.2417 (  7899 PWs)   bands (ev):

   -90.6428 -90.6428 -90.6428 -53.9675 -53.9667 -53.9667 -53.9345 -53.9345
   -53.9337 -53.7725 -53.7725 -53.7725 -47.3055 -19.2274 -19.2274 -19.1795
   -13.8229 -13.7610 -13.7610 -12.9779 -12.9063 -12.9063  -1.2618  -1.1471
    -1.1471  -0.3695  -0.3695  -0.3545   0.0601   0.0601   0.0870   0.6221
     0.7336   0.7336   1.6389   1.6389   1.6848   2.7476   2.7872   2.7872
     3.9433   3.9736   3.9736   4.1844   4.1844   4.1938   4.5809   4.6028
     4.6028   5.9807   6.0728   6.0728   6.8038   6.8038   6.8379  10.1533
    10.6378  10.6378  13.8161  14.1917  14.1917  16.4343  16.4343  16.5755

     occupation numbers 
     1.0000   1.0000   1.0000   1.0000   1.0000   1.0000   1.0000   1.0000
     1.0000   1.0000   1.0000   1.0000   1.0000   1.0000   1.0000   1.0000
     1.0000   1.0000   1.0000   1.0000   1.0000   1.0000   1.0000   1.0000
     1.0000   1.0000   1.0000   1.0000   1.0000   1.0000   1.0000   1.0000
     1.0000   1.0000   1.0000   1.0000   1.0000   1.0000   1.0000   1.0000
     1.0335   1.0430   1.0430   1.0708   1.0708   1.0659   0.2471   0.2066
     0.2066   0.0000   0.0000   0.0000   0.0000   0.0000   0.0000   0.0000
     0.0000   0.0000   0.0000   0.0000   0.0000   0.0000   0.0000   0.0000

          k =-0.1667-0.2887 0.2417 (  7926 PWs)   bands (ev):

   -90.6454 -90.6415 -90.6415 -53.9742 -53.9737 -53.9453 -53.9448 -53.9383
   -53.9274 -53.7768 -53.7705 -53.7705 -47.3055 -19.2273 -19.2271 -19.1798
   -14.4749 -13.3804 -13.3506 -13.0279 -12.9685 -12.8636  -1.3530  -1.2838
    -0.7505  -0.6255  -0.5956  -0.4791  -0.2648   0.3214   0.3238   0.8671
     0.9044   1.1034   1.1583   1.5266   2.2323   2.2341   2.2933   2.9488
     3.8508   4.0346   4.0417   4.0952   4.1011   4.1172   4.5325   4.5426
     4.9409   6.2986   6.3426   6.3484   6.4951   6.5268   6.8854   8.6830
    11.8458  12.1018  12.4302  15.2003  15.2460  15.5696  16.0332  16.1942

     occupation numbers 
     1.0000   1.0000   1.0000   1.0000   1.0000   1.0000   1.0000   1.0000
     1.0000   1.0000   1.0000   1.0000   1.0000   1.0000   1.0000   1.0000
     1.0000   1.0000   1.0000   1.0000   1.0000   1.0000   1.0000   1.0000
     1.0000   1.0000   1.0000   1.0000   1.0000   1.0000   1.0000   1.0000
     1.0000   1.0000   1.0000   1.0000   1.0000   1.0000   1.0000   1.0000
     1.0130   1.0637   1.0661   1.0802   1.0812   1.0830   0.3520   0.3284
     0.0028   0.0000   0.0000   0.0000   0.0000   0.0000   0.0000   0.0000
     0.0000   0.0000   0.0000   0.0000   0.0000   0.0000   0.0000   0.0000

          k =-0.1667-0.4811 0.2417 (  7912 PWs)   bands (ev):

   -90.6440 -90.6426 -90.6418 -53.9770 -53.9667 -53.9529 -53.9380 -53.9375
   -53.9315 -53.7745 -53.7722 -53.7709 -47.3055 -19.2275 -19.2272 -19.1796
   -14.1310 -13.7216 -13.4357 -13.0215 -12.9295 -12.8779  -1.5834  -1.0811
    -0.8985  -0.5067  -0.3758  -0.2544  -0.0777   0.1623   0.2045   0.7145
     0.7757   0.9770   1.2947   1.4909   1.7546   2.3761   2.7474   3.0681
     3.9267   3.9503   3.9928   4.0438   4.2983   4.3280   4.4096   4.5570
     4.7890   6.0415   6.1622   6.3219   6.6052   6.7436   6.8138   9.3866
    10.5276  11.5645  13.4418  14.6444  15.0514  15.6709  16.1336  16.7299

     occupation numbers 
     1.0000   1.0000   1.0000   1.0000   1.0000   1.0000   1.0000   1.0000
     1.0000   1.0000   1.0000   1.0000   1.0000   1.0000   1.0000   1.0000
     1.0000   1.0000   1.0000   1.0000   1.0000   1.0000   1.0000   1.0000
     1.0000   1.0000   1.0000   1.0000   1.0000   1.0000   1.0000   1.0000
     1.0000   1.0000   1.0000   1.0000   1.0000   1.0000   1.0000   1.0000
     1.0289   1.0356   1.0494   1.0667   0.9417   0.8823   0.6791   0.2963
     0.0279   0.0000   0.0000   0.0000   0.0000   0.0000   0.0000   0.0000
     0.0000   0.0000   0.0000   0.0000   0.0000   0.0000   0.0000   0.0000

          k =-0.3333-0.5774 0.2417 (  7899 PWs)   bands (ev):

   -90.6428 -90.6428 -90.6428 -53.9675 -53.9667 -53.9667 -53.9345 -53.9345
   -53.9337 -53.7725 -53.7725 -53.7725 -47.3055 -19.2274 -19.2274 -19.1795
   -13.8222 -13.7609 -13.7609 -12.9787 -12.9064 -12.9064  -1.2595  -1.1464
    -1.1464  -0.3713  -0.3713  -0.3578   0.0601   0.0601   0.0872   0.6308
     0.7396   0.7396   1.6389   1.6389   1.6845   2.7262   2.7741   2.7741
     3.9443   3.9742   3.9742   4.1844   4.1844   4.1938   4.5651   4.5917
     4.5917   6.0594   6.1270   6.1270   6.8038   6.8038   6.8382   9.9548
    10.4557  10.4557  14.2156  14.6219  14.6219  16.3046  16.3046  16.5510

     occupation numbers 
     1.0000   1.0000   1.0000   1.0000   1.0000   1.0000   1.0000   1.0000
     1.0000   1.0000   1.0000   1.0000   1.0000   1.0000   1.0000   1.0000
     1.0000   1.0000   1.0000   1.0000   1.0000   1.0000   1.0000   1.0000
     1.0000   1.0000   1.0000   1.0000   1.0000   1.0000   1.0000   1.0000
     1.0000   1.0000   1.0000   1.0000   1.0000   1.0000   1.0000   1.0000
     1.0338   1.0431   1.0431   1.0708   1.0708   1.0659   0.2790   0.2266
     0.2266   0.0000   0.0000   0.0000   0.0000   0.0000   0.0000   0.0000
     0.0000   0.0000   0.0000   0.0000   0.0000   0.0000   0.0000   0.0000

     the Fermi energy is     4.5126 ev

!    total energy              =   -1489.32535069 Ry
     total all-electron energy =     -9588.560158 Ry
     estimated scf accuracy    <          9.0E-09 Ry
     smearing contrib. (-TS)   =       0.00980568 Ry
     internal energy E=F+TS    =   -1489.33515637 Ry

     The total energy is F=E-TS. E is the sum of the following terms:
     one-electron contribution =   -1486.21178162 Ry
     hartree contribution      =     777.90452714 Ry
     xc contribution           =    -150.59165513 Ry
     ewald contribution        =    -294.92429166 Ry
     one-center paw contrib.   =    -335.51195511 Ry
      -> PAW hartree energy AE =     884.64124403 Ry
      -> PAW hartree energy PS =    -882.35973995 Ry
      -> PAW xc energy AE      =    -480.34094589 Ry
      -> PAW xc energy PS      =     142.54748671 Ry
      -> total E_H with PAW    =     780.18603122 Ry
      -> total E_XC with PAW   =    -488.38511432 Ry

     total magnetization       =     2.30 Bohr mag/cell
     absolute magnetization    =     2.34 Bohr mag/cell

     convergence has been achieved in  21 iterations

     Forces acting on atoms (cartesian axes, Ry/au):

     atom    1 type  1   force =    -0.00330262   -0.00572030    0.01450126
     atom    2 type  1   force =    -0.00330262    0.00572030    0.01450126
     atom    3 type  1   force =     0.00660523    0.00000000    0.01450126
     atom    4 type  2   force =     0.00000000   -0.00000000   -0.01448098
     atom    5 type  2   force =     0.00000000    0.00000000   -0.02785280
     atom    6 type  2   force =     0.00000000    0.00000000   -0.02785280
     atom    7 type  2   force =    -0.00405332    0.00702055    0.00683187
     atom    8 type  2   force =    -0.00405332   -0.00702055    0.00683187
     atom    9 type  2   force =     0.00810664   -0.00000000    0.00683187
     atom   10 type  3   force =     0.00000000    0.00000000    0.00618720
     The non-local contrib.  to forces
     atom    1 type  1   force =     0.00682206    0.01181615   -0.00664402
     atom    2 type  1   force =     0.00682206   -0.01181615   -0.00664402
     atom    3 type  1   force =    -0.01364412    0.00000000   -0.00664402
     atom    4 type  2   force =     0.00000000    0.00000000   -1.08583616
     atom    5 type  2   force =     0.00000000    0.00000000   -1.18882370
     atom    6 type  2   force =     0.00000000    0.00000000   -1.18882370
     atom    7 type  2   force =    -0.04154594    0.07195967    1.01314365
     atom    8 type  2   force =    -0.04154594   -0.07195967    1.01314365
     atom    9 type  2   force =     0.08309187   -0.00000000    1.01314365
     atom   10 type  3   force =     0.00000000    0.00000000   -0.23406413
     The ionic contribution  to forces
     atom    1 type  1   force =    -0.62999932   -1.09119083    3.55982973
     atom    2 type  1   force =    -0.62999930    1.09119082    3.55982973
     atom    3 type  1   force =     1.25999862    0.00000001    3.55982973
     atom    4 type  2   force =     0.00000000    0.00000001   31.25931003
     atom    5 type  2   force =    -0.00000000   -0.00000000   32.03396437
     atom    6 type  2   force =    -0.00000000   -0.00000000   32.03396437
     atom    7 type  2   force =     0.70165242   -1.21529764  -29.42941779
     atom    8 type  2   force =     0.70165242    1.21529764  -29.42941779
     atom    9 type  2   force =    -1.40330484    0.00000000  -29.42941779
     atom   10 type  3   force =     0.00000000    0.00000000  -17.71847457
     The local contribution  to forces
     atom    1 type  1   force =     0.61993647    1.07376139   -3.53865665
     atom    2 type  1   force =     0.61993668   -1.07376139   -3.53865665
     atom    3 type  1   force =    -1.23987292    0.00000018   -3.53865665
     atom    4 type  2   force =     0.00000001    0.00000001  -30.19752082
     atom    5 type  2   force =    -0.00000000    0.00000000  -30.88351198
     atom    6 type  2   force =     0.00000001   -0.00000000  -30.88351198
     atom    7 type  2   force =    -0.66451464    1.15097314   28.43196669
     atom    8 type  2   force =    -0.66451465   -1.15097314   28.43196669
     atom    9 type  2   force =     1.32902930    0.00000001   28.43196669
     atom   10 type  3   force =     0.00000006    0.00000010   17.95864336
     The core correction contribution to forces
     atom    1 type  1   force =    -0.00002717   -0.00004706   -0.00006330
     atom    2 type  1   force =    -0.00002717    0.00004706   -0.00006330
     atom    3 type  1   force =     0.00005434    0.00000000   -0.00006330
     atom    4 type  2   force =     0.00000000   -0.00000000    0.00952969
     atom    5 type  2   force =     0.00000000   -0.00000000    0.01051186
     atom    6 type  2   force =     0.00000000    0.00000000    0.01051186
     atom    7 type  2   force =     0.00034512   -0.00059776   -0.00886283
     atom    8 type  2   force =     0.00034512    0.00059776   -0.00886283
     atom    9 type  2   force =    -0.00069024   -0.00000000   -0.00886283
     atom   10 type  3   force =     0.00000000    0.00000000    0.00011636
     The Hubbard contrib.    to forces
     atom    1 type  1   force =     0.00000000    0.00000000    0.00000000
     atom    2 type  1   force =     0.00000000    0.00000000    0.00000000
     atom    3 type  1   force =     0.00000000    0.00000000    0.00000000
     atom    4 type  2   force =     0.00000000    0.00000000    0.00000000
     atom    5 type  2   force =     0.00000000    0.00000000    0.00000000
     atom    6 type  2   force =     0.00000000    0.00000000    0.00000000
     atom    7 type  2   force =     0.00000000    0.00000000    0.00000000
     atom    8 type  2   force =     0.00000000    0.00000000    0.00000000
     atom    9 type  2   force =     0.00000000    0.00000000    0.00000000
     atom   10 type  3   force =     0.00000000    0.00000000    0.00000000
     The SCF correction term to forces
     atom    1 type  1   force =    -0.00003466   -0.00006003    0.00003719
     atom    2 type  1   force =    -0.00003466    0.00006003    0.00003719
     atom    3 type  1   force =     0.00006931   -0.00000000    0.00003719
     atom    4 type  2   force =    -0.00000000   -0.00000000    0.00003796
     atom    5 type  2   force =    -0.00000000    0.00000000    0.00000834
     atom    6 type  2   force =     0.00000000    0.00000000    0.00000834
     atom    7 type  2   force =     0.00000973   -0.00001685    0.00000383
     atom    8 type  2   force =     0.00000973    0.00001685    0.00000383
     atom    9 type  2   force =    -0.00001946   -0.00000000    0.00000383
     atom   10 type  3   force =    -0.00000000   -0.00000000   -0.00003214

     Total force =     0.053837     Total SCF correction =     0.000150

     Writing all to output data dir ./out/pw.save/ :
     XML data file, charge density, pseudopotentials, collected wavefunctions
 
     init_run     :     22.15s CPU      4.94s WALL (       1 calls)
     electrons    :    276.22s CPU     67.39s WALL (       1 calls)
     forces       :      1.04s CPU      0.90s WALL (       1 calls)

     Called by init_run:
     wfcinit      :      0.51s CPU      0.63s WALL (       1 calls)
     wfcinit:atom :      0.06s CPU      0.06s WALL (      34 calls)
     wfcinit:wfcr :      0.31s CPU      0.35s WALL (      34 calls)
     potinit      :     20.98s CPU      3.60s WALL (       1 calls)
     hinit0       :      0.52s CPU      0.51s WALL (       1 calls)

     Called by electrons:
     c_bands      :     30.64s CPU     30.77s WALL (      21 calls)
     sum_band     :      4.25s CPU      4.20s WALL (      21 calls)
     v_of_rho     :      0.50s CPU      0.30s WALL (      22 calls)
     v_h          :      0.31s CPU      0.07s WALL (      22 calls)
     v_xc         :      0.20s CPU      0.23s WALL (      23 calls)
     newd         :      0.53s CPU      0.47s WALL (      22 calls)
                                        0.47s GPU  (      22 calls)
     PAW_pot      :    250.08s CPU     32.23s WALL (      22 calls)
     mix_rho      :      0.59s CPU      0.60s WALL (      21 calls)

     Called by c_bands:
     init_us_2    :      0.91s CPU      0.88s WALL (    1496 calls)
     cegterg      :     26.20s CPU     26.37s WALL (     714 calls)

     Called by sum_band:
     sum_band:wei :      0.04s CPU      0.05s WALL (      21 calls)
                                        0.05s GPU  (      21 calls)
     sum_band:loo :      2.94s CPU      2.88s WALL (      21 calls)
                                        2.88s GPU  (      21 calls)
     sum_band:buf :      0.76s CPU      0.79s WALL (     714 calls)
                                        0.78s GPU  (     714 calls)
     sum_band:ini :      0.44s CPU      0.43s WALL (     714 calls)
                                        0.42s GPU  (     714 calls)
     sum_band:cal :      0.07s CPU      0.10s WALL (     714 calls)
                                        0.07s GPU  (     714 calls)
     sum_band:bec :      0.35s CPU      0.36s WALL (     714 calls)
                                        0.36s GPU  (     714 calls)
     addusdens    :      0.82s CPU      0.83s WALL (      21 calls)
                                        0.83s GPU  (      21 calls)
     addusd:skk   :      0.01s CPU      0.01s WALL (      63 calls)
                                        0.01s GPU  (      63 calls)

     Called by *egterg:
     cdiaghg      :     11.07s CPU     11.22s WALL (    4707 calls)
                                       11.16s GPU  (    4707 calls)
     cegterg:over :      1.37s CPU      1.39s WALL (    3993 calls)
     cegterg:upda :      1.54s CPU      1.55s WALL (    3993 calls)
     cegterg:last :      0.23s CPU      0.23s WALL (    1684 calls)
     h_psi        :      9.39s CPU      9.56s WALL (    4741 calls)
                                        9.50s GPU  (    4741 calls)
     s_psi        :      1.52s CPU      1.56s WALL (    4741 calls)
     g_psi        :      0.02s CPU      0.15s WALL (    3993 calls)
                                        0.10s GPU  (    3993 calls)

     Called by h_psi:
     h_psi:calbec :      0.20s CPU      0.45s WALL (    4741 calls)
                                        0.39s GPU  (    4741 calls)
     vloc_psi     :      7.02s CPU      7.08s WALL (    4741 calls)
                                        7.02s GPU  (    4741 calls)
     add_vuspsi   :      1.45s CPU      1.68s WALL (    4741 calls)
                                        1.62s GPU  (    4741 calls)

     General routines
     calbec       :      0.23s CPU      0.26s WALL (    5591 calls)
     fft          :      7.06s CPU      1.37s WALL (     563 calls)
                                        0.03s GPU  (     519 calls)
     ffts         :      2.97s CPU      0.74s WALL (      86 calls)
                                        0.00s GPU  (      42 calls)
     fftw         :      0.44s CPU      4.05s WALL (   23434 calls)
                                        3.78s GPU  (   23434 calls)
     interpolate  :     10.32s CPU      2.16s WALL (      44 calls)
 
     Parallel routines

     PAW routines
     PAW_pot      :    250.08s CPU     32.23s WALL (      22 calls)
     PAW_symme    :      0.03s CPU      0.01s WALL (      43 calls)
 
     PWSCF        :   5m 0.25s CPU   1m13.86s WALL

 
   This run was terminated on:   2:23:39  12Jul2026            

=------------------------------------------------------------------------------=
   JOB DONE.
=------------------------------------------------------------------------------=
Warning: ieee_invalid is signaling
Warning: ieee_divide_by_zero is signaling
Warning: ieee_inexact is signaling
FORTRAN STOP
