
     Program PWSCF v.7.3.1 starts on 12Jul2026 at  3:17:16 

     This program is part of the open-source Quantum ESPRESSO suite
     for quantum simulation of materials; please cite
         "P. Giannozzi et al., J. Phys.:Condens. Matter 21 395502 (2009);
         "P. Giannozzi et al., J. Phys.:Condens. Matter 29 465901 (2017);
         "P. Giannozzi et al., J. Chem. Phys. 152 154105 (2020);
          URL http://www.quantum-espresso.org", 
     in publications or presentations arising from this work. More details at
     http://www.quantum-espresso.org/quote

     Parallel version (MPI & OpenMP), running on      14 processor cores
     Number of MPI processes:                 1
     Threads/MPI process:                    14

     MPI processes distributed on     1 nodes
     849601 MiB available memory on the printing compute node when the environment starts
 
     Reading input from pw.in

     Current dimensions of program PWSCF are:
     Max number of different atomic species (ntypx) = 10
     Max number of k-points (npk) =  40000
     Max angular momentum in pseudopotentials (lmaxx) =  4
     file Co.pbe-spn-kjpaw_psl.0.3.1.UPF: wavefunction(s)  3P 3D renormalized
     file O.pbe-n-kjpaw_psl.1.0.0.UPF: wavefunction(s)  2S 2P renormalized
     file Na.pbe-spn-kjpaw_psl.1.0.0.UPF: wavefunction(s)  2P renormalized
 
     Subspace diagonalization in iterative solution of the eigenvalue problem:
     a serial algorithm will be used

 
     G-vector sticks info
     --------------------
     sticks:   dense  smooth     PW     G-vecs:    dense   smooth      PW
     Sum         979     499    151                72573    25753    4225
 
     Using Slab Decomposition
 


     bravais-lattice index     =            4
     lattice parameter (alat)  =       5.4575  a.u.
     unit-cell volume          =     409.4500 (a.u.)^3
     number of atoms/cell      =            4
     number of atomic types    =            3
     number of electrons       =        38.00
     number of Kohn-Sham states=           27
     kinetic-energy cutoff     =      60.0000  Ry
     charge density cutoff     =     480.0000  Ry
     scf convergence threshold =      1.0E-07
     mixing beta               =       0.3000
     number of iterations used =            8  local-TF  mixing
     Exchange-correlation= SLA  PW   PBX  PBC
                           (   1   4   3   4   0   0   0)

     GPU acceleration is ACTIVE.  1 visible GPUs per MPI rank
     GPU-aware MPI enabled


     GPU used by master process:

        Device Number: 0
        Device name: NVIDIA A100-SXM4-80GB
        Compute capability : 80
        Ratio of single to double precision performance  : 2
        Memory Clock Rate (KHz): 1593000
        Memory Bus Width (bits): 5120
        Peak Memory Bandwidth (GB/s): ******

     celldm(1)=   5.457529  celldm(2)=   0.000000  celldm(3)=   2.908587
     celldm(4)=   0.000000  celldm(5)=   0.000000  celldm(6)=   0.000000

     crystal axes: (cart. coord. in units of alat)
               a(1) = (   1.000000   0.000000   0.000000 )  
               a(2) = (  -0.500000   0.866025   0.000000 )  
               a(3) = (   0.000000   0.000000   2.908587 )  

     reciprocal axes: (cart. coord. in units 2 pi/alat)
               b(1) = (  1.000000  0.577350 -0.000000 )  
               b(2) = (  0.000000  1.154701  0.000000 )  
               b(3) = (  0.000000 -0.000000  0.343810 )  


     PseudoPot. # 1 for Co read from file:
     ../../pseudo/Co.pbe-spn-kjpaw_psl.0.3.1.UPF
     MD5 check sum: 3c0a43779828c046024e4f3be63f8e67
     Pseudo is Projector augmented-wave + core cor, Zval = 17.0
     Generated using &quot;atomic&quot; code by A. Dal Corso  v.6.2.2
     Shape of augmentation charge: PSQ
     Using radial grid of 1193 points,  6 beta functions with: 
                l(1) =   0
                l(2) =   0
                l(3) =   1
                l(4) =   1
                l(5) =   2
                l(6) =   2
     Q(r) pseudized with 0 coefficients 


     PseudoPot. # 2 for O  read from file:
     ../../pseudo/O.pbe-n-kjpaw_psl.1.0.0.UPF
     MD5 check sum: e99d9cef9b487d1ca56f5b95ecd0fd7a
     Pseudo is Projector augmented-wave + core cor, Zval =  6.0
     Generated using &quot;atomic&quot; code by A. Dal Corso  v.6.3
     Shape of augmentation charge: PSQ
     Using radial grid of 1095 points,  4 beta functions with: 
                l(1) =   0
                l(2) =   0
                l(3) =   1
                l(4) =   1
     Q(r) pseudized with 0 coefficients 


     PseudoPot. # 3 for Na read from file:
     ../../pseudo/Na.pbe-spn-kjpaw_psl.1.0.0.UPF
     MD5 check sum: 05b4deb74e3932c23ab016979dc8b5d4
     Pseudo is Projector augmented-wave + core cor, Zval =  9.0
     Generated using &quot;atomic&quot; code by A. Dal Corso  v.6.3
     Shape of augmentation charge: PSQ
     Using radial grid of 1121 points,  4 beta functions with: 
                l(1) =   0
                l(2) =   0
                l(3) =   1
                l(4) =   1
     Q(r) pseudized with 0 coefficients 


     atomic species   valence    mass     pseudopotential
     Co               17.00    58.93300     Co( 1.00)
     O                 6.00    15.99900     O ( 1.00)
     Na                9.00    22.98977     Na( 1.00)

     Starting magnetic structure 
     atomic species   magnetization
     Co              0.300
     O               0.000
     Na              0.000

      6 Sym. Ops. (no inversion) found


                                    s                        frac. trans.

      isym =  1     identity                                     

 cryst.   s( 1) = (     1          0          0      )
                  (     0          1          0      )
                  (     0          0          1      )

 cart.    s( 1) = (  1.0000000  0.0000000  0.0000000 )
                  (  0.0000000  1.0000000  0.0000000 )
                  (  0.0000000  0.0000000  1.0000000 )


      isym =  2     120 deg rotation - cryst. axis [0,0,1]       

 cryst.   s( 2) = (     0          1          0      )
                  (    -1         -1          0      )
                  (     0          0          1      )

 cart.    s( 2) = ( -0.5000000 -0.8660254  0.0000000 )
                  (  0.8660254 -0.5000000  0.0000000 )
                  (  0.0000000  0.0000000  1.0000000 )


      isym =  3     120 deg rotation - cryst. axis [0,0,-1]      

 cryst.   s( 3) = (    -1         -1          0      )
                  (     1          0          0      )
                  (     0          0          1      )

 cart.    s( 3) = ( -0.5000000  0.8660254  0.0000000 )
                  ( -0.8660254 -0.5000000  0.0000000 )
                  (  0.0000000  0.0000000  1.0000000 )


      isym =  4     inv. 180 deg rotation - cart. axis [1,0,0]   

 cryst.   s( 4) = (    -1          0          0      )
                  (     1          1          0      )
                  (     0          0          1      )

 cart.    s( 4) = ( -1.0000000  0.0000000  0.0000000 )
                  (  0.0000000  1.0000000  0.0000000 )
                  (  0.0000000  0.0000000  1.0000000 )


      isym =  5     inv. 180 deg rotation - cryst. axis [0,1,0]  

 cryst.   s( 5) = (     1          1          0      )
                  (     0         -1          0      )
                  (     0          0          1      )

 cart.    s( 5) = (  0.5000000  0.8660254  0.0000000 )
                  (  0.8660254 -0.5000000  0.0000000 )
                  (  0.0000000  0.0000000  1.0000000 )


      isym =  6     inv. 180 deg rotation - cryst. axis [1,1,0]  

 cryst.   s( 6) = (     0         -1          0      )
                  (    -1          0          0      )
                  (     0          0          1      )

 cart.    s( 6) = (  0.5000000 -0.8660254  0.0000000 )
                  ( -0.8660254 -0.5000000  0.0000000 )
                  (  0.0000000  0.0000000  1.0000000 )


     point group C_3v (3m)  
     there are  3 classes
     the character table:

       E     2C3   3s_v 
A_1    1.00  1.00  1.00
A_2    1.00  1.00 -1.00
E      2.00 -1.00  0.00

     the symmetry operations in each class and the name of the first element:

     E        1
          identity                                               
     2C3      2    3
          120 deg rotation - cryst. axis [0,0,1]                 
     3s_v     4    5    6
          inv. 180 deg rotation - cart. axis [1,0,0]             

   Cartesian axes

     site n.     atom                  positions (alat units)
         1        Co     tau(   1) = (   0.0000000   0.0000000   0.0000000  )
         2        O      tau(   2) = (  -0.0000000   0.5773503   0.3324100  )
         3        O      tau(   3) = (   0.5000000   0.2886751   2.5761773  )
         4        Na     tau(   4) = (   0.0000000   0.0000000   1.5062327  )

   Crystallographic axes

     site n.     atom                  positions (cryst. coord.)
         1        Co     tau(   1) = (  0.0000000  0.0000000  0.0000000  )
         2        O      tau(   2) = (  0.3333333  0.6666667  0.1142857  )
         3        O      tau(   3) = (  0.6666667  0.3333333  0.8857143  )
         4        Na     tau(   4) = (  0.0000000  0.0000000  0.5178571  )

     number of k points=    25  Marzari-Vanderbilt smearing, width (Ry)=  0.0200
                       cart. coord. in units 2pi/alat
        k(    1) = (   0.0000000   0.0000000   0.0000000), wk =   0.0052083
        k(    2) = (   0.0000000   0.0000000   0.1146032), wk =   0.0104167
        k(    3) = (   0.0000000   0.1443376   0.0000000), wk =   0.0312500
        k(    4) = (   0.0000000   0.1443376   0.1146032), wk =   0.0312500
        k(    5) = (   0.0000000   0.2886751   0.0000000), wk =   0.0312500
        k(    6) = (   0.0000000   0.2886751   0.1146032), wk =   0.0312500
        k(    7) = (   0.0000000   0.4330127   0.0000000), wk =   0.0312500
        k(    8) = (   0.0000000   0.4330127   0.1146032), wk =   0.0312500
        k(    9) = (   0.0000000  -0.5773503   0.0000000), wk =   0.0156250
        k(   10) = (   0.0000000  -0.5773503   0.1146032), wk =   0.0312500
        k(   11) = (   0.1250000   0.2165064   0.0000000), wk =   0.0312500
        k(   12) = (   0.1250000   0.2165064   0.1146032), wk =   0.0625000
        k(   13) = (   0.1250000   0.3608439   0.0000000), wk =   0.0625000
        k(   14) = (   0.1250000   0.3608439   0.1146032), wk =   0.0625000
        k(   15) = (   0.1250000   0.5051815   0.0000000), wk =   0.0625000
        k(   16) = (   0.1250000   0.5051815   0.1146032), wk =   0.0625000
        k(   17) = (   0.2500000   0.4330127   0.0000000), wk =   0.0312500
        k(   18) = (   0.2500000   0.4330127   0.1146032), wk =   0.0625000
        k(   19) = (   0.2500000   0.5773503   0.0000000), wk =   0.0312500
        k(   20) = (   0.2500000   0.5773503   0.1146032), wk =   0.0625000
        k(   21) = (   0.0000000  -0.1443376   0.1146032), wk =   0.0312500
        k(   22) = (   0.0000000  -0.2886751   0.1146032), wk =   0.0312500
        k(   23) = (   0.0000000  -0.4330127   0.1146032), wk =   0.0312500
        k(   24) = (  -0.1250000  -0.3608439   0.1146032), wk =   0.0625000
        k(   25) = (  -0.1250000  -0.5051815   0.1146032), wk =   0.0625000

                       cryst. coord.
        k(    1) = (   0.0000000   0.0000000   0.0000000), wk =   0.0052083
        k(    2) = (   0.0000000   0.0000000   0.3333333), wk =   0.0104167
        k(    3) = (   0.0000000   0.1250000   0.0000000), wk =   0.0312500
        k(    4) = (   0.0000000   0.1250000   0.3333333), wk =   0.0312500
        k(    5) = (   0.0000000   0.2500000   0.0000000), wk =   0.0312500
        k(    6) = (   0.0000000   0.2500000   0.3333333), wk =   0.0312500
        k(    7) = (   0.0000000   0.3750000   0.0000000), wk =   0.0312500
        k(    8) = (   0.0000000   0.3750000   0.3333333), wk =   0.0312500
        k(    9) = (   0.0000000  -0.5000000   0.0000000), wk =   0.0156250
        k(   10) = (   0.0000000  -0.5000000   0.3333333), wk =   0.0312500
        k(   11) = (   0.1250000   0.1250000   0.0000000), wk =   0.0312500
        k(   12) = (   0.1250000   0.1250000   0.3333333), wk =   0.0625000
        k(   13) = (   0.1250000   0.2500000   0.0000000), wk =   0.0625000
        k(   14) = (   0.1250000   0.2500000   0.3333333), wk =   0.0625000
        k(   15) = (   0.1250000   0.3750000   0.0000000), wk =   0.0625000
        k(   16) = (   0.1250000   0.3750000   0.3333333), wk =   0.0625000
        k(   17) = (   0.2500000   0.2500000   0.0000000), wk =   0.0312500
        k(   18) = (   0.2500000   0.2500000   0.3333333), wk =   0.0625000
        k(   19) = (   0.2500000   0.3750000   0.0000000), wk =   0.0312500
        k(   20) = (   0.2500000   0.3750000   0.3333333), wk =   0.0625000
        k(   21) = (   0.0000000  -0.1250000   0.3333333), wk =   0.0312500
        k(   22) = (   0.0000000  -0.2500000   0.3333333), wk =   0.0312500
        k(   23) = (   0.0000000  -0.3750000   0.3333333), wk =   0.0312500
        k(   24) = (  -0.1250000  -0.2500000   0.3333333), wk =   0.0625000
        k(   25) = (  -0.1250000  -0.3750000   0.3333333), wk =   0.0625000

     Dense  grid:    72573 G-vectors     FFT dimensions: (  40,  40, 120)

     Smooth grid:    25753 G-vectors     FFT dimensions: (  27,  27,  80)

     Dynamical RAM for                 wfc:       1.32 MB

     Dynamical RAM for     wfc (w. buffer):      67.51 MB

     Dynamical RAM for           str. fact:       3.32 MB

     Dynamical RAM for           local pot:       0.00 MB

     Dynamical RAM for          nlocal pot:       2.06 MB

     Dynamical RAM for                qrad:       5.27 MB

     Dynamical RAM for          rho,v,vnew:      15.43 MB

     Dynamical RAM for               rhoin:       5.14 MB

     Dynamical RAM for            rho*nmix:      35.44 MB

     Dynamical RAM for           G-vectors:       4.35 MB

     Dynamical RAM for          h,s,v(r/c):       0.13 MB

     Dynamical RAM for          <psi|beta>:       0.02 MB

     Dynamical RAM for                 psi:       2.65 MB

     Dynamical RAM for                hpsi:       2.65 MB

     Dynamical RAM for                spsi:       2.65 MB

     Dynamical RAM for      wfcinit/wfcrot:       2.66 MB

     Dynamical RAM for           addusdens:     209.29 MB

     Dynamical RAM for          addusforce:     211.52 MB

     Estimated static dynamical RAM per process >     116.31 MB

     Estimated max dynamical RAM per process >     363.27 MB

     Check: negative core charge=   -0.000007
     Generating pointlists ...
     new r_m :   0.2748 (alat units)  1.4998 (a.u.) for type    1
     new r_m :   0.2748 (alat units)  1.4998 (a.u.) for type    2
     new r_m :   0.4125 (alat units)  2.2512 (a.u.) for type    3

     Initial potential from superposition of free atoms

     starting charge      37.9934, renormalised to      38.0000
     Starting wfcs are   23 randomized atomic wfcs +    4 random wfcs
     Checking if some PAW data can be deallocated... 

     total cpu time spent up to now is        3.8 secs

     Self-consistent Calculation
[tb_dev] Currently allocated     6.54E-01 Mbytes, locked:    0 /   6
[tb_pin] Currently allocated     0.00E+00 Mbytes, locked:    0 /   0

     iteration #  1     ecut=    60.00 Ry     beta= 0.30
     Davidson diagonalization with overlap

---- Real-time Memory Report at c_bands before calling an iterative solver
           690 MiB given to the printing process from OS
             0 MiB allocation reported by mallinfo(arena+hblkhd)
        849157 MiB available memory on the node where the printing process lives
     GPU memory used/free/total (MiB): 1056 / 80094 / 81151
------------------
     ethr =  1.00E-02,  avg # of iterations =  9.3

     total cpu time spent up to now is        5.9 secs

     total energy              =    -568.98945155 Ry
     estimated scf accuracy    <       1.79222077 Ry

     total magnetization       =     4.23 Bohr mag/cell
     absolute magnetization    =     4.23 Bohr mag/cell
[tb_dev] Currently allocated     3.05E-05 Mbytes, locked:    0 /   2
[tb_pin] Currently allocated     0.00E+00 Mbytes, locked:    0 /   0

     iteration #  2     ecut=    60.00 Ry     beta= 0.30
     Davidson diagonalization with overlap

---- Real-time Memory Report at c_bands before calling an iterative solver
           733 MiB given to the printing process from OS
             0 MiB allocation reported by mallinfo(arena+hblkhd)
        848649 MiB available memory on the node where the printing process lives
     GPU memory used/free/total (MiB): 1074 / 80076 / 81151
------------------
     ethr =  4.72E-03,  avg # of iterations =  1.9

     total cpu time spent up to now is        7.1 secs

     total energy              =    -569.03532292 Ry
     estimated scf accuracy    <       0.83677503 Ry

     total magnetization       =     3.70 Bohr mag/cell
     absolute magnetization    =     3.70 Bohr mag/cell
[tb_dev] Currently allocated     3.05E-05 Mbytes, locked:    0 /   2
[tb_pin] Currently allocated     0.00E+00 Mbytes, locked:    0 /   0

     iteration #  3     ecut=    60.00 Ry     beta= 0.30
     Davidson diagonalization with overlap

---- Real-time Memory Report at c_bands before calling an iterative solver
           738 MiB given to the printing process from OS
             0 MiB allocation reported by mallinfo(arena+hblkhd)
        848632 MiB available memory on the node where the printing process lives
     GPU memory used/free/total (MiB): 1074 / 80076 / 81151
------------------
     ethr =  2.20E-03,  avg # of iterations =  2.0

     total cpu time spent up to now is        8.2 secs

     total energy              =    -569.09620279 Ry
     estimated scf accuracy    <       0.71037982 Ry

     total magnetization       =     2.15 Bohr mag/cell
     absolute magnetization    =     2.18 Bohr mag/cell
[tb_dev] Currently allocated     3.05E-05 Mbytes, locked:    0 /   2
[tb_pin] Currently allocated     0.00E+00 Mbytes, locked:    0 /   0

     iteration #  4     ecut=    60.00 Ry     beta= 0.30
     Davidson diagonalization with overlap

---- Real-time Memory Report at c_bands before calling an iterative solver
           739 MiB given to the printing process from OS
             0 MiB allocation reported by mallinfo(arena+hblkhd)
        848601 MiB available memory on the node where the printing process lives
     GPU memory used/free/total (MiB): 1074 / 80076 / 81151
------------------
     ethr =  1.87E-03,  avg # of iterations =  1.9

     total cpu time spent up to now is        9.3 secs

     total energy              =    -569.09057973 Ry
     estimated scf accuracy    <       0.54007238 Ry

     total magnetization       =     3.19 Bohr mag/cell
     absolute magnetization    =     3.23 Bohr mag/cell
[tb_dev] Currently allocated     3.05E-05 Mbytes, locked:    0 /   2
[tb_pin] Currently allocated     0.00E+00 Mbytes, locked:    0 /   0

     iteration #  5     ecut=    60.00 Ry     beta= 0.30
     Davidson diagonalization with overlap

---- Real-time Memory Report at c_bands before calling an iterative solver
           741 MiB given to the printing process from OS
             0 MiB allocation reported by mallinfo(arena+hblkhd)
        848581 MiB available memory on the node where the printing process lives
     GPU memory used/free/total (MiB): 1074 / 80076 / 81151
------------------
     ethr =  1.42E-03,  avg # of iterations =  1.5

     total cpu time spent up to now is       10.4 secs

     total energy              =    -569.18148984 Ry
     estimated scf accuracy    <       0.08826086 Ry

     total magnetization       =     0.86 Bohr mag/cell
     absolute magnetization    =     1.25 Bohr mag/cell
[tb_dev] Currently allocated     3.05E-05 Mbytes, locked:    0 /   2
[tb_pin] Currently allocated     0.00E+00 Mbytes, locked:    0 /   0

     iteration #  6     ecut=    60.00 Ry     beta= 0.30
     Davidson diagonalization with overlap

---- Real-time Memory Report at c_bands before calling an iterative solver
           742 MiB given to the printing process from OS
             0 MiB allocation reported by mallinfo(arena+hblkhd)
        848585 MiB available memory on the node where the printing process lives
     GPU memory used/free/total (MiB): 1074 / 80076 / 81151
------------------
     ethr =  2.32E-04,  avg # of iterations =  8.8

     total cpu time spent up to now is       12.5 secs

     total energy              =    -569.17967164 Ry
     estimated scf accuracy    <       0.14405989 Ry

     total magnetization       =     0.58 Bohr mag/cell
     absolute magnetization    =     0.84 Bohr mag/cell
[tb_dev] Currently allocated     3.05E-05 Mbytes, locked:    0 /   2
[tb_pin] Currently allocated     0.00E+00 Mbytes, locked:    0 /   0

     iteration #  7     ecut=    60.00 Ry     beta= 0.30
     Davidson diagonalization with overlap

---- Real-time Memory Report at c_bands before calling an iterative solver
           744 MiB given to the printing process from OS
             0 MiB allocation reported by mallinfo(arena+hblkhd)
        848629 MiB available memory on the node where the printing process lives
     GPU memory used/free/total (MiB): 1074 / 80076 / 81151
------------------
     ethr =  2.32E-04,  avg # of iterations =  1.3

     total cpu time spent up to now is       13.6 secs

     total energy              =    -569.20279075 Ry
     estimated scf accuracy    <       0.03662843 Ry

     total magnetization       =     0.63 Bohr mag/cell
     absolute magnetization    =     0.85 Bohr mag/cell
[tb_dev] Currently allocated     3.05E-05 Mbytes, locked:    0 /   2
[tb_pin] Currently allocated     0.00E+00 Mbytes, locked:    0 /   0

     iteration #  8     ecut=    60.00 Ry     beta= 0.30
     Davidson diagonalization with overlap

---- Real-time Memory Report at c_bands before calling an iterative solver
           745 MiB given to the printing process from OS
             0 MiB allocation reported by mallinfo(arena+hblkhd)
        848647 MiB available memory on the node where the printing process lives
     GPU memory used/free/total (MiB): 1074 / 80076 / 81151
------------------
     ethr =  9.64E-05,  avg # of iterations =  2.3

     total cpu time spent up to now is       14.8 secs

     total energy              =    -569.20608864 Ry
     estimated scf accuracy    <       0.03033797 Ry

     total magnetization       =     0.65 Bohr mag/cell
     absolute magnetization    =     0.70 Bohr mag/cell
[tb_dev] Currently allocated     3.05E-05 Mbytes, locked:    0 /   2
[tb_pin] Currently allocated     0.00E+00 Mbytes, locked:    0 /   0

     iteration #  9     ecut=    60.00 Ry     beta= 0.30
     Davidson diagonalization with overlap

---- Real-time Memory Report at c_bands before calling an iterative solver
           748 MiB given to the printing process from OS
             0 MiB allocation reported by mallinfo(arena+hblkhd)
        848619 MiB available memory on the node where the printing process lives
     GPU memory used/free/total (MiB): 1074 / 80076 / 81151
------------------
     ethr =  7.98E-05,  avg # of iterations =  1.8

     total cpu time spent up to now is       15.9 secs

     total energy              =    -569.20287273 Ry
     estimated scf accuracy    <       0.01660827 Ry

     total magnetization       =     0.64 Bohr mag/cell
     absolute magnetization    =     0.68 Bohr mag/cell
[tb_dev] Currently allocated     3.05E-05 Mbytes, locked:    0 /   2
[tb_pin] Currently allocated     0.00E+00 Mbytes, locked:    0 /   0

     iteration # 10     ecut=    60.00 Ry     beta= 0.30
     Davidson diagonalization with overlap

---- Real-time Memory Report at c_bands before calling an iterative solver
           751 MiB given to the printing process from OS
             0 MiB allocation reported by mallinfo(arena+hblkhd)
        848627 MiB available memory on the node where the printing process lives
     GPU memory used/free/total (MiB): 1074 / 80076 / 81151
------------------
     ethr =  4.37E-05,  avg # of iterations =  2.9

     total cpu time spent up to now is       17.2 secs

     total energy              =    -569.20575093 Ry
     estimated scf accuracy    <       0.00285792 Ry

     total magnetization       =     0.66 Bohr mag/cell
     absolute magnetization    =     0.69 Bohr mag/cell
[tb_dev] Currently allocated     3.05E-05 Mbytes, locked:    0 /   2
[tb_pin] Currently allocated     0.00E+00 Mbytes, locked:    0 /   0

     iteration # 11     ecut=    60.00 Ry     beta= 0.30
     Davidson diagonalization with overlap

---- Real-time Memory Report at c_bands before calling an iterative solver
           751 MiB given to the printing process from OS
             0 MiB allocation reported by mallinfo(arena+hblkhd)
        848641 MiB available memory on the node where the printing process lives
     GPU memory used/free/total (MiB): 1074 / 80076 / 81151
------------------
     c_bands:  2 eigenvalues not converged
     ethr =  7.52E-06,  avg # of iterations =  5.9

     total cpu time spent up to now is       18.9 secs

     total energy              =    -569.20626039 Ry
     estimated scf accuracy    <       0.00050608 Ry

     total magnetization       =     0.66 Bohr mag/cell
     absolute magnetization    =     0.68 Bohr mag/cell
[tb_dev] Currently allocated     3.05E-05 Mbytes, locked:    0 /   2
[tb_pin] Currently allocated     0.00E+00 Mbytes, locked:    0 /   0

     iteration # 12     ecut=    60.00 Ry     beta= 0.30
     Davidson diagonalization with overlap

---- Real-time Memory Report at c_bands before calling an iterative solver
           751 MiB given to the printing process from OS
             0 MiB allocation reported by mallinfo(arena+hblkhd)
        848641 MiB available memory on the node where the printing process lives
     GPU memory used/free/total (MiB): 1074 / 80076 / 81151
------------------
     ethr =  1.33E-06,  avg # of iterations =  6.6

     total cpu time spent up to now is       20.7 secs

     total energy              =    -569.20636682 Ry
     estimated scf accuracy    <       0.00113061 Ry

     total magnetization       =     0.66 Bohr mag/cell
     absolute magnetization    =     0.68 Bohr mag/cell
[tb_dev] Currently allocated     3.05E-05 Mbytes, locked:    0 /   2
[tb_pin] Currently allocated     0.00E+00 Mbytes, locked:    0 /   0

     iteration # 13     ecut=    60.00 Ry     beta= 0.30
     Davidson diagonalization with overlap

---- Real-time Memory Report at c_bands before calling an iterative solver
           751 MiB given to the printing process from OS
             0 MiB allocation reported by mallinfo(arena+hblkhd)
        848652 MiB available memory on the node where the printing process lives
     GPU memory used/free/total (MiB): 1074 / 80076 / 81151
------------------
     ethr =  1.33E-06,  avg # of iterations =  1.8

     total cpu time spent up to now is       21.8 secs

     total energy              =    -569.20644200 Ry
     estimated scf accuracy    <       0.00017666 Ry

     total magnetization       =     0.67 Bohr mag/cell
     absolute magnetization    =     0.69 Bohr mag/cell
[tb_dev] Currently allocated     3.05E-05 Mbytes, locked:    0 /   2
[tb_pin] Currently allocated     0.00E+00 Mbytes, locked:    0 /   0

     iteration # 14     ecut=    60.00 Ry     beta= 0.30
     Davidson diagonalization with overlap

---- Real-time Memory Report at c_bands before calling an iterative solver
           751 MiB given to the printing process from OS
             0 MiB allocation reported by mallinfo(arena+hblkhd)
        848696 MiB available memory on the node where the printing process lives
     GPU memory used/free/total (MiB): 1074 / 80076 / 81151
------------------
     ethr =  4.65E-07,  avg # of iterations =  3.0

     total cpu time spent up to now is       23.2 secs

     total energy              =    -569.20647130 Ry
     estimated scf accuracy    <       0.00002855 Ry

     total magnetization       =     0.67 Bohr mag/cell
     absolute magnetization    =     0.69 Bohr mag/cell
[tb_dev] Currently allocated     3.05E-05 Mbytes, locked:    0 /   2
[tb_pin] Currently allocated     0.00E+00 Mbytes, locked:    0 /   0

     iteration # 15     ecut=    60.00 Ry     beta= 0.30
     Davidson diagonalization with overlap

---- Real-time Memory Report at c_bands before calling an iterative solver
           751 MiB given to the printing process from OS
             0 MiB allocation reported by mallinfo(arena+hblkhd)
        848712 MiB available memory on the node where the printing process lives
     GPU memory used/free/total (MiB): 1074 / 80076 / 81151
------------------
     ethr =  7.51E-08,  avg # of iterations =  4.8

     total cpu time spent up to now is       24.7 secs

     total energy              =    -569.20648977 Ry
     estimated scf accuracy    <       0.00002150 Ry

     total magnetization       =     0.67 Bohr mag/cell
     absolute magnetization    =     0.70 Bohr mag/cell
[tb_dev] Currently allocated     3.05E-05 Mbytes, locked:    0 /   2
[tb_pin] Currently allocated     0.00E+00 Mbytes, locked:    0 /   0

     iteration # 16     ecut=    60.00 Ry     beta= 0.30
     Davidson diagonalization with overlap

---- Real-time Memory Report at c_bands before calling an iterative solver
           751 MiB given to the printing process from OS
             0 MiB allocation reported by mallinfo(arena+hblkhd)
        848711 MiB available memory on the node where the printing process lives
     GPU memory used/free/total (MiB): 1074 / 80076 / 81151
------------------
     ethr =  5.66E-08,  avg # of iterations =  1.3

     total cpu time spent up to now is       25.8 secs

     total energy              =    -569.20648607 Ry
     estimated scf accuracy    <       0.00001442 Ry

     total magnetization       =     0.67 Bohr mag/cell
     absolute magnetization    =     0.70 Bohr mag/cell
[tb_dev] Currently allocated     3.05E-05 Mbytes, locked:    0 /   2
[tb_pin] Currently allocated     0.00E+00 Mbytes, locked:    0 /   0

     iteration # 17     ecut=    60.00 Ry     beta= 0.30
     Davidson diagonalization with overlap

---- Real-time Memory Report at c_bands before calling an iterative solver
           751 MiB given to the printing process from OS
             0 MiB allocation reported by mallinfo(arena+hblkhd)
        848745 MiB available memory on the node where the printing process lives
     GPU memory used/free/total (MiB): 1074 / 80076 / 81151
------------------
     ethr =  3.80E-08,  avg # of iterations =  2.3

     total cpu time spent up to now is       27.0 secs

     total energy              =    -569.20648905 Ry
     estimated scf accuracy    <       0.00000030 Ry

     total magnetization       =     0.67 Bohr mag/cell
     absolute magnetization    =     0.70 Bohr mag/cell
[tb_dev] Currently allocated     3.05E-05 Mbytes, locked:    0 /   2
[tb_pin] Currently allocated     0.00E+00 Mbytes, locked:    0 /   0

     iteration # 18     ecut=    60.00 Ry     beta= 0.30
     Davidson diagonalization with overlap

---- Real-time Memory Report at c_bands before calling an iterative solver
           751 MiB given to the printing process from OS
             0 MiB allocation reported by mallinfo(arena+hblkhd)
        849232 MiB available memory on the node where the printing process lives
     GPU memory used/free/total (MiB): 1074 / 80076 / 81151
------------------
     ethr =  8.01E-10,  avg # of iterations = 10.0

     total cpu time spent up to now is       29.3 secs

     total energy              =    -569.20648997 Ry
     estimated scf accuracy    <       0.00000033 Ry

     total magnetization       =     0.67 Bohr mag/cell
     absolute magnetization    =     0.70 Bohr mag/cell
[tb_dev] Currently allocated     3.05E-05 Mbytes, locked:    0 /   2
[tb_pin] Currently allocated     0.00E+00 Mbytes, locked:    0 /   0

     iteration # 19     ecut=    60.00 Ry     beta= 0.30
     Davidson diagonalization with overlap

---- Real-time Memory Report at c_bands before calling an iterative solver
           751 MiB given to the printing process from OS
             0 MiB allocation reported by mallinfo(arena+hblkhd)
        848885 MiB available memory on the node where the printing process lives
     GPU memory used/free/total (MiB): 1074 / 80076 / 81151
------------------
     ethr =  8.01E-10,  avg # of iterations =  1.2

     total cpu time spent up to now is       30.4 secs

     total energy              =    -569.20649003 Ry
     estimated scf accuracy    <       0.00000015 Ry

     total magnetization       =     0.67 Bohr mag/cell
     absolute magnetization    =     0.70 Bohr mag/cell
[tb_dev] Currently allocated     3.05E-05 Mbytes, locked:    0 /   2
[tb_pin] Currently allocated     0.00E+00 Mbytes, locked:    0 /   0

     iteration # 20     ecut=    60.00 Ry     beta= 0.30
     Davidson diagonalization with overlap

---- Real-time Memory Report at c_bands before calling an iterative solver
           751 MiB given to the printing process from OS
             0 MiB allocation reported by mallinfo(arena+hblkhd)
        848887 MiB available memory on the node where the printing process lives
     GPU memory used/free/total (MiB): 1074 / 80076 / 81151
------------------
     ethr =  3.93E-10,  avg # of iterations =  2.5
 
     Magnetic moment per site  (integrated on atomic sphere of radius R)
     atom   1 (R=0.275)  charge= 14.1009  magn=  0.5279
     atom   2 (R=0.275)  charge=  5.2195  magn=  0.0538
     atom   3 (R=0.275)  charge=  5.2262  magn=  0.0508
     atom   4 (R=0.413)  charge=  8.2270  magn= -0.0027

     total cpu time spent up to now is       31.9 secs

     End of self-consistent calculation

 ------ SPIN UP ------------


          k = 0.0000 0.0000 0.0000 (  3231 PWs)   bands (ev):

   -90.3534 -53.5814 -53.5595 -53.5595 -48.2655 -20.1200 -20.0739 -20.0739
   -13.9479 -12.0564  -0.3007   0.2828   0.2828   3.0130   3.1876   3.8422
     3.8422   3.9309   3.9309   5.1635   7.6995   7.6995   8.4289  11.8141
    15.1643  16.2076  21.1871

     occupation numbers 
     1.0000   1.0000   1.0000   1.0000   1.0000   1.0000   1.0000   1.0000
     1.0000   1.0000   1.0000   1.0000   1.0000   1.0000   1.0000   1.0000
     1.0000   1.0000   1.0000   1.0309   0.0000   0.0000   0.0000   0.0000
     0.0000   0.0000   0.0000

          k = 0.0000 0.0000 0.1146 (  3237 PWs)   bands (ev):

   -90.3534 -53.5815 -53.5595 -53.5595 -48.2655 -20.1201 -20.0739 -20.0739
   -13.9477 -12.0567  -0.2652   0.2828   0.2828   2.4342   3.8422   3.8422
     3.9308   3.9308   3.9423   5.0635   7.6996   7.6996   8.0696  12.6066
    14.3242  16.3828  21.2435

     occupation numbers 
     1.0000   1.0000   1.0000   1.0000   1.0000   1.0000   1.0000   1.0000
     1.0000   1.0000   1.0000   1.0000   1.0000   1.0000   1.0000   1.0000
     1.0000   1.0000   1.0000   1.0830   0.0000   0.0000   0.0000   0.0000
     0.0000   0.0000   0.0000

          k = 0.0000 0.1443 0.0000 (  3229 PWs)   bands (ev):

   -90.3527 -53.5803 -53.5676 -53.5614 -48.2603 -20.1181 -20.1130 -20.0834
   -13.7764 -12.0602  -0.0941   0.0978   0.3954   2.7283   3.1563   3.4003
     3.5584   4.2560   4.5119   5.2485   7.1897   7.6011   8.7624  12.3924
    15.7829  16.5249  19.1220

     occupation numbers 
     1.0000   1.0000   1.0000   1.0000   1.0000   1.0000   1.0000   1.0000
     1.0000   1.0000   1.0000   1.0000   1.0000   1.0000   1.0000   1.0000
     1.0000   1.0000   1.0002   0.8958   0.0000   0.0000   0.0000   0.0000
     0.0000   0.0000   0.0000

          k = 0.0000 0.1443 0.1146 (  3219 PWs)   bands (ev):

   -90.3527 -53.5802 -53.5676 -53.5614 -48.2603 -20.1180 -20.1129 -20.0834
   -13.7763 -12.0605  -0.0674   0.0940   0.3954   2.7392   2.8967   3.1563
     4.1143   4.3611   4.5119   5.1204   7.2650   7.6011   8.4270  13.0851
    14.8244  16.9607  19.1011

     occupation numbers 
     1.0000   1.0000   1.0000   1.0000   1.0000   1.0000   1.0000   1.0000
     1.0000   1.0000   1.0000   1.0000   1.0000   1.0000   1.0000   1.0000
     1.0000   1.0000   1.0002   1.0660   0.0000   0.0000   0.0000   0.0000
     0.0000   0.0000   0.0000

          k = 0.0000 0.2887 0.0000 (  3212 PWs)   bands (ev):

   -90.3509 -53.5873 -53.5774 -53.5661 -48.2477 -20.2234 -20.1060 -20.0961
   -13.3262 -12.0834  -0.1743   0.4035   0.6632   1.3969   2.5912   3.7555
     4.3576   4.5100   4.7289   5.2248   6.5990   7.4826   9.5503  13.6711
    15.3215  16.9669  17.3666

     occupation numbers 
     1.0000   1.0000   1.0000   1.0000   1.0000   1.0000   1.0000   1.0000
     1.0000   1.0000   1.0000   1.0000   1.0000   1.0000   1.0000   1.0000
     1.0000   1.0002   1.0071   0.9421   0.0000   0.0000   0.0000   0.0000
     0.0000   0.0000   0.0000

          k = 0.0000 0.2887 0.1146 (  3212 PWs)   bands (ev):

   -90.3509 -53.5873 -53.5774 -53.5661 -48.2477 -20.2233 -20.1062 -20.0961
   -13.3261 -12.0835  -0.1819   0.4177   0.6632   1.4078   2.5911   3.6584
     4.2510   4.7289   4.8592   4.9957   6.7735   7.4825   9.3330  14.0909
    15.3416  15.9664  18.2932

     occupation numbers 
     1.0000   1.0000   1.0000   1.0000   1.0000   1.0000   1.0000   1.0000
     1.0000   1.0000   1.0000   1.0000   1.0000   1.0000   1.0000   1.0000
     1.0000   1.0071   1.0304   1.0743   0.0000   0.0000   0.0000   0.0000
     0.0000   0.0000   0.0000

          k = 0.0000 0.4330 0.0000 (  3198 PWs)   bands (ev):

   -90.3491 -53.6069 -53.5744 -53.5708 -48.2350 -20.3267 -20.1287 -20.0790
   -12.7825 -12.1597  -0.6272   0.4310   0.8743   1.4292   2.4060   3.2688
     4.2426   4.4891   4.7413   6.3625   6.9185   7.5214  10.8550  11.9253
    15.3328  15.6896  17.9072

     occupation numbers 
     1.0000   1.0000   1.0000   1.0000   1.0000   1.0000   1.0000   1.0000
     1.0000   1.0000   1.0000   1.0000   1.0000   1.0000   1.0000   1.0000
     1.0000   1.0001   1.0083   0.0000   0.0000   0.0000   0.0000   0.0000
     0.0000   0.0000   0.0000

          k = 0.0000 0.4330 0.1146 (  3216 PWs)   bands (ev):

   -90.3492 -53.6070 -53.5745 -53.5709 -48.2351 -20.3268 -20.1290 -20.0791
   -12.7825 -12.1598  -0.6282   0.4285   0.8743   1.4372   2.4059   3.2748
     4.2393   4.4891   4.7467   6.1805   7.1300   7.5213  10.7877  11.8861
    15.3761  16.0702  17.0218

     occupation numbers 
     1.0000   1.0000   1.0000   1.0000   1.0000   1.0000   1.0000   1.0000
     1.0000   1.0000   1.0000   1.0000   1.0000   1.0000   1.0000   1.0000
     1.0000   1.0001   1.0089   0.0000   0.0000   0.0000   0.0000   0.0000
     0.0000   0.0000   0.0000

          k = 0.0000-0.5774 0.0000 (  3214 PWs)   bands (ev):

   -90.3484 -53.6151 -53.5733 -53.5728 -48.2299 -20.3691 -20.1384 -20.0721
   -12.4094 -12.3240  -1.0094   0.6129   0.9178   1.6136   2.4628   2.9971
     4.0020   4.2731   4.6812   6.9521   7.5702   8.3154   9.6238  12.6258
    13.2660  16.7538  16.8973

     occupation numbers 
     1.0000   1.0000   1.0000   1.0000   1.0000   1.0000   1.0000   1.0000
     1.0000   1.0000   1.0000   1.0000   1.0000   1.0000   1.0000   1.0000
     1.0000   1.0000   1.0037   0.0000   0.0000   0.0000   0.0000   0.0000
     0.0000   0.0000   0.0000

          k = 0.0000-0.5774 0.1146 (  3216 PWs)   bands (ev):

   -90.3484 -53.6152 -53.5732 -53.5728 -48.2299 -20.3693 -20.1384 -20.0719
   -12.4095 -12.3240  -1.0095   0.6108   0.9178   1.6150   2.4628   3.0040
     4.0009   4.2731   4.6793   6.9388   7.5702   8.3335   9.5800  12.6240
    13.4497  16.1504  17.2307

     occupation numbers 
     1.0000   1.0000   1.0000   1.0000   1.0000   1.0000   1.0000   1.0000
     1.0000   1.0000   1.0000   1.0000   1.0000   1.0000   1.0000   1.0000
     1.0000   1.0000   1.0036   0.0000   0.0000   0.0000   0.0000   0.0000
     0.0000   0.0000   0.0000

          k = 0.1250 0.2165 0.0000 (  3225 PWs)   bands (ev):

   -90.3514 -53.5806 -53.5783 -53.5657 -48.2514 -20.1879 -20.1046 -20.1010
   -13.4655 -12.0729  -0.0784   0.2716   0.5474   1.8730   2.4513   3.8156
     4.1848   4.3225   4.8126   5.2271   6.7734   7.3634   9.3009  13.3303
    16.3999  16.8762  17.0548

     occupation numbers 
     1.0000   1.0000   1.0000   1.0000   1.0000   1.0000   1.0000   1.0000
     1.0000   1.0000   1.0000   1.0000   1.0000   1.0000   1.0000   1.0000
     1.0000   1.0000   1.0192   0.9380   0.0000   0.0000   0.0000   0.0000
     0.0000   0.0000   0.0000

          k = 0.1250 0.2165 0.1146 (  3212 PWs)   bands (ev):

   -90.3514 -53.5806 -53.5782 -53.5656 -48.2514 -20.1878 -20.1044 -20.1009
   -13.4654 -12.0731  -0.0862   0.2904   0.5480   1.8834   2.4513   3.5417
     4.3098   4.4870   4.8917   5.1235   6.8739   7.3219   9.1234  13.7572
    15.7094  16.5324  17.9505

     occupation numbers 
     1.0000   1.0000   1.0000   1.0000   1.0000   1.0000   1.0000   1.0000
     1.0000   1.0000   1.0000   1.0000   1.0000   1.0000   1.0000   1.0000
     1.0000   1.0001   1.0401   1.0641   0.0000   0.0000   0.0000   0.0000
     0.0000   0.0000   0.0000

          k = 0.1250 0.3608 0.0000 (  3216 PWs)   bands (ev):

   -90.3497 -53.5983 -53.5755 -53.5723 -48.2388 -20.2810 -20.1382 -20.0841
   -12.9695 -12.1149  -0.2175   0.2900   0.8789   1.3296   2.0213   3.5751
     4.3428   4.6102   4.9548   5.7892   6.7570   7.2673  10.3381  13.4770
    14.7294  17.1444  17.6326

     occupation numbers 
     1.0000   1.0000   1.0000   1.0000   1.0000   1.0000   1.0000   1.0000
     1.0000   1.0000   1.0000   1.0000   1.0000   1.0000   1.0000   1.0000
     1.0000   1.0012   1.0615   0.0099   0.0000   0.0000   0.0000   0.0000
     0.0000   0.0000   0.0000

          k = 0.1250 0.3608 0.1146 (  3205 PWs)   bands (ev):

   -90.3497 -53.5982 -53.5754 -53.5722 -48.2388 -20.2808 -20.1382 -20.0840
   -12.9694 -12.1149  -0.2213   0.2896   0.8816   1.3401   2.0214   3.5683
     4.3421   4.6252   4.9245   5.7127   6.9451   7.2053  10.2689  13.4733
    14.8538  16.7855  17.7625

     occupation numbers 
     1.0000   1.0000   1.0000   1.0000   1.0000   1.0000   1.0000   1.0000
     1.0000   1.0000   1.0000   1.0000   1.0000   1.0000   1.0000   1.0000
     1.0000   1.0015   1.0511   0.0290   0.0000   0.0000   0.0000   0.0000
     0.0000   0.0000   0.0000

          k = 0.1250 0.5052 0.0000 (  3220 PWs)   bands (ev):

   -90.3484 -53.6107 -53.5772 -53.5733 -48.2299 -20.3454 -20.1626 -20.0721
   -12.5106 -12.2234  -0.7206   0.2930   1.1496   1.6048   1.9804   2.9815
     4.0983   4.4039   4.8754   6.8851   7.2703   7.8821  10.6598  12.0336
    14.5472  15.7088  17.2696

     occupation numbers 
     1.0000   1.0000   1.0000   1.0000   1.0000   1.0000   1.0000   1.0000
     1.0000   1.0000   1.0000   1.0000   1.0000   1.0000   1.0000   1.0000
     1.0000   1.0000   1.0351   0.0000   0.0000   0.0000   0.0000   0.0000
     0.0000   0.0000   0.0000

          k = 0.1250 0.5052 0.1146 (  3217 PWs)   bands (ev):

   -90.3484 -53.6107 -53.5772 -53.5733 -48.2299 -20.3453 -20.1626 -20.0721
   -12.5106 -12.2234  -0.7207   0.2919   1.1485   1.6076   1.9802   2.9863
     4.0977   4.4048   4.8720   6.8460   7.3053   7.8861  10.6355  12.0311
    14.6814  15.6388  17.3571

     occupation numbers 
     1.0000   1.0000   1.0000   1.0000   1.0000   1.0000   1.0000   1.0000
     1.0000   1.0000   1.0000   1.0000   1.0000   1.0000   1.0000   1.0000
     1.0000   1.0000   1.0341   0.0000   0.0000   0.0000   0.0000   0.0000
     0.0000   0.0000   0.0000

          k = 0.2500 0.4330 0.0000 (  3215 PWs)   bands (ev):

   -90.3484 -53.6045 -53.5834 -53.5734 -48.2299 -20.3121 -20.1962 -20.0722
   -12.5657 -12.1688  -0.1534  -0.0361   0.9274   1.6360   1.6941   3.0111
     4.1599   4.5048   5.0609   6.8051   6.9730   7.6570  11.6651  11.9376
    14.4587  16.6495  16.7629

     occupation numbers 
     1.0000   1.0000   1.0000   1.0000   1.0000   1.0000   1.0000   1.0000
     1.0000   1.0000   1.0000   1.0000   1.0000   1.0000   1.0000   1.0000
     1.0000   1.0002   1.0832   0.0000   0.0000   0.0000   0.0000   0.0000
     0.0000   0.0000   0.0000

          k = 0.2500 0.4330 0.1146 (  3206 PWs)   bands (ev):

   -90.3484 -53.6045 -53.5833 -53.5733 -48.2298 -20.3121 -20.1961 -20.0721
   -12.5657 -12.1688  -0.1533  -0.0377   0.9277   1.6366   1.6978   3.0109
     4.1606   4.5067   5.0502   6.8619   6.9550   7.6020  11.7285  11.9239
    14.4058  16.6071  16.8665

     occupation numbers 
     1.0000   1.0000   1.0000   1.0000   1.0000   1.0000   1.0000   1.0000
     1.0000   1.0000   1.0000   1.0000   1.0000   1.0000   1.0000   1.0000
     1.0000   1.0002   1.0833   0.0000   0.0000   0.0000   0.0000   0.0000
     0.0000   0.0000   0.0000

          k = 0.2500 0.5774 0.0000 (  3210 PWs)   bands (ev):

   -90.3479 -53.6050 -53.5900 -53.5725 -48.2262 -20.3133 -20.2318 -20.0671
   -12.3342 -12.2467  -0.3126   0.0645   0.7567   1.7538   1.9600   2.5586
     3.8905   4.7060   4.9635   6.9554   6.9719   9.2044  10.1971  13.6582
    13.8155  14.2108  16.4872

     occupation numbers 
     1.0000   1.0000   1.0000   1.0000   1.0000   1.0000   1.0000   1.0000
     1.0000   1.0000   1.0000   1.0000   1.0000   1.0000   1.0000   1.0000
     1.0000   1.0052   1.0644   0.0000   0.0000   0.0000   0.0000   0.0000
     0.0000   0.0000   0.0000

          k = 0.2500 0.5774 0.1146 (  3215 PWs)   bands (ev):

   -90.3479 -53.6050 -53.5900 -53.5725 -48.2262 -20.3134 -20.2318 -20.0672
   -12.3342 -12.2467  -0.3127   0.0642   0.7572   1.7535   1.9602   2.5591
     3.8905   4.7064   4.9611   6.9609   6.9859   9.1675  10.1689  13.7216
    13.8032  14.2950  16.5164

     occupation numbers 
     1.0000   1.0000   1.0000   1.0000   1.0000   1.0000   1.0000   1.0000
     1.0000   1.0000   1.0000   1.0000   1.0000   1.0000   1.0000   1.0000
     1.0000   1.0052   1.0636   0.0000   0.0000   0.0000   0.0000   0.0000
     0.0000   0.0000   0.0000

          k = 0.0000-0.1443 0.1146 (  3219 PWs)   bands (ev):

   -90.3527 -53.5802 -53.5676 -53.5614 -48.2603 -20.1180 -20.1129 -20.0834
   -13.7763 -12.0605  -0.0641   0.0907   0.3954   2.6911   2.9544   3.1563
     4.1024   4.3571   4.5119   5.1405   7.2014   7.6012   8.4933  13.0321
    14.8628  16.9745  19.0882

     occupation numbers 
     1.0000   1.0000   1.0000   1.0000   1.0000   1.0000   1.0000   1.0000
     1.0000   1.0000   1.0000   1.0000   1.0000   1.0000   1.0000   1.0000
     1.0000   1.0000   1.0002   1.0523   0.0000   0.0000   0.0000   0.0000
     0.0000   0.0000   0.0000

          k = 0.0000-0.2887 0.1146 (  3212 PWs)   bands (ev):

   -90.3509 -53.5873 -53.5774 -53.5661 -48.2477 -20.2233 -20.1062 -20.0961
   -13.3261 -12.0835  -0.1791   0.4126   0.6632   1.4106   2.5911   3.6306
     4.2863   4.7144   4.7289   5.2358   6.5879   7.4826   9.4798  13.8505
    15.3951  16.1682  18.3112

     occupation numbers 
     1.0000   1.0000   1.0000   1.0000   1.0000   1.0000   1.0000   1.0000
     1.0000   1.0000   1.0000   1.0000   1.0000   1.0000   1.0000   1.0000
     1.0000   1.0058   1.0071   0.9214   0.0000   0.0000   0.0000   0.0000
     0.0000   0.0000   0.0000

          k = 0.0000-0.4330 0.1146 (  3216 PWs)   bands (ev):

   -90.3492 -53.6070 -53.5745 -53.5709 -48.2351 -20.3268 -20.1290 -20.0791
   -12.7825 -12.1597  -0.6285   0.4281   0.8743   1.4402   2.4059   3.2649
     4.2451   4.4891   4.7273   6.4054   6.8623   7.5213  10.9480  11.8924
    15.1450  15.8254  17.3864

     occupation numbers 
     1.0000   1.0000   1.0000   1.0000   1.0000   1.0000   1.0000   1.0000
     1.0000   1.0000   1.0000   1.0000   1.0000   1.0000   1.0000   1.0000
     1.0000   1.0001   1.0069   0.0000   0.0000   0.0000   0.0000   0.0000
     0.0000   0.0000   0.0000

          k =-0.1250-0.3608 0.1146 (  3205 PWs)   bands (ev):

   -90.3497 -53.5982 -53.5754 -53.5722 -48.2388 -20.2808 -20.1382 -20.0840
   -12.9694 -12.1149  -0.2209   0.2889   0.8800   1.3439   2.0208   3.5589
     4.3483   4.6311   4.8858   5.8496   6.7569   7.2540  10.3536  13.4472
    14.7484  17.0506  17.7151

     occupation numbers 
     1.0000   1.0000   1.0000   1.0000   1.0000   1.0000   1.0000   1.0000
     1.0000   1.0000   1.0000   1.0000   1.0000   1.0000   1.0000   1.0000
     1.0000   1.0017   1.0383   0.0038   0.0000   0.0000   0.0000   0.0000
     0.0000   0.0000   0.0000

          k =-0.1250-0.5052 0.1146 (  3217 PWs)   bands (ev):

   -90.3484 -53.6107 -53.5772 -53.5733 -48.2299 -20.3453 -20.1626 -20.0721
   -12.5106 -12.2234  -0.7209   0.2920   1.1487   1.6081   1.9809   2.9833
     4.0988   4.4048   4.8691   6.9104   7.2792   7.8232  10.6438  12.1380
    14.6192  15.4706  17.5350

     occupation numbers 
     1.0000   1.0000   1.0000   1.0000   1.0000   1.0000   1.0000   1.0000
     1.0000   1.0000   1.0000   1.0000   1.0000   1.0000   1.0000   1.0000
     1.0000   1.0000   1.0332   0.0000   0.0000   0.0000   0.0000   0.0000
     0.0000   0.0000   0.0000

 ------ SPIN DOWN ----------


          k = 0.0000 0.0000 0.0000 (  3231 PWs)   bands (ev):

   -89.7078 -52.9784 -52.9784 -52.8554 -48.2668 -20.1207 -20.0756 -20.0756
   -13.8623 -11.9639  -0.0444   0.4834   0.4834   3.0930   3.2716   3.9926
     3.9926   4.3740   4.3740   5.8943   7.9791   7.9791   8.4533  11.8715
    15.2458  16.2981  21.2134

     occupation numbers 
     1.0000   1.0000   1.0000   1.0000   1.0000   1.0000   1.0000   1.0000
     1.0000   1.0000   1.0000   1.0000   1.0000   1.0000   1.0000   1.0000
     1.0000   1.0000   1.0000   0.0018   0.0000   0.0000   0.0000   0.0000
     0.0000   0.0000   0.0000

          k = 0.0000 0.0000 0.1146 (  3237 PWs)   bands (ev):

   -89.7078 -52.9784 -52.9784 -52.8555 -48.2668 -20.1208 -20.0756 -20.0756
   -13.8622 -11.9642  -0.0002   0.4834   0.4834   2.4835   3.9925   3.9925
     4.0380   4.3740   4.3740   5.8019   7.9791   7.9791   8.0939  12.6669
    14.4142  16.4521  21.3094

     occupation numbers 
     1.0000   1.0000   1.0000   1.0000   1.0000   1.0000   1.0000   1.0000
     1.0000   1.0000   1.0000   1.0000   1.0000   1.0000   1.0000   1.0000
     1.0000   1.0000   1.0000   0.0082   0.0000   0.0000   0.0000   0.0000
     0.0000   0.0000   0.0000

          k = 0.0000 0.1443 0.0000 (  3229 PWs)   bands (ev):

   -89.7071 -52.9868 -52.9804 -52.8542 -48.2616 -20.1199 -20.1137 -20.0851
   -13.6904 -11.9671   0.1604   0.2883   0.5896   2.8912   3.3865   3.4992
     3.6550   4.7114   4.8934   5.9302   7.4557   7.8732   8.8068  12.4442
    15.8629  16.6186  19.1043

     occupation numbers 
     1.0000   1.0000   1.0000   1.0000   1.0000   1.0000   1.0000   1.0000
     1.0000   1.0000   1.0000   1.0000   1.0000   1.0000   1.0000   1.0000
     1.0000   1.0056   1.0407   0.0009   0.0000   0.0000   0.0000   0.0000
     0.0000   0.0000   0.0000

          k = 0.0000 0.1443 0.1146 (  3219 PWs)   bands (ev):

   -89.7071 -52.9868 -52.9804 -52.8541 -48.2616 -20.1198 -20.1136 -20.0851
   -13.6902 -11.9674   0.1894   0.2881   0.5896   2.9035   2.9639   3.3865
     4.2874   4.7409   4.8934   5.8228   7.5504   7.8732   8.4504  13.1407
    14.9129  17.0355  19.0834

     occupation numbers 
     1.0000   1.0000   1.0000   1.0000   1.0000   1.0000   1.0000   1.0000
     1.0000   1.0000   1.0000   1.0000   1.0000   1.0000   1.0000   1.0000
     1.0000   1.0083   1.0407   0.0059   0.0000   0.0000   0.0000   0.0000
     0.0000   0.0000   0.0000

          k = 0.0000 0.2887 0.0000 (  3212 PWs)   bands (ev):

   -89.7052 -53.0071 -52.9852 -52.8512 -48.2490 -20.2252 -20.1078 -20.0968
   -13.2386 -11.9890  -0.0031   0.6247   0.8424   1.5705   2.7864   3.9128
     4.6303   4.8670   5.1885   5.7923   6.9003   7.7376   9.5838  13.7097
    15.3107  17.0327  17.4696

     occupation numbers 
     1.0000   1.0000   1.0000   1.0000   1.0000   1.0000   1.0000   1.0000
     1.0000   1.0000   1.0000   1.0000   1.0000   1.0000   1.0000   1.0000
     1.0017   1.0326   1.0003   0.0095   0.0000   0.0000   0.0000   0.0000
     0.0000   0.0000   0.0000

          k = 0.0000 0.2887 0.1146 (  3212 PWs)   bands (ev):

   -89.7052 -53.0071 -52.9853 -52.8512 -48.2490 -20.2251 -20.1079 -20.0968
   -13.2385 -11.9891  -0.0114   0.6398   0.8424   1.5871   2.7864   3.7724
     4.6293   5.0382   5.1885   5.6817   7.0829   7.7375   9.3453  14.1290
    15.3376  16.0440  18.3737

     occupation numbers 
     1.0000   1.0000   1.0000   1.0000   1.0000   1.0000   1.0000   1.0000
     1.0000   1.0000   1.0000   1.0000   1.0000   1.0000   1.0000   1.0000
     1.0016   1.0825   1.0003   0.0430   0.0000   0.0000   0.0000   0.0000
     0.0000   0.0000   0.0000

          k = 0.0000 0.4330 0.0000 (  3198 PWs)   bands (ev):

   -89.7034 -53.0274 -52.9901 -52.8480 -48.2363 -20.3287 -20.1305 -20.0796
   -12.6926 -12.0645  -0.4844   0.5383   1.0483   1.6976   2.5285   3.4262
     4.8553   5.0432   5.3707   6.4243   7.1847   7.7713  10.8670  11.9111
    15.3679  15.6966  17.9760

     occupation numbers 
     1.0000   1.0000   1.0000   1.0000   1.0000   1.0000   1.0000   1.0000
     1.0000   1.0000   1.0000   1.0000   1.0000   1.0000   1.0000   1.0000
     1.0294   1.0829   0.5844   0.0000   0.0000   0.0000   0.0000   0.0000
     0.0000   0.0000   0.0000

          k = 0.0000 0.4330 0.1146 (  3216 PWs)   bands (ev):

   -89.7034 -53.0274 -52.9902 -52.8481 -48.2364 -20.3288 -20.1307 -20.0797
   -12.6926 -12.0646  -0.4854   0.5355   1.0483   1.7072   2.5284   3.4324
     4.8463   5.0432   5.3820   6.2640   7.3801   7.7712  10.7918  11.8713
    15.3949  16.0941  17.0904

     occupation numbers 
     1.0000   1.0000   1.0000   1.0000   1.0000   1.0000   1.0000   1.0000
     1.0000   1.0000   1.0000   1.0000   1.0000   1.0000   1.0000   1.0000
     1.0270   1.0829   0.5532   0.0000   0.0000   0.0000   0.0000   0.0000
     0.0000   0.0000   0.0000

          k = 0.0000-0.5774 0.0000 (  3214 PWs)   bands (ev):

   -89.7027 -53.0358 -52.9922 -52.8468 -48.2311 -20.3711 -20.1401 -20.0727
   -12.3194 -12.2275  -0.8805   0.6903   1.0965   1.8945   2.5238   3.1295
     4.7364   4.8870   5.2530   7.2938   7.8223   8.2989   9.6150  12.6283
    13.2690  16.7814  16.9370

     occupation numbers 
     1.0000   1.0000   1.0000   1.0000   1.0000   1.0000   1.0000   1.0000
     1.0000   1.0000   1.0000   1.0000   1.0000   1.0000   1.0000   1.0000
     1.0078   1.0386   0.8861   0.0000   0.0000   0.0000   0.0000   0.0000
     0.0000   0.0000   0.0000

          k = 0.0000-0.5774 0.1146 (  3216 PWs)   bands (ev):

   -89.7027 -53.0359 -52.9922 -52.8468 -48.2311 -20.3713 -20.1401 -20.0726
   -12.3195 -12.2275  -0.8806   0.6881   1.0965   1.8959   2.5238   3.1370
     4.7344   4.8870   5.2517   7.2693   7.8223   8.3316   9.5680  12.6238
    13.4555  16.1742  17.3138

     occupation numbers 
     1.0000   1.0000   1.0000   1.0000   1.0000   1.0000   1.0000   1.0000
     1.0000   1.0000   1.0000   1.0000   1.0000   1.0000   1.0000   1.0000
     1.0076   1.0386   0.8891   0.0000   0.0000   0.0000   0.0000   0.0000
     0.0000   0.0000   0.0000

          k = 0.1250 0.2165 0.0000 (  3225 PWs)   bands (ev):

   -89.7058 -53.0003 -52.9848 -52.8520 -48.2527 -20.1897 -20.1063 -20.1017
   -13.3784 -11.9788   0.0956   0.5184   0.7305   2.0262   2.6565   3.9463
     4.2907   4.8509   5.2166   5.8572   7.0448   7.6310   9.3397  13.3744
    16.4044  16.9256  17.1525

     occupation numbers 
     1.0000   1.0000   1.0000   1.0000   1.0000   1.0000   1.0000   1.0000
     1.0000   1.0000   1.0000   1.0000   1.0000   1.0000   1.0000   1.0000
     1.0000   1.0282   0.9566   0.0034   0.0000   0.0000   0.0000   0.0000
     0.0000   0.0000   0.0000

          k = 0.1250 0.2165 0.1146 (  3212 PWs)   bands (ev):

   -89.7058 -53.0002 -52.9848 -52.8520 -48.2527 -20.1896 -20.1062 -20.1016
   -13.3783 -11.9790   0.0867   0.5399   0.7321   2.0415   2.6561   3.6242
     4.6205   4.8510   5.2839   5.7674   7.1569   7.5843   9.1503  13.8022
    15.7993  16.5144  18.0276

     occupation numbers 
     1.0000   1.0000   1.0000   1.0000   1.0000   1.0000   1.0000   1.0000
     1.0000   1.0000   1.0000   1.0000   1.0000   1.0000   1.0000   1.0000
     1.0014   1.0282   0.8154   0.0137   0.0000   0.0000   0.0000   0.0000
     0.0000   0.0000   0.0000

          k = 0.1250 0.3608 0.0000 (  3216 PWs)   bands (ev):

   -89.7039 -53.0185 -52.9917 -52.8490 -48.2401 -20.2829 -20.1400 -20.0847
   -12.8804 -12.0197  -0.0595   0.4232   1.0572   1.5632   2.1835   3.7272
     4.9159   5.2868   5.4201   5.8439   7.0482   7.5237  10.3579  13.4611
    14.7589  17.1839  17.6733

     occupation numbers 
     1.0000   1.0000   1.0000   1.0000   1.0000   1.0000   1.0000   1.0000
     1.0000   1.0000   1.0000   1.0000   1.0000   1.0000   1.0000   1.0000
     1.0482   0.8085   0.4503   0.0042   0.0000   0.0000   0.0000   0.0000
     0.0000   0.0000   0.0000

          k = 0.1250 0.3608 0.1146 (  3205 PWs)   bands (ev):

   -89.7039 -53.0184 -52.9917 -52.8490 -48.2400 -20.2827 -20.1399 -20.0847
   -12.8804 -12.0198  -0.0635   0.4227   1.0591   1.5779   2.1838   3.7165
     4.9107   5.2403   5.4595   5.7812   7.2263   7.4623  10.2794  13.4573
    14.8803  16.8643  17.7710

     occupation numbers 
     1.0000   1.0000   1.0000   1.0000   1.0000   1.0000   1.0000   1.0000
     1.0000   1.0000   1.0000   1.0000   1.0000   1.0000   1.0000   1.0000
     1.0464   0.9125   0.3513   0.0112   0.0000   0.0000   0.0000   0.0000
     0.0000   0.0000   0.0000

          k = 0.1250 0.5052 0.0000 (  3220 PWs)   bands (ev):

   -89.7027 -53.0313 -52.9967 -52.8469 -48.2311 -20.3474 -20.1644 -20.0728
   -12.4194 -12.1281  -0.5909   0.4091   1.3021   1.8236   2.1262   3.1314
     4.8830   4.9900   5.3807   7.1833   7.5074   7.9175  10.6455  12.0378
    14.5493  15.7194  17.3052

     occupation numbers 
     1.0000   1.0000   1.0000   1.0000   1.0000   1.0000   1.0000   1.0000
     1.0000   1.0000   1.0000   1.0000   1.0000   1.0000   1.0000   1.0000
     1.0374   1.0727   0.5568   0.0000   0.0000   0.0000   0.0000   0.0000
     0.0000   0.0000   0.0000

          k = 0.1250 0.5052 0.1146 (  3217 PWs)   bands (ev):

   -89.7027 -53.0313 -52.9967 -52.8468 -48.2311 -20.3473 -20.1644 -20.0727
   -12.4194 -12.1281  -0.5909   0.4078   1.3010   1.8263   2.1264   3.1369
     4.8814   4.9910   5.3772   7.1225   7.5645   7.9229  10.6206  12.0345
    14.6824  15.6463  17.4286

     occupation numbers 
     1.0000   1.0000   1.0000   1.0000   1.0000   1.0000   1.0000   1.0000
     1.0000   1.0000   1.0000   1.0000   1.0000   1.0000   1.0000   1.0000
     1.0369   1.0730   0.5663   0.0000   0.0000   0.0000   0.0000   0.0000
     0.0000   0.0000   0.0000

          k = 0.2500 0.4330 0.0000 (  3215 PWs)   bands (ev):

   -89.7027 -53.0249 -53.0030 -52.8469 -48.2311 -20.3140 -20.1980 -20.0729
   -12.4747 -12.0732  -0.0364   0.1127   1.0340   1.8046   1.9374   3.1656
     4.9784   5.0710   5.5390   7.0099   7.2638   7.7197  11.6589  11.9295
    14.4621  16.6517  16.7696

     occupation numbers 
     1.0000   1.0000   1.0000   1.0000   1.0000   1.0000   1.0000   1.0000
     1.0000   1.0000   1.0000   1.0000   1.0000   1.0000   1.0000   1.0000
     1.0692   1.0824   0.1906   0.0000   0.0000   0.0000   0.0000   0.0000
     0.0000   0.0000   0.0000

          k = 0.2500 0.4330 0.1146 (  3206 PWs)   bands (ev):

   -89.7027 -53.0249 -53.0030 -52.8468 -48.2311 -20.3140 -20.1979 -20.0727
   -12.4747 -12.0733  -0.0364   0.1109   1.0343   1.8033   1.9439   3.1650
     4.9786   5.0734   5.5248   7.0806   7.2375   7.6622  11.7208  11.9178
    14.4066  16.6094  16.8802

     occupation numbers 
     1.0000   1.0000   1.0000   1.0000   1.0000   1.0000   1.0000   1.0000
     1.0000   1.0000   1.0000   1.0000   1.0000   1.0000   1.0000   1.0000
     1.0693   1.0821   0.2149   0.0000   0.0000   0.0000   0.0000   0.0000
     0.0000   0.0000   0.0000

          k = 0.2500 0.5774 0.0000 (  3210 PWs)   bands (ev):

   -89.7021 -53.0254 -53.0099 -52.8459 -48.2274 -20.3152 -20.2337 -20.0677
   -12.2427 -12.1505  -0.1890   0.1898   0.8554   1.9219   2.1981   2.6866
     4.7629   5.2532   5.4719   7.2428   7.2505   9.1926  10.1831  13.6560
    13.8155  14.2122  16.4895

     occupation numbers 
     1.0000   1.0000   1.0000   1.0000   1.0000   1.0000   1.0000   1.0000
     1.0000   1.0000   1.0000   1.0000   1.0000   1.0000   1.0000   1.0000
     1.0109   0.8857   0.3226   0.0000   0.0000   0.0000   0.0000   0.0000
     0.0000   0.0000   0.0000

          k = 0.2500 0.5774 0.1146 (  3215 PWs)   bands (ev):

   -89.7021 -53.0254 -53.0099 -52.8460 -48.2274 -20.3153 -20.2336 -20.0678
   -12.2427 -12.1505  -0.1891   0.1895   0.8559   1.9214   2.1983   2.6875
     4.7630   5.2537   5.4691   7.2546   7.2623   9.1522  10.1528  13.7212
    13.7995  14.3003  16.5240

     occupation numbers 
     1.0000   1.0000   1.0000   1.0000   1.0000   1.0000   1.0000   1.0000
     1.0000   1.0000   1.0000   1.0000   1.0000   1.0000   1.0000   1.0000
     1.0109   0.8848   0.3290   0.0000   0.0000   0.0000   0.0000   0.0000
     0.0000   0.0000   0.0000

          k = 0.0000-0.1443 0.1146 (  3219 PWs)   bands (ev):

   -89.7071 -52.9868 -52.9804 -52.8541 -48.2616 -20.1198 -20.1136 -20.0851
   -13.6902 -11.9674   0.1950   0.2826   0.5896   2.8141   3.0680   3.3864
     4.2564   4.7607   4.8934   5.8339   7.4702   7.8733   8.5329  13.0861
    14.9538  17.0486  19.0704

     occupation numbers 
     1.0000   1.0000   1.0000   1.0000   1.0000   1.0000   1.0000   1.0000
     1.0000   1.0000   1.0000   1.0000   1.0000   1.0000   1.0000   1.0000
     1.0000   1.0106   1.0407   0.0049   0.0000   0.0000   0.0000   0.0000
     0.0000   0.0000   0.0000

          k = 0.0000-0.2887 0.1146 (  3212 PWs)   bands (ev):

   -89.7052 -53.0071 -52.9853 -52.8512 -48.2490 -20.2251 -20.1079 -20.0968
   -13.2385 -11.9891  -0.0090   0.6350   0.8424   1.5902   2.7863   3.7461
     4.6488   5.0546   5.1885   5.7698   6.8895   7.7376   9.5062  13.8853
    15.3845  16.2646  18.3879

     occupation numbers 
     1.0000   1.0000   1.0000   1.0000   1.0000   1.0000   1.0000   1.0000
     1.0000   1.0000   1.0000   1.0000   1.0000   1.0000   1.0000   1.0000
     1.0022   1.0833   1.0003   0.0132   0.0000   0.0000   0.0000   0.0000
     0.0000   0.0000   0.0000

          k = 0.0000-0.4330 0.1146 (  3216 PWs)   bands (ev):

   -89.7034 -53.0274 -52.9902 -52.8481 -48.2364 -20.3288 -20.1307 -20.0797
   -12.6926 -12.0646  -0.4859   0.5351   1.0483   1.7114   2.5284   3.4200
     4.8499   5.0432   5.3570   6.4575   7.1474   7.7713  10.9584  11.8772
    15.1709  15.8343  17.5014

     occupation numbers 
     1.0000   1.0000   1.0000   1.0000   1.0000   1.0000   1.0000   1.0000
     1.0000   1.0000   1.0000   1.0000   1.0000   1.0000   1.0000   1.0000
     1.0279   1.0829   0.6223   0.0000   0.0000   0.0000   0.0000   0.0000
     0.0000   0.0000   0.0000

          k =-0.1250-0.3608 0.1146 (  3205 PWs)   bands (ev):

   -89.7039 -53.0184 -52.9917 -52.8490 -48.2400 -20.2827 -20.1399 -20.0847
   -12.8804 -12.0198  -0.0633   0.4220   1.0576   1.5822   2.1831   3.7050
     4.9184   5.2681   5.3657   5.9347   7.0509   7.5109  10.3688  13.4320
    14.7721  17.1495  17.7257

     occupation numbers 
     1.0000   1.0000   1.0000   1.0000   1.0000   1.0000   1.0000   1.0000
     1.0000   1.0000   1.0000   1.0000   1.0000   1.0000   1.0000   1.0000
     1.0490   0.8527   0.5984   0.0008   0.0000   0.0000   0.0000   0.0000
     0.0000   0.0000   0.0000

          k =-0.1250-0.5052 0.1146 (  3217 PWs)   bands (ev):

   -89.7027 -53.0313 -52.9967 -52.8468 -48.2311 -20.3473 -20.1644 -20.0727
   -12.4194 -12.1281  -0.5912   0.4079   1.3012   1.8267   2.1279   3.1332
     4.8829   4.9906   5.3736   7.2224   7.5122   7.8504  10.6282  12.1421
    14.6239  15.4799  17.5816

     occupation numbers 
     1.0000   1.0000   1.0000   1.0000   1.0000   1.0000   1.0000   1.0000
     1.0000   1.0000   1.0000   1.0000   1.0000   1.0000   1.0000   1.0000
     1.0374   1.0728   0.5765   0.0000   0.0000   0.0000   0.0000   0.0000
     0.0000   0.0000   0.0000

     the Fermi energy is     5.4394 ev

!    total energy              =    -569.20649011 Ry
     total all-electron energy =     -3412.697045 Ry
     estimated scf accuracy    <       0.00000004 Ry
     smearing contrib. (-TS)   =       0.00315744 Ry
     internal energy E=F+TS    =    -569.20964755 Ry

     The total energy is F=E-TS. E is the sum of the following terms:
     one-electron contribution =    -543.67891418 Ry
     hartree contribution      =     286.46356913 Ry
     xc contribution           =     -60.01144206 Ry
     ewald contribution        =    -130.03104958 Ry
     one-center paw contrib.   =    -121.95181085 Ry
      -> PAW hartree energy AE =     342.71485031 Ry
      -> PAW hartree energy PS =    -342.71531641 Ry
      -> PAW xc energy AE      =    -178.92901374 Ry
      -> PAW xc energy PS      =      56.97766899 Ry
      -> total E_H with PAW    =     286.46310303 Ry
      -> total E_XC with PAW   =    -181.96278681 Ry

     total magnetization       =     0.67 Bohr mag/cell
     absolute magnetization    =     0.70 Bohr mag/cell

     convergence has been achieved in  20 iterations

     Forces acting on atoms (cartesian axes, Ry/au):

     atom    1 type  1   force =     0.00000000    0.00000000    0.00564273
     atom    2 type  2   force =     0.00000000    0.00000000   -0.01440600
     atom    3 type  2   force =     0.00000000    0.00000000    0.00387693
     atom    4 type  3   force =    -0.00000000   -0.00000000    0.00488633
     The non-local contrib.  to forces
     atom    1 type  1   force =     0.00000000    0.00000000    0.00510208
     atom    2 type  2   force =     0.00000000    0.00000000   -1.08276058
     atom    3 type  2   force =     0.00000000    0.00000000    0.99927930
     atom    4 type  3   force =     0.00000000    0.00000000    0.00566494
     The ionic contribution  to forces
     atom    1 type  1   force =    -0.00000000   -0.00000000    2.67111258
     atom    2 type  2   force =     0.00000000   -0.00000000   32.12476640
     atom    3 type  2   force =    -0.00000000    0.00000000  -30.26341043
     atom    4 type  3   force =     0.00000000   -0.00000000   -4.53246855
     The local contribution  to forces
     atom    1 type  1   force =     0.00000000    0.00000000   -2.67064729
     atom    2 type  2   force =     0.00000001   -0.00000001  -31.06579910
     atom    3 type  2   force =    -0.00000001    0.00000001   29.27655415
     atom    4 type  3   force =     0.00000000   -0.00000000    4.53168529
     The core correction contribution to forces
     atom    1 type  1   force =     0.00000000   -0.00000000   -0.00005576
     atom    2 type  2   force =    -0.00000000    0.00000000    0.00946577
     atom    3 type  2   force =     0.00000000   -0.00000000   -0.00863474
     atom    4 type  3   force =     0.00000000   -0.00000000   -0.00001165
     The Hubbard contrib.    to forces
     atom    1 type  1   force =     0.00000000    0.00000000    0.00000000
     atom    2 type  2   force =     0.00000000    0.00000000    0.00000000
     atom    3 type  2   force =     0.00000000    0.00000000    0.00000000
     atom    4 type  3   force =     0.00000000    0.00000000    0.00000000
     The SCF correction term to forces
     atom    1 type  1   force =     0.00000000    0.00000000    0.00013970
     atom    2 type  2   force =    -0.00000000    0.00000000   -0.00006992
     atom    3 type  2   force =     0.00000000   -0.00000000    0.00009722
     atom    4 type  3   force =    -0.00000000   -0.00000000    0.00002488

     Total force =     0.016682     Total SCF correction =     0.000186

     Writing all to output data dir ./out/pw.save/ :
     XML data file, charge density, pseudopotentials, collected wavefunctions
 
     init_run     :     13.46s CPU      3.32s WALL (       1 calls)
     electrons    :    103.05s CPU     28.16s WALL (       1 calls)
     forces       :      0.80s CPU      0.58s WALL (       1 calls)

     Called by init_run:
     wfcinit      :      0.27s CPU      0.32s WALL (       1 calls)
     wfcinit:atom :      0.04s CPU      0.04s WALL (      50 calls)
     wfcinit:wfcr :      0.17s CPU      0.19s WALL (      50 calls)
     potinit      :     12.65s CPU      2.43s WALL (       1 calls)
     hinit0       :      0.45s CPU      0.44s WALL (       1 calls)

     Called by electrons:
     c_bands      :     13.71s CPU     13.73s WALL (      20 calls)
     sum_band     :      2.48s CPU      2.45s WALL (      20 calls)
     v_of_rho     :      0.36s CPU      0.21s WALL (      21 calls)
     v_h          :      0.24s CPU      0.04s WALL (      21 calls)
     v_xc         :      0.12s CPU      0.17s WALL (      22 calls)
     newd         :      0.49s CPU      0.38s WALL (      21 calls)
                                        0.38s GPU  (      21 calls)
     PAW_pot      :     89.27s CPU     11.33s WALL (      21 calls)
     mix_rho      :      0.65s CPU      0.60s WALL (      20 calls)

     Called by c_bands:
     init_us_2    :      0.93s CPU      0.88s WALL (    2100 calls)
     cegterg      :     11.98s CPU     12.06s WALL (    1000 calls)

     Called by sum_band:
     sum_band:wei :      0.03s CPU      0.03s WALL (      20 calls)
                                        0.03s GPU  (      20 calls)
     sum_band:loo :      1.55s CPU      1.52s WALL (      20 calls)
                                        1.52s GPU  (      20 calls)
     sum_band:buf :      0.19s CPU      0.21s WALL (    1000 calls)
                                        0.20s GPU  (    1000 calls)
     sum_band:ini :      0.45s CPU      0.45s WALL (    1000 calls)
                                        0.44s GPU  (    1000 calls)
     sum_band:cal :      0.04s CPU      0.07s WALL (    1000 calls)
                                        0.05s GPU  (    1000 calls)
     sum_band:bec :      0.24s CPU      0.25s WALL (    1000 calls)
                                        0.24s GPU  (    1000 calls)
     addusdens    :      0.73s CPU      0.74s WALL (      20 calls)
                                        0.74s GPU  (      20 calls)
     addusd:skk   :      0.00s CPU      0.00s WALL (      60 calls)
                                        0.00s GPU  (      60 calls)

     Called by *egterg:
     cdiaghg      :      4.14s CPU      4.28s WALL (    4658 calls)
                                        4.22s GPU  (    4658 calls)
     cegterg:over :      0.96s CPU      1.00s WALL (    3658 calls)
     cegterg:upda :      0.73s CPU      0.74s WALL (    3658 calls)
     cegterg:last :      0.13s CPU      0.13s WALL (    1989 calls)
     h_psi        :      4.33s CPU      4.39s WALL (    4708 calls)
                                        4.33s GPU  (    4708 calls)
     s_psi        :      0.74s CPU      0.78s WALL (    4708 calls)
     g_psi        :      0.02s CPU      0.09s WALL (    3658 calls)
                                        0.05s GPU  (    3658 calls)

     Called by h_psi:
     h_psi:calbec :      0.15s CPU      0.28s WALL (    4708 calls)
                                        0.21s GPU  (    4708 calls)
     vloc_psi     :      2.99s CPU      2.97s WALL (    4708 calls)
                                        2.91s GPU  (    4708 calls)
     add_vuspsi   :      0.67s CPU      0.79s WALL (    4708 calls)
                                        0.73s GPU  (    4708 calls)

     General routines
     calbec       :      0.17s CPU      0.19s WALL (    5908 calls)
     fft          :      3.63s CPU      0.96s WALL (     538 calls)
                                        0.02s GPU  (     496 calls)
     ffts         :      4.85s CPU      0.86s WALL (     757 calls)
                                        0.02s GPU  (     715 calls)
     fftw         :      0.30s CPU      1.00s WALL (   15522 calls)
                                        0.82s GPU  (   15522 calls)
     interpolate  :      8.62s CPU      1.79s WALL (      42 calls)
 
     Parallel routines

     PAW routines
     PAW_pot      :     89.27s CPU     11.33s WALL (      21 calls)
     PAW_symme    :      0.02s CPU      0.00s WALL (      41 calls)
 
     PWSCF        :   1m58.18s CPU     32.58s WALL

 
   This run was terminated on:   3:17:49  12Jul2026            

=------------------------------------------------------------------------------=
   JOB DONE.
=------------------------------------------------------------------------------=
Warning: ieee_divide_by_zero is signaling
Warning: ieee_inexact is signaling
FORTRAN STOP
