
     Program PWSCF v.7.3.1 starts on 12Jul2026 at  3:54:44 

     This program is part of the open-source Quantum ESPRESSO suite
     for quantum simulation of materials; please cite
         "P. Giannozzi et al., J. Phys.:Condens. Matter 21 395502 (2009);
         "P. Giannozzi et al., J. Phys.:Condens. Matter 29 465901 (2017);
         "P. Giannozzi et al., J. Chem. Phys. 152 154105 (2020);
          URL http://www.quantum-espresso.org", 
     in publications or presentations arising from this work. More details at
     http://www.quantum-espresso.org/quote

     Parallel version (MPI & OpenMP), running on      14 processor cores
     Number of MPI processes:                 1
     Threads/MPI process:                    14

     MPI processes distributed on     1 nodes
     840338 MiB available memory on the printing compute node when the environment starts
 
     Reading input from pw.in

     Current dimensions of program PWSCF are:
     Max number of different atomic species (ntypx) = 10
     Max number of k-points (npk) =  40000
     Max angular momentum in pseudopotentials (lmaxx) =  4
     file Co.pbe-spn-kjpaw_psl.0.3.1.UPF: wavefunction(s)  3P 3D renormalized
     file O.pbe-n-kjpaw_psl.1.0.0.UPF: wavefunction(s)  2S 2P renormalized
 
     Subspace diagonalization in iterative solution of the eigenvalue problem:
     a serial algorithm will be used

 
     G-vector sticks info
     --------------------
     sticks:   dense  smooth     PW     G-vecs:    dense   smooth      PW
     Sum         931     475    139                69237    24541    3997
 
     Using Slab Decomposition
 


     bravais-lattice index     =            4
     lattice parameter (alat)  =       5.3290  a.u.
     unit-cell volume          =     390.3954 (a.u.)^3
     number of atoms/cell      =            4
     number of atomic types    =            3
     number of electrons       =        32.00
     number of Kohn-Sham states=           24
     kinetic-energy cutoff     =      60.0000  Ry
     charge density cutoff     =     480.0000  Ry
     scf convergence threshold =      1.0E-07
     mixing beta               =       0.3000
     number of iterations used =            8  local-TF  mixing
     Exchange-correlation= SLA  PW   PBX  PBC
                           (   1   4   3   4   0   0   0)

     GPU acceleration is ACTIVE.  1 visible GPUs per MPI rank
     GPU-aware MPI enabled


     GPU used by master process:

        Device Number: 0
        Device name: NVIDIA A100-SXM4-80GB
        Compute capability : 80
        Ratio of single to double precision performance  : 2
        Memory Clock Rate (KHz): 1593000
        Memory Bus Width (bits): 5120
        Peak Memory Bandwidth (GB/s): ******

     celldm(1)=   5.329028  celldm(2)=   0.000000  celldm(3)=   2.978723
     celldm(4)=   0.000000  celldm(5)=   0.000000  celldm(6)=   0.000000

     crystal axes: (cart. coord. in units of alat)
               a(1) = (   1.000000   0.000000   0.000000 )  
               a(2) = (  -0.500000   0.866025   0.000000 )  
               a(3) = (   0.000000   0.000000   2.978723 )  

     reciprocal axes: (cart. coord. in units 2 pi/alat)
               b(1) = (  1.000000  0.577350 -0.000000 )  
               b(2) = (  0.000000  1.154701  0.000000 )  
               b(3) = (  0.000000 -0.000000  0.335714 )  


     PseudoPot. # 1 for Co read from file:
     ../../pseudo/Co.pbe-spn-kjpaw_psl.0.3.1.UPF
     MD5 check sum: 3c0a43779828c046024e4f3be63f8e67
     Pseudo is Projector augmented-wave + core cor, Zval = 17.0
     Generated using &quot;atomic&quot; code by A. Dal Corso  v.6.2.2
     Shape of augmentation charge: PSQ
     Using radial grid of 1193 points,  6 beta functions with: 
                l(1) =   0
                l(2) =   0
                l(3) =   1
                l(4) =   1
                l(5) =   2
                l(6) =   2
     Q(r) pseudized with 0 coefficients 


     PseudoPot. # 2 for O  read from file:
     ../../pseudo/O.pbe-n-kjpaw_psl.1.0.0.UPF
     MD5 check sum: e99d9cef9b487d1ca56f5b95ecd0fd7a
     Pseudo is Projector augmented-wave + core cor, Zval =  6.0
     Generated using &quot;atomic&quot; code by A. Dal Corso  v.6.3
     Shape of augmentation charge: PSQ
     Using radial grid of 1095 points,  4 beta functions with: 
                l(1) =   0
                l(2) =   0
                l(3) =   1
                l(4) =   1
     Q(r) pseudized with 0 coefficients 


     PseudoPot. # 3 for Li read from file:
     ../../pseudo/Li.pbe-s-kjpaw_psl.1.0.0.UPF
     MD5 check sum: 3974953fb0fea6c4f83fb01d64ffc134
     Pseudo is Projector augmented-wave, Zval =  3.0
     Generated using &quot;atomic&quot; code by A. Dal Corso  v.6.3
     Shape of augmentation charge: PSQ
     Using radial grid of 1017 points,  4 beta functions with: 
                l(1) =   0
                l(2) =   0
                l(3) =   1
                l(4) =   1
     Q(r) pseudized with 0 coefficients 


     atomic species   valence    mass     pseudopotential
     Co               17.00    58.93300     Co( 1.00)
     O                 6.00    15.99900     O ( 1.00)
     Li                3.00     6.94100     Li( 1.00)

     Starting magnetic structure 
     atomic species   magnetization
     Co              0.300
     O               0.000
     Li              0.000

      6 Sym. Ops. (no inversion) found


                                    s                        frac. trans.

      isym =  1     identity                                     

 cryst.   s( 1) = (     1          0          0      )
                  (     0          1          0      )
                  (     0          0          1      )

 cart.    s( 1) = (  1.0000000  0.0000000  0.0000000 )
                  (  0.0000000  1.0000000  0.0000000 )
                  (  0.0000000  0.0000000  1.0000000 )


      isym =  2     120 deg rotation - cryst. axis [0,0,1]       

 cryst.   s( 2) = (     0          1          0      )
                  (    -1         -1          0      )
                  (     0          0          1      )

 cart.    s( 2) = ( -0.5000000 -0.8660254  0.0000000 )
                  (  0.8660254 -0.5000000  0.0000000 )
                  (  0.0000000  0.0000000  1.0000000 )


      isym =  3     120 deg rotation - cryst. axis [0,0,-1]      

 cryst.   s( 3) = (    -1         -1          0      )
                  (     1          0          0      )
                  (     0          0          1      )

 cart.    s( 3) = ( -0.5000000  0.8660254  0.0000000 )
                  ( -0.8660254 -0.5000000  0.0000000 )
                  (  0.0000000  0.0000000  1.0000000 )


      isym =  4     inv. 180 deg rotation - cart. axis [1,0,0]   

 cryst.   s( 4) = (    -1          0          0      )
                  (     1          1          0      )
                  (     0          0          1      )

 cart.    s( 4) = ( -1.0000000  0.0000000  0.0000000 )
                  (  0.0000000  1.0000000  0.0000000 )
                  (  0.0000000  0.0000000  1.0000000 )


      isym =  5     inv. 180 deg rotation - cryst. axis [0,1,0]  

 cryst.   s( 5) = (     1          1          0      )
                  (     0         -1          0      )
                  (     0          0          1      )

 cart.    s( 5) = (  0.5000000  0.8660254  0.0000000 )
                  (  0.8660254 -0.5000000  0.0000000 )
                  (  0.0000000  0.0000000  1.0000000 )


      isym =  6     inv. 180 deg rotation - cryst. axis [1,1,0]  

 cryst.   s( 6) = (     0         -1          0      )
                  (    -1          0          0      )
                  (     0          0          1      )

 cart.    s( 6) = (  0.5000000 -0.8660254  0.0000000 )
                  ( -0.8660254 -0.5000000  0.0000000 )
                  (  0.0000000  0.0000000  1.0000000 )


     point group C_3v (3m)  
     there are  3 classes
     the character table:

       E     2C3   3s_v 
A_1    1.00  1.00  1.00
A_2    1.00  1.00 -1.00
E      2.00 -1.00  0.00

     the symmetry operations in each class and the name of the first element:

     E        1
          identity                                               
     2C3      2    3
          120 deg rotation - cryst. axis [0,0,1]                 
     3s_v     4    5    6
          inv. 180 deg rotation - cart. axis [1,0,0]             

   Cartesian axes

     site n.     atom                  positions (alat units)
         1        Co     tau(   1) = (   0.0000000   0.0000000   0.0000000  )
         2        O      tau(   2) = (  -0.0000000   0.5773503   0.3404255  )
         3        O      tau(   3) = (   0.5000000   0.2886751   2.6382979  )
         4        Li     tau(   4) = (   0.0000000   0.0000000   1.8439716  )

   Crystallographic axes

     site n.     atom                  positions (cryst. coord.)
         1        Co     tau(   1) = (  0.0000000  0.0000000  0.0000000  )
         2        O      tau(   2) = (  0.3333333  0.6666667  0.1142857  )
         3        O      tau(   3) = (  0.6666667  0.3333333  0.8857143  )
         4        Li     tau(   4) = (  0.0000000  0.0000000  0.6190476  )

     number of k points=    25  Marzari-Vanderbilt smearing, width (Ry)=  0.0200
                       cart. coord. in units 2pi/alat
        k(    1) = (   0.0000000   0.0000000   0.0000000), wk =   0.0052083
        k(    2) = (   0.0000000   0.0000000   0.1119048), wk =   0.0104167
        k(    3) = (   0.0000000   0.1443376   0.0000000), wk =   0.0312500
        k(    4) = (   0.0000000   0.1443376   0.1119048), wk =   0.0312500
        k(    5) = (   0.0000000   0.2886751   0.0000000), wk =   0.0312500
        k(    6) = (   0.0000000   0.2886751   0.1119048), wk =   0.0312500
        k(    7) = (   0.0000000   0.4330127   0.0000000), wk =   0.0312500
        k(    8) = (   0.0000000   0.4330127   0.1119048), wk =   0.0312500
        k(    9) = (   0.0000000  -0.5773503   0.0000000), wk =   0.0156250
        k(   10) = (   0.0000000  -0.5773503   0.1119048), wk =   0.0312500
        k(   11) = (   0.1250000   0.2165064   0.0000000), wk =   0.0312500
        k(   12) = (   0.1250000   0.2165064   0.1119048), wk =   0.0625000
        k(   13) = (   0.1250000   0.3608439   0.0000000), wk =   0.0625000
        k(   14) = (   0.1250000   0.3608439   0.1119048), wk =   0.0625000
        k(   15) = (   0.1250000   0.5051815   0.0000000), wk =   0.0625000
        k(   16) = (   0.1250000   0.5051815   0.1119048), wk =   0.0625000
        k(   17) = (   0.2500000   0.4330127   0.0000000), wk =   0.0312500
        k(   18) = (   0.2500000   0.4330127   0.1119048), wk =   0.0625000
        k(   19) = (   0.2500000   0.5773503   0.0000000), wk =   0.0312500
        k(   20) = (   0.2500000   0.5773503   0.1119048), wk =   0.0625000
        k(   21) = (   0.0000000  -0.1443376   0.1119048), wk =   0.0312500
        k(   22) = (   0.0000000  -0.2886751   0.1119048), wk =   0.0312500
        k(   23) = (   0.0000000  -0.4330127   0.1119048), wk =   0.0312500
        k(   24) = (  -0.1250000  -0.3608439   0.1119048), wk =   0.0625000
        k(   25) = (  -0.1250000  -0.5051815   0.1119048), wk =   0.0625000

                       cryst. coord.
        k(    1) = (   0.0000000   0.0000000   0.0000000), wk =   0.0052083
        k(    2) = (   0.0000000   0.0000000   0.3333333), wk =   0.0104167
        k(    3) = (   0.0000000   0.1250000   0.0000000), wk =   0.0312500
        k(    4) = (   0.0000000   0.1250000   0.3333333), wk =   0.0312500
        k(    5) = (   0.0000000   0.2500000   0.0000000), wk =   0.0312500
        k(    6) = (   0.0000000   0.2500000   0.3333333), wk =   0.0312500
        k(    7) = (   0.0000000   0.3750000   0.0000000), wk =   0.0312500
        k(    8) = (   0.0000000   0.3750000   0.3333333), wk =   0.0312500
        k(    9) = (   0.0000000  -0.5000000   0.0000000), wk =   0.0156250
        k(   10) = (   0.0000000  -0.5000000   0.3333333), wk =   0.0312500
        k(   11) = (   0.1250000   0.1250000   0.0000000), wk =   0.0312500
        k(   12) = (   0.1250000   0.1250000   0.3333333), wk =   0.0625000
        k(   13) = (   0.1250000   0.2500000   0.0000000), wk =   0.0625000
        k(   14) = (   0.1250000   0.2500000   0.3333333), wk =   0.0625000
        k(   15) = (   0.1250000   0.3750000   0.0000000), wk =   0.0625000
        k(   16) = (   0.1250000   0.3750000   0.3333333), wk =   0.0625000
        k(   17) = (   0.2500000   0.2500000   0.0000000), wk =   0.0312500
        k(   18) = (   0.2500000   0.2500000   0.3333333), wk =   0.0625000
        k(   19) = (   0.2500000   0.3750000   0.0000000), wk =   0.0312500
        k(   20) = (   0.2500000   0.3750000   0.3333333), wk =   0.0625000
        k(   21) = (   0.0000000  -0.1250000   0.3333333), wk =   0.0312500
        k(   22) = (   0.0000000  -0.2500000   0.3333333), wk =   0.0312500
        k(   23) = (   0.0000000  -0.3750000   0.3333333), wk =   0.0312500
        k(   24) = (  -0.1250000  -0.2500000   0.3333333), wk =   0.0625000
        k(   25) = (  -0.1250000  -0.3750000   0.3333333), wk =   0.0625000

     Dense  grid:    69237 G-vectors     FFT dimensions: (  40,  40, 120)

     Smooth grid:    24541 G-vectors     FFT dimensions: (  27,  27,  80)

     Dynamical RAM for                 wfc:       1.12 MB

     Dynamical RAM for     wfc (w. buffer):      57.23 MB

     Dynamical RAM for           str. fact:       3.17 MB

     Dynamical RAM for           local pot:       0.00 MB

     Dynamical RAM for          nlocal pot:       1.96 MB

     Dynamical RAM for                qrad:       5.27 MB

     Dynamical RAM for          rho,v,vnew:      15.13 MB

     Dynamical RAM for               rhoin:       5.04 MB

     Dynamical RAM for            rho*nmix:      33.81 MB

     Dynamical RAM for           G-vectors:       4.15 MB

     Dynamical RAM for          h,s,v(r/c):       0.11 MB

     Dynamical RAM for          <psi|beta>:       0.02 MB

     Dynamical RAM for                 psi:       2.24 MB

     Dynamical RAM for                hpsi:       2.24 MB

     Dynamical RAM for                spsi:       2.24 MB

     Dynamical RAM for      wfcinit/wfcrot:       2.26 MB

     Dynamical RAM for           addusdens:     199.67 MB

     Dynamical RAM for          addusforce:     201.80 MB

     Estimated static dynamical RAM per process >     104.97 MB

     Estimated max dynamical RAM per process >     340.57 MB

     Check: negative core charge=   -0.000007
     Generating pointlists ...
     new r_m :   0.2765 (alat units)  1.4733 (a.u.) for type    1
     new r_m :   0.2765 (alat units)  1.4733 (a.u.) for type    2
     new r_m :   0.4051 (alat units)  2.1586 (a.u.) for type    3

     Initial potential from superposition of free atoms

     starting charge      31.9951, renormalised to      32.0000
     Starting wfcs are   23 randomized atomic wfcs +    1 random wfcs
     Checking if some PAW data can be deallocated... 

     total cpu time spent up to now is        3.7 secs

     Self-consistent Calculation
[tb_dev] Currently allocated     6.36E-01 Mbytes, locked:    0 /   6
[tb_pin] Currently allocated     0.00E+00 Mbytes, locked:    0 /   0

     iteration #  1     ecut=    60.00 Ry     beta= 0.30
     Davidson diagonalization with overlap

---- Real-time Memory Report at c_bands before calling an iterative solver
           681 MiB given to the printing process from OS
             0 MiB allocation reported by mallinfo(arena+hblkhd)
        840196 MiB available memory on the node where the printing process lives
     GPU memory used/free/total (MiB): 1046 / 80104 / 81151
------------------
     ethr =  1.00E-02,  avg # of iterations =  7.6

     total cpu time spent up to now is        5.5 secs

     total energy              =    -474.75100084 Ry
     estimated scf accuracy    <       1.68913148 Ry

     total magnetization       =     4.21 Bohr mag/cell
     absolute magnetization    =     4.23 Bohr mag/cell
[tb_dev] Currently allocated     3.05E-05 Mbytes, locked:    0 /   2
[tb_pin] Currently allocated     0.00E+00 Mbytes, locked:    0 /   0

     iteration #  2     ecut=    60.00 Ry     beta= 0.30
     Davidson diagonalization with overlap

---- Real-time Memory Report at c_bands before calling an iterative solver
           725 MiB given to the printing process from OS
             0 MiB allocation reported by mallinfo(arena+hblkhd)
        840093 MiB available memory on the node where the printing process lives
     GPU memory used/free/total (MiB): 1066 / 80084 / 81151
------------------
     ethr =  5.28E-03,  avg # of iterations =  1.9

     total cpu time spent up to now is        6.6 secs

     total energy              =    -474.82098881 Ry
     estimated scf accuracy    <       0.69677561 Ry

     total magnetization       =     3.52 Bohr mag/cell
     absolute magnetization    =     3.52 Bohr mag/cell
[tb_dev] Currently allocated     3.05E-05 Mbytes, locked:    0 /   2
[tb_pin] Currently allocated     0.00E+00 Mbytes, locked:    0 /   0

     iteration #  3     ecut=    60.00 Ry     beta= 0.30
     Davidson diagonalization with overlap

---- Real-time Memory Report at c_bands before calling an iterative solver
           726 MiB given to the printing process from OS
             0 MiB allocation reported by mallinfo(arena+hblkhd)
        840348 MiB available memory on the node where the printing process lives
     GPU memory used/free/total (MiB): 1066 / 80084 / 81151
------------------
     ethr =  2.18E-03,  avg # of iterations =  2.1

     total cpu time spent up to now is        7.8 secs

     total energy              =    -474.89910806 Ry
     estimated scf accuracy    <       0.50006680 Ry

     total magnetization       =     2.09 Bohr mag/cell
     absolute magnetization    =     2.13 Bohr mag/cell
[tb_dev] Currently allocated     3.05E-05 Mbytes, locked:    0 /   2
[tb_pin] Currently allocated     0.00E+00 Mbytes, locked:    0 /   0

     iteration #  4     ecut=    60.00 Ry     beta= 0.30
     Davidson diagonalization with overlap

---- Real-time Memory Report at c_bands before calling an iterative solver
           728 MiB given to the printing process from OS
             0 MiB allocation reported by mallinfo(arena+hblkhd)
        840188 MiB available memory on the node where the printing process lives
     GPU memory used/free/total (MiB): 1066 / 80084 / 81151
------------------
     ethr =  1.56E-03,  avg # of iterations =  1.7

     total cpu time spent up to now is        8.9 secs

     total energy              =    -474.91397539 Ry
     estimated scf accuracy    <       0.23055548 Ry

     total magnetization       =     2.43 Bohr mag/cell
     absolute magnetization    =     2.50 Bohr mag/cell
[tb_dev] Currently allocated     3.05E-05 Mbytes, locked:    0 /   2
[tb_pin] Currently allocated     0.00E+00 Mbytes, locked:    0 /   0

     iteration #  5     ecut=    60.00 Ry     beta= 0.30
     Davidson diagonalization with overlap

---- Real-time Memory Report at c_bands before calling an iterative solver
           728 MiB given to the printing process from OS
             0 MiB allocation reported by mallinfo(arena+hblkhd)
        840052 MiB available memory on the node where the printing process lives
     GPU memory used/free/total (MiB): 1066 / 80084 / 81151
------------------
     ethr =  7.20E-04,  avg # of iterations =  2.2

     total cpu time spent up to now is       10.1 secs

     total energy              =    -475.01074599 Ry
     estimated scf accuracy    <       0.15580850 Ry

     total magnetization       =     0.76 Bohr mag/cell
     absolute magnetization    =     1.18 Bohr mag/cell
[tb_dev] Currently allocated     3.05E-05 Mbytes, locked:    0 /   2
[tb_pin] Currently allocated     0.00E+00 Mbytes, locked:    0 /   0

     iteration #  6     ecut=    60.00 Ry     beta= 0.30
     Davidson diagonalization with overlap

---- Real-time Memory Report at c_bands before calling an iterative solver
           730 MiB given to the printing process from OS
             0 MiB allocation reported by mallinfo(arena+hblkhd)
        840054 MiB available memory on the node where the printing process lives
     GPU memory used/free/total (MiB): 1066 / 80084 / 81151
------------------
     ethr =  4.87E-04,  avg # of iterations =  2.0

     total cpu time spent up to now is       11.2 secs

     total energy              =    -475.00171304 Ry
     estimated scf accuracy    <       0.16958406 Ry

     total magnetization       =     0.32 Bohr mag/cell
     absolute magnetization    =     0.71 Bohr mag/cell
[tb_dev] Currently allocated     3.05E-05 Mbytes, locked:    0 /   2
[tb_pin] Currently allocated     0.00E+00 Mbytes, locked:    0 /   0

     iteration #  7     ecut=    60.00 Ry     beta= 0.30
     Davidson diagonalization with overlap

---- Real-time Memory Report at c_bands before calling an iterative solver
           734 MiB given to the printing process from OS
             0 MiB allocation reported by mallinfo(arena+hblkhd)
        839868 MiB available memory on the node where the printing process lives
     GPU memory used/free/total (MiB): 1066 / 80084 / 81151
------------------
     ethr =  4.87E-04,  avg # of iterations =  1.7

     total cpu time spent up to now is       12.4 secs

     total energy              =    -475.02479162 Ry
     estimated scf accuracy    <       0.03232992 Ry

     total magnetization       =     0.52 Bohr mag/cell
     absolute magnetization    =     0.73 Bohr mag/cell
[tb_dev] Currently allocated     3.05E-05 Mbytes, locked:    0 /   2
[tb_pin] Currently allocated     0.00E+00 Mbytes, locked:    0 /   0

     iteration #  8     ecut=    60.00 Ry     beta= 0.30
     Davidson diagonalization with overlap

---- Real-time Memory Report at c_bands before calling an iterative solver
           735 MiB given to the printing process from OS
             0 MiB allocation reported by mallinfo(arena+hblkhd)
        839838 MiB available memory on the node where the printing process lives
     GPU memory used/free/total (MiB): 1066 / 80084 / 81151
------------------
     ethr =  1.01E-04,  avg # of iterations =  4.1

     total cpu time spent up to now is       13.7 secs

     total energy              =    -475.02391166 Ry
     estimated scf accuracy    <       0.02187277 Ry

     total magnetization       =     0.48 Bohr mag/cell
     absolute magnetization    =     0.66 Bohr mag/cell
[tb_dev] Currently allocated     3.05E-05 Mbytes, locked:    0 /   2
[tb_pin] Currently allocated     0.00E+00 Mbytes, locked:    0 /   0

     iteration #  9     ecut=    60.00 Ry     beta= 0.30
     Davidson diagonalization with overlap

---- Real-time Memory Report at c_bands before calling an iterative solver
           737 MiB given to the printing process from OS
             0 MiB allocation reported by mallinfo(arena+hblkhd)
        839877 MiB available memory on the node where the printing process lives
     GPU memory used/free/total (MiB): 1066 / 80084 / 81151
------------------
     ethr =  6.84E-05,  avg # of iterations =  2.1

     total cpu time spent up to now is       14.9 secs

     total energy              =    -475.02547042 Ry
     estimated scf accuracy    <       0.00364834 Ry

     total magnetization       =     0.48 Bohr mag/cell
     absolute magnetization    =     0.65 Bohr mag/cell
[tb_dev] Currently allocated     3.05E-05 Mbytes, locked:    0 /   2
[tb_pin] Currently allocated     0.00E+00 Mbytes, locked:    0 /   0

     iteration # 10     ecut=    60.00 Ry     beta= 0.30
     Davidson diagonalization with overlap

---- Real-time Memory Report at c_bands before calling an iterative solver
           739 MiB given to the printing process from OS
             0 MiB allocation reported by mallinfo(arena+hblkhd)
        839888 MiB available memory on the node where the printing process lives
     GPU memory used/free/total (MiB): 1066 / 80084 / 81151
------------------
     c_bands:  1 eigenvalues not converged
     ethr =  1.14E-05,  avg # of iterations =  7.7

     total cpu time spent up to now is       16.6 secs

     total energy              =    -475.02652870 Ry
     estimated scf accuracy    <       0.00099483 Ry

     total magnetization       =     0.44 Bohr mag/cell
     absolute magnetization    =     0.58 Bohr mag/cell
[tb_dev] Currently allocated     3.05E-05 Mbytes, locked:    0 /   2
[tb_pin] Currently allocated     0.00E+00 Mbytes, locked:    0 /   0

     iteration # 11     ecut=    60.00 Ry     beta= 0.30
     Davidson diagonalization with overlap

---- Real-time Memory Report at c_bands before calling an iterative solver
           739 MiB given to the printing process from OS
             0 MiB allocation reported by mallinfo(arena+hblkhd)
        839876 MiB available memory on the node where the printing process lives
     GPU memory used/free/total (MiB): 1066 / 80084 / 81151
------------------
     ethr =  3.11E-06,  avg # of iterations =  4.2

     total cpu time spent up to now is       18.0 secs

     total energy              =    -475.02700261 Ry
     estimated scf accuracy    <       0.00057043 Ry

     total magnetization       =     0.44 Bohr mag/cell
     absolute magnetization    =     0.59 Bohr mag/cell
[tb_dev] Currently allocated     3.05E-05 Mbytes, locked:    0 /   2
[tb_pin] Currently allocated     0.00E+00 Mbytes, locked:    0 /   0

     iteration # 12     ecut=    60.00 Ry     beta= 0.30
     Davidson diagonalization with overlap

---- Real-time Memory Report at c_bands before calling an iterative solver
           740 MiB given to the printing process from OS
             0 MiB allocation reported by mallinfo(arena+hblkhd)
        839848 MiB available memory on the node where the printing process lives
     GPU memory used/free/total (MiB): 1066 / 80084 / 81151
------------------
     ethr =  1.78E-06,  avg # of iterations =  2.2

     total cpu time spent up to now is       19.2 secs

     total energy              =    -475.02704623 Ry
     estimated scf accuracy    <       0.00030518 Ry

     total magnetization       =     0.43 Bohr mag/cell
     absolute magnetization    =     0.57 Bohr mag/cell
[tb_dev] Currently allocated     3.05E-05 Mbytes, locked:    0 /   2
[tb_pin] Currently allocated     0.00E+00 Mbytes, locked:    0 /   0

     iteration # 13     ecut=    60.00 Ry     beta= 0.30
     Davidson diagonalization with overlap

---- Real-time Memory Report at c_bands before calling an iterative solver
           740 MiB given to the printing process from OS
             0 MiB allocation reported by mallinfo(arena+hblkhd)
        839822 MiB available memory on the node where the printing process lives
     GPU memory used/free/total (MiB): 1066 / 80084 / 81151
------------------
     ethr =  9.54E-07,  avg # of iterations =  2.8

     total cpu time spent up to now is       20.4 secs

     total energy              =    -475.02710615 Ry
     estimated scf accuracy    <       0.00001936 Ry

     total magnetization       =     0.43 Bohr mag/cell
     absolute magnetization    =     0.58 Bohr mag/cell
[tb_dev] Currently allocated     3.05E-05 Mbytes, locked:    0 /   2
[tb_pin] Currently allocated     0.00E+00 Mbytes, locked:    0 /   0

     iteration # 14     ecut=    60.00 Ry     beta= 0.30
     Davidson diagonalization with overlap

---- Real-time Memory Report at c_bands before calling an iterative solver
           740 MiB given to the printing process from OS
             0 MiB allocation reported by mallinfo(arena+hblkhd)
        839807 MiB available memory on the node where the printing process lives
     GPU memory used/free/total (MiB): 1066 / 80084 / 81151
------------------
     ethr =  6.05E-08,  avg # of iterations =  7.5

     total cpu time spent up to now is       22.2 secs

     total energy              =    -475.02713225 Ry
     estimated scf accuracy    <       0.00001341 Ry

     total magnetization       =     0.42 Bohr mag/cell
     absolute magnetization    =     0.58 Bohr mag/cell
[tb_dev] Currently allocated     3.05E-05 Mbytes, locked:    0 /   2
[tb_pin] Currently allocated     0.00E+00 Mbytes, locked:    0 /   0

     iteration # 15     ecut=    60.00 Ry     beta= 0.30
     Davidson diagonalization with overlap

---- Real-time Memory Report at c_bands before calling an iterative solver
           740 MiB given to the printing process from OS
             0 MiB allocation reported by mallinfo(arena+hblkhd)
        839810 MiB available memory on the node where the printing process lives
     GPU memory used/free/total (MiB): 1066 / 80084 / 81151
------------------
     ethr =  4.19E-08,  avg # of iterations =  1.4

     total cpu time spent up to now is       23.3 secs

     total energy              =    -475.02713340 Ry
     estimated scf accuracy    <       0.00000703 Ry

     total magnetization       =     0.42 Bohr mag/cell
     absolute magnetization    =     0.57 Bohr mag/cell
[tb_dev] Currently allocated     3.05E-05 Mbytes, locked:    0 /   2
[tb_pin] Currently allocated     0.00E+00 Mbytes, locked:    0 /   0

     iteration # 16     ecut=    60.00 Ry     beta= 0.30
     Davidson diagonalization with overlap

---- Real-time Memory Report at c_bands before calling an iterative solver
           740 MiB given to the printing process from OS
             0 MiB allocation reported by mallinfo(arena+hblkhd)
        839751 MiB available memory on the node where the printing process lives
     GPU memory used/free/total (MiB): 1066 / 80084 / 81151
------------------
     ethr =  2.20E-08,  avg # of iterations =  1.7

     total cpu time spent up to now is       24.4 secs

     total energy              =    -475.02713440 Ry
     estimated scf accuracy    <       0.00000094 Ry

     total magnetization       =     0.42 Bohr mag/cell
     absolute magnetization    =     0.58 Bohr mag/cell
[tb_dev] Currently allocated     3.05E-05 Mbytes, locked:    0 /   2
[tb_pin] Currently allocated     0.00E+00 Mbytes, locked:    0 /   0

     iteration # 17     ecut=    60.00 Ry     beta= 0.30
     Davidson diagonalization with overlap

---- Real-time Memory Report at c_bands before calling an iterative solver
           740 MiB given to the printing process from OS
             0 MiB allocation reported by mallinfo(arena+hblkhd)
        840156 MiB available memory on the node where the printing process lives
     GPU memory used/free/total (MiB): 1066 / 80084 / 81151
------------------
     ethr =  2.94E-09,  avg # of iterations =  6.3

     total cpu time spent up to now is       26.1 secs

     total energy              =    -475.02713478 Ry
     estimated scf accuracy    <       0.00000217 Ry

     total magnetization       =     0.42 Bohr mag/cell
     absolute magnetization    =     0.58 Bohr mag/cell
[tb_dev] Currently allocated     3.05E-05 Mbytes, locked:    0 /   2
[tb_pin] Currently allocated     0.00E+00 Mbytes, locked:    0 /   0

     iteration # 18     ecut=    60.00 Ry     beta= 0.30
     Davidson diagonalization with overlap

---- Real-time Memory Report at c_bands before calling an iterative solver
           740 MiB given to the printing process from OS
             0 MiB allocation reported by mallinfo(arena+hblkhd)
        839895 MiB available memory on the node where the printing process lives
     GPU memory used/free/total (MiB): 1066 / 80084 / 81151
------------------
     ethr =  2.94E-09,  avg # of iterations =  1.6

     total cpu time spent up to now is       27.1 secs

     total energy              =    -475.02713498 Ry
     estimated scf accuracy    <       0.00000010 Ry

     total magnetization       =     0.42 Bohr mag/cell
     absolute magnetization    =     0.58 Bohr mag/cell
[tb_dev] Currently allocated     3.05E-05 Mbytes, locked:    0 /   2
[tb_pin] Currently allocated     0.00E+00 Mbytes, locked:    0 /   0

     iteration # 19     ecut=    60.00 Ry     beta= 0.30
     Davidson diagonalization with overlap

---- Real-time Memory Report at c_bands before calling an iterative solver
           740 MiB given to the printing process from OS
             0 MiB allocation reported by mallinfo(arena+hblkhd)
        839886 MiB available memory on the node where the printing process lives
     GPU memory used/free/total (MiB): 1066 / 80084 / 81151
------------------
     ethr =  3.24E-10,  avg # of iterations =  5.5
 
     Magnetic moment per site  (integrated on atomic sphere of radius R)
     atom   1 (R=0.276)  charge= 14.0355  magn=  0.3772
     atom   2 (R=0.276)  charge=  5.1512  magn=  0.0487
     atom   3 (R=0.276)  charge=  5.1895  magn=  0.0296
     atom   4 (R=0.405)  charge=  2.2963  magn= -0.0315

     total cpu time spent up to now is       28.7 secs

     End of self-consistent calculation

 ------ SPIN UP ------------


          k = 0.0000 0.0000 0.0000 (  3123 PWs)   bands (ev):

   -91.3228 -54.5998 -54.5181 -54.5181 -43.0136 -15.5251 -13.4583  -1.8617
    -1.0461  -1.0461   1.6529   2.7182   2.7182   2.8132   2.8132   3.1855
     4.2561   6.8484   6.8484   7.8408  11.1497  14.4526  15.4398  19.9264

     occupation numbers 
     1.0000   1.0000   1.0000   1.0000   1.0000   1.0000   1.0000   1.0000
     1.0000   1.0000   1.0000   1.0000   1.0000   1.0000   1.0000   1.0000
     0.7648   0.0000   0.0000   0.0000   0.0000   0.0000   0.0000   0.0000

          k = 0.0000 0.0000 0.1119 (  3075 PWs)   bands (ev):

   -91.3228 -54.5996 -54.5180 -54.5180 -43.0134 -15.5251 -13.4583  -1.8531
    -1.0460  -1.0460   1.5331   2.7183   2.7183   2.8132   2.8132   3.4702
     4.1554   6.8485   6.8485   7.5628  11.8155  13.7701  15.5125  19.9271

     occupation numbers 
     1.0000   1.0000   1.0000   1.0000   1.0000   1.0000   1.0000   1.0000
     1.0000   1.0000   1.0000   1.0000   1.0000   1.0000   1.0000   1.0002
     0.9783   0.0000   0.0000   0.0000   0.0000   0.0000   0.0000   0.0000

          k = 0.0000 0.1443 0.0000 (  3099 PWs)   bands (ev):

   -91.3217 -54.5982 -54.5290 -54.5206 -43.0094 -15.3369 -13.4538  -1.6967
    -1.2246  -0.9314   1.4972   1.9666   2.0600   3.1859   3.4371   3.4691
     4.3549   6.3146   6.7410   8.2093  11.6686  15.0655  15.8087  18.0699

     occupation numbers 
     1.0000   1.0000   1.0000   1.0000   1.0000   1.0000   1.0000   1.0000
     1.0000   1.0000   1.0000   1.0000   1.0000   1.0000   1.0001   1.0002
     0.4957   0.0000   0.0000   0.0000   0.0000   0.0000   0.0000   0.0000

          k = 0.0000 0.1443 0.1119 (  3086 PWs)   bands (ev):

   -91.3217 -54.5981 -54.5289 -54.5206 -43.0093 -15.3369 -13.4538  -1.6908
    -1.2242  -0.9314   1.4981   1.9527   1.9665   3.1825   3.4691   3.7026
     4.2297   6.3660   6.7410   7.9487  12.2531  14.2504  16.1543  18.0848

     occupation numbers 
     1.0000   1.0000   1.0000   1.0000   1.0000   1.0000   1.0000   1.0000
     1.0000   1.0000   1.0000   1.0000   1.0000   1.0000   1.0002   1.0094
     0.8301   0.0000   0.0000   0.0000   0.0000   0.0000   0.0000   0.0000

          k = 0.0000 0.2887 0.0000 (  3067 PWs)   bands (ev):

   -91.3192 -54.5941 -54.5554 -54.5268 -42.9993 -14.8459 -13.4524  -1.7077
    -1.0245  -0.6692   0.0422   1.3634   2.4265   3.2931   3.7526   3.8402
     4.4834   5.7613   6.6074   8.9894  12.8166  14.5286  16.5313  16.7887

     occupation numbers 
     1.0000   1.0000   1.0000   1.0000   1.0000   1.0000   1.0000   1.0000
     1.0000   1.0000   1.0000   1.0000   1.0000   1.0000   1.0169   1.0391
     0.2032   0.0000   0.0000   0.0000   0.0000   0.0000   0.0000   0.0000

          k = 0.0000 0.2887 0.1119 (  3070 PWs)   bands (ev):

   -91.3192 -54.5941 -54.5554 -54.5268 -42.9993 -14.8459 -13.4524  -1.7098
    -1.0197  -0.6692   0.0454   1.3633   2.3970   3.2671   3.7526   3.9610
     4.3582   5.8872   6.6074   8.8192  13.1695  14.3911  15.8023  17.3902

     occupation numbers 
     1.0000   1.0000   1.0000   1.0000   1.0000   1.0000   1.0000   1.0000
     1.0000   1.0000   1.0000   1.0000   1.0000   1.0000   1.0169   1.0776
     0.4870   0.0000   0.0000   0.0000   0.0000   0.0000   0.0000   0.0000

          k = 0.0000 0.4330 0.0000 (  3054 PWs)   bands (ev):

   -91.3166 -54.5903 -54.5817 -54.5330 -42.9892 -14.2771 -13.4785  -2.1523
    -1.0803  -0.4880   0.0547   1.1806   1.9106   3.2110   3.5529   3.7978
     5.2053   6.1087   6.6444  10.0440  11.6823  14.5774  15.7011  16.3679

     occupation numbers 
     1.0000   1.0000   1.0000   1.0000   1.0000   1.0000   1.0000   1.0000
     1.0000   1.0000   1.0000   1.0000   1.0000   1.0000   1.0010   1.0269
     0.0000   0.0000   0.0000   0.0000   0.0000   0.0000   0.0000   0.0000

          k = 0.0000 0.4330 0.1119 (  3062 PWs)   bands (ev):

   -91.3166 -54.5903 -54.5817 -54.5330 -42.9893 -14.2771 -13.4785  -2.1532
    -1.0806  -0.4880   0.0575   1.1805   1.9163   3.2063   3.5529   3.8025
     5.1216   6.2096   6.6443  10.0113  11.6406  14.6278  15.9843  16.3701

     occupation numbers 
     1.0000   1.0000   1.0000   1.0000   1.0000   1.0000   1.0000   1.0000
     1.0000   1.0000   1.0000   1.0000   1.0000   1.0000   1.0010   1.0281
     0.0000   0.0000   0.0000   0.0000   0.0000   0.0000   0.0000   0.0000

          k = 0.0000-0.5774 0.0000 (  3050 PWs)   bands (ev):

   -91.3155 -54.5935 -54.5879 -54.5356 -42.9851 -13.9923 -13.5187  -2.5637
    -0.9193  -0.4626   0.2622   1.2400   1.5904   3.0038   3.3546   3.7429
     5.8773   6.3684   6.6962   9.8453  11.9521  13.5119  16.0167  16.1382

     occupation numbers 
     1.0000   1.0000   1.0000   1.0000   1.0000   1.0000   1.0000   1.0000
     1.0000   1.0000   1.0000   1.0000   1.0000   1.0000   1.0000   1.0152
     0.0000   0.0000   0.0000   0.0000   0.0000   0.0000   0.0000   0.0000

          k = 0.0000-0.5774 0.1119 (  3058 PWs)   bands (ev):

   -91.3156 -54.5935 -54.5878 -54.5356 -42.9851 -13.9923 -13.5187  -2.5642
    -0.9194  -0.4626   0.2612   1.2399   1.5987   3.0019   3.3546   3.7403
     5.8269   6.4180   6.6961   9.8174  12.0487  13.4927  15.8095  16.8209

     occupation numbers 
     1.0000   1.0000   1.0000   1.0000   1.0000   1.0000   1.0000   1.0000
     1.0000   1.0000   1.0000   1.0000   1.0000   1.0000   1.0000   1.0147
     0.0000   0.0000   0.0000   0.0000   0.0000   0.0000   0.0000   0.0000

          k = 0.1250 0.2165 0.0000 (  3085 PWs)   bands (ev):

   -91.3199 -54.5953 -54.5464 -54.5263 -43.0023 -14.9969 -13.4503  -1.6349
    -1.1239  -0.7877   0.5688   1.2041   2.4496   3.3211   3.6352   3.8953
     4.4257   5.9133   6.4747   8.7638  12.5291  15.5710  15.9765  16.4582

     occupation numbers 
     1.0000   1.0000   1.0000   1.0000   1.0000   1.0000   1.0000   1.0000
     1.0000   1.0000   1.0000   1.0000   1.0000   1.0000   1.0038   1.0576
     0.3184   0.0000   0.0000   0.0000   0.0000   0.0000   0.0000   0.0000

          k = 0.1250 0.2165 0.1119 (  3077 PWs)   bands (ev):

   -91.3199 -54.5953 -54.5464 -54.5262 -43.0022 -14.9969 -13.4503  -1.6359
    -1.1186  -0.7874   0.5709   1.2041   2.3845   3.3211   3.6619   4.0071
     4.3488   5.9894   6.4451   8.6200  12.8718  15.0220  15.8484  16.9971

     occupation numbers 
     1.0000   1.0000   1.0000   1.0000   1.0000   1.0000   1.0000   1.0000
     1.0000   1.0000   1.0000   1.0000   1.0000   1.0000   1.0055   1.0833
     0.5123   0.0000   0.0000   0.0000   0.0000   0.0000   0.0000   0.0000

          k = 0.1250 0.3608 0.0000 (  3058 PWs)   bands (ev):

   -91.3174 -54.5912 -54.5702 -54.5352 -42.9922 -14.4649 -13.4568  -1.7511
    -1.1485  -0.4876  -0.0626   0.7604   2.2550   3.3483   3.6742   3.9544
     4.9093   5.9670   6.3805   9.7349  12.6160  13.9030  15.5484  17.0311

     occupation numbers 
     1.0000   1.0000   1.0000   1.0000   1.0000   1.0000   1.0000   1.0000
     1.0000   1.0000   1.0000   1.0000   1.0000   1.0000   1.0065   1.0760
     0.0005   0.0000   0.0000   0.0000   0.0000   0.0000   0.0000   0.0000

          k = 0.1250 0.3608 0.1119 (  3067 PWs)   bands (ev):

   -91.3174 -54.5913 -54.5702 -54.5352 -42.9922 -14.4649 -13.4568  -1.7527
    -1.1484  -0.4859  -0.0591   0.7605   2.2509   3.3480   3.6782   3.9443
     4.8694   6.0742   6.3427   9.6854  12.6068  13.9900  15.5070  16.8684

     occupation numbers 
     1.0000   1.0000   1.0000   1.0000   1.0000   1.0000   1.0000   1.0000
     1.0000   1.0000   1.0000   1.0000   1.0000   1.0000   1.0069   1.0734
     0.0012   0.0000   0.0000   0.0000   0.0000   0.0000   0.0000   0.0000

          k = 0.1250 0.5052 0.0000 (  3055 PWs)   bands (ev):

   -91.3155 -54.5892 -54.5862 -54.5417 -42.9851 -14.0312 -13.4818  -2.2616
    -1.1766  -0.3413   0.3204   0.6872   1.6392   3.1247   3.4703   3.9047
     5.8051   6.2598   6.5820  10.0423  11.5837  14.4102  14.6345  16.2175

     occupation numbers 
     1.0000   1.0000   1.0000   1.0000   1.0000   1.0000   1.0000   1.0000
     1.0000   1.0000   1.0000   1.0000   1.0000   1.0000   1.0002   1.0608
     0.0000   0.0000   0.0000   0.0000   0.0000   0.0000   0.0000   0.0000

          k = 0.1250 0.5052 0.1119 (  3051 PWs)   bands (ev):

   -91.3155 -54.5891 -54.5862 -54.5417 -42.9851 -14.0312 -13.4818  -2.2620
    -1.1770  -0.3412   0.3206   0.6872   1.6449   3.1234   3.4711   3.9010
     5.7702   6.3095   6.5651  10.0354  11.5874  14.3846  14.6642  16.5277

     occupation numbers 
     1.0000   1.0000   1.0000   1.0000   1.0000   1.0000   1.0000   1.0000
     1.0000   1.0000   1.0000   1.0000   1.0000   1.0000   1.0002   1.0596
     0.0000   0.0000   0.0000   0.0000   0.0000   0.0000   0.0000   0.0000

          k = 0.2500 0.4330 0.0000 (  3067 PWs)   bands (ev):

   -91.3156 -54.5884 -54.5787 -54.5501 -42.9851 -14.0654 -13.4496  -1.7493
    -1.4247  -0.4820   0.1171   0.5119   1.7010   3.2126   3.5519   4.0738
     5.6688   6.1329   6.5290  10.4176  11.1484  13.7736  15.6335  16.6888

     occupation numbers 
     1.0000   1.0000   1.0000   1.0000   1.0000   1.0000   1.0000   1.0000
     1.0000   1.0000   1.0000   1.0000   1.0000   1.0000   1.0010   1.0651
     0.0000   0.0000   0.0000   0.0000   0.0000   0.0000   0.0000   0.0000

          k = 0.2500 0.4330 0.1119 (  3068 PWs)   bands (ev):

   -91.3156 -54.5884 -54.5787 -54.5501 -42.9851 -14.0654 -13.4496  -1.7497
    -1.4255  -0.4821   0.1188   0.5134   1.7002   3.2137   3.5532   4.0637
     5.7130   6.1152   6.4960  10.4252  11.1765  13.7330  15.5798  16.7961

     occupation numbers 
     1.0000   1.0000   1.0000   1.0000   1.0000   1.0000   1.0000   1.0000
     1.0000   1.0000   1.0000   1.0000   1.0000   1.0000   1.0010   1.0705
     0.0000   0.0000   0.0000   0.0000   0.0000   0.0000   0.0000   0.0000

          k = 0.2500 0.5774 0.0000 (  3044 PWs)   bands (ev):

   -91.3148 -54.5872 -54.5791 -54.5590 -42.9821 -13.9039 -13.4316  -1.8693
    -1.3647  -0.6913   0.2864   0.7223   1.2486   2.9370   3.7518   4.0132
     5.9962   6.1051   7.2711   8.9656  12.3649  13.6613  14.5852  16.7315

     occupation numbers 
     1.0000   1.0000   1.0000   1.0000   1.0000   1.0000   1.0000   1.0000
     1.0000   1.0000   1.0000   1.0000   1.0000   1.0000   1.0167   1.0832
     0.0000   0.0000   0.0000   0.0000   0.0000   0.0000   0.0000   0.0000

          k = 0.2500 0.5774 0.1119 (  3050 PWs)   bands (ev):

   -91.3148 -54.5872 -54.5792 -54.5591 -42.9821 -13.9039 -13.4316  -1.8697
    -1.3650  -0.6916   0.2870   0.7223   1.2500   2.9368   3.7522   4.0100
     6.0178   6.1090   7.2402   8.9472  12.3879  13.6523  14.6437  16.6891

     occupation numbers 
     1.0000   1.0000   1.0000   1.0000   1.0000   1.0000   1.0000   1.0000
     1.0000   1.0000   1.0000   1.0000   1.0000   1.0000   1.0168   1.0833
     0.0000   0.0000   0.0000   0.0000   0.0000   0.0000   0.0000   0.0000

          k = 0.0000-0.1443 0.1119 (  3086 PWs)   bands (ev):

   -91.3217 -54.5981 -54.5289 -54.5206 -43.0093 -15.3369 -13.4538  -1.6904
    -1.2244  -0.9314   1.4922   1.9589   1.9665   3.1842   3.4691   3.6909
     4.2505   6.3259   6.7410   7.9935  12.1994  14.3031  16.1576  18.0285

     occupation numbers 
     1.0000   1.0000   1.0000   1.0000   1.0000   1.0000   1.0000   1.0000
     1.0000   1.0000   1.0000   1.0000   1.0000   1.0000   1.0002   1.0081
     0.7790   0.0000   0.0000   0.0000   0.0000   0.0000   0.0000   0.0000

          k = 0.0000-0.2887 0.1119 (  3070 PWs)   bands (ev):

   -91.3192 -54.5941 -54.5554 -54.5268 -42.9993 -14.8459 -13.4524  -1.7088
    -1.0205  -0.6692   0.0455   1.3634   2.3829   3.2814   3.7526   3.9010
     4.4965   5.7551   6.6074   8.9363  12.9032  14.6317  15.7975  17.3901

     occupation numbers 
     1.0000   1.0000   1.0000   1.0000   1.0000   1.0000   1.0000   1.0000
     1.0000   1.0000   1.0000   1.0000   1.0000   1.0000   1.0169   1.0596
     0.1815   0.0000   0.0000   0.0000   0.0000   0.0000   0.0000   0.0000

          k = 0.0000-0.4330 0.1119 (  3062 PWs)   bands (ev):

   -91.3166 -54.5903 -54.5817 -54.5330 -42.9893 -14.2771 -13.4785  -2.1530
    -1.0809  -0.4880   0.0599   1.1804   1.9067   3.2120   3.5529   3.7895
     5.2156   6.0953   6.6443  10.1083  11.6648  14.3499  15.8558  16.3698

     occupation numbers 
     1.0000   1.0000   1.0000   1.0000   1.0000   1.0000   1.0000   1.0000
     1.0000   1.0000   1.0000   1.0000   1.0000   1.0000   1.0010   1.0248
     0.0000   0.0000   0.0000   0.0000   0.0000   0.0000   0.0000   0.0000

          k =-0.1250-0.3608 0.1119 (  3067 PWs)   bands (ev):

   -91.3174 -54.5913 -54.5702 -54.5352 -42.9922 -14.4649 -13.4568  -1.7524
    -1.1487  -0.4862  -0.0581   0.7605   2.2438   3.3539   3.6826   3.9216
     4.9460   5.9623   6.3739   9.7523  12.5719  13.9066  15.5603  16.9368

     occupation numbers 
     1.0000   1.0000   1.0000   1.0000   1.0000   1.0000   1.0000   1.0000
     1.0000   1.0000   1.0000   1.0000   1.0000   1.0000   1.0073   1.0665
     0.0003   0.0000   0.0000   0.0000   0.0000   0.0000   0.0000   0.0000

          k =-0.1250-0.5052 0.1119 (  3051 PWs)   bands (ev):

   -91.3155 -54.5892 -54.5861 -54.5417 -42.9851 -14.0312 -13.4818  -2.2620
    -1.1769  -0.3414   0.3222   0.6875   1.6408   3.1253   3.4711   3.8977
     5.8198   6.2572   6.5627  10.0259  11.6837  14.2901  14.5998  16.2412

     occupation numbers 
     1.0000   1.0000   1.0000   1.0000   1.0000   1.0000   1.0000   1.0000
     1.0000   1.0000   1.0000   1.0000   1.0000   1.0000   1.0002   1.0584
     0.0000   0.0000   0.0000   0.0000   0.0000   0.0000   0.0000   0.0000

 ------ SPIN DOWN ----------


          k = 0.0000 0.0000 0.0000 (  3123 PWs)   bands (ev):

   -90.8595 -54.1057 -54.1057 -54.0703 -43.0370 -15.4642 -13.3845  -1.6972
    -0.9071  -0.9071   1.7505   2.7788   2.7788   3.0507   3.2034   3.2034
     4.7368   7.0442   7.0442   7.7743  11.1649  14.4983  15.4916  19.8701

     occupation numbers 
     1.0000   1.0000   1.0000   1.0000   1.0000   1.0000   1.0000   1.0000
     1.0000   1.0000   1.0000   1.0000   1.0000   1.0000   1.0000   1.0000
     0.0106   0.0000   0.0000   0.0000   0.0000   0.0000   0.0000   0.0000

          k = 0.0000 0.0000 0.1119 (  3075 PWs)   bands (ev):

   -90.8594 -54.1055 -54.1055 -54.0700 -43.0368 -15.4641 -13.3845  -1.6866
    -0.9071  -0.9071   1.5963   2.7789   2.7789   3.2034   3.2034   3.3447
     4.6565   7.0444   7.0444   7.5001  11.8359  13.8051  15.5561  19.8710

     occupation numbers 
     1.0000   1.0000   1.0000   1.0000   1.0000   1.0000   1.0000   1.0000
     1.0000   1.0000   1.0000   1.0000   1.0000   1.0000   1.0000   1.0000
     0.0323   0.0000   0.0000   0.0000   0.0000   0.0000   0.0000   0.0000

          k = 0.0000 0.1443 0.0000 (  3099 PWs)   bands (ev):

   -90.8584 -54.1168 -54.1082 -54.0686 -43.0327 -15.2758 -13.3793  -1.5486
    -1.0761  -0.7969   1.6260   2.1339   2.1564   3.2879   3.5740   3.7647
     4.7877   6.4986   6.9327   8.1564  11.6822  15.1063  15.8644  17.9765

     occupation numbers 
     1.0000   1.0000   1.0000   1.0000   1.0000   1.0000   1.0000   1.0000
     1.0000   1.0000   1.0000   1.0000   1.0000   1.0000   1.0015   1.0193
     0.0048   0.0000   0.0000   0.0000   0.0000   0.0000   0.0000   0.0000

          k = 0.0000 0.1443 0.1119 (  3086 PWs)   bands (ev):

   -90.8584 -54.1167 -54.1083 -54.0685 -43.0327 -15.2758 -13.3793  -1.5420
    -1.0748  -0.7969   1.6283   2.0155   2.1339   3.4452   3.6779   3.7646
     4.6927   6.5577   6.9327   7.8891  12.2721  14.2838  16.2031  17.9914

     occupation numbers 
     1.0000   1.0000   1.0000   1.0000   1.0000   1.0000   1.0000   1.0000
     1.0000   1.0000   1.0000   1.0000   1.0000   1.0001   1.0068   1.0193
     0.0199   0.0000   0.0000   0.0000   0.0000   0.0000   0.0000   0.0000

          k = 0.0000 0.2887 0.0000 (  3067 PWs)   bands (ev):

   -90.8557 -54.1438 -54.1145 -54.0643 -43.0225 -14.7848 -13.3757  -1.5970
    -0.8718  -0.5441   0.1694   1.5086   2.5429   3.6241   3.9630   4.0968
     4.7125   5.9593   6.7909   8.9246  12.8151  14.4162  16.5719  16.8091

     occupation numbers 
     1.0000   1.0000   1.0000   1.0000   1.0000   1.0000   1.0000   1.0000
     1.0000   1.0000   1.0000   1.0000   1.0000   1.0032   1.0781   1.0486
     0.0151   0.0000   0.0000   0.0000   0.0000   0.0000   0.0000   0.0000

          k = 0.0000 0.2887 0.1119 (  3070 PWs)   bands (ev):

   -90.8557 -54.1439 -54.1145 -54.0643 -43.0225 -14.7848 -13.3757  -1.5994
    -0.8662  -0.5441   0.1741   1.5086   2.4996   3.5852   4.0969   4.0989
     4.6073   6.0831   6.7909   8.7445  13.1654  14.3092  15.7910  17.2782

     occupation numbers 
     1.0000   1.0000   1.0000   1.0000   1.0000   1.0000   1.0000   1.0000
     1.0000   1.0000   1.0000   1.0000   1.0000   1.0018   1.0486   1.0468
     0.0588   0.0000   0.0000   0.0000   0.0000   0.0000   0.0000   0.0000

          k = 0.0000 0.4330 0.0000 (  3054 PWs)   bands (ev):

   -90.8531 -54.1710 -54.1209 -54.0601 -43.0123 -14.2176 -13.3978  -2.0508
    -1.0037  -0.3634   0.2296   1.2733   2.0367   3.6441   3.9585   4.2439
     5.0749   6.2904   6.8292   9.9329  11.5620  14.5691  15.6619  16.2469

     occupation numbers 
     1.0000   1.0000   1.0000   1.0000   1.0000   1.0000   1.0000   1.0000
     1.0000   1.0000   1.0000   1.0000   1.0000   1.0043   1.0770   0.7955
     0.0000   0.0000   0.0000   0.0000   0.0000   0.0000   0.0000   0.0000

          k = 0.0000 0.4330 0.1119 (  3062 PWs)   bands (ev):

   -90.8531 -54.1710 -54.1209 -54.0601 -43.0124 -14.2176 -13.3978  -2.0517
    -1.0041  -0.3635   0.2331   1.2732   2.0433   3.6344   3.9584   4.2541
     5.0040   6.3800   6.8291   9.8983  11.5188  14.6130  15.9746  16.2490

     occupation numbers 
     1.0000   1.0000   1.0000   1.0000   1.0000   1.0000   1.0000   1.0000
     1.0000   1.0000   1.0000   1.0000   1.0000   1.0037   1.0770   0.7698
     0.0001   0.0000   0.0000   0.0000   0.0000   0.0000   0.0000   0.0000

          k = 0.0000-0.5774 0.0000 (  3050 PWs)   bands (ev):

   -90.8520 -54.1822 -54.1236 -54.0584 -43.0081 -13.9369 -13.4329  -2.4695
    -0.8597  -0.3337   0.4355   1.2905   1.7090   3.5064   3.7988   4.1750
     5.7699   6.5131   6.8844   9.6605  11.9168  13.4080  15.8931  16.1547

     occupation numbers 
     1.0000   1.0000   1.0000   1.0000   1.0000   1.0000   1.0000   1.0000
     1.0000   1.0000   1.0000   1.0000   1.0000   1.0005   1.0271   0.9453
     0.0000   0.0000   0.0000   0.0000   0.0000   0.0000   0.0000   0.0000

          k = 0.0000-0.5774 0.1119 (  3058 PWs)   bands (ev):

   -90.8520 -54.1823 -54.1236 -54.0584 -43.0081 -13.9369 -13.4329  -2.4700
    -0.8599  -0.3337   0.4343   1.2904   1.7186   3.5029   3.7988   4.1722
     5.7303   6.5537   6.8843   9.6327  12.0142  13.3893  15.8022  15.8957

     occupation numbers 
     1.0000   1.0000   1.0000   1.0000   1.0000   1.0000   1.0000   1.0000
     1.0000   1.0000   1.0000   1.0000   1.0000   1.0004   1.0271   0.9502
     0.0000   0.0000   0.0000   0.0000   0.0000   0.0000   0.0000   0.0000

          k = 0.1250 0.2165 0.0000 (  3085 PWs)   bands (ev):

   -90.8565 -54.1346 -54.1140 -54.0656 -43.0255 -14.9357 -13.3743  -1.5220
    -0.9557  -0.6605   0.6849   1.3579   2.5531   3.6851   3.7231   4.1421
     4.7474   6.1010   6.6622   8.7052  12.5392  15.5034  15.8859  16.5178

     occupation numbers 
     1.0000   1.0000   1.0000   1.0000   1.0000   1.0000   1.0000   1.0000
     1.0000   1.0000   1.0000   1.0000   1.0000   1.0075   1.0121   0.9979
     0.0090   0.0000   0.0000   0.0000   0.0000   0.0000   0.0000   0.0000

          k = 0.1250 0.2165 0.1119 (  3077 PWs)   bands (ev):

   -90.8565 -54.1346 -54.1140 -54.0655 -43.0255 -14.9357 -13.3743  -1.5233
    -0.9493  -0.6599   0.6881   1.3579   2.4653   3.7166   3.7774   4.2245
     4.6645   6.1797   6.6303   8.5566  12.8845  15.0467  15.6862  16.9863

     occupation numbers 
     1.0000   1.0000   1.0000   1.0000   1.0000   1.0000   1.0000   1.0000
     1.0000   1.0000   1.0000   1.0000   1.0000   1.0112   1.0220   0.8424
     0.0291   0.0000   0.0000   0.0000   0.0000   0.0000   0.0000   0.0000

          k = 0.1250 0.3608 0.0000 (  3058 PWs)   bands (ev):

   -90.8539 -54.1590 -54.1231 -54.0613 -43.0153 -14.4044 -13.3777  -1.6448
    -1.0528  -0.3617   0.0947   0.8846   2.3757   3.7659   4.0980   4.3163
     4.8114   6.1596   6.5586   9.6560  12.4569  13.8814  15.4952  17.0455

     occupation numbers 
     1.0000   1.0000   1.0000   1.0000   1.0000   1.0000   1.0000   1.0000
     1.0000   1.0000   1.0000   1.0000   1.0000   1.0195   1.0477   0.6019
     0.0032   0.0000   0.0000   0.0000   0.0000   0.0000   0.0000   0.0000

          k = 0.1250 0.3608 0.1119 (  3067 PWs)   bands (ev):

   -90.8539 -54.1590 -54.1232 -54.0614 -43.0153 -14.4044 -13.3778  -1.6466
    -1.0527  -0.3601   0.0998   0.8848   2.3696   3.7617   4.0831   4.3285
     4.7838   6.2582   6.5217   9.6024  12.4459  13.9692  15.4663  16.8743

     occupation numbers 
     1.0000   1.0000   1.0000   1.0000   1.0000   1.0000   1.0000   1.0000
     1.0000   1.0000   1.0000   1.0000   1.0000   1.0187   1.0592   0.5681
     0.0051   0.0000   0.0000   0.0000   0.0000   0.0000   0.0000   0.0000

          k = 0.1250 0.5052 0.0000 (  3055 PWs)   bands (ev):

   -90.8520 -54.1761 -54.1297 -54.0584 -43.0081 -13.9743 -13.3974  -2.1670
    -1.0935  -0.2327   0.4798   0.7753   1.7631   3.6611   3.9014   4.2847
     5.7273   6.4384   6.7042   9.8550  11.5144  14.3502  14.5259  16.2278

     occupation numbers 
     1.0000   1.0000   1.0000   1.0000   1.0000   1.0000   1.0000   1.0000
     1.0000   1.0000   1.0000   1.0000   1.0000   1.0054   1.0597   0.6889
     0.0000   0.0000   0.0000   0.0000   0.0000   0.0000   0.0000   0.0000

          k = 0.1250 0.5052 0.1119 (  3051 PWs)   bands (ev):

   -90.8520 -54.1761 -54.1297 -54.0584 -43.0081 -13.9742 -13.3974  -2.1674
    -1.0939  -0.2326   0.4800   0.7753   1.7698   3.6581   3.9026   4.2802
     5.7014   6.4819   6.6864   9.8480  11.5183  14.3330  14.5491  16.5311

     occupation numbers 
     1.0000   1.0000   1.0000   1.0000   1.0000   1.0000   1.0000   1.0000
     1.0000   1.0000   1.0000   1.0000   1.0000   1.0052   1.0601   0.7011
     0.0000   0.0000   0.0000   0.0000   0.0000   0.0000   0.0000   0.0000

          k = 0.2500 0.4330 0.0000 (  3067 PWs)   bands (ev):

   -90.8520 -54.1676 -54.1384 -54.0584 -43.0081 -14.0075 -13.3661  -1.6562
    -1.3263  -0.4027   0.2457   0.6632   1.8251   3.7811   3.9667   4.4228
     5.6373   6.3484   6.5651  10.2200  11.0541  13.7268  15.5869  16.6577

     occupation numbers 
     1.0000   1.0000   1.0000   1.0000   1.0000   1.0000   1.0000   1.0000
     1.0000   1.0000   1.0000   1.0000   1.0000   1.0228   1.0789   0.3250
     0.0000   0.0000   0.0000   0.0000   0.0000   0.0000   0.0000   0.0000

          k = 0.2500 0.4330 0.1119 (  3068 PWs)   bands (ev):

   -90.8520 -54.1676 -54.1384 -54.0584 -43.0082 -14.0075 -13.3661  -1.6565
    -1.3272  -0.4028   0.2474   0.6655   1.8240   3.7824   3.9683   4.4077
     5.6803   6.3251   6.5432  10.2262  11.0831  13.6887  15.5303  16.7570

     occupation numbers 
     1.0000   1.0000   1.0000   1.0000   1.0000   1.0000   1.0000   1.0000
     1.0000   1.0000   1.0000   1.0000   1.0000   1.0231   1.0792   0.3602
     0.0000   0.0000   0.0000   0.0000   0.0000   0.0000   0.0000   0.0000

          k = 0.2500 0.5774 0.0000 (  3044 PWs)   bands (ev):

   -90.8512 -54.1681 -54.1475 -54.0571 -43.0051 -13.8481 -13.3452  -1.7774
    -1.2717  -0.6144   0.3933   0.8648   1.3735   3.5454   4.1482   4.3934
     6.1497   6.3127   7.1177   8.7666  12.2635  13.6393  14.4735  16.6452

     occupation numbers 
     1.0000   1.0000   1.0000   1.0000   1.0000   1.0000   1.0000   1.0000
     1.0000   1.0000   1.0000   1.0000   1.0000   1.0009   0.9893   0.3952
     0.0000   0.0000   0.0000   0.0000   0.0000   0.0000   0.0000   0.0000

          k = 0.2500 0.5774 0.1119 (  3050 PWs)   bands (ev):

   -90.8513 -54.1682 -54.1475 -54.0571 -43.0051 -13.8481 -13.3452  -1.7778
    -1.2721  -0.6147   0.3940   0.8648   1.3751   3.5452   4.1488   4.3894
     6.1801   6.3178   7.0787   8.7468  12.2860  13.6322  14.5328  16.6093

     occupation numbers 
     1.0000   1.0000   1.0000   1.0000   1.0000   1.0000   1.0000   1.0000
     1.0000   1.0000   1.0000   1.0000   1.0000   1.0009   0.9884   0.4054
     0.0000   0.0000   0.0000   0.0000   0.0000   0.0000   0.0000   0.0000

          k = 0.0000-0.1443 0.1119 (  3086 PWs)   bands (ev):

   -90.8584 -54.1167 -54.1083 -54.0685 -43.0327 -15.2758 -13.3793  -1.5416
    -1.0750  -0.7969   1.6182   2.0274   2.1339   3.4354   3.6862   3.7647
     4.7032   6.5113   6.9327   7.9406  12.2170  14.3397  16.2056  17.9362

     occupation numbers 
     1.0000   1.0000   1.0000   1.0000   1.0000   1.0000   1.0000   1.0000
     1.0000   1.0000   1.0000   1.0000   1.0000   1.0001   1.0076   1.0193
     0.0172   0.0000   0.0000   0.0000   0.0000   0.0000   0.0000   0.0000

          k = 0.0000-0.2887 0.1119 (  3070 PWs)   bands (ev):

   -90.8557 -54.1439 -54.1145 -54.0643 -43.0225 -14.7848 -13.3757  -1.5984
    -0.8669  -0.5441   0.1742   1.5087   2.4823   3.6031   4.0827   4.0969
     4.6928   5.9528   6.7909   8.8684  12.8977  14.5269  15.8208  17.2780

     occupation numbers 
     1.0000   1.0000   1.0000   1.0000   1.0000   1.0000   1.0000   1.0000
     1.0000   1.0000   1.0000   1.0000   1.0000   1.0023   1.0595   1.0486
     0.0199   0.0000   0.0000   0.0000   0.0000   0.0000   0.0000   0.0000

          k = 0.0000-0.4330 0.1119 (  3062 PWs)   bands (ev):

   -90.8531 -54.1710 -54.1209 -54.0601 -43.0124 -14.2176 -13.3978  -2.0515
    -1.0044  -0.3634   0.2364   1.2732   2.0311   3.6414   3.9584   4.2332
     5.0902   6.2793   6.8291   9.9916  11.5516  14.3309  15.8190  16.2487

     occupation numbers 
     1.0000   1.0000   1.0000   1.0000   1.0000   1.0000   1.0000   1.0000
     1.0000   1.0000   1.0000   1.0000   1.0000   1.0041   1.0770   0.8219
     0.0000   0.0000   0.0000   0.0000   0.0000   0.0000   0.0000   0.0000

          k =-0.1250-0.3608 0.1119 (  3067 PWs)   bands (ev):

   -90.8539 -54.1590 -54.1232 -54.0614 -43.0153 -14.4044 -13.3778  -1.6462
    -1.0530  -0.3604   0.1011   0.8849   2.3605   3.7722   4.0897   4.2852
     4.8651   6.1552   6.5528   9.6703  12.4199  13.8750  15.5131  16.9734

     occupation numbers 
     1.0000   1.0000   1.0000   1.0000   1.0000   1.0000   1.0000   1.0000
     1.0000   1.0000   1.0000   1.0000   1.0000   1.0208   1.0544   0.6876
     0.0013   0.0000   0.0000   0.0000   0.0000   0.0000   0.0000   0.0000

          k =-0.1250-0.5052 0.1119 (  3051 PWs)   bands (ev):

   -90.8520 -54.1761 -54.1298 -54.0584 -43.0081 -13.9742 -13.3974  -2.1674
    -1.0938  -0.2328   0.4820   0.7758   1.7648   3.6610   3.9023   4.2754
     5.7401   6.4337   6.6922   9.8377  11.6143  14.2406  14.4898  16.2302

     occupation numbers 
     1.0000   1.0000   1.0000   1.0000   1.0000   1.0000   1.0000   1.0000
     1.0000   1.0000   1.0000   1.0000   1.0000   1.0054   1.0600   0.7141
     0.0000   0.0000   0.0000   0.0000   0.0000   0.0000   0.0000   0.0000

     the Fermi energy is     4.3913 ev

!    total energy              =    -475.02713503 Ry
     total all-electron energy =     -3102.899272 Ry
     estimated scf accuracy    <       0.00000004 Ry
     smearing contrib. (-TS)   =       0.00309840 Ry
     internal energy E=F+TS    =    -475.03023343 Ry

     The total energy is F=E-TS. E is the sum of the following terms:
     one-electron contribution =    -659.30563381 Ry
     hartree contribution      =     338.98677819 Ry
     xc contribution           =     -48.97747339 Ry
     ewald contribution        =       0.96753582 Ry
     one-center paw contrib.   =    -106.70144025 Ry
      -> PAW hartree energy AE =     279.09620101 Ry
      -> PAW hartree energy PS =    -277.74266214 Ry
      -> PAW xc energy AE      =    -154.19740506 Ry
      -> PAW xc energy PS      =      46.14242594 Ry
      -> total E_H with PAW    =     340.34031706 Ry
      -> total E_XC with PAW   =    -157.03245251 Ry

     total magnetization       =     0.42 Bohr mag/cell
     absolute magnetization    =     0.58 Bohr mag/cell

     convergence has been achieved in  19 iterations

     Forces acting on atoms (cartesian axes, Ry/au):

     atom    1 type  1   force =     0.00000000    0.00000000    0.03649982
     atom    2 type  2   force =     0.00000000    0.00000000   -0.01983269
     atom    3 type  2   force =     0.00000000    0.00000000   -0.05120426
     atom    4 type  3   force =    -0.00000000   -0.00000000    0.03453713
     The non-local contrib.  to forces
     atom    1 type  1   force =    -0.00000000   -0.00000000    0.07024631
     atom    2 type  2   force =     0.00000000    0.00000000   -1.32147884
     atom    3 type  2   force =     0.00000000    0.00000000    0.71292704
     atom    4 type  3   force =     0.00000000    0.00000000    0.00714284
     The ionic contribution  to forces
     atom    1 type  1   force =    -0.00000000   -0.00000000    6.24588698
     atom    2 type  2   force =     0.00000000   -0.00000000   39.63819071
     atom    3 type  2   force =    -0.00000000    0.00000000  -35.34309849
     atom    4 type  3   force =     0.00000000   -0.00000000  -10.54097920
     The local contribution  to forces
     atom    1 type  1   force =     0.00000000   -0.00000000   -6.27935929
     atom    2 type  2   force =     0.00000001   -0.00000001  -38.34846664
     atom    3 type  2   force =    -0.00000001    0.00000001   34.58458259
     atom    4 type  3   force =    -0.00000000   -0.00000000   10.56856014
     The core correction contribution to forces
     atom    1 type  1   force =    -0.00000000    0.00000000   -0.00068285
     atom    2 type  2   force =    -0.00000000    0.00000000    0.01155680
     atom    3 type  2   force =     0.00000000   -0.00000000   -0.00547672
     atom    4 type  3   force =     0.00000000    0.00000000    0.00000000
     The Hubbard contrib.    to forces
     atom    1 type  1   force =     0.00000000    0.00000000    0.00000000
     atom    2 type  2   force =     0.00000000    0.00000000    0.00000000
     atom    3 type  2   force =     0.00000000    0.00000000    0.00000000
     atom    4 type  3   force =     0.00000000    0.00000000    0.00000000
     The SCF correction term to forces
     atom    1 type  1   force =     0.00000000   -0.00000000    0.00041052
     atom    2 type  2   force =     0.00000000   -0.00000000    0.00036713
     atom    3 type  2   force =    -0.00000000    0.00000000   -0.00013682
     atom    4 type  3   force =     0.00000000   -0.00000000   -0.00018479

     Total force =     0.074433     Total SCF correction =     0.000597

     Writing all to output data dir ./out/pw.save/ :
     XML data file, charge density, pseudopotentials, collected wavefunctions
 
     init_run     :     13.46s CPU      3.25s WALL (       1 calls)
     electrons    :     95.82s CPU     25.01s WALL (       1 calls)
     forces       :      0.71s CPU      0.49s WALL (       1 calls)

     Called by init_run:
     wfcinit      :      0.27s CPU      0.32s WALL (       1 calls)
     wfcinit:atom :      0.04s CPU      0.04s WALL (      50 calls)
     wfcinit:wfcr :      0.17s CPU      0.20s WALL (      50 calls)
     potinit      :     12.68s CPU      2.39s WALL (       1 calls)
     hinit0       :      0.42s CPU      0.41s WALL (       1 calls)

     Called by electrons:
     c_bands      :     11.54s CPU     11.68s WALL (      19 calls)
     sum_band     :      2.04s CPU      2.02s WALL (      19 calls)
     v_of_rho     :      0.33s CPU      0.17s WALL (      20 calls)
     v_h          :      0.22s CPU      0.03s WALL (      20 calls)
     v_xc         :      0.11s CPU      0.15s WALL (      21 calls)
     newd         :      0.47s CPU      0.37s WALL (      20 calls)
                                        0.37s GPU  (      20 calls)
     PAW_pot      :     84.73s CPU     10.72s WALL (      20 calls)
     mix_rho      :      0.60s CPU      0.59s WALL (      19 calls)

     Called by c_bands:
     init_us_2    :      0.79s CPU      0.76s WALL (    2000 calls)
     cegterg      :     10.08s CPU     10.25s WALL (     950 calls)

     Called by sum_band:
     sum_band:wei :      0.02s CPU      0.02s WALL (      19 calls)
                                        0.02s GPU  (      19 calls)
     sum_band:loo :      1.26s CPU      1.24s WALL (      19 calls)
                                        1.24s GPU  (      19 calls)
     sum_band:buf :      0.15s CPU      0.17s WALL (     950 calls)
                                        0.15s GPU  (     950 calls)
     sum_band:ini :      0.37s CPU      0.37s WALL (     950 calls)
                                        0.36s GPU  (     950 calls)
     sum_band:cal :      0.04s CPU      0.06s WALL (     950 calls)
                                        0.04s GPU  (     950 calls)
     sum_band:bec :      0.20s CPU      0.21s WALL (     950 calls)
                                        0.20s GPU  (     950 calls)
     addusdens    :      0.62s CPU      0.62s WALL (      19 calls)
                                        0.62s GPU  (      19 calls)
     addusd:skk   :      0.00s CPU      0.00s WALL (      57 calls)
                                        0.00s GPU  (      57 calls)

     Called by *egterg:
     cdiaghg      :      3.23s CPU      3.35s WALL (    4257 calls)
                                        3.30s GPU  (    4257 calls)
     cegterg:over :      0.82s CPU      0.86s WALL (    3307 calls)
     cegterg:upda :      0.57s CPU      0.58s WALL (    3307 calls)
     cegterg:last :      0.11s CPU      0.11s WALL (    1844 calls)
     h_psi        :      3.70s CPU      3.83s WALL (    4307 calls)
                                        3.77s GPU  (    4307 calls)
     s_psi        :      0.63s CPU      0.67s WALL (    4307 calls)
     g_psi        :      0.02s CPU      0.08s WALL (    3307 calls)
                                        0.04s GPU  (    3307 calls)

     Called by h_psi:
     h_psi:calbec :      0.13s CPU      0.25s WALL (    4307 calls)
                                        0.19s GPU  (    4307 calls)
     vloc_psi     :      2.55s CPU      2.60s WALL (    4307 calls)
                                        2.54s GPU  (    4307 calls)
     add_vuspsi   :      0.57s CPU      0.68s WALL (    4307 calls)
                                        0.63s GPU  (    4307 calls)

     General routines
     calbec       :      0.15s CPU      0.18s WALL (    5457 calls)
     fft          :      3.67s CPU      0.97s WALL (     513 calls)
                                        0.02s GPU  (     473 calls)
     ffts         :      4.82s CPU      0.85s WALL (     786 calls)
                                        0.02s GPU  (     746 calls)
     fftw         :      0.23s CPU      0.89s WALL (   14414 calls)
                                        0.73s GPU  (   14414 calls)
     interpolate  :      8.65s CPU      1.79s WALL (      40 calls)
 
     Parallel routines

     PAW routines
     PAW_pot      :     84.73s CPU     10.72s WALL (      20 calls)
     PAW_symme    :      0.02s CPU      0.00s WALL (      39 calls)
 
     PWSCF        :   1m50.86s CPU     29.25s WALL

 
   This run was terminated on:   3:55:13  12Jul2026            

=------------------------------------------------------------------------------=
   JOB DONE.
=------------------------------------------------------------------------------=
Warning: ieee_divide_by_zero is signaling
Warning: ieee_inexact is signaling
FORTRAN STOP
