
     Program PROJWFC v.7.3.1 starts on 12Jul2026 at  6:28:53 

     This program is part of the open-source Quantum ESPRESSO suite
     for quantum simulation of materials; please cite
         "P. Giannozzi et al., J. Phys.:Condens. Matter 21 395502 (2009);
         "P. Giannozzi et al., J. Phys.:Condens. Matter 29 465901 (2017);
         "P. Giannozzi et al., J. Chem. Phys. 152 154105 (2020);
          URL http://www.quantum-espresso.org", 
     in publications or presentations arising from this work. More details at
     http://www.quantum-espresso.org/quote

     Serial version
     1359598 MiB available memory on the printing compute node when the environment starts


     Reading xml data from directory:

     ./out/pw.save/
     file Co.pbe-spn-kjpaw_psl.0.3.1.UPF: wavefunction(s)  3P 3D renormalized
     file O.pbe-n-kjpaw_psl.1.0.0.UPF: wavefunction(s)  2S 2P renormalized
     file Na.pbe-spn-kjpaw_psl.1.0.0.UPF: wavefunction(s)  2P renormalized

     IMPORTANT: XC functional enforced from input :
     Exchange-correlation= PBE
                           (   1   4   3   4   0   0   0)
     Any further DFT definition will be discarded
     Please, verify this is what you really want


     G-vector sticks info
     --------------------
     sticks:   dense  smooth     PW     G-vecs:    dense   smooth      PW
     Sum         979     499    151                59641    21167    3509

     Using Slab Decomposition


     Check: negative core charge=   -0.000008

     Gaussian broadening (read from input): ngauss,degauss=   0    0.020000


     Calling projwave .... 

  Problem Sizes 
  natomwfc =           23
  nbnd     =           27
  nkstot   =          120
  npwx     =         2663
  nkb      =           42


     Atomic states used for projection
     (read from pseudopotential files):

     state #   1: atom   1 (Co ), wfc  1 (l=0 m= 1)
     state #   2: atom   1 (Co ), wfc  2 (l=0 m= 1)
     state #   3: atom   1 (Co ), wfc  3 (l=1 m= 1)
     state #   4: atom   1 (Co ), wfc  3 (l=1 m= 2)
     state #   5: atom   1 (Co ), wfc  3 (l=1 m= 3)
     state #   6: atom   1 (Co ), wfc  4 (l=2 m= 1)
     state #   7: atom   1 (Co ), wfc  4 (l=2 m= 2)
     state #   8: atom   1 (Co ), wfc  4 (l=2 m= 3)
     state #   9: atom   1 (Co ), wfc  4 (l=2 m= 4)
     state #  10: atom   1 (Co ), wfc  4 (l=2 m= 5)
     state #  11: atom   2 (O  ), wfc  1 (l=0 m= 1)
     state #  12: atom   2 (O  ), wfc  2 (l=1 m= 1)
     state #  13: atom   2 (O  ), wfc  2 (l=1 m= 2)
     state #  14: atom   2 (O  ), wfc  2 (l=1 m= 3)
     state #  15: atom   3 (O  ), wfc  1 (l=0 m= 1)
     state #  16: atom   3 (O  ), wfc  2 (l=1 m= 1)
     state #  17: atom   3 (O  ), wfc  2 (l=1 m= 2)
     state #  18: atom   3 (O  ), wfc  2 (l=1 m= 3)
     state #  19: atom   4 (Na ), wfc  1 (l=0 m= 1)
     state #  20: atom   4 (Na ), wfc  2 (l=0 m= 1)
     state #  21: atom   4 (Na ), wfc  3 (l=1 m= 1)
     state #  22: atom   4 (Na ), wfc  3 (l=1 m= 2)
     state #  23: atom   4 (Na ), wfc  3 (l=1 m= 3)

 k =   0.0000000000  0.0000000000  0.0000000000
==== e(   1) =   -87.54816 eV ==== 
     psi = 0.976*[#   1]+0.008*[#  20]+0.006*[#   2]+0.004*[#  12]+0.004*[#  16]
          
    |psi|^2 = 1.000
==== e(   2) =   -50.78415 eV ==== 
     psi = 0.499*[#   4]+0.499*[#   5]
    |psi|^2 = 1.000
==== e(   3) =   -50.78415 eV ==== 
     psi = 0.499*[#   4]+0.499*[#   5]
    |psi|^2 = 1.000
==== e(   4) =   -50.78193 eV ==== 
     psi = 0.998*[#   3]
    |psi|^2 = 1.000
==== e(   5) =   -46.04592 eV ==== 
     psi = 0.964*[#  19]+0.036*[#  20]
    |psi|^2 = 1.000
==== e(   6) =   -17.87205 eV ==== 
     psi = 0.500*[#  22]+0.500*[#  23]
    |psi|^2 = 1.000
==== e(   7) =   -17.87205 eV ==== 
     psi = 0.500*[#  22]+0.500*[#  23]
    |psi|^2 = 1.000
==== e(   8) =   -17.85242 eV ==== 
     psi = 0.999*[#  21]
    |psi|^2 = 1.000
==== e(   9) =   -11.93303 eV ==== 
     psi = 0.313*[#  11]+0.313*[#  15]+0.293*[#   2]+0.049*[#  20]+0.011*[#   1]
          +0.007*[#  12]+0.007*[#  16]+0.004*[#   6]
    |psi|^2 = 0.999
==== e(  10) =   -10.11781 eV ==== 
     psi = 0.494*[#  11]+0.494*[#  15]+0.002*[#   3]+0.002*[#  12]+0.002*[#  16]
          
    |psi|^2 = 0.995
==== e(  11) =     1.47405 eV ==== 
     psi = 0.303*[#  12]+0.303*[#  16]+0.203*[#   6]+0.147*[#  20]+0.014*[#   2]
          +0.009*[#  11]+0.009*[#  15]+0.006*[#  19]+0.002*[#   1]
    |psi|^2 = 0.998
==== e(  12) =     2.56142 eV ==== 
     psi = 0.179*[#   9]+0.179*[#  10]+0.132*[#  13]+0.132*[#  14]+0.132*[#  17]
          +0.132*[#  18]+0.057*[#   7]+0.057*[#   8]
    |psi|^2 = 0.998
==== e(  13) =     2.56142 eV ==== 
     psi = 0.179*[#   9]+0.179*[#  10]+0.132*[#  13]+0.132*[#  14]+0.132*[#  17]
          +0.132*[#  18]+0.057*[#   7]+0.057*[#   8]
    |psi|^2 = 0.998
==== e(  14) =     4.89068 eV ==== 
     psi = 0.477*[#  12]+0.477*[#  16]+0.002*[#  11]+0.002*[#  15]
    |psi|^2 = 0.959
==== e(  15) =     5.90209 eV ==== 
     psi = 0.248*[#  13]+0.248*[#  14]+0.248*[#  17]+0.248*[#  18]
    |psi|^2 = 0.994
==== e(  16) =     5.90209 eV ==== 
     psi = 0.248*[#  13]+0.248*[#  14]+0.248*[#  17]+0.248*[#  18]
    |psi|^2 = 0.994
==== e(  17) =     6.34937 eV ==== 
     psi = 0.631*[#  20]+0.253*[#   6]+0.024*[#  19]+0.024*[#  11]+0.024*[#  15]
          +0.012*[#   2]+0.005*[#   1]+0.004*[#  12]+0.004*[#  16]
    |psi|^2 = 0.981
==== e(  18) =     6.49642 eV ==== 
     psi = 0.351*[#   7]+0.351*[#   8]+0.146*[#   9]+0.146*[#  10]
    |psi|^2 = 0.998
==== e(  19) =     6.49642 eV ==== 
     psi = 0.351*[#   7]+0.351*[#   8]+0.146*[#   9]+0.146*[#  10]
    |psi|^2 = 0.998
==== e(  20) =     7.95688 eV ==== 
     psi = 0.529*[#   6]+0.134*[#  12]+0.134*[#  16]+0.105*[#  20]+0.025*[#  11]
          +0.025*[#  15]+0.022*[#   2]+0.005*[#   1]+0.004*[#  19]
    |psi|^2 = 0.984
==== e(  21) =    10.05852 eV ==== 
     psi = 0.174*[#   9]+0.174*[#  10]+0.116*[#  13]+0.116*[#  14]+0.116*[#  17]
          +0.116*[#  18]+0.091*[#   7]+0.091*[#   8]
    |psi|^2 = 0.995
==== e(  22) =    10.05852 eV ==== 
     psi = 0.174*[#   9]+0.174*[#  10]+0.116*[#  13]+0.116*[#  14]+0.116*[#  17]
          +0.116*[#  18]+0.091*[#   7]+0.091*[#   8]
    |psi|^2 = 0.995
==== e(  23) =    13.17239 eV ==== 
     psi = 0.020*[#  12]+0.020*[#  16]
    |psi|^2 = 0.040
==== e(  24) =    15.23150 eV ==== 
     psi = 0.558*[#   2]+0.116*[#  11]+0.116*[#  15]+0.027*[#  12]+0.027*[#  16]
          +0.007*[#   6]
    |psi|^2 = 0.852
==== e(  25) =    18.05275 eV ==== 

    |psi|^2 = 0.002
==== e(  26) =    22.10721 eV ==== 
     psi = 0.087*[#   2]+0.022*[#  20]+0.018*[#  12]+0.018*[#  16]+0.010*[#  11]
          +0.010*[#  15]+0.002*[#   6]
    |psi|^2 = 0.167
==== e(  27) =    24.91932 eV ==== 

    |psi|^2 = 0.000

 k =   0.0227272727  0.0131215970  0.0000000000
==== e(   1) =   -87.54814 eV ==== 
     psi = 0.976*[#   1]+0.008*[#  20]+0.006*[#   2]+0.004*[#  12]+0.004*[#  16]
          
    |psi|^2 = 1.000
==== e(   2) =   -50.78448 eV ==== 
     psi = 0.499*[#   4]+0.499*[#   5]
    |psi|^2 = 1.000
==== e(   3) =   -50.78422 eV ==== 
     psi = 0.499*[#   4]+0.499*[#   5]
    |psi|^2 = 1.000
==== e(   4) =   -50.78192 eV ==== 
     psi = 0.998*[#   3]
    |psi|^2 = 1.000
==== e(   5) =   -46.04576 eV ==== 
     psi = 0.964*[#  19]+0.035*[#  20]
    |psi|^2 = 1.000
==== e(   6) =   -17.87364 eV ==== 
     psi = 0.500*[#  22]+0.500*[#  23]
    |psi|^2 = 1.000
==== e(   7) =   -17.87238 eV ==== 
     psi = 0.500*[#  22]+0.500*[#  23]
    |psi|^2 = 1.000
==== e(   8) =   -17.85222 eV ==== 
     psi = 0.999*[#  21]
    |psi|^2 = 1.000
==== e(   9) =   -11.92721 eV ==== 
     psi = 0.314*[#  11]+0.314*[#  15]+0.292*[#   2]+0.048*[#  20]+0.011*[#   1]
          +0.007*[#  12]+0.007*[#  16]+0.004*[#   6]
    |psi|^2 = 0.999
==== e(  10) =   -10.11763 eV ==== 
     psi = 0.494*[#  11]+0.494*[#  15]+0.002*[#   3]+0.002*[#  12]+0.002*[#  16]
          
    |psi|^2 = 0.995
==== e(  11) =     1.48196 eV ==== 
     psi = 0.303*[#  12]+0.303*[#  16]+0.203*[#   6]+0.147*[#  20]+0.014*[#   2]
          +0.009*[#  11]+0.009*[#  15]+0.006*[#  19]+0.002*[#   1]
    |psi|^2 = 0.998
==== e(  12) =     2.54956 eV ==== 
     psi = 0.178*[#   9]+0.178*[#  10]+0.131*[#  13]+0.131*[#  14]+0.131*[#  17]
          +0.131*[#  18]+0.056*[#   7]+0.056*[#   8]+0.003*[#  12]+0.003*[#  16]
          
    |psi|^2 = 0.998
==== e(  13) =     2.56497 eV ==== 
     psi = 0.178*[#   9]+0.178*[#  10]+0.132*[#  13]+0.132*[#  14]+0.132*[#  17]
          +0.132*[#  18]+0.057*[#   7]+0.057*[#   8]
    |psi|^2 = 0.998
==== e(  14) =     4.90696 eV ==== 
     psi = 0.474*[#  12]+0.474*[#  16]+0.002*[#  11]+0.002*[#  15]+0.001*[#   7]
          +0.001*[#   8]+0.001*[#  13]+0.001*[#  14]+0.001*[#  17]+0.001*[#  18]
          
    |psi|^2 = 0.959
==== e(  15) =     5.84159 eV ==== 
     psi = 0.235*[#  13]+0.235*[#  14]+0.235*[#  17]+0.235*[#  18]+0.016*[#   7]
          +0.016*[#   8]+0.008*[#  20]+0.005*[#   9]+0.005*[#  10]+0.002*[#  11]
          +0.002*[#  15]
    |psi|^2 = 0.994
==== e(  16) =     5.86848 eV ==== 
     psi = 0.237*[#  13]+0.237*[#  14]+0.237*[#  17]+0.237*[#  18]+0.017*[#   7]
          +0.017*[#   8]+0.005*[#   9]+0.005*[#  10]
    |psi|^2 = 0.994
==== e(  17) =     6.36283 eV ==== 
     psi = 0.621*[#  20]+0.257*[#   6]+0.024*[#  19]+0.023*[#  11]+0.023*[#  15]
          +0.013*[#   2]+0.005*[#   1]+0.003*[#  12]+0.003*[#  16]+0.002*[#   7]
          +0.002*[#   8]+0.001*[#  13]+0.001*[#  14]+0.001*[#  17]+0.001*[#  18]
          
    |psi|^2 = 0.981
==== e(  18) =     6.52455 eV ==== 
     psi = 0.333*[#   7]+0.333*[#   8]+0.141*[#   9]+0.141*[#  10]+0.011*[#  13]
          +0.011*[#  14]+0.011*[#  17]+0.011*[#  18]+0.002*[#   6]+0.001*[#  20]
          
    |psi|^2 = 0.998
==== e(  19) =     6.52723 eV ==== 
     psi = 0.333*[#   7]+0.333*[#   8]+0.142*[#   9]+0.142*[#  10]+0.012*[#  13]
          +0.012*[#  14]+0.012*[#  17]+0.012*[#  18]
    |psi|^2 = 0.998
==== e(  20) =     7.96452 eV ==== 
     psi = 0.525*[#   6]+0.134*[#  12]+0.134*[#  16]+0.107*[#  20]+0.025*[#  11]
          +0.025*[#  15]+0.021*[#   2]+0.005*[#   1]+0.004*[#  19]+0.001*[#  13]
          +0.001*[#  14]+0.001*[#  17]+0.001*[#  18]
    |psi|^2 = 0.984
==== e(  21) =    10.03887 eV ==== 
     psi = 0.174*[#   9]+0.174*[#  10]+0.116*[#  13]+0.116*[#  14]+0.116*[#  17]
          +0.116*[#  18]+0.091*[#   7]+0.091*[#   8]
    |psi|^2 = 0.994
==== e(  22) =    10.05462 eV ==== 
     psi = 0.173*[#   9]+0.173*[#  10]+0.116*[#  13]+0.116*[#  14]+0.116*[#  17]
          +0.116*[#  18]+0.092*[#   7]+0.092*[#   8]
    |psi|^2 = 0.995
==== e(  23) =    13.18405 eV ==== 
     psi = 0.019*[#  12]+0.019*[#  16]
    |psi|^2 = 0.042
==== e(  24) =    15.25378 eV ==== 
     psi = 0.558*[#   2]+0.115*[#  11]+0.115*[#  15]+0.027*[#  12]+0.027*[#  16]
          +0.007*[#   6]
    |psi|^2 = 0.851
==== e(  25) =    18.07602 eV ==== 

    |psi|^2 = 0.002
==== e(  26) =    22.10408 eV ==== 
     psi = 0.087*[#   2]+0.022*[#  20]+0.018*[#  12]+0.018*[#  16]+0.010*[#  11]
          +0.010*[#  15]+0.002*[#   6]
    |psi|^2 = 0.167
==== e(  27) =    24.68454 eV ==== 

    |psi|^2 = 0.000

 k =   0.0454545455  0.0262431941  0.0000000000
==== e(   1) =   -87.54807 eV ==== 
     psi = 0.976*[#   1]+0.008*[#  20]+0.006*[#   2]+0.004*[#  12]+0.004*[#  16]
          
    |psi|^2 = 1.000
==== e(   2) =   -50.78544 eV ==== 
     psi = 0.499*[#   4]+0.499*[#   5]
    |psi|^2 = 1.000
==== e(   3) =   -50.78446 eV ==== 
     psi = 0.499*[#   4]+0.499*[#   5]
    |psi|^2 = 1.000
==== e(   4) =   -50.78185 eV ==== 
     psi = 0.998*[#   3]
    |psi|^2 = 1.000
==== e(   5) =   -46.04526 eV ==== 
     psi = 0.965*[#  19]+0.034*[#  20]
    |psi|^2 = 1.000
==== e(   6) =   -17.87831 eV ==== 
     psi = 0.500*[#  22]+0.500*[#  23]
    |psi|^2 = 1.000
==== e(   7) =   -17.87341 eV ==== 
     psi = 0.500*[#  22]+0.500*[#  23]
    |psi|^2 = 1.000
==== e(   8) =   -17.85162 eV ==== 
     psi = 0.999*[#  21]
    |psi|^2 = 1.000
==== e(   9) =   -11.90981 eV ==== 
     psi = 0.315*[#  11]+0.315*[#  15]+0.290*[#   2]+0.048*[#  20]+0.010*[#   1]
          +0.007*[#  12]+0.007*[#  16]+0.004*[#   6]
    |psi|^2 = 0.999
==== e(  10) =   -10.11712 eV ==== 
     psi = 0.493*[#  11]+0.493*[#  15]+0.002*[#   3]+0.002*[#  12]+0.002*[#  16]
          
    |psi|^2 = 0.995
==== e(  11) =     1.50559 eV ==== 
     psi = 0.304*[#  12]+0.304*[#  16]+0.203*[#   6]+0.145*[#  20]+0.014*[#   2]
          +0.009*[#  11]+0.009*[#  15]+0.006*[#  19]+0.002*[#   1]
    |psi|^2 = 0.998
==== e(  12) =     2.51548 eV ==== 
     psi = 0.175*[#   9]+0.175*[#  10]+0.130*[#  13]+0.130*[#  14]+0.130*[#  17]
          +0.130*[#  18]+0.053*[#   7]+0.053*[#   8]+0.011*[#  12]+0.011*[#  16]
          
    |psi|^2 = 0.997
==== e(  13) =     2.57553 eV ==== 
     psi = 0.177*[#   9]+0.177*[#  10]+0.132*[#  13]+0.132*[#  14]+0.132*[#  17]
          +0.132*[#  18]+0.058*[#   7]+0.058*[#   8]
    |psi|^2 = 0.998
==== e(  14) =     4.95356 eV ==== 
     psi = 0.464*[#  12]+0.464*[#  16]+0.004*[#   7]+0.004*[#   8]+0.004*[#  13]
          +0.004*[#  14]+0.004*[#  17]+0.004*[#  18]+0.002*[#  11]+0.002*[#  15]
          +0.001*[#   9]+0.001*[#  10]
    |psi|^2 = 0.961
==== e(  15) =     5.69036 eV ==== 
     psi = 0.215*[#  13]+0.215*[#  14]+0.215*[#  17]+0.215*[#  18]+0.039*[#   7]
          +0.039*[#   8]+0.018*[#  20]+0.011*[#   9]+0.011*[#  10]+0.005*[#  11]
          +0.005*[#  15]+0.003*[#   2]+0.002*[#  12]+0.002*[#  16]
    |psi|^2 = 0.994
==== e(  16) =     5.78361 eV ==== 
     psi = 0.217*[#  13]+0.217*[#  14]+0.217*[#  17]+0.217*[#  18]+0.048*[#   7]
          +0.048*[#   8]+0.014*[#   9]+0.014*[#  10]
    |psi|^2 = 0.995
==== e(  17) =     6.39667 eV ==== 
     psi = 0.603*[#  20]+0.262*[#   6]+0.022*[#  19]+0.021*[#  11]+0.021*[#  15]
          +0.013*[#   2]+0.009*[#   7]+0.009*[#   8]+0.005*[#   1]+0.003*[#   9]
          +0.003*[#  10]+0.003*[#  12]+0.003*[#  16]+0.001*[#  13]+0.001*[#  14]
          +0.001*[#  17]+0.001*[#  18]
    |psi|^2 = 0.982
==== e(  18) =     6.58733 eV ==== 
     psi = 0.301*[#   7]+0.301*[#   8]+0.133*[#   9]+0.133*[#  10]+0.027*[#  13]
          +0.027*[#  14]+0.027*[#  17]+0.027*[#  18]+0.011*[#   6]+0.006*[#  20]
          +0.002*[#   2]+0.001*[#  12]+0.001*[#  16]
    |psi|^2 = 0.997
==== e(  19) =     6.60361 eV ==== 
     psi = 0.300*[#   7]+0.300*[#   8]+0.136*[#   9]+0.136*[#  10]+0.032*[#  13]
          +0.032*[#  14]+0.032*[#  17]+0.032*[#  18]
    |psi|^2 = 0.998
==== e(  20) =     7.98634 eV ==== 
     psi = 0.510*[#   6]+0.134*[#  12]+0.134*[#  16]+0.113*[#  20]+0.023*[#  11]
          +0.023*[#  15]+0.018*[#   2]+0.005*[#   1]+0.004*[#  19]+0.004*[#  13]
          +0.004*[#  14]+0.004*[#  17]+0.004*[#  18]
    |psi|^2 = 0.983
==== e(  21) =     9.98185 eV ==== 
     psi = 0.174*[#   9]+0.174*[#  10]+0.114*[#  13]+0.114*[#  14]+0.114*[#  17]
          +0.114*[#  18]+0.092*[#   7]+0.092*[#   8]
    |psi|^2 = 0.990
==== e(  22) =    10.04317 eV ==== 
     psi = 0.172*[#   9]+0.172*[#  10]+0.116*[#  13]+0.116*[#  14]+0.116*[#  17]
          +0.116*[#  18]+0.093*[#   7]+0.093*[#   8]
    |psi|^2 = 0.995
==== e(  23) =    13.21799 eV ==== 
     psi = 0.019*[#  12]+0.019*[#  16]+0.001*[#   9]+0.001*[#  10]
    |psi|^2 = 0.045
==== e(  24) =    15.31999 eV ==== 
     psi = 0.558*[#   2]+0.113*[#  11]+0.113*[#  15]+0.026*[#  12]+0.026*[#  16]
          +0.006*[#   6]+0.001*[#  13]+0.001*[#  14]+0.001*[#  17]+0.001*[#  18]
          
    |psi|^2 = 0.850
==== e(  25) =    18.14483 eV ==== 

    |psi|^2 = 0.003
==== e(  26) =    22.09371 eV ==== 
     psi = 0.089*[#   2]+0.022*[#  20]+0.018*[#  12]+0.018*[#  16]+0.010*[#  11]
          +0.010*[#  15]+0.002*[#   6]
    |psi|^2 = 0.168
==== e(  27) =    24.15013 eV ==== 

    |psi|^2 = 0.001

 k =   0.0681818182  0.0393647911  0.0000000000
==== e(   1) =   -87.54796 eV ==== 
     psi = 0.976*[#   1]+0.008*[#  20]+0.005*[#   2]+0.004*[#  12]+0.004*[#  16]
          
    |psi|^2 = 1.000
==== e(   2) =   -50.78693 eV ==== 
     psi = 0.499*[#   4]+0.499*[#   5]
    |psi|^2 = 1.000
==== e(   3) =   -50.78489 eV ==== 
     psi = 0.499*[#   4]+0.499*[#   5]
    |psi|^2 = 1.000
==== e(   4) =   -50.78168 eV ==== 
     psi = 0.998*[#   3]
    |psi|^2 = 1.000
==== e(   5) =   -46.04442 eV ==== 
     psi = 0.967*[#  19]+0.033*[#  20]
    |psi|^2 = 1.000
==== e(   6) =   -17.88578 eV ==== 
     psi = 0.500*[#  22]+0.500*[#  23]
    |psi|^2 = 1.000
==== e(   7) =   -17.87515 eV ==== 
     psi = 0.500*[#  22]+0.500*[#  23]
    |psi|^2 = 1.000
==== e(   8) =   -17.85048 eV ==== 
     psi = 0.999*[#  21]
    |psi|^2 = 1.000
==== e(   9) =   -11.88104 eV ==== 
     psi = 0.318*[#  11]+0.318*[#  15]+0.286*[#   2]+0.047*[#  20]+0.010*[#   1]
          +0.007*[#  12]+0.007*[#  16]+0.004*[#   6]
    |psi|^2 = 0.999
==== e(  10) =   -10.11630 eV ==== 
     psi = 0.492*[#  11]+0.492*[#  15]+0.002*[#   3]+0.002*[#  12]+0.002*[#  16]
          +0.001*[#   7]+0.001*[#   8]
    |psi|^2 = 0.995
==== e(  11) =     1.54463 eV ==== 
     psi = 0.306*[#  12]+0.306*[#  16]+0.202*[#   6]+0.142*[#  20]+0.014*[#   2]
          +0.010*[#  11]+0.010*[#  15]+0.006*[#  19]+0.002*[#   1]
    |psi|^2 = 0.998
==== e(  12) =     2.46326 eV ==== 
     psi = 0.171*[#   9]+0.171*[#  10]+0.128*[#  13]+0.128*[#  14]+0.128*[#  17]
          +0.128*[#  18]+0.048*[#   7]+0.048*[#   8]+0.022*[#  12]+0.022*[#  16]
          
    |psi|^2 = 0.996
==== e(  13) =     2.59292 eV ==== 
     psi = 0.174*[#   9]+0.174*[#  10]+0.133*[#  13]+0.133*[#  14]+0.133*[#  17]
          +0.133*[#  18]+0.059*[#   7]+0.059*[#   8]
    |psi|^2 = 0.998
==== e(  14) =     5.02299 eV ==== 
     psi = 0.446*[#  12]+0.446*[#  16]+0.011*[#   7]+0.011*[#   8]+0.010*[#  13]
          +0.010*[#  14]+0.010*[#  17]+0.010*[#  18]+0.002*[#  11]+0.002*[#  15]
          +0.001*[#   9]+0.001*[#  10]
    |psi|^2 = 0.963
==== e(  15) =     5.49019 eV ==== 
     psi = 0.200*[#  13]+0.200*[#  14]+0.200*[#  17]+0.200*[#  18]+0.050*[#   7]
          +0.050*[#   8]+0.023*[#  20]+0.014*[#   9]+0.014*[#  10]+0.008*[#  11]
          +0.008*[#  12]+0.008*[#  15]+0.008*[#  16]+0.006*[#   2]+0.002*[#   6]
          +0.001*[#   1]
    |psi|^2 = 0.993
==== e(  16) =     5.67224 eV ==== 
     psi = 0.201*[#  13]+0.201*[#  14]+0.201*[#  17]+0.201*[#  18]+0.073*[#   7]
          +0.073*[#   8]+0.021*[#   9]+0.021*[#  10]
    |psi|^2 = 0.995
==== e(  17) =     6.44732 eV ==== 
     psi = 0.587*[#  20]+0.267*[#   6]+0.020*[#  19]+0.020*[#  11]+0.020*[#  15]
          +0.016*[#   7]+0.016*[#   8]+0.013*[#   2]+0.006*[#   9]+0.006*[#  10]
          +0.004*[#   1]+0.002*[#  12]+0.002*[#  16]
    |psi|^2 = 0.982
==== e(  18) =     6.65423 eV ==== 
     psi = 0.277*[#   7]+0.277*[#   8]+0.128*[#   9]+0.128*[#  10]+0.034*[#  13]
          +0.034*[#  14]+0.034*[#  17]+0.034*[#  18]+0.029*[#   6]+0.010*[#  20]
          +0.005*[#   2]+0.002*[#  12]+0.002*[#  16]
    |psi|^2 = 0.997
==== e(  19) =     6.70055 eV ==== 
     psi = 0.270*[#   7]+0.270*[#   8]+0.134*[#   9]+0.134*[#  10]+0.047*[#  13]
          +0.047*[#  14]+0.047*[#  17]+0.047*[#  18]
    |psi|^2 = 0.998
==== e(  20) =     8.01947 eV ==== 
     psi = 0.488*[#   6]+0.134*[#  12]+0.134*[#  16]+0.124*[#  20]+0.022*[#  11]
          +0.022*[#  15]+0.015*[#   2]+0.008*[#  13]+0.008*[#  14]+0.008*[#  17]
          +0.008*[#  18]+0.005*[#   1]+0.004*[#  19]+0.001*[#   9]+0.001*[#  10]
          
    |psi|^2 = 0.982
==== e(  21) =     9.89267 eV ==== 
     psi = 0.174*[#   9]+0.174*[#  10]+0.111*[#  13]+0.111*[#  14]+0.111*[#  17]
          +0.111*[#  18]+0.094*[#   7]+0.094*[#   8]+0.002*[#  11]+0.002*[#  15]
          
    |psi|^2 = 0.984
==== e(  22) =    10.02487 eV ==== 
     psi = 0.170*[#   9]+0.170*[#  10]+0.116*[#  13]+0.116*[#  14]+0.116*[#  17]
          +0.116*[#  18]+0.096*[#   7]+0.096*[#   8]
    |psi|^2 = 0.995
==== e(  23) =    13.27153 eV ==== 
     psi = 0.019*[#  12]+0.019*[#  16]+0.002*[#   9]+0.002*[#  10]
    |psi|^2 = 0.048
==== e(  24) =    15.42823 eV ==== 
     psi = 0.558*[#   2]+0.110*[#  11]+0.110*[#  15]+0.025*[#  12]+0.025*[#  16]
          +0.006*[#   6]+0.003*[#  13]+0.003*[#  14]+0.003*[#  17]+0.003*[#  18]
          
    |psi|^2 = 0.849
==== e(  25) =    18.25677 eV ==== 

    |psi|^2 = 0.004
==== e(  26) =    22.07209 eV ==== 
     psi = 0.090*[#   2]+0.022*[#  20]+0.017*[#  12]+0.017*[#  16]+0.010*[#  11]
          +0.010*[#  15]+0.002*[#   6]
    |psi|^2 = 0.169
==== e(  27) =    23.51064 eV ==== 

    |psi|^2 = 0.002

 k =   0.0909090909  0.0524863881  0.0000000000
==== e(   1) =   -87.54778 eV ==== 
     psi = 0.977*[#   1]+0.008*[#  20]+0.005*[#   2]+0.004*[#  12]+0.004*[#  16]
          
    |psi|^2 = 1.000
==== e(   2) =   -50.78886 eV ==== 
     psi = 0.499*[#   4]+0.499*[#   5]
    |psi|^2 = 1.000
==== e(   3) =   -50.78541 eV ==== 
     psi = 0.499*[#   4]+0.499*[#   5]
    |psi|^2 = 1.000
==== e(   4) =   -50.78139 eV ==== 
     psi = 0.998*[#   3]
    |psi|^2 = 1.000
==== e(   5) =   -46.04322 eV ==== 
     psi = 0.969*[#  19]+0.030*[#  20]
    |psi|^2 = 1.000
==== e(   6) =   -17.89581 eV ==== 
     psi = 0.499*[#  22]+0.499*[#  23]+0.001*[#  20]
    |psi|^2 = 1.000
==== e(   7) =   -17.87742 eV ==== 
     psi = 0.500*[#  22]+0.500*[#  23]
    |psi|^2 = 1.000
==== e(   8) =   -17.84881 eV ==== 
     psi = 0.999*[#  21]
    |psi|^2 = 1.000
==== e(   9) =   -11.84125 eV ==== 
     psi = 0.321*[#  11]+0.321*[#  15]+0.280*[#   2]+0.046*[#  20]+0.010*[#   1]
          +0.007*[#  12]+0.007*[#  16]+0.004*[#   6]
    |psi|^2 = 0.999
==== e(  10) =   -10.11529 eV ==== 
     psi = 0.491*[#  11]+0.491*[#  15]+0.002*[#   7]+0.002*[#   8]+0.002*[#   3]
          +0.001*[#  12]+0.001*[#  16]+0.001*[#   9]+0.001*[#  10]
    |psi|^2 = 0.995
==== e(  11) =     1.59861 eV ==== 
     psi = 0.308*[#  12]+0.308*[#  16]+0.201*[#   6]+0.138*[#  20]+0.014*[#   2]
          +0.010*[#  11]+0.010*[#  15]+0.005*[#  19]+0.002*[#   1]
    |psi|^2 = 0.998
==== e(  12) =     2.39829 eV ==== 
     psi = 0.167*[#   9]+0.167*[#  10]+0.126*[#  13]+0.126*[#  14]+0.126*[#  17]
          +0.126*[#  18]+0.043*[#   7]+0.043*[#   8]+0.035*[#  12]+0.035*[#  16]
          
    |psi|^2 = 0.995
==== e(  13) =     2.61682 eV ==== 
     psi = 0.170*[#   9]+0.170*[#  10]+0.134*[#  13]+0.134*[#  14]+0.134*[#  17]
          +0.134*[#  18]+0.061*[#   7]+0.061*[#   8]
    |psi|^2 = 0.998
==== e(  14) =     5.08519 eV ==== 
     psi = 0.351*[#  12]+0.351*[#  16]+0.045*[#  13]+0.045*[#  14]+0.045*[#  17]
          +0.045*[#  18]+0.038*[#   7]+0.038*[#   8]+0.004*[#  20]+0.004*[#  11]
          +0.004*[#  15]+0.002*[#   2]
    |psi|^2 = 0.972
==== e(  15) =     5.28429 eV ==== 
     psi = 0.162*[#  13]+0.162*[#  14]+0.162*[#  17]+0.162*[#  18]+0.090*[#  12]
          +0.090*[#  16]+0.034*[#   7]+0.034*[#   8]+0.022*[#  20]+0.017*[#   9]
          +0.017*[#  10]+0.009*[#  11]+0.009*[#  15]+0.008*[#   2]+0.003*[#   6]
          +0.002*[#   1]
    |psi|^2 = 0.987
==== e(  16) =     5.54935 eV ==== 
     psi = 0.191*[#  13]+0.191*[#  14]+0.191*[#  17]+0.191*[#  18]+0.090*[#   7]
          +0.090*[#   8]+0.025*[#   9]+0.025*[#  10]
    |psi|^2 = 0.995
==== e(  17) =     6.51462 eV ==== 
     psi = 0.574*[#  20]+0.274*[#   6]+0.022*[#   7]+0.022*[#   8]+0.019*[#  11]
          +0.019*[#  15]+0.018*[#  19]+0.012*[#   2]+0.008*[#   9]+0.008*[#  10]
          +0.004*[#   1]+0.001*[#  12]+0.001*[#  16]
    |psi|^2 = 0.983
==== e(  18) =     6.71173 eV ==== 
     psi = 0.260*[#   7]+0.260*[#   8]+0.126*[#   9]+0.126*[#  10]+0.050*[#   6]
          +0.036*[#  13]+0.036*[#  14]+0.036*[#  17]+0.036*[#  18]+0.012*[#  20]
          +0.008*[#   2]+0.004*[#  12]+0.004*[#  16]
    |psi|^2 = 0.996
==== e(  19) =     6.80269 eV ==== 
     psi = 0.248*[#   7]+0.248*[#   8]+0.137*[#   9]+0.137*[#  10]+0.057*[#  13]
          +0.057*[#  14]+0.057*[#  17]+0.057*[#  18]
    |psi|^2 = 0.997
==== e(  20) =     8.05984 eV ==== 
     psi = 0.459*[#   6]+0.139*[#  20]+0.133*[#  12]+0.133*[#  16]+0.020*[#  11]
          +0.020*[#  15]+0.013*[#  13]+0.013*[#  14]+0.013*[#  17]+0.013*[#  18]
          +0.011*[#   2]+0.005*[#  19]+0.004*[#   1]+0.003*[#   9]+0.003*[#  10]
          
    |psi|^2 = 0.981
==== e(  21) =     9.77915 eV ==== 
     psi = 0.174*[#   9]+0.174*[#  10]+0.106*[#  13]+0.106*[#  14]+0.106*[#  17]
          +0.106*[#  18]+0.097*[#   7]+0.097*[#   8]+0.004*[#  11]+0.004*[#  15]
          
    |psi|^2 = 0.978
==== e(  22) =    10.00106 eV ==== 
     psi = 0.166*[#   9]+0.166*[#  10]+0.115*[#  13]+0.115*[#  14]+0.115*[#  17]
          +0.115*[#  18]+0.101*[#   7]+0.101*[#   8]
    |psi|^2 = 0.995
==== e(  23) =    13.34108 eV ==== 
     psi = 0.019*[#  12]+0.019*[#  16]+0.004*[#   9]+0.004*[#  10]+0.001*[#  13]
          +0.001*[#  14]+0.001*[#  17]+0.001*[#  18]
    |psi|^2 = 0.052
==== e(  24) =    15.57550 eV ==== 
     psi = 0.558*[#   2]+0.106*[#  11]+0.106*[#  15]+0.024*[#  12]+0.024*[#  16]
          +0.005*[#   6]+0.005*[#  13]+0.005*[#  14]+0.005*[#  17]+0.005*[#  18]
          
    |psi|^2 = 0.846
==== e(  25) =    18.40739 eV ==== 

    |psi|^2 = 0.005
==== e(  26) =    22.02269 eV ==== 
     psi = 0.089*[#   2]+0.021*[#  20]+0.016*[#  12]+0.016*[#  16]+0.009*[#  11]
          +0.009*[#  15]+0.001*[#   6]
    |psi|^2 = 0.166
==== e(  27) =    22.85856 eV ==== 
     psi = 0.004*[#   2]
    |psi|^2 = 0.008

 k =   0.1136363636  0.0656079851  0.0000000000
==== e(   1) =   -87.54755 eV ==== 
     psi = 0.978*[#   1]+0.008*[#  20]+0.004*[#   2]+0.004*[#  12]+0.004*[#  16]
          
    |psi|^2 = 1.000
==== e(   2) =   -50.79132 eV ==== 
     psi = 0.499*[#   4]+0.499*[#   5]
    |psi|^2 = 1.000
==== e(   3) =   -50.78597 eV ==== 
     psi = 0.499*[#   4]+0.499*[#   5]
    |psi|^2 = 1.000
==== e(   4) =   -50.78098 eV ==== 
     psi = 0.998*[#   3]
    |psi|^2 = 1.000
==== e(   5) =   -46.04171 eV ==== 
     psi = 0.972*[#  19]+0.027*[#  20]
    |psi|^2 = 1.000
==== e(   6) =   -17.90843 eV ==== 
     psi = 0.499*[#  22]+0.499*[#  23]+0.002*[#  20]
    |psi|^2 = 1.000
==== e(   7) =   -17.88008 eV ==== 
     psi = 0.500*[#  22]+0.500*[#  23]
    |psi|^2 = 1.000
==== e(   8) =   -17.84664 eV ==== 
     psi = 0.999*[#  21]
    |psi|^2 = 1.000
==== e(   9) =   -11.79093 eV ==== 
     psi = 0.325*[#  11]+0.325*[#  15]+0.273*[#   2]+0.045*[#  20]+0.009*[#   1]
          +0.007*[#  12]+0.007*[#  16]+0.004*[#   6]
    |psi|^2 = 0.999
==== e(  10) =   -10.11419 eV ==== 
     psi = 0.489*[#  11]+0.489*[#  15]+0.004*[#   7]+0.004*[#   8]+0.002*[#   9]
          +0.002*[#  10]+0.002*[#   3]+0.001*[#  12]+0.001*[#  16]
    |psi|^2 = 0.995
==== e(  11) =     1.66670 eV ==== 
     psi = 0.311*[#  12]+0.311*[#  16]+0.199*[#   6]+0.132*[#  20]+0.015*[#   2]
          +0.010*[#  11]+0.010*[#  15]+0.005*[#  19]+0.002*[#   1]
    |psi|^2 = 0.998
==== e(  12) =     2.32600 eV ==== 
     psi = 0.162*[#   9]+0.162*[#  10]+0.125*[#  13]+0.125*[#  14]+0.125*[#  17]
          +0.125*[#  18]+0.048*[#  12]+0.048*[#  16]+0.037*[#   7]+0.037*[#   8]
          
    |psi|^2 = 0.994
==== e(  13) =     2.64675 eV ==== 
     psi = 0.166*[#   9]+0.166*[#  10]+0.135*[#  13]+0.135*[#  14]+0.135*[#  17]
          +0.135*[#  18]+0.064*[#   7]+0.064*[#   8]
    |psi|^2 = 0.998
==== e(  14) =     4.94893 eV ==== 
     psi = 0.164*[#  13]+0.164*[#  14]+0.164*[#  17]+0.164*[#  18]+0.080*[#   7]
          +0.080*[#   8]+0.045*[#  12]+0.045*[#  16]+0.024*[#  20]+0.013*[#   2]
          +0.012*[#  11]+0.012*[#  15]+0.006*[#   9]+0.006*[#  10]+0.006*[#   6]
          +0.002*[#   1]
    |psi|^2 = 0.992
==== e(  15) =     5.26697 eV ==== 
     psi = 0.381*[#  12]+0.381*[#  16]+0.043*[#  13]+0.043*[#  14]+0.043*[#  17]
          +0.043*[#  18]+0.009*[#   9]+0.009*[#  10]+0.004*[#  20]+0.003*[#  11]
          +0.003*[#  15]+0.002*[#   2]+0.001*[#   6]
    |psi|^2 = 0.969
==== e(  16) =     5.42271 eV ==== 
     psi = 0.185*[#  13]+0.185*[#  14]+0.185*[#  17]+0.185*[#  18]+0.100*[#   7]
          +0.100*[#   8]+0.028*[#   9]+0.028*[#  10]
    |psi|^2 = 0.995
==== e(  17) =     6.59780 eV ==== 
     psi = 0.557*[#  20]+0.282*[#   6]+0.028*[#   7]+0.028*[#   8]+0.018*[#  11]
          +0.018*[#  15]+0.016*[#  19]+0.011*[#   2]+0.010*[#   9]+0.010*[#  10]
          +0.004*[#   1]
    |psi|^2 = 0.984
==== e(  18) =     6.75708 eV ==== 
     psi = 0.247*[#   7]+0.247*[#   8]+0.124*[#   9]+0.124*[#  10]+0.075*[#   6]
          +0.034*[#  13]+0.034*[#  14]+0.034*[#  17]+0.034*[#  18]+0.014*[#  20]
          +0.012*[#   2]+0.007*[#  12]+0.007*[#  16]+0.001*[#  11]+0.001*[#  15]
          
    |psi|^2 = 0.995
==== e(  19) =     6.90190 eV ==== 
     psi = 0.229*[#   7]+0.229*[#   8]+0.143*[#   9]+0.143*[#  10]+0.063*[#  13]
          +0.063*[#  14]+0.063*[#  17]+0.063*[#  18]
    |psi|^2 = 0.997
==== e(  20) =     8.10321 eV ==== 
     psi = 0.425*[#   6]+0.159*[#  20]+0.130*[#  12]+0.130*[#  16]+0.018*[#  11]
          +0.018*[#  15]+0.017*[#  13]+0.017*[#  14]+0.017*[#  17]+0.017*[#  18]
          +0.008*[#   2]+0.007*[#   9]+0.007*[#  10]+0.005*[#  19]+0.004*[#   1]
          
    |psi|^2 = 0.980
==== e(  21) =     9.65061 eV ==== 
     psi = 0.174*[#   9]+0.174*[#  10]+0.101*[#   7]+0.101*[#   8]+0.101*[#  13]
          +0.101*[#  14]+0.101*[#  17]+0.101*[#  18]+0.005*[#  11]+0.005*[#  15]
          +0.002*[#  12]+0.002*[#  16]+0.001*[#   6]+0.001*[#  20]
    |psi|^2 = 0.972
==== e(  22) =     9.97333 eV ==== 
     psi = 0.162*[#   9]+0.162*[#  10]+0.115*[#  13]+0.115*[#  14]+0.115*[#  17]
          +0.115*[#  18]+0.106*[#   7]+0.106*[#   8]
    |psi|^2 = 0.994
==== e(  23) =    13.42296 eV ==== 
     psi = 0.018*[#  12]+0.018*[#  16]+0.005*[#   9]+0.005*[#  10]+0.002*[#  13]
          +0.002*[#  14]+0.002*[#  17]+0.002*[#  18]
    |psi|^2 = 0.055
==== e(  24) =    15.75771 eV ==== 
     psi = 0.558*[#   2]+0.101*[#  11]+0.101*[#  15]+0.022*[#  12]+0.022*[#  16]
          +0.008*[#  13]+0.008*[#  14]+0.008*[#  17]+0.008*[#  18]+0.005*[#   6]
          
    |psi|^2 = 0.842
==== e(  25) =    18.59049 eV ==== 
     psi = 0.001*[#  13]+0.001*[#  14]+0.001*[#  17]+0.001*[#  18]
    |psi|^2 = 0.007
==== e(  26) =    21.83952 eV ==== 
     psi = 0.061*[#   2]+0.014*[#  20]+0.010*[#  12]+0.010*[#  16]+0.006*[#  11]
          +0.006*[#  15]
    |psi|^2 = 0.110
==== e(  27) =    22.32830 eV ==== 
     psi = 0.036*[#   2]+0.009*[#  20]+0.007*[#  12]+0.007*[#  16]+0.004*[#  11]
          +0.004*[#  15]
    |psi|^2 = 0.067

 k =   0.1363636364  0.0787295822  0.0000000000
==== e(   1) =   -87.54729 eV ==== 
     psi = 0.978*[#   1]+0.008*[#  20]+0.004*[#  12]+0.004*[#  16]+0.003*[#   2]
          
    |psi|^2 = 1.000
==== e(   2) =   -50.79421 eV ==== 
     psi = 0.498*[#   4]+0.498*[#   5]
    |psi|^2 = 1.000
==== e(   3) =   -50.78663 eV ==== 
     psi = 0.499*[#   4]+0.499*[#   5]
    |psi|^2 = 1.000
==== e(   4) =   -50.78058 eV ==== 
     psi = 0.997*[#   3]
    |psi|^2 = 1.000
==== e(   5) =   -46.03994 eV ==== 
     psi = 0.976*[#  19]+0.024*[#  20]
    |psi|^2 = 1.000
==== e(   6) =   -17.92324 eV ==== 
     psi = 0.499*[#  22]+0.499*[#  23]+0.002*[#  20]
    |psi|^2 = 1.000
==== e(   7) =   -17.88322 eV ==== 
     psi = 0.500*[#  22]+0.500*[#  23]
    |psi|^2 = 1.000
==== e(   8) =   -17.84425 eV ==== 
     psi = 0.999*[#  21]
    |psi|^2 = 1.000
==== e(   9) =   -11.73071 eV ==== 
     psi = 0.331*[#  11]+0.331*[#  15]+0.264*[#   2]+0.043*[#  20]+0.008*[#   1]
          +0.007*[#  12]+0.007*[#  16]+0.004*[#   6]
    |psi|^2 = 0.999
==== e(  10) =   -10.11319 eV ==== 
     psi = 0.488*[#  11]+0.488*[#  15]+0.005*[#   7]+0.005*[#   8]+0.003*[#   9]
          +0.003*[#  10]+0.002*[#   3]+0.001*[#  12]+0.001*[#  16]
    |psi|^2 = 0.996
==== e(  11) =     1.74763 eV ==== 
     psi = 0.315*[#  12]+0.315*[#  16]+0.197*[#   6]+0.125*[#  20]+0.015*[#   2]
          +0.010*[#  11]+0.010*[#  15]+0.004*[#  19]+0.002*[#   1]
    |psi|^2 = 0.998
==== e(  12) =     2.25130 eV ==== 
     psi = 0.157*[#   9]+0.157*[#  10]+0.124*[#  13]+0.124*[#  14]+0.124*[#  17]
          +0.124*[#  18]+0.060*[#  12]+0.060*[#  16]+0.031*[#   7]+0.031*[#   8]
          
    |psi|^2 = 0.993
==== e(  13) =     2.68209 eV ==== 
     psi = 0.160*[#   9]+0.160*[#  10]+0.136*[#  13]+0.136*[#  14]+0.136*[#  17]
          +0.136*[#  18]+0.067*[#   7]+0.067*[#   8]
    |psi|^2 = 0.998
==== e(  14) =     4.68926 eV ==== 
     psi = 0.176*[#  13]+0.176*[#  14]+0.176*[#  17]+0.176*[#  18]+0.082*[#   7]
          +0.082*[#   8]+0.028*[#  20]+0.019*[#   2]+0.015*[#  11]+0.015*[#  15]
          +0.011*[#  12]+0.011*[#  16]+0.009*[#   6]+0.007*[#   9]+0.007*[#  10]
          +0.003*[#   1]
    |psi|^2 = 0.994
==== e(  15) =     5.29662 eV ==== 
     psi = 0.181*[#  13]+0.181*[#  14]+0.181*[#  17]+0.181*[#  18]+0.106*[#   7]
          +0.106*[#   8]+0.030*[#   9]+0.030*[#  10]
    |psi|^2 = 0.995
==== e(  16) =     5.36255 eV ==== 
     psi = 0.401*[#  12]+0.401*[#  16]+0.035*[#  13]+0.035*[#  14]+0.035*[#  17]
          +0.035*[#  18]+0.006*[#   9]+0.006*[#  10]+0.004*[#   7]+0.004*[#   8]
          +0.002*[#  11]+0.002*[#  15]+0.001*[#   6]+0.001*[#   2]+0.001*[#  20]
          
    |psi|^2 = 0.970
==== e(  17) =     6.69501 eV ==== 
     psi = 0.533*[#  20]+0.286*[#   6]+0.037*[#   7]+0.037*[#   8]+0.017*[#  11]
          +0.017*[#  15]+0.013*[#   9]+0.013*[#  10]+0.013*[#  19]+0.008*[#   2]
          +0.004*[#   1]
    |psi|^2 = 0.985
==== e(  18) =     6.79153 eV ==== 
     psi = 0.232*[#   7]+0.232*[#   8]+0.121*[#   9]+0.121*[#  10]+0.108*[#   6]
          +0.030*[#  13]+0.030*[#  14]+0.030*[#  17]+0.030*[#  18]+0.020*[#  20]
          +0.015*[#   2]+0.011*[#  12]+0.011*[#  16]+0.001*[#  11]+0.001*[#  15]
          
    |psi|^2 = 0.994
==== e(  19) =     6.99325 eV ==== 
     psi = 0.213*[#   7]+0.213*[#   8]+0.153*[#   9]+0.153*[#  10]+0.066*[#  13]
          +0.066*[#  14]+0.066*[#  17]+0.066*[#  18]
    |psi|^2 = 0.997
==== e(  20) =     8.14574 eV ==== 
     psi = 0.385*[#   6]+0.186*[#  20]+0.126*[#  12]+0.126*[#  16]+0.020*[#  13]
          +0.020*[#  14]+0.020*[#  17]+0.020*[#  18]+0.017*[#  11]+0.017*[#  15]
          +0.013*[#   9]+0.013*[#  10]+0.005*[#   2]+0.005*[#  19]+0.004*[#   1]
          
    |psi|^2 = 0.979
==== e(  21) =     9.51786 eV ==== 
     psi = 0.173*[#   9]+0.173*[#  10]+0.106*[#   7]+0.106*[#   8]+0.095*[#  13]
          +0.095*[#  14]+0.095*[#  17]+0.095*[#  18]+0.007*[#  11]+0.007*[#  15]
          +0.005*[#  12]+0.005*[#  16]+0.003*[#  20]+0.003*[#   6]
    |psi|^2 = 0.967
==== e(  22) =     9.94356 eV ==== 
     psi = 0.156*[#   9]+0.156*[#  10]+0.114*[#  13]+0.114*[#  14]+0.114*[#  17]
          +0.114*[#  18]+0.113*[#   7]+0.113*[#   8]
    |psi|^2 = 0.994
==== e(  23) =    13.51380 eV ==== 
     psi = 0.018*[#  12]+0.018*[#  16]+0.006*[#   9]+0.006*[#  10]+0.002*[#  13]
          +0.002*[#  14]+0.002*[#  17]+0.002*[#  18]
    |psi|^2 = 0.057
==== e(  24) =    15.97003 eV ==== 
     psi = 0.558*[#   2]+0.095*[#  11]+0.095*[#  15]+0.020*[#  12]+0.020*[#  16]
          +0.010*[#  13]+0.010*[#  14]+0.010*[#  17]+0.010*[#  18]+0.004*[#   6]
          
    |psi|^2 = 0.837
==== e(  25) =    18.79672 eV ==== 
     psi = 0.001*[#  13]+0.001*[#  14]+0.001*[#  17]+0.001*[#  18]
    |psi|^2 = 0.008
==== e(  26) =    21.32017 eV ==== 
     psi = 0.020*[#   2]+0.004*[#  20]+0.003*[#  12]+0.003*[#  16]+0.002*[#  11]
          +0.002*[#  15]
    |psi|^2 = 0.035
==== e(  27) =    22.13574 eV ==== 
     psi = 0.080*[#   2]+0.018*[#  20]+0.013*[#  12]+0.013*[#  16]+0.008*[#  11]
          +0.008*[#  15]
    |psi|^2 = 0.145

 k =   0.1590909091  0.0918511792  0.0000000000
==== e(   1) =   -87.54699 eV ==== 
     psi = 0.979*[#   1]+0.008*[#  20]+0.004*[#  12]+0.004*[#  16]+0.002*[#   2]
          
    |psi|^2 = 1.000
==== e(   2) =   -50.79746 eV ==== 
     psi = 0.498*[#   4]+0.498*[#   5]
    |psi|^2 = 1.000
==== e(   3) =   -50.78741 eV ==== 
     psi = 0.499*[#   4]+0.499*[#   5]
    |psi|^2 = 1.000
==== e(   4) =   -50.78013 eV ==== 
     psi = 0.997*[#   3]
    |psi|^2 = 1.000
==== e(   5) =   -46.03793 eV ==== 
     psi = 0.979*[#  19]+0.020*[#  20]
    |psi|^2 = 1.000
==== e(   6) =   -17.93991 eV ==== 
     psi = 0.498*[#  22]+0.498*[#  23]+0.003*[#  20]
    |psi|^2 = 1.000
==== e(   7) =   -17.88683 eV ==== 
     psi = 0.500*[#  22]+0.500*[#  23]
    |psi|^2 = 1.000
==== e(   8) =   -17.84155 eV ==== 
     psi = 0.999*[#  21]
    |psi|^2 = 1.000
==== e(   9) =   -11.66137 eV ==== 
     psi = 0.337*[#  11]+0.337*[#  15]+0.254*[#   2]+0.042*[#  20]+0.008*[#   1]
          +0.007*[#  12]+0.007*[#  16]+0.004*[#   6]
    |psi|^2 = 0.999
==== e(  10) =   -10.11246 eV ==== 
     psi = 0.485*[#  11]+0.485*[#  15]+0.006*[#   7]+0.006*[#   8]+0.004*[#   9]
          +0.004*[#  10]+0.002*[#   3]
    |psi|^2 = 0.996
==== e(  11) =     1.83941 eV ==== 
     psi = 0.317*[#  12]+0.317*[#  16]+0.193*[#   6]+0.117*[#  20]+0.016*[#   2]
          +0.011*[#  11]+0.011*[#  15]+0.003*[#  19]+0.002*[#   9]+0.002*[#  10]
          +0.002*[#   1]+0.001*[#  13]+0.001*[#  14]+0.001*[#  17]+0.001*[#  18]
          
    |psi|^2 = 0.998
==== e(  12) =     2.17856 eV ==== 
     psi = 0.151*[#   9]+0.151*[#  10]+0.123*[#  13]+0.123*[#  14]+0.123*[#  17]
          +0.123*[#  18]+0.072*[#  12]+0.072*[#  16]+0.025*[#   7]+0.025*[#   8]
          +0.001*[#   6]
    |psi|^2 = 0.992
==== e(  13) =     2.72205 eV ==== 
     psi = 0.153*[#   9]+0.153*[#  10]+0.137*[#  13]+0.137*[#  14]+0.137*[#  17]
          +0.137*[#  18]+0.071*[#   7]+0.071*[#   8]
    |psi|^2 = 0.998
==== e(  14) =     4.41309 eV ==== 
     psi = 0.176*[#  13]+0.176*[#  14]+0.176*[#  17]+0.176*[#  18]+0.082*[#   7]
          +0.082*[#   8]+0.030*[#  20]+0.024*[#   2]+0.017*[#  11]+0.017*[#  15]
          +0.013*[#   6]+0.006*[#   9]+0.006*[#  10]+0.004*[#  12]+0.004*[#  16]
          +0.003*[#   1]
    |psi|^2 = 0.994
==== e(  15) =     5.17390 eV ==== 
     psi = 0.179*[#  13]+0.179*[#  14]+0.179*[#  17]+0.179*[#  18]+0.108*[#   7]
          +0.108*[#   8]+0.031*[#   9]+0.031*[#  10]
    |psi|^2 = 0.995
==== e(  16) =     5.46223 eV ==== 
     psi = 0.394*[#  12]+0.394*[#  16]+0.040*[#  13]+0.040*[#  14]+0.040*[#  17]
          +0.040*[#  18]+0.006*[#   7]+0.006*[#   8]+0.004*[#   9]+0.004*[#  10]
          +0.002*[#   6]+0.002*[#  11]+0.002*[#  15]
    |psi|^2 = 0.973
==== e(  17) =     6.80105 eV ==== 
     psi = 0.379*[#  20]+0.149*[#   6]+0.130*[#   7]+0.130*[#   8]+0.057*[#   9]
          +0.057*[#  10]+0.018*[#  11]+0.018*[#  15]+0.008*[#  19]+0.007*[#  13]
          +0.007*[#  14]+0.007*[#  17]+0.007*[#  18]+0.004*[#   1]+0.004*[#  12]
          +0.004*[#  16]
    |psi|^2 = 0.987
==== e(  18) =     6.81987 eV ==== 
     psi = 0.288*[#   6]+0.147*[#  20]+0.135*[#   7]+0.135*[#   8]+0.077*[#   9]
          +0.077*[#  10]+0.024*[#   2]+0.020*[#  13]+0.020*[#  14]+0.020*[#  17]
          +0.020*[#  18]+0.013*[#  12]+0.013*[#  16]+0.003*[#  19]
    |psi|^2 = 0.992
==== e(  19) =     7.07345 eV ==== 
     psi = 0.199*[#   7]+0.199*[#   8]+0.166*[#   9]+0.166*[#  10]+0.067*[#  13]
          +0.067*[#  14]+0.067*[#  17]+0.067*[#  18]
    |psi|^2 = 0.997
==== e(  20) =     8.18433 eV ==== 
     psi = 0.339*[#   6]+0.219*[#  20]+0.119*[#  12]+0.119*[#  16]+0.023*[#  13]
          +0.023*[#  14]+0.023*[#  17]+0.023*[#  18]+0.022*[#   9]+0.022*[#  10]
          +0.016*[#  11]+0.016*[#  15]+0.004*[#  19]+0.004*[#   1]+0.003*[#   2]
          
    |psi|^2 = 0.977
==== e(  21) =     9.39307 eV ==== 
     psi = 0.170*[#   9]+0.170*[#  10]+0.112*[#   7]+0.112*[#   8]+0.087*[#  13]
          +0.087*[#  14]+0.087*[#  17]+0.087*[#  18]+0.010*[#  12]+0.010*[#  16]
          +0.009*[#  11]+0.009*[#  15]+0.008*[#  20]+0.006*[#   6]
    |psi|^2 = 0.963
==== e(  22) =     9.91378 eV ==== 
     psi = 0.149*[#   9]+0.149*[#  10]+0.121*[#   7]+0.121*[#   8]+0.113*[#  13]
          +0.113*[#  14]+0.113*[#  17]+0.113*[#  18]
    |psi|^2 = 0.994
==== e(  23) =    13.61158 eV ==== 
     psi = 0.017*[#  12]+0.017*[#  16]+0.006*[#   9]+0.006*[#  10]+0.002*[#  13]
          +0.002*[#  14]+0.002*[#  17]+0.002*[#  18]
    |psi|^2 = 0.057
==== e(  24) =    16.20691 eV ==== 
     psi = 0.558*[#   2]+0.089*[#  11]+0.089*[#  15]+0.018*[#  12]+0.018*[#  16]
          +0.013*[#  13]+0.013*[#  14]+0.013*[#  17]+0.013*[#  18]+0.004*[#   6]
          
    |psi|^2 = 0.829
==== e(  25) =    19.01006 eV ==== 
     psi = 0.002*[#  13]+0.002*[#  14]+0.002*[#  17]+0.002*[#  18]
    |psi|^2 = 0.009
==== e(  26) =    20.69677 eV ==== 
     psi = 0.012*[#   2]+0.002*[#  20]+0.002*[#  12]+0.002*[#  16]+0.001*[#  11]
          +0.001*[#  15]
    |psi|^2 = 0.021
==== e(  27) =    22.06129 eV ==== 
     psi = 0.093*[#   2]+0.020*[#  20]+0.014*[#  12]+0.014*[#  16]+0.009*[#  11]
          +0.009*[#  15]+0.001*[#  13]+0.001*[#  14]+0.001*[#  17]+0.001*[#  18]
          
    |psi|^2 = 0.163

 k =   0.1818181818  0.1049727762  0.0000000000
==== e(   1) =   -87.54668 eV ==== 
     psi = 0.980*[#   1]+0.007*[#  20]+0.003*[#  12]+0.003*[#  16]+0.002*[#   2]
          
    |psi|^2 = 1.000
==== e(   2) =   -50.80118 eV ==== 
     psi = 0.498*[#   4]+0.498*[#   5]+0.001*[#   2]
    |psi|^2 = 1.000
==== e(   3) =   -50.78828 eV ==== 
     psi = 0.499*[#   4]+0.499*[#   5]
    |psi|^2 = 1.000
==== e(   4) =   -50.77958 eV ==== 
     psi = 0.997*[#   3]
    |psi|^2 = 1.000
==== e(   5) =   -46.03576 eV ==== 
     psi = 0.983*[#  19]+0.016*[#  20]
    |psi|^2 = 1.000
==== e(   6) =   -17.95849 eV ==== 
     psi = 0.498*[#  22]+0.498*[#  23]+0.004*[#  20]
    |psi|^2 = 1.000
==== e(   7) =   -17.89082 eV ==== 
     psi = 0.500*[#  22]+0.500*[#  23]
    |psi|^2 = 1.000
==== e(   8) =   -17.83845 eV ==== 
     psi = 0.999*[#  21]
    |psi|^2 = 1.000
==== e(   9) =   -11.58382 eV ==== 
     psi = 0.344*[#  11]+0.344*[#  15]+0.242*[#   2]+0.039*[#  20]+0.007*[#  12]
          +0.007*[#  16]+0.007*[#   1]+0.003*[#   6]
    |psi|^2 = 0.999
==== e(  10) =   -10.11222 eV ==== 
     psi = 0.483*[#  11]+0.483*[#  15]+0.008*[#   7]+0.008*[#   8]+0.005*[#   9]
          +0.005*[#  10]+0.001*[#   3]
    |psi|^2 = 0.996
==== e(  11) =     1.93696 eV ==== 
     psi = 0.313*[#  12]+0.313*[#  16]+0.181*[#   6]+0.104*[#  20]+0.016*[#   2]
          +0.012*[#  11]+0.012*[#  15]+0.010*[#   9]+0.010*[#  10]+0.005*[#  13]
          +0.005*[#  14]+0.005*[#  17]+0.005*[#  18]+0.002*[#  19]+0.002*[#   1]
          
    |psi|^2 = 0.998
==== e(  12) =     2.11339 eV ==== 
     psi = 0.138*[#   9]+0.138*[#  10]+0.120*[#  13]+0.120*[#  14]+0.120*[#  17]
          +0.120*[#  18]+0.090*[#  12]+0.090*[#  16]+0.020*[#   7]+0.020*[#   8]
          +0.008*[#   6]+0.004*[#  20]
    |psi|^2 = 0.991
==== e(  13) =     2.76569 eV ==== 
     psi = 0.145*[#   9]+0.145*[#  10]+0.139*[#  13]+0.139*[#  14]+0.139*[#  17]
          +0.139*[#  18]+0.076*[#   7]+0.076*[#   8]
    |psi|^2 = 0.998
==== e(  14) =     4.13485 eV ==== 
     psi = 0.174*[#  13]+0.174*[#  14]+0.174*[#  17]+0.174*[#  18]+0.083*[#   7]
          +0.083*[#   8]+0.032*[#  20]+0.029*[#   2]+0.018*[#  11]+0.018*[#  15]
          +0.017*[#   6]+0.004*[#   9]+0.004*[#  10]+0.004*[#   1]+0.002*[#  12]
          +0.002*[#  16]
    |psi|^2 = 0.994
==== e(  15) =     5.05671 eV ==== 
     psi = 0.179*[#  13]+0.179*[#  14]+0.179*[#  17]+0.179*[#  18]+0.108*[#   7]
          +0.108*[#   8]+0.031*[#   9]+0.031*[#  10]
    |psi|^2 = 0.994
==== e(  16) =     5.54920 eV ==== 
     psi = 0.382*[#  12]+0.382*[#  16]+0.047*[#  13]+0.047*[#  14]+0.047*[#  17]
          +0.047*[#  18]+0.007*[#   7]+0.007*[#   8]+0.002*[#   6]+0.001*[#   9]
          +0.001*[#  10]+0.001*[#  11]+0.001*[#  15]+0.001*[#   2]
    |psi|^2 = 0.977
==== e(  17) =     6.83470 eV ==== 
     psi = 0.242*[#   7]+0.242*[#   8]+0.127*[#   9]+0.127*[#  10]+0.089*[#   6]
          +0.024*[#  13]+0.024*[#  14]+0.024*[#  17]+0.024*[#  18]+0.021*[#  12]
          +0.021*[#  16]+0.016*[#   2]+0.005*[#  11]+0.005*[#  15]
    |psi|^2 = 0.993
==== e(  18) =     6.92138 eV ==== 
     psi = 0.487*[#  20]+0.396*[#   6]+0.020*[#   7]+0.020*[#   8]+0.013*[#  11]
          +0.013*[#  15]+0.009*[#   2]+0.008*[#  19]+0.006*[#   9]+0.006*[#  10]
          +0.003*[#   1]+0.002*[#  12]+0.002*[#  16]
    |psi|^2 = 0.987
==== e(  19) =     7.14009 eV ==== 
     psi = 0.185*[#   7]+0.185*[#   8]+0.182*[#   9]+0.182*[#  10]+0.066*[#  13]
          +0.066*[#  14]+0.066*[#  17]+0.066*[#  18]
    |psi|^2 = 0.997
==== e(  20) =     8.21698 eV ==== 
     psi = 0.285*[#   6]+0.260*[#  20]+0.108*[#  12]+0.108*[#  16]+0.037*[#   9]
          +0.037*[#  10]+0.024*[#  13]+0.024*[#  14]+0.024*[#  17]+0.024*[#  18]
          +0.016*[#  11]+0.016*[#  15]+0.004*[#  19]+0.003*[#   1]+0.001*[#   2]
          
    |psi|^2 = 0.975
==== e(  21) =     9.28928 eV ==== 
     psi = 0.163*[#   9]+0.163*[#  10]+0.117*[#   7]+0.117*[#   8]+0.077*[#  13]
          +0.077*[#  14]+0.077*[#  17]+0.077*[#  18]+0.019*[#  20]+0.019*[#  12]
          +0.019*[#  16]+0.012*[#   6]+0.011*[#  11]+0.011*[#  15]
    |psi|^2 = 0.960
==== e(  22) =     9.88608 eV ==== 
     psi = 0.141*[#   9]+0.141*[#  10]+0.130*[#   7]+0.130*[#   8]+0.113*[#  13]
          +0.113*[#  14]+0.113*[#  17]+0.113*[#  18]
    |psi|^2 = 0.994
==== e(  23) =    13.71525 eV ==== 
     psi = 0.016*[#  12]+0.016*[#  16]+0.007*[#   9]+0.007*[#  10]+0.002*[#  13]
          +0.002*[#  14]+0.002*[#  17]+0.002*[#  18]
    |psi|^2 = 0.056
==== e(  24) =    16.46224 eV ==== 
     psi = 0.557*[#   2]+0.082*[#  11]+0.082*[#  15]+0.016*[#  12]+0.016*[#  16]
          +0.015*[#  13]+0.015*[#  14]+0.015*[#  17]+0.015*[#  18]+0.003*[#   6]
          
    |psi|^2 = 0.820
==== e(  25) =    19.18088 eV ==== 
     psi = 0.002*[#  13]+0.002*[#  14]+0.002*[#  17]+0.002*[#  18]+0.002*[#   2]
          
    |psi|^2 = 0.011
==== e(  26) =    20.11963 eV ==== 
     psi = 0.010*[#   2]+0.002*[#  20]+0.001*[#  12]+0.001*[#  16]+0.001*[#  11]
          +0.001*[#  15]
    |psi|^2 = 0.017
==== e(  27) =    21.99458 eV ==== 
     psi = 0.098*[#   2]+0.020*[#  20]+0.014*[#  12]+0.014*[#  16]+0.009*[#  11]
          +0.009*[#  15]+0.001*[#  13]+0.001*[#  14]+0.001*[#  17]+0.001*[#  18]
          
    |psi|^2 = 0.170

 k =   0.2045454545  0.1180943732  0.0000000000
==== e(   1) =   -87.54634 eV ==== 
     psi = 0.980*[#   1]+0.007*[#  20]+0.003*[#  12]+0.003*[#  16]+0.001*[#  13]
          +0.001*[#  14]+0.001*[#  17]+0.001*[#  18]
    |psi|^2 = 1.000
==== e(   2) =   -50.80508 eV ==== 
     psi = 0.498*[#   4]+0.498*[#   5]+0.001*[#   2]
    |psi|^2 = 1.000
==== e(   3) =   -50.78916 eV ==== 
     psi = 0.499*[#   4]+0.499*[#   5]
    |psi|^2 = 1.000
==== e(   4) =   -50.77904 eV ==== 
     psi = 0.997*[#   3]
    |psi|^2 = 1.000
==== e(   5) =   -46.03342 eV ==== 
     psi = 0.987*[#  19]+0.012*[#  20]
    |psi|^2 = 1.000
==== e(   6) =   -17.97808 eV ==== 
     psi = 0.498*[#  22]+0.498*[#  23]+0.004*[#  20]
    |psi|^2 = 1.000
==== e(   7) =   -17.89498 eV ==== 
     psi = 0.500*[#  22]+0.500*[#  23]
    |psi|^2 = 1.000
==== e(   8) =   -17.83526 eV ==== 
     psi = 0.999*[#  21]
    |psi|^2 = 1.000
==== e(   9) =   -11.49909 eV ==== 
     psi = 0.352*[#  11]+0.352*[#  15]+0.229*[#   2]+0.037*[#  20]+0.007*[#  12]
          +0.007*[#  16]+0.006*[#   1]+0.003*[#   6]
    |psi|^2 = 0.999
==== e(  10) =   -10.11270 eV ==== 
     psi = 0.481*[#  11]+0.481*[#  15]+0.010*[#   7]+0.010*[#   8]+0.006*[#   9]
          +0.006*[#  10]+0.001*[#   3]
    |psi|^2 = 0.996
==== e(  11) =     2.00073 eV ==== 
     psi = 0.190*[#  12]+0.190*[#  16]+0.093*[#   9]+0.093*[#  10]+0.078*[#   6]
          +0.068*[#  13]+0.068*[#  14]+0.068*[#  17]+0.068*[#  18]+0.043*[#  20]
          +0.009*[#   2]+0.008*[#  11]+0.008*[#  15]+0.005*[#   7]+0.005*[#   8]
          +0.002*[#   1]
    |psi|^2 = 0.994
==== e(  12) =     2.09375 eV ==== 
     psi = 0.224*[#  12]+0.224*[#  16]+0.104*[#   6]+0.060*[#  13]+0.060*[#  14]
          +0.060*[#  17]+0.060*[#  18]+0.053*[#  20]+0.051*[#   9]+0.051*[#  10]
          +0.010*[#   7]+0.010*[#   8]+0.009*[#   2]+0.006*[#  11]+0.006*[#  15]
          +0.001*[#  19]
    |psi|^2 = 0.994
==== e(  13) =     2.81192 eV ==== 
     psi = 0.140*[#  13]+0.140*[#  14]+0.140*[#  17]+0.140*[#  18]+0.136*[#   9]
          +0.136*[#  10]+0.083*[#   7]+0.083*[#   8]
    |psi|^2 = 0.998
==== e(  14) =     3.86354 eV ==== 
     psi = 0.172*[#  13]+0.172*[#  14]+0.172*[#  17]+0.172*[#  18]+0.083*[#   7]
          +0.083*[#   8]+0.035*[#  20]+0.034*[#   2]+0.023*[#   6]+0.018*[#  11]
          +0.018*[#  15]+0.004*[#   1]+0.002*[#   9]+0.002*[#  10]+0.002*[#  12]
          +0.002*[#  16]
    |psi|^2 = 0.994
==== e(  15) =     4.94686 eV ==== 
     psi = 0.180*[#  13]+0.180*[#  14]+0.180*[#  17]+0.180*[#  18]+0.105*[#   7]
          +0.105*[#   8]+0.032*[#   9]+0.032*[#  10]
    |psi|^2 = 0.994
==== e(  16) =     5.61327 eV ==== 
     psi = 0.367*[#  12]+0.367*[#  16]+0.056*[#  13]+0.056*[#  14]+0.056*[#  17]
          +0.056*[#  18]+0.007*[#   7]+0.007*[#   8]+0.004*[#   6]+0.001*[#   2]
          
    |psi|^2 = 0.980
==== e(  17) =     6.84914 eV ==== 
     psi = 0.230*[#   7]+0.230*[#   8]+0.126*[#   6]+0.119*[#   9]+0.119*[#  10]
          +0.028*[#  12]+0.028*[#  16]+0.020*[#  13]+0.020*[#  14]+0.020*[#  17]
          +0.020*[#  18]+0.019*[#   2]+0.004*[#  11]+0.004*[#  15]+0.003*[#  20]
          
    |psi|^2 = 0.992
==== e(  18) =     7.03905 eV ==== 
     psi = 0.431*[#  20]+0.415*[#   6]+0.031*[#   7]+0.031*[#   8]+0.012*[#   9]
          +0.012*[#  10]+0.012*[#  11]+0.012*[#  15]+0.006*[#   2]+0.005*[#  19]
          +0.004*[#  12]+0.004*[#  16]+0.003*[#   1]+0.002*[#  13]+0.002*[#  14]
          +0.002*[#  17]+0.002*[#  18]
    |psi|^2 = 0.989
==== e(  19) =     7.19151 eV ==== 
     psi = 0.200*[#   9]+0.200*[#  10]+0.171*[#   7]+0.171*[#   8]+0.064*[#  13]
          +0.064*[#  14]+0.064*[#  17]+0.064*[#  18]
    |psi|^2 = 0.997
==== e(  20) =     8.24413 eV ==== 
     psi = 0.305*[#  20]+0.221*[#   6]+0.093*[#  12]+0.093*[#  16]+0.058*[#   9]
          +0.058*[#  10]+0.025*[#  13]+0.025*[#  14]+0.025*[#  17]+0.025*[#  18]
          +0.017*[#  11]+0.017*[#  15]+0.003*[#  19]+0.003*[#   1]+0.002*[#   7]
          +0.002*[#   8]
    |psi|^2 = 0.973
==== e(  21) =     9.21972 eV ==== 
     psi = 0.150*[#   9]+0.150*[#  10]+0.120*[#   7]+0.120*[#   8]+0.067*[#  13]
          +0.067*[#  14]+0.067*[#  17]+0.067*[#  18]+0.041*[#  20]+0.031*[#  12]
          +0.031*[#  16]+0.021*[#   6]+0.012*[#  11]+0.012*[#  15]
    |psi|^2 = 0.959
==== e(  22) =     9.86242 eV ==== 
     psi = 0.140*[#   7]+0.140*[#   8]+0.132*[#   9]+0.132*[#  10]+0.112*[#  13]
          +0.112*[#  14]+0.112*[#  17]+0.112*[#  18]
    |psi|^2 = 0.994
==== e(  23) =    13.82380 eV ==== 
     psi = 0.016*[#  12]+0.016*[#  16]+0.007*[#   9]+0.007*[#  10]+0.002*[#  13]
          +0.002*[#  14]+0.002*[#  17]+0.002*[#  18]
    |psi|^2 = 0.054
==== e(  24) =    16.72931 eV ==== 
     psi = 0.554*[#   2]+0.074*[#  11]+0.074*[#  15]+0.017*[#  13]+0.017*[#  14]
          +0.017*[#  17]+0.017*[#  18]+0.015*[#  12]+0.015*[#  16]+0.003*[#   6]
          
    |psi|^2 = 0.806
==== e(  25) =    19.07284 eV ==== 
     psi = 0.009*[#   2]+0.001*[#  20]+0.001*[#  13]+0.001*[#  14]+0.001*[#  17]
          +0.001*[#  18]
    |psi|^2 = 0.019
==== e(  26) =    19.83278 eV ==== 
     psi = 0.005*[#   2]+0.001*[#  20]
    |psi|^2 = 0.012
==== e(  27) =    21.91124 eV ==== 
     psi = 0.101*[#   2]+0.020*[#  20]+0.012*[#  12]+0.012*[#  16]+0.008*[#  11]
          +0.008*[#  15]+0.002*[#  13]+0.002*[#  14]+0.002*[#  17]+0.002*[#  18]
          
    |psi|^2 = 0.170

 k =   0.2272727273  0.1312159703  0.0000000000
==== e(   1) =   -87.54597 eV ==== 
     psi = 0.981*[#   1]+0.007*[#  20]+0.003*[#  12]+0.003*[#  16]+0.001*[#  13]
          +0.001*[#  14]+0.001*[#  17]+0.001*[#  18]
    |psi|^2 = 1.000
==== e(   2) =   -50.80905 eV ==== 
     psi = 0.498*[#   4]+0.498*[#   5]+0.001*[#   2]
    |psi|^2 = 1.000
==== e(   3) =   -50.79012 eV ==== 
     psi = 0.499*[#   4]+0.499*[#   5]
    |psi|^2 = 1.000
==== e(   4) =   -50.77843 eV ==== 
     psi = 0.997*[#   3]
    |psi|^2 = 1.000
==== e(   5) =   -46.03096 eV ==== 
     psi = 0.991*[#  19]+0.008*[#  20]
    |psi|^2 = 1.000
==== e(   6) =   -17.99823 eV ==== 
     psi = 0.498*[#  22]+0.498*[#  23]+0.005*[#  20]
    |psi|^2 = 1.000
==== e(   7) =   -17.89939 eV ==== 
     psi = 0.500*[#  22]+0.500*[#  23]
    |psi|^2 = 1.000
==== e(   8) =   -17.83182 eV ==== 
     psi = 0.999*[#  21]
    |psi|^2 = 1.000
==== e(   9) =   -11.40836 eV ==== 
     psi = 0.361*[#  11]+0.361*[#  15]+0.214*[#   2]+0.034*[#  20]+0.007*[#  12]
          +0.007*[#  16]+0.005*[#   1]+0.003*[#   6]
    |psi|^2 = 0.999
==== e(  10) =   -10.11417 eV ==== 
     psi = 0.479*[#  11]+0.479*[#  15]+0.011*[#   7]+0.011*[#   8]+0.007*[#   9]
          +0.007*[#  10]+0.001*[#   3]
    |psi|^2 = 0.997
==== e(  11) =     1.96294 eV ==== 
     psi = 0.134*[#   9]+0.134*[#  10]+0.113*[#  13]+0.113*[#  14]+0.113*[#  17]
          +0.113*[#  18]+0.112*[#  12]+0.112*[#  16]+0.013*[#   6]+0.007*[#  20]
          +0.006*[#   7]+0.006*[#   8]+0.004*[#   2]+0.004*[#  11]+0.004*[#  15]
          
    |psi|^2 = 0.990
==== e(  12) =     2.18271 eV ==== 
     psi = 0.309*[#  12]+0.309*[#  16]+0.157*[#   6]+0.074*[#  20]+0.020*[#  13]
          +0.020*[#  14]+0.020*[#  17]+0.020*[#  18]+0.018*[#   2]+0.012*[#  11]
          +0.012*[#  15]+0.005*[#   7]+0.005*[#   8]+0.005*[#   9]+0.005*[#  10]
          +0.002*[#   1]+0.001*[#  19]
    |psi|^2 = 0.996
==== e(  13) =     2.85944 eV ==== 
     psi = 0.141*[#  13]+0.141*[#  14]+0.141*[#  17]+0.141*[#  18]+0.126*[#   9]
          +0.126*[#  10]+0.090*[#   7]+0.090*[#   8]
    |psi|^2 = 0.998
==== e(  14) =     3.60895 eV ==== 
     psi = 0.167*[#  13]+0.167*[#  14]+0.167*[#  17]+0.167*[#  18]+0.082*[#   7]
          +0.082*[#   8]+0.040*[#  20]+0.037*[#   2]+0.032*[#   6]+0.017*[#  11]
          +0.017*[#  15]+0.006*[#  12]+0.006*[#  16]+0.004*[#   1]
    |psi|^2 = 0.994
==== e(  15) =     4.84584 eV ==== 
     psi = 0.182*[#  13]+0.182*[#  14]+0.182*[#  17]+0.182*[#  18]+0.100*[#   7]
          +0.100*[#   8]+0.032*[#   9]+0.032*[#  10]
    |psi|^2 = 0.994
==== e(  16) =     5.64657 eV ==== 
     psi = 0.350*[#  12]+0.350*[#  16]+0.065*[#  13]+0.065*[#  14]+0.065*[#  17]
          +0.065*[#  18]+0.006*[#   7]+0.006*[#   8]+0.005*[#   6]+0.001*[#   2]
          
    |psi|^2 = 0.982
==== e(  17) =     6.85955 eV ==== 
     psi = 0.223*[#   7]+0.223*[#   8]+0.153*[#   6]+0.111*[#   9]+0.111*[#  10]
          +0.035*[#  12]+0.035*[#  16]+0.020*[#   2]+0.017*[#  13]+0.017*[#  14]
          +0.017*[#  17]+0.017*[#  18]+0.005*[#  11]+0.005*[#  15]+0.003*[#  20]
          
    |psi|^2 = 0.992
==== e(  18) =     7.15053 eV ==== 
     psi = 0.451*[#   6]+0.358*[#  20]+0.038*[#   7]+0.038*[#   8]+0.020*[#   9]
          +0.020*[#  10]+0.009*[#  11]+0.009*[#  15]+0.009*[#  12]+0.009*[#  16]
          +0.004*[#  13]+0.004*[#  14]+0.004*[#  17]+0.004*[#  18]+0.003*[#   2]
          +0.003*[#  19]+0.002*[#   1]
    |psi|^2 = 0.990
==== e(  19) =     7.22678 eV ==== 
     psi = 0.220*[#   9]+0.220*[#  10]+0.157*[#   7]+0.157*[#   8]+0.061*[#  13]
          +0.061*[#  14]+0.061*[#  17]+0.061*[#  18]
    |psi|^2 = 0.997
==== e(  20) =     8.27149 eV ==== 
     psi = 0.353*[#  20]+0.151*[#   6]+0.082*[#   9]+0.082*[#  10]+0.075*[#  12]
          +0.075*[#  16]+0.023*[#  13]+0.023*[#  14]+0.023*[#  17]+0.023*[#  18]
          +0.019*[#  11]+0.019*[#  15]+0.007*[#   7]+0.007*[#   8]+0.003*[#   1]
          +0.003*[#  19]
    |psi|^2 = 0.971
==== e(  21) =     9.19432 eV ==== 
     psi = 0.132*[#   9]+0.132*[#  10]+0.118*[#   7]+0.118*[#   8]+0.079*[#  20]
          +0.057*[#  13]+0.057*[#  14]+0.057*[#  17]+0.057*[#  18]+0.047*[#  12]
          +0.047*[#  16]+0.030*[#   6]+0.013*[#  11]+0.013*[#  15]
    |psi|^2 = 0.958
==== e(  22) =     9.84421 eV ==== 
     psi = 0.151*[#   7]+0.151*[#   8]+0.121*[#   9]+0.121*[#  10]+0.112*[#  13]
          +0.112*[#  14]+0.112*[#  17]+0.112*[#  18]
    |psi|^2 = 0.994
==== e(  23) =    13.93746 eV ==== 
     psi = 0.015*[#  12]+0.015*[#  16]+0.007*[#   9]+0.007*[#  10]+0.002*[#  13]
          +0.002*[#  14]+0.002*[#  17]+0.002*[#  18]
    |psi|^2 = 0.051
==== e(  24) =    16.99944 eV ==== 
     psi = 0.546*[#   2]+0.066*[#  11]+0.066*[#  15]+0.019*[#  13]+0.019*[#  14]
          +0.019*[#  17]+0.019*[#  18]+0.013*[#  12]+0.013*[#  16]+0.003*[#   6]
          
    |psi|^2 = 0.784
==== e(  25) =    18.58204 eV ==== 
     psi = 0.020*[#   2]+0.003*[#  20]+0.002*[#  11]+0.002*[#  15]+0.001*[#  12]
          +0.001*[#  16]
    |psi|^2 = 0.031
==== e(  26) =    19.93268 eV ==== 
     psi = 0.002*[#   2]+0.001*[#  13]+0.001*[#  14]+0.001*[#  17]+0.001*[#  18]
          
    |psi|^2 = 0.010
==== e(  27) =    21.78529 eV ==== 
     psi = 0.094*[#   2]+0.018*[#  20]+0.010*[#  12]+0.010*[#  16]+0.007*[#  11]
          +0.007*[#  15]+0.002*[#  13]+0.002*[#  14]+0.002*[#  17]+0.002*[#  18]
          
    |psi|^2 = 0.156

 k =   0.2500000000  0.1443375673  0.0000000000
==== e(   1) =   -87.54557 eV ==== 
     psi = 0.981*[#   1]+0.006*[#  20]+0.003*[#  12]+0.003*[#  16]+0.001*[#  13]
          +0.001*[#  14]+0.001*[#  17]+0.001*[#  18]
    |psi|^2 = 1.000
==== e(   2) =   -50.81299 eV ==== 
     psi = 0.497*[#   4]+0.497*[#   5]+0.001*[#   2]
    |psi|^2 = 1.000
==== e(   3) =   -50.79105 eV ==== 
     psi = 0.499*[#   4]+0.499*[#   5]
    |psi|^2 = 1.000
==== e(   4) =   -50.77771 eV ==== 
     psi = 0.997*[#   3]
    |psi|^2 = 1.000
==== e(   5) =   -46.02840 eV ==== 
     psi = 0.994*[#  19]+0.005*[#  20]
    |psi|^2 = 1.000
==== e(   6) =   -18.01846 eV ==== 
     psi = 0.497*[#  22]+0.497*[#  23]+0.005*[#  20]
    |psi|^2 = 1.000
==== e(   7) =   -17.90379 eV ==== 
     psi = 0.500*[#  22]+0.500*[#  23]
    |psi|^2 = 1.000
==== e(   8) =   -17.82810 eV ==== 
     psi = 0.999*[#  21]
    |psi|^2 = 1.000
==== e(   9) =   -11.31295 eV ==== 
     psi = 0.371*[#  11]+0.371*[#  15]+0.197*[#   2]+0.031*[#  20]+0.007*[#  12]
          +0.007*[#  16]+0.004*[#   1]+0.003*[#   6]+0.001*[#  13]+0.001*[#  14]
          +0.001*[#  17]+0.001*[#  18]+0.001*[#   4]+0.001*[#   5]
    |psi|^2 = 0.999
==== e(  10) =   -10.11692 eV ==== 
     psi = 0.477*[#  11]+0.477*[#  15]+0.013*[#   7]+0.013*[#   8]+0.008*[#   9]
          +0.008*[#  10]+0.001*[#   3]
    |psi|^2 = 0.997
==== e(  11) =     1.90758 eV ==== 
     psi = 0.132*[#   9]+0.132*[#  10]+0.120*[#  13]+0.120*[#  14]+0.120*[#  17]
          +0.120*[#  18]+0.107*[#  12]+0.107*[#  16]+0.006*[#   6]+0.005*[#   2]
          +0.004*[#  11]+0.004*[#  15]+0.003*[#  20]+0.002*[#   7]+0.002*[#   8]
          
    |psi|^2 = 0.989
==== e(  12) =     2.28640 eV ==== 
     psi = 0.313*[#  12]+0.313*[#  16]+0.146*[#   6]+0.061*[#  20]+0.023*[#   2]
          +0.022*[#  13]+0.022*[#  14]+0.022*[#  17]+0.022*[#  18]+0.015*[#  11]
          +0.015*[#  15]+0.007*[#   7]+0.007*[#   8]+0.002*[#   1]+0.001*[#   9]
          +0.001*[#  10]
    |psi|^2 = 0.996
==== e(  13) =     2.90686 eV ==== 
     psi = 0.142*[#  13]+0.142*[#  14]+0.142*[#  17]+0.142*[#  18]+0.115*[#   9]
          +0.115*[#  10]+0.099*[#   7]+0.099*[#   8]
    |psi|^2 = 0.998
==== e(  14) =     3.38456 eV ==== 
     psi = 0.159*[#  13]+0.159*[#  14]+0.159*[#  17]+0.159*[#  18]+0.079*[#   7]
          +0.079*[#   8]+0.048*[#   6]+0.046*[#  20]+0.037*[#   2]+0.018*[#  12]
          +0.018*[#  16]+0.014*[#  11]+0.014*[#  15]+0.003*[#   1]
    |psi|^2 = 0.994
==== e(  15) =     4.75506 eV ==== 
     psi = 0.185*[#  13]+0.185*[#  14]+0.185*[#  17]+0.185*[#  18]+0.094*[#   7]
          +0.094*[#   8]+0.032*[#   9]+0.032*[#  10]
    |psi|^2 = 0.993
==== e(  16) =     5.64405 eV ==== 
     psi = 0.332*[#  12]+0.332*[#  16]+0.074*[#  13]+0.074*[#  14]+0.074*[#  17]
          +0.074*[#  18]+0.006*[#   6]+0.004*[#   7]+0.004*[#   8]+0.003*[#   9]
          +0.003*[#  10]+0.002*[#   2]+0.002*[#  20]
    |psi|^2 = 0.985
==== e(  17) =     6.86611 eV ==== 
     psi = 0.218*[#   7]+0.218*[#   8]+0.182*[#   6]+0.099*[#   9]+0.099*[#  10]
          +0.042*[#  12]+0.042*[#  16]+0.021*[#   2]+0.015*[#  13]+0.015*[#  14]
          +0.015*[#  17]+0.015*[#  18]+0.005*[#  11]+0.005*[#  15]+0.003*[#  20]
          
    |psi|^2 = 0.992
==== e(  18) =     7.24539 eV ==== 
     psi = 0.486*[#   6]+0.272*[#  20]+0.044*[#   7]+0.044*[#   8]+0.032*[#   9]
          +0.032*[#  10]+0.015*[#  12]+0.015*[#  16]+0.008*[#  13]+0.008*[#  14]
          +0.008*[#  17]+0.008*[#  18]+0.007*[#  11]+0.007*[#  15]+0.001*[#   1]
          +0.001*[#   2]+0.001*[#  19]
    |psi|^2 = 0.991
==== e(  19) =     7.24584 eV ==== 
     psi = 0.241*[#   9]+0.241*[#  10]+0.145*[#   7]+0.145*[#   8]+0.056*[#  13]
          +0.056*[#  14]+0.056*[#  17]+0.056*[#  18]
    |psi|^2 = 0.997
==== e(  20) =     8.31101 eV ==== 
     psi = 0.397*[#  20]+0.104*[#   9]+0.104*[#  10]+0.083*[#   6]+0.059*[#  12]
          +0.059*[#  16]+0.021*[#  11]+0.021*[#  15]+0.019*[#  13]+0.019*[#  14]
          +0.019*[#  17]+0.019*[#  18]+0.018*[#   7]+0.018*[#   8]+0.003*[#   1]
          +0.002*[#  19]
    |psi|^2 = 0.969
==== e(  21) =     9.21729 eV ==== 
     psi = 0.137*[#  20]+0.112*[#   7]+0.112*[#   8]+0.111*[#   9]+0.111*[#  10]
          +0.061*[#  12]+0.061*[#  16]+0.047*[#  13]+0.047*[#  14]+0.047*[#  17]
          +0.047*[#  18]+0.036*[#   6]+0.013*[#  11]+0.013*[#  15]
    |psi|^2 = 0.958
==== e(  22) =     9.83246 eV ==== 
     psi = 0.162*[#   7]+0.162*[#   8]+0.112*[#  13]+0.112*[#  14]+0.112*[#  17]
          +0.112*[#  18]+0.111*[#   9]+0.111*[#  10]
    |psi|^2 = 0.994
==== e(  23) =    14.05628 eV ==== 
     psi = 0.013*[#  12]+0.013*[#  16]+0.006*[#   9]+0.006*[#  10]+0.001*[#  13]
          +0.001*[#  14]+0.001*[#  17]+0.001*[#  18]
    |psi|^2 = 0.047
==== e(  24) =    17.25238 eV ==== 
     psi = 0.507*[#   2]+0.055*[#  11]+0.055*[#  15]+0.019*[#  13]+0.019*[#  14]
          +0.019*[#  17]+0.019*[#  18]+0.010*[#  12]+0.010*[#  16]+0.002*[#   6]
          +0.002*[#  20]+0.001*[#   1]
    |psi|^2 = 0.721
==== e(  25) =    18.02593 eV ==== 
     psi = 0.057*[#   2]+0.005*[#  11]+0.005*[#  15]+0.003*[#  20]+0.002*[#  12]
          +0.002*[#  16]+0.001*[#  13]+0.001*[#  14]+0.001*[#  17]+0.001*[#  18]
          
    |psi|^2 = 0.082
==== e(  26) =    20.09309 eV ==== 
     psi = 0.001*[#  13]+0.001*[#  14]+0.001*[#  17]+0.001*[#  18]+0.001*[#   2]
          
    |psi|^2 = 0.010
==== e(  27) =    21.56323 eV ==== 
     psi = 0.065*[#   2]+0.013*[#  20]+0.006*[#  12]+0.006*[#  16]+0.005*[#  11]
          +0.005*[#  15]+0.002*[#  13]+0.002*[#  14]+0.002*[#  17]+0.002*[#  18]
          
    |psi|^2 = 0.108

 k =   0.2727272727  0.1574591643  0.0000000000
==== e(   1) =   -87.54521 eV ==== 
     psi = 0.982*[#   1]+0.006*[#  20]+0.002*[#  12]+0.002*[#  16]+0.002*[#  13]
          +0.002*[#  14]+0.002*[#  17]+0.002*[#  18]
    |psi|^2 = 1.000
==== e(   2) =   -50.81702 eV ==== 
     psi = 0.497*[#   4]+0.497*[#   5]+0.001*[#   2]
    |psi|^2 = 1.000
==== e(   3) =   -50.79211 eV ==== 
     psi = 0.499*[#   4]+0.499*[#   5]
    |psi|^2 = 1.000
==== e(   4) =   -50.77718 eV ==== 
     psi = 0.997*[#   3]
    |psi|^2 = 1.000
==== e(   5) =   -46.02592 eV ==== 
     psi = 0.997*[#  19]+0.002*[#  20]
    |psi|^2 = 1.000
==== e(   6) =   -18.03883 eV ==== 
     psi = 0.497*[#  22]+0.497*[#  23]+0.005*[#  20]
    |psi|^2 = 1.000
==== e(   7) =   -17.90843 eV ==== 
     psi = 0.500*[#  22]+0.500*[#  23]
    |psi|^2 = 1.000
==== e(   8) =   -17.82482 eV ==== 
     psi = 0.999*[#  21]
    |psi|^2 = 1.000
==== e(   9) =   -11.21430 eV ==== 
     psi = 0.381*[#  11]+0.381*[#  15]+0.180*[#   2]+0.027*[#  20]+0.006*[#  12]
          +0.006*[#  16]+0.003*[#   1]+0.002*[#   6]+0.001*[#  13]+0.001*[#  14]
          +0.001*[#  17]+0.001*[#  18]+0.001*[#   4]+0.001*[#   5]+0.001*[#   9]
          +0.001*[#  10]
    |psi|^2 = 0.999
==== e(  10) =   -10.12132 eV ==== 
     psi = 0.475*[#  11]+0.475*[#  15]+0.014*[#   7]+0.014*[#   8]+0.009*[#   9]
          +0.009*[#  10]
    |psi|^2 = 0.997
==== e(  11) =     1.84751 eV ==== 
     psi = 0.126*[#   9]+0.126*[#  10]+0.124*[#  13]+0.124*[#  14]+0.124*[#  17]
          +0.124*[#  18]+0.106*[#  12]+0.106*[#  16]+0.008*[#   2]+0.005*[#  11]
          +0.005*[#  15]+0.004*[#   6]+0.002*[#  20]+0.001*[#   1]
    |psi|^2 = 0.989
==== e(  12) =     2.37237 eV ==== 
     psi = 0.292*[#  12]+0.292*[#  16]+0.117*[#   6]+0.041*[#  20]+0.039*[#  13]
          +0.039*[#  14]+0.039*[#  17]+0.039*[#  18]+0.030*[#   2]+0.018*[#  11]
          +0.018*[#  15]+0.013*[#   7]+0.013*[#   8]+0.003*[#   1]+0.001*[#   9]
          +0.001*[#  10]
    |psi|^2 = 0.995
==== e(  13) =     2.95260 eV ==== 
     psi = 0.143*[#  13]+0.143*[#  14]+0.143*[#  17]+0.143*[#  18]+0.108*[#   7]
          +0.108*[#   8]+0.104*[#   9]+0.104*[#  10]
    |psi|^2 = 0.998
==== e(  14) =     3.21163 eV ==== 
     psi = 0.141*[#  13]+0.141*[#  14]+0.141*[#  17]+0.141*[#  18]+0.075*[#   6]
          +0.071*[#   7]+0.071*[#   8]+0.057*[#  20]+0.050*[#  12]+0.050*[#  16]
          +0.033*[#   2]+0.009*[#  11]+0.009*[#  15]+0.003*[#   1]
    |psi|^2 = 0.994
==== e(  15) =     4.67562 eV ==== 
     psi = 0.189*[#  13]+0.189*[#  14]+0.189*[#  17]+0.189*[#  18]+0.085*[#   7]
          +0.085*[#   8]+0.031*[#   9]+0.031*[#  10]
    |psi|^2 = 0.993
==== e(  16) =     5.60449 eV ==== 
     psi = 0.314*[#  12]+0.314*[#  16]+0.081*[#  13]+0.081*[#  14]+0.081*[#  17]
          +0.081*[#  18]+0.008*[#   9]+0.008*[#  10]+0.006*[#   6]+0.003*[#  20]
          +0.003*[#   7]+0.003*[#   8]+0.002*[#   2]
    |psi|^2 = 0.986
==== e(  17) =     6.86799 eV ==== 
     psi = 0.217*[#   6]+0.213*[#   7]+0.213*[#   8]+0.085*[#   9]+0.085*[#  10]
          +0.047*[#  12]+0.047*[#  16]+0.021*[#   2]+0.012*[#  13]+0.012*[#  14]
          +0.012*[#  17]+0.012*[#  18]+0.005*[#  11]+0.005*[#  15]+0.003*[#  20]
          
    |psi|^2 = 0.992
==== e(  18) =     7.24944 eV ==== 
     psi = 0.263*[#   9]+0.263*[#  10]+0.132*[#   7]+0.132*[#   8]+0.051*[#  13]
          +0.051*[#  14]+0.051*[#  17]+0.051*[#  18]
    |psi|^2 = 0.997
==== e(  19) =     7.31366 eV ==== 
     psi = 0.506*[#   6]+0.184*[#  20]+0.051*[#   9]+0.051*[#  10]+0.048*[#   7]
          +0.048*[#   8]+0.022*[#  12]+0.022*[#  16]+0.012*[#  13]+0.012*[#  14]
          +0.012*[#  17]+0.012*[#  18]+0.005*[#  11]+0.005*[#  15]
    |psi|^2 = 0.992
==== e(  20) =     8.37638 eV ==== 
     psi = 0.423*[#  20]+0.120*[#   9]+0.120*[#  10]+0.048*[#  12]+0.048*[#  16]
          +0.033*[#   7]+0.033*[#   8]+0.032*[#   6]+0.024*[#  11]+0.024*[#  15]
          +0.014*[#  13]+0.014*[#  14]+0.014*[#  17]+0.014*[#  18]+0.003*[#   1]
          +0.001*[#  22]+0.001*[#  23]
    |psi|^2 = 0.967
==== e(  21) =     9.28675 eV ==== 
     psi = 0.212*[#  20]+0.100*[#   7]+0.100*[#   8]+0.090*[#   9]+0.090*[#  10]
          +0.072*[#  12]+0.072*[#  16]+0.039*[#  13]+0.039*[#  14]+0.039*[#  17]
          +0.039*[#  18]+0.037*[#   6]+0.013*[#  11]+0.013*[#  15]
    |psi|^2 = 0.958
==== e(  22) =     9.82726 eV ==== 
     psi = 0.173*[#   7]+0.173*[#   8]+0.112*[#  13]+0.112*[#  14]+0.112*[#  17]
          +0.112*[#  18]+0.100*[#   9]+0.100*[#  10]
    |psi|^2 = 0.994
==== e(  23) =    14.17901 eV ==== 
     psi = 0.012*[#  12]+0.012*[#  16]+0.006*[#   9]+0.006*[#  10]+0.001*[#  13]
          +0.001*[#  14]+0.001*[#  17]+0.001*[#  18]
    |psi|^2 = 0.042
==== e(  24) =    17.27703 eV ==== 
     psi = 0.122*[#   2]+0.013*[#  11]+0.013*[#  15]+0.007*[#  20]+0.007*[#  13]
          +0.007*[#  14]+0.007*[#  17]+0.007*[#  18]+0.002*[#  12]+0.002*[#  16]
          
    |psi|^2 = 0.189
==== e(  25) =    17.68990 eV ==== 
     psi = 0.438*[#   2]+0.039*[#  11]+0.039*[#  15]+0.015*[#  13]+0.015*[#  14]
          +0.015*[#  17]+0.015*[#  18]+0.009*[#  12]+0.009*[#  16]+0.002*[#   1]
          +0.001*[#   6]
    |psi|^2 = 0.599
==== e(  26) =    20.18817 eV ==== 
     psi = 0.001*[#   2]+0.001*[#  13]+0.001*[#  14]+0.001*[#  17]+0.001*[#  18]
          +0.001*[#  20]
    |psi|^2 = 0.011
==== e(  27) =    21.24881 eV ==== 
     psi = 0.033*[#   2]+0.007*[#  20]+0.002*[#  11]+0.002*[#  15]+0.002*[#  12]
          +0.002*[#  16]+0.001*[#  13]+0.001*[#  14]+0.001*[#  17]+0.001*[#  18]
          
    |psi|^2 = 0.056

 k =   0.2954545455  0.1705807614  0.0000000000
==== e(   1) =   -87.54486 eV ==== 
     psi = 0.982*[#   1]+0.005*[#  20]+0.002*[#  12]+0.002*[#  13]+0.002*[#  14]
          +0.002*[#  16]+0.002*[#  17]+0.002*[#  18]
    |psi|^2 = 1.000
==== e(   2) =   -50.82104 eV ==== 
     psi = 0.497*[#   4]+0.497*[#   5]+0.001*[#   2]
    |psi|^2 = 1.000
==== e(   3) =   -50.79312 eV ==== 
     psi = 0.499*[#   4]+0.499*[#   5]
    |psi|^2 = 1.000
==== e(   4) =   -50.77651 eV ==== 
     psi = 0.997*[#   3]
    |psi|^2 = 1.000
==== e(   5) =   -46.02347 eV ==== 
     psi = 0.998*[#  19]
    |psi|^2 = 1.000
==== e(   6) =   -18.05890 eV ==== 
     psi = 0.497*[#  22]+0.497*[#  23]+0.005*[#  20]
    |psi|^2 = 1.000
==== e(   7) =   -17.91294 eV ==== 
     psi = 0.500*[#  22]+0.500*[#  23]
    |psi|^2 = 1.000
==== e(   8) =   -17.82128 eV ==== 
     psi = 0.999*[#  21]
    |psi|^2 = 1.000
==== e(   9) =   -11.11388 eV ==== 
     psi = 0.392*[#  11]+0.392*[#  15]+0.161*[#   2]+0.024*[#  20]+0.006*[#  12]
          +0.006*[#  16]+0.003*[#   1]+0.002*[#   6]+0.001*[#   9]+0.001*[#  10]
          +0.001*[#  13]+0.001*[#  14]+0.001*[#  17]+0.001*[#  18]+0.001*[#   4]
          +0.001*[#   5]+0.001*[#   7]+0.001*[#   8]
    |psi|^2 = 0.999
==== e(  10) =   -10.12770 eV ==== 
     psi = 0.473*[#  11]+0.473*[#  15]+0.015*[#   7]+0.015*[#   8]+0.010*[#   9]
          +0.010*[#  10]
    |psi|^2 = 0.997
==== e(  11) =     1.77765 eV ==== 
     psi = 0.128*[#  13]+0.128*[#  14]+0.128*[#  17]+0.128*[#  18]+0.116*[#   9]
          +0.116*[#  10]+0.103*[#  12]+0.103*[#  16]+0.015*[#   2]+0.007*[#  11]
          +0.007*[#  15]+0.003*[#   6]+0.002*[#   1]
    |psi|^2 = 0.989
==== e(  12) =     2.41779 eV ==== 
     psi = 0.240*[#  12]+0.240*[#  16]+0.073*[#   6]+0.071*[#  13]+0.071*[#  14]
          +0.071*[#  17]+0.071*[#  18]+0.040*[#   2]+0.024*[#   7]+0.024*[#   8]
          +0.020*[#  11]+0.020*[#  15]+0.019*[#  20]+0.003*[#   1]+0.002*[#   9]
          +0.002*[#  10]
    |psi|^2 = 0.994
==== e(  13) =     2.99517 eV ==== 
     psi = 0.143*[#  13]+0.143*[#  14]+0.143*[#  17]+0.143*[#  18]+0.119*[#   7]
          +0.119*[#   8]+0.093*[#   9]+0.093*[#  10]
    |psi|^2 = 0.998
==== e(  14) =     3.11950 eV ==== 
     psi = 0.114*[#   6]+0.113*[#  12]+0.113*[#  16]+0.108*[#  13]+0.108*[#  14]
          +0.108*[#  17]+0.108*[#  18]+0.068*[#  20]+0.056*[#   7]+0.056*[#   8]
          +0.022*[#   2]+0.004*[#  11]+0.004*[#  15]+0.004*[#   9]+0.004*[#  10]
          +0.001*[#   1]
    |psi|^2 = 0.994
==== e(  15) =     4.60852 eV ==== 
     psi = 0.195*[#  13]+0.195*[#  14]+0.195*[#  17]+0.195*[#  18]+0.075*[#   7]
          +0.075*[#   8]+0.030*[#   9]+0.030*[#  10]
    |psi|^2 = 0.992
==== e(  16) =     5.53119 eV ==== 
     psi = 0.298*[#  12]+0.298*[#  16]+0.087*[#  13]+0.087*[#  14]+0.087*[#  17]
          +0.087*[#  18]+0.014*[#   9]+0.014*[#  10]+0.005*[#   6]+0.004*[#  20]
          +0.002*[#   2]+0.001*[#   7]+0.001*[#   8]
    |psi|^2 = 0.987
==== e(  17) =     6.86404 eV ==== 
     psi = 0.260*[#   6]+0.208*[#   7]+0.208*[#   8]+0.069*[#   9]+0.069*[#  10]
          +0.051*[#  12]+0.051*[#  16]+0.021*[#   2]+0.010*[#  13]+0.010*[#  14]
          +0.010*[#  17]+0.010*[#  18]+0.006*[#  11]+0.006*[#  15]+0.003*[#  20]
          
    |psi|^2 = 0.992
==== e(  18) =     7.23927 eV ==== 
     psi = 0.286*[#   9]+0.286*[#  10]+0.121*[#   7]+0.121*[#   8]+0.046*[#  13]
          +0.046*[#  14]+0.046*[#  17]+0.046*[#  18]
    |psi|^2 = 0.997
==== e(  19) =     7.35199 eV ==== 
     psi = 0.501*[#   6]+0.111*[#  20]+0.075*[#   9]+0.075*[#  10]+0.053*[#   7]
          +0.053*[#   8]+0.027*[#  12]+0.027*[#  16]+0.015*[#  13]+0.015*[#  14]
          +0.015*[#  17]+0.015*[#  18]+0.003*[#  11]+0.003*[#  15]
    |psi|^2 = 0.992
==== e(  20) =     8.47409 eV ==== 
     psi = 0.416*[#  20]+0.130*[#   9]+0.130*[#  10]+0.052*[#   7]+0.052*[#   8]
          +0.045*[#  12]+0.045*[#  16]+0.025*[#  11]+0.025*[#  15]+0.009*[#  13]
          +0.009*[#  14]+0.009*[#  17]+0.009*[#  18]+0.006*[#   6]+0.002*[#   1]
          
    |psi|^2 = 0.967
==== e(  21) =     9.39850 eV ==== 
     psi = 0.302*[#  20]+0.086*[#   7]+0.086*[#   8]+0.076*[#  12]+0.076*[#  16]
          +0.072*[#   9]+0.072*[#  10]+0.032*[#   6]+0.032*[#  13]+0.032*[#  14]
          +0.032*[#  17]+0.032*[#  18]+0.012*[#  11]+0.012*[#  15]
    |psi|^2 = 0.956
==== e(  22) =     9.82833 eV ==== 
     psi = 0.183*[#   7]+0.183*[#   8]+0.112*[#  13]+0.112*[#  14]+0.112*[#  17]
          +0.112*[#  18]+0.090*[#   9]+0.090*[#  10]
    |psi|^2 = 0.994
==== e(  23) =    14.30533 eV ==== 
     psi = 0.010*[#  12]+0.010*[#  16]+0.005*[#   9]+0.005*[#  10]+0.001*[#  13]
          +0.001*[#  14]+0.001*[#  17]+0.001*[#  18]
    |psi|^2 = 0.037
==== e(  24) =    16.79459 eV ==== 
     psi = 0.011*[#  20]+0.006*[#   2]+0.001*[#  12]+0.001*[#  16]+0.001*[#  13]
          +0.001*[#  14]+0.001*[#  17]+0.001*[#  18]
    |psi|^2 = 0.026
==== e(  25) =    17.86334 eV ==== 
     psi = 0.548*[#   2]+0.044*[#  11]+0.044*[#  15]+0.020*[#  13]+0.020*[#  14]
          +0.020*[#  17]+0.020*[#  18]+0.009*[#  12]+0.009*[#  16]+0.003*[#   1]
          +0.002*[#   6]
    |psi|^2 = 0.742
==== e(  26) =    20.13035 eV ==== 
     psi = 0.003*[#  20]+0.001*[#   2]+0.001*[#  13]+0.001*[#  14]+0.001*[#  17]
          +0.001*[#  18]
    |psi|^2 = 0.012
==== e(  27) =    20.96681 eV ==== 
     psi = 0.015*[#   2]+0.003*[#  20]+0.001*[#  11]+0.001*[#  13]+0.001*[#  14]
          +0.001*[#  15]+0.001*[#  17]+0.001*[#  18]
    |psi|^2 = 0.028

 k =   0.3181818182  0.1837023584  0.0000000000
==== e(   1) =   -87.54453 eV ==== 
     psi = 0.982*[#   1]+0.004*[#  20]+0.002*[#  13]+0.002*[#  14]+0.002*[#  17]
          +0.002*[#  18]+0.002*[#  12]+0.002*[#  16]
    |psi|^2 = 1.000
==== e(   2) =   -50.82495 eV ==== 
     psi = 0.497*[#   4]+0.497*[#   5]+0.001*[#   2]
    |psi|^2 = 1.000
==== e(   3) =   -50.79408 eV ==== 
     psi = 0.499*[#   4]+0.499*[#   5]
    |psi|^2 = 1.000
==== e(   4) =   -50.77598 eV ==== 
     psi = 0.997*[#   3]
    |psi|^2 = 1.000
==== e(   5) =   -46.02115 eV ==== 
     psi = 0.999*[#  19]
    |psi|^2 = 1.000
==== e(   6) =   -18.07819 eV ==== 
     psi = 0.498*[#  22]+0.498*[#  23]+0.004*[#  20]
    |psi|^2 = 1.000
==== e(   7) =   -17.91724 eV ==== 
     psi = 0.500*[#  22]+0.500*[#  23]
    |psi|^2 = 1.000
==== e(   8) =   -17.81811 eV ==== 
     psi = 0.999*[#  21]
    |psi|^2 = 1.000
==== e(   9) =   -11.01328 eV ==== 
     psi = 0.403*[#  11]+0.403*[#  15]+0.142*[#   2]+0.020*[#  20]+0.006*[#  12]
          +0.006*[#  16]+0.002*[#   1]+0.002*[#   9]+0.002*[#  10]+0.002*[#   6]
          +0.002*[#   7]+0.002*[#   8]+0.002*[#  13]+0.002*[#  14]+0.002*[#  17]
          +0.002*[#  18]+0.001*[#   4]+0.001*[#   5]
    |psi|^2 = 0.999
==== e(  10) =   -10.13647 eV ==== 
     psi = 0.471*[#  11]+0.471*[#  15]+0.016*[#   7]+0.016*[#   8]+0.011*[#   9]
          +0.011*[#  10]
    |psi|^2 = 0.997
==== e(  11) =     1.69116 eV ==== 
     psi = 0.133*[#  13]+0.133*[#  14]+0.133*[#  17]+0.133*[#  18]+0.103*[#   9]
          +0.103*[#  10]+0.096*[#  12]+0.096*[#  16]+0.026*[#   2]+0.009*[#  11]
          +0.009*[#  15]+0.006*[#   7]+0.006*[#   8]+0.003*[#   1]+0.003*[#   6]
          
    |psi|^2 = 0.990
==== e(  12) =     2.41606 eV ==== 
     psi = 0.177*[#  12]+0.177*[#  16]+0.107*[#  13]+0.107*[#  14]+0.107*[#  17]
          +0.107*[#  18]+0.045*[#   2]+0.034*[#   6]+0.034*[#   7]+0.034*[#   8]
          +0.020*[#  11]+0.020*[#  15]+0.006*[#   9]+0.006*[#  10]+0.005*[#  20]
          +0.003*[#   1]
    |psi|^2 = 0.992
==== e(  13) =     3.03326 eV ==== 
     psi = 0.143*[#  13]+0.143*[#  14]+0.143*[#  17]+0.143*[#  18]+0.131*[#   7]
          +0.131*[#   8]+0.081*[#   9]+0.081*[#  10]
    |psi|^2 = 0.998
==== e(  14) =     3.12137 eV ==== 
     psi = 0.191*[#  12]+0.191*[#  16]+0.147*[#   6]+0.071*[#  13]+0.071*[#  14]
          +0.071*[#  17]+0.071*[#  18]+0.071*[#  20]+0.038*[#   7]+0.038*[#   8]
          +0.012*[#   2]+0.008*[#   9]+0.008*[#  10]+0.002*[#  11]+0.002*[#  15]
          
    |psi|^2 = 0.994
==== e(  15) =     4.55426 eV ==== 
     psi = 0.201*[#  13]+0.201*[#  14]+0.201*[#  17]+0.201*[#  18]+0.064*[#   7]
          +0.064*[#   8]+0.029*[#   9]+0.029*[#  10]
    |psi|^2 = 0.991
==== e(  16) =     5.43082 eV ==== 
     psi = 0.285*[#  12]+0.285*[#  16]+0.090*[#  13]+0.090*[#  14]+0.090*[#  17]
          +0.090*[#  18]+0.020*[#   9]+0.020*[#  10]+0.005*[#  20]+0.004*[#   6]
          +0.002*[#   2]
    |psi|^2 = 0.987
==== e(  17) =     6.85311 eV ==== 
     psi = 0.311*[#   6]+0.200*[#   7]+0.200*[#   8]+0.053*[#  12]+0.053*[#  16]
          +0.053*[#   9]+0.053*[#  10]+0.019*[#   2]+0.008*[#  13]+0.008*[#  14]
          +0.008*[#  17]+0.008*[#  18]+0.006*[#  11]+0.006*[#  15]+0.002*[#  20]
          
    |psi|^2 = 0.993
==== e(  18) =     7.21769 eV ==== 
     psi = 0.308*[#   9]+0.308*[#  10]+0.112*[#   7]+0.112*[#   8]+0.039*[#  13]
          +0.039*[#  14]+0.039*[#  17]+0.039*[#  18]
    |psi|^2 = 0.997
==== e(  19) =     7.36493 eV ==== 
     psi = 0.471*[#   6]+0.100*[#   9]+0.100*[#  10]+0.062*[#  20]+0.061*[#   7]
          +0.061*[#   8]+0.030*[#  12]+0.030*[#  16]+0.018*[#  13]+0.018*[#  14]
          +0.018*[#  17]+0.018*[#  18]+0.002*[#  11]+0.002*[#  15]+0.001*[#   2]
          
    |psi|^2 = 0.992
==== e(  20) =     8.59900 eV ==== 
     psi = 0.374*[#  20]+0.136*[#   9]+0.136*[#  10]+0.071*[#   7]+0.071*[#   8]
          +0.051*[#  12]+0.051*[#  16]+0.026*[#  11]+0.026*[#  15]+0.006*[#  13]
          +0.006*[#  14]+0.006*[#  17]+0.006*[#  18]+0.002*[#   1]
    |psi|^2 = 0.968
==== e(  21) =     9.54865 eV ==== 
     psi = 0.401*[#  20]+0.074*[#  12]+0.074*[#  16]+0.069*[#   7]+0.069*[#   8]
          +0.055*[#   9]+0.055*[#  10]+0.026*[#  13]+0.026*[#  14]+0.026*[#  17]
          +0.026*[#  18]+0.025*[#   6]+0.011*[#  11]+0.011*[#  15]+0.001*[#   1]
          
    |psi|^2 = 0.951
==== e(  22) =     9.83471 eV ==== 
     psi = 0.192*[#   7]+0.192*[#   8]+0.112*[#  13]+0.112*[#  14]+0.112*[#  17]
          +0.112*[#  18]+0.081*[#   9]+0.081*[#  10]
    |psi|^2 = 0.994
==== e(  23) =    14.42802 eV ==== 
     psi = 0.008*[#  12]+0.008*[#  16]+0.004*[#   9]+0.004*[#  10]+0.001*[#  20]
          +0.001*[#  13]+0.001*[#  14]+0.001*[#  17]+0.001*[#  18]
    |psi|^2 = 0.031
==== e(  24) =    16.27234 eV ==== 
     psi = 0.017*[#  20]+0.002*[#  12]+0.002*[#  16]
    |psi|^2 = 0.025
==== e(  25) =    18.07997 eV ==== 
     psi = 0.539*[#   2]+0.037*[#  11]+0.037*[#  15]+0.021*[#  13]+0.021*[#  14]
          +0.021*[#  17]+0.021*[#  18]+0.008*[#  12]+0.008*[#  16]+0.004*[#   1]
          +0.002*[#   6]
    |psi|^2 = 0.719
==== e(  26) =    19.89004 eV ==== 
     psi = 0.003*[#  20]+0.001*[#  13]+0.001*[#  14]+0.001*[#  17]+0.001*[#  18]
          
    |psi|^2 = 0.011
==== e(  27) =    20.78231 eV ==== 
     psi = 0.008*[#   2]+0.001*[#  13]+0.001*[#  14]+0.001*[#  17]+0.001*[#  18]
          
    |psi|^2 = 0.017

 k =   0.3409090909  0.1968239554  0.0000000000
==== e(   1) =   -87.54423 eV ==== 
     psi = 0.981*[#   1]+0.003*[#  20]+0.002*[#  13]+0.002*[#  14]+0.002*[#  17]
          +0.002*[#  18]+0.001*[#   2]+0.001*[#  12]+0.001*[#  16]
    |psi|^2 = 1.000
==== e(   2) =   -50.82868 eV ==== 
     psi = 0.497*[#   4]+0.497*[#   5]+0.001*[#   2]+0.001*[#  12]+0.001*[#  16]
          
    |psi|^2 = 1.000
==== e(   3) =   -50.79496 eV ==== 
     psi = 0.499*[#   4]+0.499*[#   5]
    |psi|^2 = 1.000
==== e(   4) =   -50.77549 eV ==== 
     psi = 0.997*[#   3]
    |psi|^2 = 1.000
==== e(   5) =   -46.01899 eV ==== 
     psi = 0.997*[#  19]+0.001*[#  20]
    |psi|^2 = 1.000
==== e(   6) =   -18.09633 eV ==== 
     psi = 0.498*[#  22]+0.498*[#  23]+0.004*[#  20]
    |psi|^2 = 1.000
==== e(   7) =   -17.92121 eV ==== 
     psi = 0.500*[#  22]+0.500*[#  23]
    |psi|^2 = 1.000
==== e(   8) =   -17.81516 eV ==== 
     psi = 0.999*[#  21]
    |psi|^2 = 1.000
==== e(   9) =   -10.91407 eV ==== 
     psi = 0.414*[#  11]+0.414*[#  15]+0.122*[#   2]+0.017*[#  20]+0.006*[#  12]
[...]
==== e(   7) =   -17.88081 eV ==== 
     psi = 0.500*[#  22]+0.500*[#  23]
    |psi|^2 = 1.000
==== e(   8) =   -17.85431 eV ==== 
     psi = 0.999*[#  21]
    |psi|^2 = 1.000
==== e(   9) =   -11.86244 eV ==== 
     psi = 0.318*[#  11]+0.318*[#  15]+0.285*[#   2]+0.047*[#  20]+0.010*[#   1]
          +0.007*[#  12]+0.007*[#  16]+0.004*[#   6]
    |psi|^2 = 0.999
==== e(  10) =   -10.09907 eV ==== 
     psi = 0.492*[#  11]+0.492*[#  15]+0.002*[#   3]+0.002*[#  12]+0.002*[#  16]
          +0.001*[#   7]+0.001*[#   8]
    |psi|^2 = 0.995
==== e(  11) =     1.58959 eV ==== 
     psi = 0.308*[#  12]+0.308*[#  16]+0.191*[#   6]+0.148*[#  20]+0.015*[#   2]
          +0.009*[#  11]+0.009*[#  15]+0.006*[#  19]+0.002*[#   1]
    |psi|^2 = 0.998
==== e(  12) =     2.51167 eV ==== 
     psi = 0.167*[#   9]+0.167*[#  10]+0.130*[#  13]+0.130*[#  14]+0.130*[#  17]
          +0.130*[#  18]+0.049*[#   7]+0.049*[#   8]+0.023*[#  12]+0.023*[#  16]
          
    |psi|^2 = 0.996
==== e(  13) =     2.64614 eV ==== 
     psi = 0.170*[#   9]+0.170*[#  10]+0.135*[#  13]+0.135*[#  14]+0.135*[#  17]
          +0.135*[#  18]+0.060*[#   7]+0.060*[#   8]
    |psi|^2 = 0.998
==== e(  14) =     5.05054 eV ==== 
     psi = 0.448*[#  12]+0.448*[#  16]+0.010*[#   7]+0.010*[#   8]+0.010*[#  13]
          +0.010*[#  14]+0.010*[#  17]+0.010*[#  18]+0.002*[#  11]+0.002*[#  15]
          +0.002*[#   9]+0.002*[#  10]
    |psi|^2 = 0.963
==== e(  15) =     5.51066 eV ==== 
     psi = 0.207*[#  13]+0.207*[#  14]+0.207*[#  17]+0.207*[#  18]+0.041*[#   7]
          +0.041*[#   8]+0.030*[#  20]+0.011*[#   9]+0.011*[#  10]+0.009*[#  11]
          +0.009*[#  15]+0.006*[#   2]+0.002*[#   1]+0.001*[#   6]+0.001*[#  19]
          +0.001*[#  12]+0.001*[#  16]
    |psi|^2 = 0.994
==== e(  16) =     5.70320 eV ==== 
     psi = 0.209*[#  13]+0.209*[#  14]+0.209*[#  17]+0.209*[#  18]+0.059*[#   7]
          +0.059*[#   8]+0.016*[#   9]+0.016*[#  10]+0.004*[#  12]+0.004*[#  16]
          
    |psi|^2 = 0.994
==== e(  17) =     6.45075 eV ==== 
     psi = 0.618*[#  20]+0.231*[#   6]+0.022*[#  11]+0.022*[#  15]+0.021*[#  19]
          +0.013*[#   2]+0.008*[#   7]+0.008*[#   8]+0.006*[#  12]+0.006*[#  16]
          +0.005*[#   1]+0.004*[#  13]+0.004*[#  14]+0.004*[#  17]+0.004*[#  18]
          +0.003*[#   9]+0.003*[#  10]
    |psi|^2 = 0.978
==== e(  18) =     6.84170 eV ==== 
     psi = 0.294*[#   7]+0.294*[#   8]+0.141*[#   9]+0.141*[#  10]+0.026*[#  13]
          +0.026*[#  14]+0.026*[#  17]+0.026*[#  18]+0.014*[#   6]+0.003*[#   2]
          +0.002*[#  20]
    |psi|^2 = 0.998
==== e(  19) =     6.85718 eV ==== 
     psi = 0.286*[#   7]+0.286*[#   8]+0.133*[#   9]+0.133*[#  10]+0.039*[#  13]
          +0.039*[#  14]+0.039*[#  17]+0.039*[#  18]+0.002*[#  12]+0.002*[#  16]
          
    |psi|^2 = 0.997
==== e(  20) =     8.15886 eV ==== 
     psi = 0.548*[#   6]+0.128*[#  12]+0.128*[#  16]+0.088*[#  20]+0.019*[#  11]
          +0.019*[#  15]+0.017*[#   2]+0.007*[#  13]+0.007*[#  14]+0.007*[#  17]
          +0.007*[#  18]+0.004*[#   1]+0.003*[#  19]+0.001*[#   9]+0.001*[#  10]
          
    |psi|^2 = 0.985
==== e(  21) =     9.97199 eV ==== 
     psi = 0.178*[#   9]+0.178*[#  10]+0.109*[#  13]+0.109*[#  14]+0.109*[#  17]
          +0.109*[#  18]+0.094*[#   7]+0.094*[#   8]+0.002*[#  11]+0.002*[#  15]
          
    |psi|^2 = 0.983
==== e(  22) =    10.10563 eV ==== 
     psi = 0.174*[#   9]+0.174*[#  10]+0.114*[#  13]+0.114*[#  14]+0.114*[#  17]
          +0.114*[#  18]+0.096*[#   7]+0.096*[#   8]
    |psi|^2 = 0.995
==== e(  23) =    13.26393 eV ==== 
     psi = 0.019*[#  12]+0.019*[#  16]+0.003*[#   9]+0.003*[#  10]+0.001*[#  13]
          +0.001*[#  14]+0.001*[#  17]+0.001*[#  18]
    |psi|^2 = 0.050
==== e(  24) =    15.44502 eV ==== 
     psi = 0.555*[#   2]+0.110*[#  11]+0.110*[#  15]+0.025*[#  12]+0.025*[#  16]
          +0.006*[#   6]+0.003*[#  13]+0.003*[#  14]+0.003*[#  17]+0.003*[#  18]
          
    |psi|^2 = 0.846
==== e(  25) =    18.27542 eV ==== 

    |psi|^2 = 0.004
==== e(  26) =    22.07194 eV ==== 
     psi = 0.093*[#   2]+0.023*[#  20]+0.018*[#  12]+0.018*[#  16]+0.010*[#  11]
          +0.010*[#  15]+0.002*[#   6]
    |psi|^2 = 0.174
==== e(  27) =    23.38967 eV ==== 

    |psi|^2 = 0.001

 k =   0.0266666667  0.0461880215  0.0000000000
==== e(   1) =   -87.34651 eV ==== 
     psi = 0.976*[#   1]+0.008*[#  20]+0.006*[#   2]+0.004*[#  12]+0.004*[#  16]
          
    |psi|^2 = 1.000
==== e(   2) =   -50.60013 eV ==== 
     psi = 0.499*[#   4]+0.499*[#   5]
    |psi|^2 = 1.000
==== e(   3) =   -50.59910 eV ==== 
     psi = 0.499*[#   4]+0.499*[#   5]
    |psi|^2 = 1.000
==== e(   4) =   -50.56290 eV ==== 
     psi = 0.998*[#   3]
    |psi|^2 = 1.000
==== e(   5) =   -46.05028 eV ==== 
     psi = 0.965*[#  19]+0.034*[#  20]
    |psi|^2 = 1.000
==== e(   6) =   -17.88422 eV ==== 
     psi = 0.500*[#  22]+0.500*[#  23]
    |psi|^2 = 1.000
==== e(   7) =   -17.87913 eV ==== 
     psi = 0.500*[#  22]+0.500*[#  23]
    |psi|^2 = 1.000
==== e(   8) =   -17.85559 eV ==== 
     psi = 0.999*[#  21]
    |psi|^2 = 1.000
==== e(   9) =   -11.89214 eV ==== 
     psi = 0.315*[#  11]+0.315*[#  15]+0.289*[#   2]+0.048*[#  20]+0.010*[#   1]
          +0.007*[#  12]+0.007*[#  16]+0.004*[#   6]
    |psi|^2 = 0.999
==== e(  10) =   -10.09994 eV ==== 
     psi = 0.493*[#  11]+0.493*[#  15]+0.002*[#   3]+0.002*[#  12]+0.002*[#  16]
          
    |psi|^2 = 0.995
==== e(  11) =     1.54909 eV ==== 
     psi = 0.306*[#  12]+0.306*[#  16]+0.192*[#   6]+0.151*[#  20]+0.015*[#   2]
          +0.009*[#  11]+0.009*[#  15]+0.006*[#  19]+0.002*[#   1]
    |psi|^2 = 0.998
==== e(  12) =     2.56624 eV ==== 
     psi = 0.171*[#   9]+0.171*[#  10]+0.132*[#  13]+0.132*[#  14]+0.132*[#  17]
          +0.132*[#  18]+0.053*[#   7]+0.053*[#   8]+0.011*[#  12]+0.011*[#  16]
          
    |psi|^2 = 0.997
==== e(  13) =     2.62884 eV ==== 
     psi = 0.172*[#   9]+0.172*[#  10]+0.134*[#  13]+0.134*[#  14]+0.134*[#  17]
          +0.134*[#  18]+0.058*[#   7]+0.058*[#   8]
    |psi|^2 = 0.998
==== e(  14) =     4.97686 eV ==== 
     psi = 0.464*[#  12]+0.464*[#  16]+0.004*[#  13]+0.004*[#  14]+0.004*[#  17]
          +0.004*[#  18]+0.004*[#   7]+0.004*[#   8]+0.002*[#  11]+0.002*[#  15]
          +0.001*[#   9]+0.001*[#  10]
    |psi|^2 = 0.960
==== e(  15) =     5.71072 eV ==== 
     psi = 0.220*[#  13]+0.220*[#  14]+0.220*[#  17]+0.220*[#  18]+0.028*[#   7]
          +0.028*[#   8]+0.024*[#  20]+0.008*[#   9]+0.008*[#  10]+0.006*[#  11]
          +0.006*[#  15]+0.003*[#   2]+0.001*[#   1]
    |psi|^2 = 0.994
==== e(  16) =     5.81001 eV ==== 
     psi = 0.225*[#  13]+0.225*[#  14]+0.225*[#  17]+0.225*[#  18]+0.036*[#   7]
          +0.036*[#   8]+0.010*[#   9]+0.010*[#  10]
    |psi|^2 = 0.994
==== e(  17) =     6.39144 eV ==== 
     psi = 0.628*[#  20]+0.221*[#   6]+0.023*[#  11]+0.023*[#  15]+0.023*[#  19]
          +0.012*[#   2]+0.007*[#  12]+0.007*[#  16]+0.005*[#   1]+0.004*[#  13]
          +0.004*[#  14]+0.004*[#  17]+0.004*[#  18]+0.004*[#   7]+0.004*[#   8]
          +0.001*[#   9]+0.001*[#  10]
    |psi|^2 = 0.978
==== e(  18) =     6.77240 eV ==== 
     psi = 0.315*[#   7]+0.315*[#   8]+0.141*[#   9]+0.141*[#  10]+0.019*[#  13]
          +0.019*[#  14]+0.019*[#  17]+0.019*[#  18]+0.005*[#   6]+0.001*[#  20]
          
    |psi|^2 = 0.998
==== e(  19) =     6.77311 eV ==== 
     psi = 0.313*[#   7]+0.313*[#   8]+0.138*[#   9]+0.138*[#  10]+0.024*[#  13]
          +0.024*[#  14]+0.024*[#  17]+0.024*[#  18]
    |psi|^2 = 0.997
==== e(  20) =     8.13115 eV ==== 
     psi = 0.568*[#   6]+0.127*[#  12]+0.127*[#  16]+0.080*[#  20]+0.021*[#   2]
          +0.020*[#  11]+0.020*[#  15]+0.004*[#   1]+0.004*[#  13]+0.004*[#  14]
          +0.004*[#  17]+0.004*[#  18]+0.003*[#  19]
    |psi|^2 = 0.986
==== e(  21) =    10.06298 eV ==== 
     psi = 0.178*[#   9]+0.178*[#  10]+0.112*[#  13]+0.112*[#  14]+0.112*[#  17]
          +0.112*[#  18]+0.092*[#   7]+0.092*[#   8]
    |psi|^2 = 0.989
==== e(  22) =    10.12573 eV ==== 
     psi = 0.176*[#   9]+0.176*[#  10]+0.114*[#  13]+0.114*[#  14]+0.114*[#  17]
          +0.114*[#  18]+0.093*[#   7]+0.093*[#   8]
    |psi|^2 = 0.995
==== e(  23) =    13.20818 eV ==== 
     psi = 0.020*[#  12]+0.020*[#  16]+0.001*[#   9]+0.001*[#  10]
    |psi|^2 = 0.046
==== e(  24) =    15.33352 eV ==== 
     psi = 0.555*[#   2]+0.114*[#  11]+0.114*[#  15]+0.026*[#  12]+0.026*[#  16]
          +0.007*[#   6]+0.001*[#  13]+0.001*[#  14]+0.001*[#  17]+0.001*[#  18]
          
    |psi|^2 = 0.848
==== e(  25) =    18.15967 eV ==== 

    |psi|^2 = 0.003
==== e(  26) =    22.09239 eV ==== 
     psi = 0.091*[#   2]+0.023*[#  20]+0.018*[#  12]+0.018*[#  16]+0.010*[#  11]
          +0.010*[#  15]+0.002*[#   6]
    |psi|^2 = 0.172
==== e(  27) =    24.04509 eV ==== 

    |psi|^2 = 0.001

 k =   0.0133333333  0.0230940108  0.0000000000
==== e(   1) =   -87.34657 eV ==== 
     psi = 0.976*[#   1]+0.008*[#  20]+0.006*[#   2]+0.004*[#  12]+0.004*[#  16]
          
    |psi|^2 = 1.000
==== e(   2) =   -50.59910 eV ==== 
     psi = 0.499*[#   4]+0.499*[#   5]
    |psi|^2 = 1.000
==== e(   3) =   -50.59884 eV ==== 
     psi = 0.499*[#   4]+0.499*[#   5]
    |psi|^2 = 1.000
==== e(   4) =   -50.56298 eV ==== 
     psi = 0.998*[#   3]
    |psi|^2 = 1.000
==== e(   5) =   -46.05079 eV ==== 
     psi = 0.964*[#  19]+0.035*[#  20]
    |psi|^2 = 1.000
==== e(   6) =   -17.87932 eV ==== 
     psi = 0.500*[#  22]+0.500*[#  23]
    |psi|^2 = 1.000
==== e(   7) =   -17.87803 eV ==== 
     psi = 0.500*[#  22]+0.500*[#  23]
    |psi|^2 = 1.000
==== e(   8) =   -17.85624 eV ==== 
     psi = 0.999*[#  21]
    |psi|^2 = 1.000
==== e(   9) =   -11.91010 eV ==== 
     psi = 0.314*[#  11]+0.314*[#  15]+0.292*[#   2]+0.048*[#  20]+0.011*[#   1]
          +0.007*[#  12]+0.007*[#  16]+0.004*[#   6]
    |psi|^2 = 0.999
==== e(  10) =   -10.10050 eV ==== 
     psi = 0.494*[#  11]+0.494*[#  15]+0.002*[#   3]+0.002*[#  12]+0.002*[#  16]
          
    |psi|^2 = 0.995
==== e(  11) =     1.52460 eV ==== 
     psi = 0.305*[#  12]+0.305*[#  16]+0.193*[#   6]+0.153*[#  20]+0.015*[#   2]
          +0.009*[#  11]+0.009*[#  15]+0.007*[#  19]+0.002*[#   1]
    |psi|^2 = 0.998
==== e(  12) =     2.60210 eV ==== 
     psi = 0.174*[#   9]+0.174*[#  10]+0.133*[#  13]+0.133*[#  14]+0.133*[#  17]
          +0.133*[#  18]+0.056*[#   7]+0.056*[#   8]+0.003*[#  12]+0.003*[#  16]
          
    |psi|^2 = 0.998
==== e(  13) =     2.61821 eV ==== 
     psi = 0.174*[#   9]+0.174*[#  10]+0.134*[#  13]+0.134*[#  14]+0.134*[#  17]
          +0.134*[#  18]+0.058*[#   7]+0.058*[#   8]
    |psi|^2 = 0.998
==== e(  14) =     4.92812 eV ==== 
     psi = 0.473*[#  12]+0.473*[#  16]+0.002*[#  11]+0.002*[#  15]+0.001*[#   7]
          +0.001*[#   8]+0.001*[#  13]+0.001*[#  14]+0.001*[#  17]+0.001*[#  18]
          
    |psi|^2 = 0.959
==== e(  15) =     5.85791 eV ==== 
     psi = 0.237*[#  13]+0.237*[#  14]+0.237*[#  17]+0.237*[#  18]+0.011*[#  20]
          +0.011*[#   7]+0.011*[#   8]+0.003*[#   9]+0.003*[#  10]+0.002*[#  11]
          +0.002*[#  15]
    |psi|^2 = 0.994
==== e(  16) =     5.88683 eV ==== 
     psi = 0.241*[#  13]+0.241*[#  14]+0.241*[#  17]+0.241*[#  18]+0.012*[#   7]
          +0.012*[#   8]+0.003*[#   9]+0.003*[#  10]
    |psi|^2 = 0.994
==== e(  17) =     6.35026 eV ==== 
     psi = 0.644*[#  20]+0.212*[#   6]+0.025*[#  11]+0.025*[#  15]+0.024*[#  19]
          +0.011*[#   2]+0.008*[#  12]+0.008*[#  16]+0.006*[#   1]+0.003*[#  13]
          +0.003*[#  14]+0.003*[#  17]+0.003*[#  18]
    |psi|^2 = 0.977
==== e(  18) =     6.71095 eV ==== 
     psi = 0.339*[#   7]+0.339*[#   8]+0.144*[#   9]+0.144*[#  10]+0.008*[#  13]
          +0.008*[#  14]+0.008*[#  17]+0.008*[#  18]
    |psi|^2 = 0.998
==== e(  19) =     6.71246 eV ==== 
     psi = 0.339*[#   7]+0.339*[#   8]+0.144*[#   9]+0.144*[#  10]+0.008*[#  13]
          +0.008*[#  14]+0.008*[#  17]+0.008*[#  18]
    |psi|^2 = 0.998
==== e(  20) =     8.11278 eV ==== 
     psi = 0.580*[#   6]+0.127*[#  12]+0.127*[#  16]+0.075*[#  20]+0.023*[#   2]
          +0.021*[#  11]+0.021*[#  15]+0.004*[#   1]+0.003*[#  19]
    |psi|^2 = 0.986
==== e(  21) =    10.12175 eV ==== 
     psi = 0.178*[#   9]+0.178*[#  10]+0.114*[#  13]+0.114*[#  14]+0.114*[#  17]
          +0.114*[#  18]+0.091*[#   7]+0.091*[#   8]
    |psi|^2 = 0.994
==== e(  22) =    10.13798 eV ==== 
     psi = 0.177*[#   9]+0.177*[#  10]+0.115*[#  13]+0.115*[#  14]+0.115*[#  17]
          +0.115*[#  18]+0.091*[#   7]+0.091*[#   8]
    |psi|^2 = 0.995
==== e(  23) =    13.17280 eV ==== 
     psi = 0.020*[#  12]+0.020*[#  16]
    |psi|^2 = 0.042
==== e(  24) =    15.26530 eV ==== 
     psi = 0.555*[#   2]+0.116*[#  11]+0.116*[#  15]+0.027*[#  12]+0.027*[#  16]
          +0.007*[#   6]
    |psi|^2 = 0.849
==== e(  25) =    18.08842 eV ==== 

    |psi|^2 = 0.002
==== e(  26) =    22.10289 eV ==== 
     psi = 0.090*[#   2]+0.023*[#  20]+0.018*[#  12]+0.018*[#  16]+0.010*[#  11]
          +0.010*[#  15]+0.002*[#   6]
    |psi|^2 = 0.171
==== e(  27) =    24.59845 eV ==== 

    |psi|^2 = 0.000

 k =   0.0000000000  0.0000000000  0.0000000000
==== e(   1) =   -87.34659 eV ==== 
     psi = 0.976*[#   1]+0.008*[#  20]+0.006*[#   2]+0.004*[#  12]+0.004*[#  16]
          
    |psi|^2 = 1.000
==== e(   2) =   -50.59876 eV ==== 
     psi = 0.499*[#   4]+0.499*[#   5]
    |psi|^2 = 1.000
==== e(   3) =   -50.59876 eV ==== 
     psi = 0.499*[#   4]+0.499*[#   5]
    |psi|^2 = 1.000
==== e(   4) =   -50.56300 eV ==== 
     psi = 0.998*[#   3]
    |psi|^2 = 1.000
==== e(   5) =   -46.05096 eV ==== 
     psi = 0.964*[#  19]+0.036*[#  20]
    |psi|^2 = 1.000
==== e(   6) =   -17.87768 eV ==== 
     psi = 0.500*[#  22]+0.500*[#  23]
    |psi|^2 = 1.000
==== e(   7) =   -17.87768 eV ==== 
     psi = 0.500*[#  22]+0.500*[#  23]
    |psi|^2 = 1.000
==== e(   8) =   -17.85645 eV ==== 
     psi = 0.999*[#  21]
    |psi|^2 = 1.000
==== e(   9) =   -11.91611 eV ==== 
     psi = 0.314*[#  11]+0.314*[#  15]+0.293*[#   2]+0.049*[#  20]+0.011*[#   1]
          +0.007*[#  12]+0.007*[#  16]+0.004*[#   6]
    |psi|^2 = 0.999
==== e(  10) =   -10.10069 eV ==== 
     psi = 0.494*[#  11]+0.494*[#  15]+0.002*[#   3]+0.002*[#  12]+0.002*[#  16]
          
    |psi|^2 = 0.995
==== e(  11) =     1.51640 eV ==== 
     psi = 0.305*[#  12]+0.305*[#  16]+0.193*[#   6]+0.154*[#  20]+0.015*[#   2]
          +0.009*[#  11]+0.009*[#  15]+0.007*[#  19]+0.002*[#   1]
    |psi|^2 = 0.998
==== e(  12) =     2.61462 eV ==== 
     psi = 0.175*[#   9]+0.175*[#  10]+0.134*[#  13]+0.134*[#  14]+0.134*[#  17]
          +0.134*[#  18]+0.057*[#   7]+0.057*[#   8]
    |psi|^2 = 0.998
==== e(  13) =     2.61462 eV ==== 
     psi = 0.175*[#   9]+0.175*[#  10]+0.134*[#  13]+0.134*[#  14]+0.134*[#  17]
          +0.134*[#  18]+0.057*[#   7]+0.057*[#   8]
    |psi|^2 = 0.998
==== e(  14) =     4.91109 eV ==== 
     psi = 0.477*[#  12]+0.477*[#  16]+0.002*[#  11]+0.002*[#  15]
    |psi|^2 = 0.958
==== e(  15) =     5.91553 eV ==== 
     psi = 0.248*[#  13]+0.248*[#  14]+0.248*[#  17]+0.248*[#  18]
    |psi|^2 = 0.994
==== e(  16) =     5.91553 eV ==== 
     psi = 0.248*[#  13]+0.248*[#  14]+0.248*[#  17]+0.248*[#  18]
    |psi|^2 = 0.994
==== e(  17) =     6.33372 eV ==== 
     psi = 0.656*[#  20]+0.208*[#   6]+0.027*[#  11]+0.027*[#  15]+0.025*[#  19]
          +0.010*[#   2]+0.009*[#  12]+0.009*[#  16]+0.006*[#   1]
    |psi|^2 = 0.977
==== e(  18) =     6.68724 eV ==== 
     psi = 0.351*[#   7]+0.351*[#   8]+0.147*[#   9]+0.147*[#  10]
    |psi|^2 = 0.998
==== e(  19) =     6.68724 eV ==== 
     psi = 0.351*[#   7]+0.351*[#   8]+0.147*[#   9]+0.147*[#  10]
    |psi|^2 = 0.998
==== e(  20) =     8.10633 eV ==== 
     psi = 0.584*[#   6]+0.127*[#  12]+0.127*[#  16]+0.073*[#  20]+0.024*[#   2]
          +0.022*[#  11]+0.022*[#  15]+0.004*[#   1]+0.003*[#  19]
    |psi|^2 = 0.986
==== e(  21) =    10.14208 eV ==== 
     psi = 0.178*[#   9]+0.178*[#  10]+0.115*[#  13]+0.115*[#  14]+0.115*[#  17]
          +0.115*[#  18]+0.090*[#   7]+0.090*[#   8]
    |psi|^2 = 0.995
==== e(  22) =    10.14208 eV ==== 
     psi = 0.178*[#   9]+0.178*[#  10]+0.115*[#  13]+0.115*[#  14]+0.115*[#  17]
          +0.115*[#  18]+0.090*[#   7]+0.090*[#   8]
    |psi|^2 = 0.995
==== e(  23) =    13.16064 eV ==== 
     psi = 0.020*[#  12]+0.020*[#  16]
    |psi|^2 = 0.041
==== e(  24) =    15.24234 eV ==== 
     psi = 0.555*[#   2]+0.116*[#  11]+0.116*[#  15]+0.027*[#  12]+0.027*[#  16]
          +0.007*[#   6]
    |psi|^2 = 0.849
==== e(  25) =    18.06432 eV ==== 

    |psi|^2 = 0.002
==== e(  26) =    22.10610 eV ==== 
     psi = 0.089*[#   2]+0.023*[#  20]+0.018*[#  12]+0.018*[#  16]+0.010*[#  11]
          +0.010*[#  15]+0.002*[#   6]
    |psi|^2 = 0.171
==== e(  27) =    24.84644 eV ==== 

    |psi|^2 = 0.000

Lowdin Charges: 

     Atom #   1: total charge =  15.7071, s =  2.4785, p =  5.9988, d =  7.2298, 
                 spin up      =   7.9297, s =  1.2397, 
                 spin up      =   7.9297, p =  2.9994, pz=  0.9999, px=  0.9998, py=  0.9998, 
                 spin up      =   7.9297, d =  3.6906, dz2=  0.8471, dxz=  0.6733, dyz=  0.6733, dx2-y2=  0.7484, dxy=  0.7484, 
                 spin down    =   7.7774, s =  1.2388, 
                 spin down    =   7.7774, p =  2.9994, pz=  0.9999, px=  0.9997, py=  0.9997, 
                 spin down    =   7.7774, d =  3.5392, dz2=  0.8074, dxz=  0.6528, dyz=  0.6528, dx2-y2=  0.7131, dxy=  0.7131, 
                 polarization =   0.1523, s =  0.0008, p =  0.0000, d =  0.1514, 
     Atom #   2: total charge =   6.7120, s =  1.8301, p =  4.8819, d =  0.0000, 
                 spin up      =   3.3602, s =  0.9146, 
                 spin up      =   3.3602, p =  2.4456, pz=  0.8363, px=  0.8046, py=  0.8046, 
                 spin up      =   3.3602, d =  0.0000, dz2=  0.0000, dxz=  0.0000, dyz=  0.0000, dx2-y2=  0.0000, dxy=  0.0000, 
                 spin down    =   3.3518, s =  0.9155, 
                 spin down    =   3.3518, p =  2.4363, pz=  0.8298, px=  0.8033, py=  0.8033, 
                 spin down    =   3.3518, d =  0.0000, dz2=  0.0000, dxz=  0.0000, dyz=  0.0000, dx2-y2=  0.0000, dxy=  0.0000, 
                 polarization =   0.0084, s = -0.0009, p =  0.0092, d =  0.0000, 
     Atom #   3: total charge =   6.7120, s =  1.8301, p =  4.8819, d =  0.0000, 
                 spin up      =   3.3602, s =  0.9146, 
                 spin up      =   3.3602, p =  2.4456, pz=  0.8363, px=  0.8046, py=  0.8046, 
                 spin up      =   3.3602, d =  0.0000, dz2=  0.0000, dxz=  0.0000, dyz=  0.0000, dx2-y2=  0.0000, dxy=  0.0000, 
                 spin down    =   3.3518, s =  0.9155, 
                 spin down    =   3.3518, p =  2.4363, pz=  0.8298, px=  0.8033, py=  0.8033, 
                 spin down    =   3.3518, d =  0.0000, dz2=  0.0000, dxz=  0.0000, dyz=  0.0000, dx2-y2=  0.0000, dxy=  0.0000, 
                 polarization =   0.0084, s = -0.0009, p =  0.0092, d =  0.0000, 
     Atom #   4: total charge =   8.6956, s =  2.6985, p =  5.9971, d =  0.0000, 
                 spin up      =   4.3344, s =  1.3359, 
                 spin up      =   4.3344, p =  2.9985, pz=  0.9997, px=  0.9994, py=  0.9994, 
                 spin up      =   4.3344, d =  0.0000, dz2=  0.0000, dxz=  0.0000, dyz=  0.0000, dx2-y2=  0.0000, dxy=  0.0000, 
                 spin down    =   4.3612, s =  1.3626, 
                 spin down    =   4.3612, p =  2.9986, pz=  0.9997, px=  0.9994, py=  0.9994, 
                 spin down    =   4.3612, d =  0.0000, dz2=  0.0000, dxz=  0.0000, dyz=  0.0000, dx2-y2=  0.0000, dxy=  0.0000, 
                 polarization =  -0.0268, s = -0.0267, p = -0.0001, d =  0.0000, 
     Spilling Parameter:   0.0046

     PROJWFC      :      7.13s CPU      3.91s WALL


   This run was terminated on:   6:28:57  12Jul2026            

=------------------------------------------------------------------------------=
   JOB DONE.
=------------------------------------------------------------------------------=
