
     Program PWSCF v.7.3.1 starts on 12Jul2026 at  5:42:39 

     This program is part of the open-source Quantum ESPRESSO suite
     for quantum simulation of materials; please cite
         "P. Giannozzi et al., J. Phys.:Condens. Matter 21 395502 (2009);
         "P. Giannozzi et al., J. Phys.:Condens. Matter 29 465901 (2017);
         "P. Giannozzi et al., J. Chem. Phys. 152 154105 (2020);
          URL http://www.quantum-espresso.org", 
     in publications or presentations arising from this work. More details at
     http://www.quantum-espresso.org/quote

     Parallel version (MPI & OpenMP), running on      14 processor cores
     Number of MPI processes:                 1
     Threads/MPI process:                    14

     MPI processes distributed on     1 nodes
     1367836 MiB available memory on the printing compute node when the environment starts
 
     Reading input from pw.in

     Current dimensions of program PWSCF are:
     Max number of different atomic species (ntypx) = 10
     Max number of k-points (npk) =  40000
     Max angular momentum in pseudopotentials (lmaxx) =  4
     file Co.pbe-spn-kjpaw_psl.0.3.1.UPF: wavefunction(s)  3P 3D renormalized
     file O.pbe-n-kjpaw_psl.1.0.0.UPF: wavefunction(s)  2S 2P renormalized
     file Na.pbe-spn-kjpaw_psl.1.0.0.UPF: wavefunction(s)  2P renormalized
     file H.pbe-kjpaw_psl.1.0.0.UPF: wavefunction(s)  1S renormalized
 
     Subspace diagonalization in iterative solution of the eigenvalue problem:
     a serial algorithm will be used

 
     G-vector sticks info
     --------------------
     sticks:   dense  smooth     PW     G-vecs:    dense   smooth      PW
     Sum        2941    1483    421               256907    90927   13645
 
     Using Slab Decomposition
 


     bravais-lattice index     =            4
     lattice parameter (alat)  =       9.4527  a.u.
     unit-cell volume          =    1447.6983 (a.u.)^3
     number of atoms/cell      =           22
     number of atomic types    =            4
     number of electrons       =       128.00
     number of Kohn-Sham states=           85
     kinetic-energy cutoff     =      60.0000  Ry
     charge density cutoff     =     480.0000  Ry
     scf convergence threshold =      1.0E-07
     mixing beta               =       0.3000
     number of iterations used =            8  local-TF  mixing
     Exchange-correlation= SLA  PW   PBX  PBC
                           (   1   4   3   4   0   0   0)

     GPU acceleration is ACTIVE.  1 visible GPUs per MPI rank
     GPU-aware MPI enabled


     GPU used by master process:

        Device Number: 0
        Device name: NVIDIA A100-SXM4-80GB
        Compute capability : 80
        Ratio of single to double precision performance  : 2
        Memory Clock Rate (KHz): 1593000
        Memory Bus Width (bits): 5120
        Peak Memory Bandwidth (GB/s): ******

     celldm(1)=   9.452718  celldm(2)=   0.000000  celldm(3)=   1.979144
     celldm(4)=   0.000000  celldm(5)=   0.000000  celldm(6)=   0.000000

     crystal axes: (cart. coord. in units of alat)
               a(1) = (   1.000000   0.000000   0.000000 )  
               a(2) = (  -0.500000   0.866025   0.000000 )  
               a(3) = (   0.000000   0.000000   1.979144 )  

     reciprocal axes: (cart. coord. in units 2 pi/alat)
               b(1) = (  1.000000  0.577350 -0.000000 )  
               b(2) = (  0.000000  1.154701  0.000000 )  
               b(3) = (  0.000000 -0.000000  0.505269 )  


     PseudoPot. # 1 for Co read from file:
     ../../pseudo/Co.pbe-spn-kjpaw_psl.0.3.1.UPF
     MD5 check sum: 3c0a43779828c046024e4f3be63f8e67
     Pseudo is Projector augmented-wave + core cor, Zval = 17.0
     Generated using &quot;atomic&quot; code by A. Dal Corso  v.6.2.2
     Shape of augmentation charge: PSQ
     Using radial grid of 1193 points,  6 beta functions with: 
                l(1) =   0
                l(2) =   0
                l(3) =   1
                l(4) =   1
                l(5) =   2
                l(6) =   2
     Q(r) pseudized with 0 coefficients 


     PseudoPot. # 2 for O  read from file:
     ../../pseudo/O.pbe-n-kjpaw_psl.1.0.0.UPF
     MD5 check sum: e99d9cef9b487d1ca56f5b95ecd0fd7a
     Pseudo is Projector augmented-wave + core cor, Zval =  6.0
     Generated using &quot;atomic&quot; code by A. Dal Corso  v.6.3
     Shape of augmentation charge: PSQ
     Using radial grid of 1095 points,  4 beta functions with: 
                l(1) =   0
                l(2) =   0
                l(3) =   1
                l(4) =   1
     Q(r) pseudized with 0 coefficients 


     PseudoPot. # 3 for Na read from file:
     ../../pseudo/Na.pbe-spn-kjpaw_psl.1.0.0.UPF
     MD5 check sum: 05b4deb74e3932c23ab016979dc8b5d4
     Pseudo is Projector augmented-wave + core cor, Zval =  9.0
     Generated using &quot;atomic&quot; code by A. Dal Corso  v.6.3
     Shape of augmentation charge: PSQ
     Using radial grid of 1121 points,  4 beta functions with: 
                l(1) =   0
                l(2) =   0
                l(3) =   1
                l(4) =   1
     Q(r) pseudized with 0 coefficients 


     PseudoPot. # 4 for H  read from file:
     ../../pseudo/H.pbe-kjpaw_psl.1.0.0.UPF
     MD5 check sum: d81a744832360e4a8af0b0b5b123bc2a
     Pseudo is Projector augmented-wave, Zval =  1.0
     Generated using &quot;atomic&quot; code by A. Dal Corso  v.6.3MaX
     Shape of augmentation charge: PSQ
     Using radial grid of  929 points,  2 beta functions with: 
                l(1) =   0
                l(2) =   0
     Q(r) pseudized with 0 coefficients 


     atomic species   valence    mass     pseudopotential
     Co               17.00    58.93300     Co( 1.00)
     O                 6.00    15.99900     O ( 1.00)
     Na                9.00    22.98977     Na( 1.00)
     H                 1.00     1.00800     H ( 1.00)

     Starting magnetic structure 
     atomic species   magnetization
     Co              0.300
     O               0.000
     Na              0.000
     H               0.000

     No symmetry found


                                    s                        frac. trans.

      isym =  1     identity                                     

 cryst.   s( 1) = (     1          0          0      )
                  (     0          1          0      )
                  (     0          0          1      )

 cart.    s( 1) = (  1.0000000  0.0000000  0.0000000 )
                  (  0.0000000  1.0000000  0.0000000 )
                  (  0.0000000  0.0000000  1.0000000 )


     point group C_1 (1)    
     there are  1 classes
     the character table:

       E    
A      1.00

     the symmetry operations in each class and the name of the first element:

     E        1
          identity                                               

   Cartesian axes

     site n.     atom                  positions (alat units)
         1        Co     tau(   1) = (   0.0000000   0.0000000   0.0000000  )
         2        Co     tau(   2) = (  -0.0000000   0.5773503   0.0000000  )
         3        Co     tau(   3) = (   0.5000000   0.2886751   0.0000000  )
         4        O      tau(   4) = (   0.1666667   0.2886751   0.1919170  )
         5        O      tau(   5) = (   0.6666667   0.0000000   0.1919170  )
         6        O      tau(   6) = (  -0.3333333   0.5773503   0.1919170  )
         7        O      tau(   7) = (   0.3333333   0.0000000   1.7872269  )
         8        O      tau(   8) = (   0.3333333   0.5773503   1.7872269  )
         9        O      tau(   9) = (  -0.1666667   0.2886751   1.7872269  )
        10        Na     tau(  10) = (   0.0000000   0.0000000   0.9895720  )
        11        O      tau(  11) = (   0.3333333   0.0000000   0.7496757  )
        12        H      tau(  12) = (   0.5188487   0.0262772   0.7885490  )
        13        H      tau(  13) = (  -0.1727349   0.8397482   0.5602285  )
        14        O      tau(  14) = (  -0.1666667   0.2886751   0.7496757  )
        15        H      tau(  15) = (   0.7178189   0.4361976   0.7885490  )
        16        H      tau(  16) = (  -0.1408758   0.2965585   0.5602285  )
        17        O      tau(  17) = (  -0.0000000   0.5773503   1.2294682  )
        18        H      tau(  18) = (  -0.0756623   0.7513118   1.2043644  )
        19        H      tau(  19) = (   0.0756623   0.5828359   1.4051461  )
        20        O      tau(  20) = (   0.5000000   0.2886751   1.2294682  )
        21        H      tau(  21) = (   0.6128239   0.4411814   1.2043644  )
        22        H      tau(  22) = (   0.5425818   0.2258925   1.4051461  )

   Crystallographic axes

     site n.     atom                  positions (cryst. coord.)
         1        Co     tau(   1) = (  0.0000000  0.0000000  0.0000000  )
         2        Co     tau(   2) = (  0.3333333  0.6666667  0.0000000  )
         3        Co     tau(   3) = (  0.6666667  0.3333333  0.0000000  )
         4        O      tau(   4) = (  0.3333333  0.3333333  0.0969697  )
         5        O      tau(   5) = (  0.6666667  0.0000000  0.0969697  )
         6        O      tau(   6) = (  0.0000000  0.6666667  0.0969697  )
         7        O      tau(   7) = (  0.3333333  0.0000000  0.9030303  )
         8        O      tau(   8) = (  0.6666667  0.6666667  0.9030303  )
         9        O      tau(   9) = ( -0.0000000  0.3333333  0.9030303  )
        10        Na     tau(  10) = (  0.0000000  0.0000000  0.5000000  )
        11        O      tau(  11) = (  0.3333333  0.0000000  0.3787879  )
        12        H      tau(  12) = (  0.5340199  0.0303423  0.3984293  )
        13        H      tau(  13) = (  0.3120939  0.9696577  0.2830660  )
        14        O      tau(  14) = ( -0.0000000  0.3333333  0.3787879  )
        15        H      tau(  15) = (  0.9696577  0.5036776  0.3984293  )
        16        H      tau(  16) = (  0.0303423  0.3424362  0.2830660  )
        17        O      tau(  17) = (  0.3333333  0.6666667  0.6212121  )
        18        H      tau(  18) = (  0.3581077  0.8675401  0.6085279  )
        19        H      tau(  19) = (  0.4121628  0.6730009  0.7099767  )
        20        O      tau(  20) = (  0.6666667  0.3333333  0.6212121  )
        21        H      tau(  21) = (  0.8675401  0.5094324  0.6085279  )
        22        H      tau(  22) = (  0.6730009  0.2608382  0.7099767  )

     number of k points=    40  Marzari-Vanderbilt smearing, width (Ry)=  0.0200
                       cart. coord. in units 2pi/alat
        k(    1) = (   0.0000000   0.0000000   0.0000000), wk =   0.0138889
        k(    2) = (   0.0000000   0.0000000  -0.2526345), wk =   0.0138889
        k(    3) = (   0.0000000   0.1924501   0.0000000), wk =   0.0277778
        k(    4) = (   0.0000000   0.1924501  -0.2526345), wk =   0.0277778
        k(    5) = (   0.0000000   0.3849002   0.0000000), wk =   0.0277778
        k(    6) = (   0.0000000   0.3849002  -0.2526345), wk =   0.0277778
        k(    7) = (   0.0000000  -0.5773503   0.0000000), wk =   0.0138889
        k(    8) = (   0.0000000  -0.5773503  -0.2526345), wk =   0.0138889
        k(    9) = (   0.1666667   0.2886751   0.0000000), wk =   0.0277778
        k(   10) = (   0.1666667   0.2886751  -0.2526345), wk =   0.0277778
        k(   11) = (   0.1666667   0.4811252   0.0000000), wk =   0.0277778
        k(   12) = (   0.1666667   0.4811252  -0.2526345), wk =   0.0277778
        k(   13) = (   0.3333333   0.5773503   0.0000000), wk =   0.0277778
        k(   14) = (   0.3333333   0.5773503  -0.2526345), wk =   0.0277778
        k(   15) = (  -0.1666667   0.0962250   0.0000000), wk =   0.0277778
        k(   16) = (   0.1666667   0.0962250   0.0000000), wk =   0.0277778
        k(   17) = (  -0.1666667   0.0962250  -0.2526345), wk =   0.0277778
        k(   18) = (   0.1666667   0.0962250  -0.2526345), wk =   0.0277778
        k(   19) = (  -0.3333333   0.1924501   0.0000000), wk =   0.0277778
        k(   20) = (   0.3333333   0.1924501   0.0000000), wk =   0.0277778
        k(   21) = (  -0.3333333   0.1924501  -0.2526345), wk =   0.0277778
        k(   22) = (   0.3333333   0.1924501  -0.2526345), wk =   0.0277778
        k(   23) = (   0.5000000  -0.2886751   0.0000000), wk =   0.0138889
        k(   24) = (  -0.5000000  -0.2886751   0.0000000), wk =   0.0138889
        k(   25) = (   0.5000000  -0.2886751  -0.2526345), wk =   0.0138889
        k(   26) = (  -0.5000000  -0.2886751  -0.2526345), wk =   0.0138889
        k(   27) = (  -0.1666667   0.2886751   0.0000000), wk =   0.0277778
        k(   28) = (   0.3333333   0.0000000   0.0000000), wk =   0.0277778
        k(   29) = (  -0.1666667   0.2886751   0.2526345), wk =   0.0277778
        k(   30) = (   0.3333333   0.0000000  -0.2526345), wk =   0.0277778
        k(   31) = (  -0.1666667   0.4811252   0.0000000), wk =   0.0277778
        k(   32) = (  -0.3333333   0.3849002   0.0000000), wk =   0.0277778
        k(   33) = (   0.5000000   0.0962250   0.0000000), wk =   0.0277778
        k(   34) = (  -0.3333333  -0.3849002   0.0000000), wk =   0.0277778
        k(   35) = (   0.5000000  -0.0962250   0.0000000), wk =   0.0277778
        k(   36) = (  -0.1666667   0.4811252   0.2526345), wk =   0.0277778
        k(   37) = (  -0.3333333   0.3849002  -0.2526345), wk =   0.0277778
        k(   38) = (   0.5000000   0.0962250  -0.2526345), wk =   0.0277778
        k(   39) = (  -0.3333333  -0.3849002   0.2526345), wk =   0.0277778
        k(   40) = (   0.5000000  -0.0962250   0.2526345), wk =   0.0277778

                       cryst. coord.
        k(    1) = (   0.0000000   0.0000000   0.0000000), wk =   0.0138889
        k(    2) = (   0.0000000   0.0000000  -0.5000000), wk =   0.0138889
        k(    3) = (   0.0000000   0.1666667   0.0000000), wk =   0.0277778
        k(    4) = (   0.0000000   0.1666667  -0.5000000), wk =   0.0277778
        k(    5) = (   0.0000000   0.3333333   0.0000000), wk =   0.0277778
        k(    6) = (   0.0000000   0.3333333  -0.5000000), wk =   0.0277778
        k(    7) = (   0.0000000  -0.5000000   0.0000000), wk =   0.0138889
        k(    8) = (   0.0000000  -0.5000000  -0.5000000), wk =   0.0138889
        k(    9) = (   0.1666667   0.1666667   0.0000000), wk =   0.0277778
        k(   10) = (   0.1666667   0.1666667  -0.5000000), wk =   0.0277778
        k(   11) = (   0.1666667   0.3333333   0.0000000), wk =   0.0277778
        k(   12) = (   0.1666667   0.3333333  -0.5000000), wk =   0.0277778
        k(   13) = (   0.3333333   0.3333333   0.0000000), wk =   0.0277778
        k(   14) = (   0.3333333   0.3333333  -0.5000000), wk =   0.0277778
        k(   15) = (  -0.1666667   0.1666667   0.0000000), wk =   0.0277778
        k(   16) = (   0.1666667  -0.0000000   0.0000000), wk =   0.0277778
        k(   17) = (  -0.1666667   0.1666667  -0.5000000), wk =   0.0277778
        k(   18) = (   0.1666667  -0.0000000  -0.5000000), wk =   0.0277778
        k(   19) = (  -0.3333333   0.3333333   0.0000000), wk =   0.0277778
        k(   20) = (   0.3333333  -0.0000000   0.0000000), wk =   0.0277778
        k(   21) = (  -0.3333333   0.3333333  -0.5000000), wk =   0.0277778
        k(   22) = (   0.3333333  -0.0000000  -0.5000000), wk =   0.0277778
        k(   23) = (   0.5000000  -0.5000000   0.0000000), wk =   0.0138889
        k(   24) = (  -0.5000000   0.0000000   0.0000000), wk =   0.0138889
        k(   25) = (   0.5000000  -0.5000000  -0.5000000), wk =   0.0138889
        k(   26) = (  -0.5000000   0.0000000  -0.5000000), wk =   0.0138889
        k(   27) = (  -0.1666667   0.3333333   0.0000000), wk =   0.0277778
        k(   28) = (   0.3333333  -0.1666667   0.0000000), wk =   0.0277778
        k(   29) = (  -0.1666667   0.3333333   0.5000000), wk =   0.0277778
        k(   30) = (   0.3333333  -0.1666667  -0.5000000), wk =   0.0277778
        k(   31) = (  -0.1666667   0.5000000   0.0000000), wk =   0.0277778
        k(   32) = (  -0.3333333   0.5000000   0.0000000), wk =   0.0277778
        k(   33) = (   0.5000000  -0.1666667   0.0000000), wk =   0.0277778
        k(   34) = (  -0.3333333  -0.1666667   0.0000000), wk =   0.0277778
        k(   35) = (   0.5000000  -0.3333333   0.0000000), wk =   0.0277778
        k(   36) = (  -0.1666667   0.5000000   0.5000000), wk =   0.0277778
        k(   37) = (  -0.3333333   0.5000000  -0.5000000), wk =   0.0277778
        k(   38) = (   0.5000000  -0.1666667  -0.5000000), wk =   0.0277778
        k(   39) = (  -0.3333333  -0.1666667   0.5000000), wk =   0.0277778
        k(   40) = (   0.5000000  -0.3333333   0.5000000), wk =   0.0277778

     Dense  grid:   256907 G-vectors     FFT dimensions: (  72,  72, 135)

     Smooth grid:    90927 G-vectors     FFT dimensions: (  48,  48,  96)

     Dynamical RAM for                 wfc:      14.74 MB

     Dynamical RAM for     wfc (w. buffer):    1193.65 MB

     Dynamical RAM for           str. fact:      15.68 MB

     Dynamical RAM for           local pot:       0.00 MB

     Dynamical RAM for          nlocal pot:      27.39 MB

     Dynamical RAM for                qrad:       7.03 MB

     Dynamical RAM for          rho,v,vnew:      55.56 MB

     Dynamical RAM for               rhoin:      18.52 MB

     Dynamical RAM for            rho*nmix:     125.44 MB

     Dynamical RAM for           G-vectors:      15.39 MB

     Dynamical RAM for          h,s,v(r/c):       1.32 MB

     Dynamical RAM for          <psi|beta>:       0.20 MB

     Dynamical RAM for                 psi:      29.47 MB

     Dynamical RAM for                hpsi:      29.47 MB

     Dynamical RAM for                spsi:      29.47 MB

     Dynamical RAM for      wfcinit/wfcrot:      29.64 MB

     Dynamical RAM for           addusdens:     772.26 MB

     Dynamical RAM for          addusforce:     842.90 MB

     Estimated static dynamical RAM per process >       1.35 GB

     Estimated max dynamical RAM per process >       2.30 GB

     Check: negative core charge=   -0.000006
     Generating pointlists ...
     new r_m :   0.1587 (alat units)  1.4998 (a.u.) for type    1
     new r_m :   0.0789 (alat units)  0.7461 (a.u.) for type    2
     new r_m :   0.1694 (alat units)  1.6014 (a.u.) for type    3
     new r_m :   0.0789 (alat units)  0.7461 (a.u.) for type    4

     Initial potential from superposition of free atoms

     starting charge     127.9928, renormalised to     128.0000
     Starting wfcs are   83 randomized atomic wfcs +    2 random wfcs
     Checking if some PAW data can be deallocated... 

     total cpu time spent up to now is        7.7 secs

     Self-consistent Calculation
[tb_dev] Currently allocated     1.27E+00 Mbytes, locked:    0 /   6
[tb_pin] Currently allocated     0.00E+00 Mbytes, locked:    0 /   0

     iteration #  1     ecut=    60.00 Ry     beta= 0.30
     Davidson diagonalization with overlap

---- Real-time Memory Report at c_bands before calling an iterative solver
          1956 MiB given to the printing process from OS
             0 MiB allocation reported by mallinfo(arena+hblkhd)
       1366462 MiB available memory on the node where the printing process lives
     GPU memory used/free/total (MiB): 2068 / 79082 / 81151
------------------
     ethr =  1.00E-02,  avg # of iterations =  8.7

     total cpu time spent up to now is       16.3 secs

     total energy              =   -1664.55245407 Ry
     estimated scf accuracy    <       7.60726753 Ry

     total magnetization       =    14.00 Bohr mag/cell
     absolute magnetization    =    14.01 Bohr mag/cell
[tb_dev] Currently allocated     1.68E-04 Mbytes, locked:    0 /   2
[tb_pin] Currently allocated     0.00E+00 Mbytes, locked:    0 /   0

     iteration #  2     ecut=    60.00 Ry     beta= 0.30
     Davidson diagonalization with overlap

---- Real-time Memory Report at c_bands before calling an iterative solver
          2018 MiB given to the printing process from OS
             0 MiB allocation reported by mallinfo(arena+hblkhd)
       1372514 MiB available memory on the node where the printing process lives
     GPU memory used/free/total (MiB): 2124 / 79026 / 81151
------------------
     ethr =  5.94E-03,  avg # of iterations =  2.0

     total cpu time spent up to now is       21.7 secs

     total energy              =   -1664.76406402 Ry
     estimated scf accuracy    <       1.70144833 Ry

     total magnetization       =    10.75 Bohr mag/cell
     absolute magnetization    =    10.76 Bohr mag/cell
[tb_dev] Currently allocated     1.68E-04 Mbytes, locked:    0 /   2
[tb_pin] Currently allocated     0.00E+00 Mbytes, locked:    0 /   0

     iteration #  3     ecut=    60.00 Ry     beta= 0.30
     Davidson diagonalization with overlap

---- Real-time Memory Report at c_bands before calling an iterative solver
          2043 MiB given to the printing process from OS
             0 MiB allocation reported by mallinfo(arena+hblkhd)
       1371788 MiB available memory on the node where the printing process lives
     GPU memory used/free/total (MiB): 2124 / 79026 / 81151
------------------
     ethr =  1.33E-03,  avg # of iterations =  2.7

     total cpu time spent up to now is       27.7 secs

     total energy              =   -1665.10035971 Ry
     estimated scf accuracy    <       2.40245378 Ry

     total magnetization       =     4.06 Bohr mag/cell
     absolute magnetization    =     4.81 Bohr mag/cell
[tb_dev] Currently allocated     1.68E-04 Mbytes, locked:    0 /   2
[tb_pin] Currently allocated     0.00E+00 Mbytes, locked:    0 /   0

     iteration #  4     ecut=    60.00 Ry     beta= 0.30
     Davidson diagonalization with overlap

---- Real-time Memory Report at c_bands before calling an iterative solver
          2057 MiB given to the printing process from OS
             0 MiB allocation reported by mallinfo(arena+hblkhd)
       1371930 MiB available memory on the node where the printing process lives
     GPU memory used/free/total (MiB): 2124 / 79026 / 81151
------------------
     ethr =  1.33E-03,  avg # of iterations =  1.1

     total cpu time spent up to now is       32.7 secs

     total energy              =   -1665.25443711 Ry
     estimated scf accuracy    <       0.64975855 Ry

     total magnetization       =     6.35 Bohr mag/cell
     absolute magnetization    =     6.56 Bohr mag/cell
[tb_dev] Currently allocated     1.68E-04 Mbytes, locked:    0 /   2
[tb_pin] Currently allocated     0.00E+00 Mbytes, locked:    0 /   0

     iteration #  5     ecut=    60.00 Ry     beta= 0.30
     Davidson diagonalization with overlap

---- Real-time Memory Report at c_bands before calling an iterative solver
          2062 MiB given to the printing process from OS
             0 MiB allocation reported by mallinfo(arena+hblkhd)
       1361771 MiB available memory on the node where the printing process lives
     GPU memory used/free/total (MiB): 2124 / 79026 / 81151
------------------
     ethr =  5.08E-04,  avg # of iterations =  2.3

     total cpu time spent up to now is       38.3 secs

     total energy              =   -1665.34562756 Ry
     estimated scf accuracy    <       0.90370339 Ry

     total magnetization       =     3.41 Bohr mag/cell
     absolute magnetization    =     4.44 Bohr mag/cell
[tb_dev] Currently allocated     1.68E-04 Mbytes, locked:    0 /   2
[tb_pin] Currently allocated     0.00E+00 Mbytes, locked:    0 /   0

     iteration #  6     ecut=    60.00 Ry     beta= 0.30
     Davidson diagonalization with overlap

---- Real-time Memory Report at c_bands before calling an iterative solver
          2070 MiB given to the printing process from OS
             0 MiB allocation reported by mallinfo(arena+hblkhd)
       1350289 MiB available memory on the node where the printing process lives
     GPU memory used/free/total (MiB): 2124 / 79026 / 81151
------------------
     ethr =  5.08E-04,  avg # of iterations =  1.3

     total cpu time spent up to now is       43.5 secs

     total energy              =   -1665.49891038 Ry
     estimated scf accuracy    <       0.37514379 Ry

     total magnetization       =     2.30 Bohr mag/cell
     absolute magnetization    =     3.73 Bohr mag/cell
[tb_dev] Currently allocated     1.68E-04 Mbytes, locked:    0 /   2
[tb_pin] Currently allocated     0.00E+00 Mbytes, locked:    0 /   0

     iteration #  7     ecut=    60.00 Ry     beta= 0.30
     Davidson diagonalization with overlap

---- Real-time Memory Report at c_bands before calling an iterative solver
          2078 MiB given to the printing process from OS
             0 MiB allocation reported by mallinfo(arena+hblkhd)
       1340678 MiB available memory on the node where the printing process lives
     GPU memory used/free/total (MiB): 2124 / 79026 / 81151
------------------
     ethr =  2.93E-04,  avg # of iterations =  3.2

     total cpu time spent up to now is       49.5 secs

     total energy              =   -1665.48486690 Ry
     estimated scf accuracy    <       1.08885890 Ry

     total magnetization       =     2.30 Bohr mag/cell
     absolute magnetization    =     2.64 Bohr mag/cell
[tb_dev] Currently allocated     1.68E-04 Mbytes, locked:    0 /   2
[tb_pin] Currently allocated     0.00E+00 Mbytes, locked:    0 /   0

     iteration #  8     ecut=    60.00 Ry     beta= 0.30
     Davidson diagonalization with overlap

---- Real-time Memory Report at c_bands before calling an iterative solver
          2083 MiB given to the printing process from OS
             0 MiB allocation reported by mallinfo(arena+hblkhd)
       1330202 MiB available memory on the node where the printing process lives
     GPU memory used/free/total (MiB): 2124 / 79026 / 81151
------------------
     ethr =  2.93E-04,  avg # of iterations =  1.8

     total cpu time spent up to now is       54.9 secs

     total energy              =   -1665.48799239 Ry
     estimated scf accuracy    <       0.35042271 Ry

     total magnetization       =     2.06 Bohr mag/cell
     absolute magnetization    =     2.60 Bohr mag/cell
[tb_dev] Currently allocated     1.68E-04 Mbytes, locked:    0 /   2
[tb_pin] Currently allocated     0.00E+00 Mbytes, locked:    0 /   0

     iteration #  9     ecut=    60.00 Ry     beta= 0.30
     Davidson diagonalization with overlap

---- Real-time Memory Report at c_bands before calling an iterative solver
          2088 MiB given to the printing process from OS
             0 MiB allocation reported by mallinfo(arena+hblkhd)
       1361852 MiB available memory on the node where the printing process lives
     GPU memory used/free/total (MiB): 2124 / 79026 / 81151
------------------
     ethr =  2.74E-04,  avg # of iterations =  1.4

     total cpu time spent up to now is       60.1 secs

     total energy              =   -1665.49247322 Ry
     estimated scf accuracy    <       0.16654091 Ry

     total magnetization       =     2.02 Bohr mag/cell
     absolute magnetization    =     2.56 Bohr mag/cell
[tb_dev] Currently allocated     1.68E-04 Mbytes, locked:    0 /   2
[tb_pin] Currently allocated     0.00E+00 Mbytes, locked:    0 /   0

     iteration # 10     ecut=    60.00 Ry     beta= 0.30
     Davidson diagonalization with overlap

---- Real-time Memory Report at c_bands before calling an iterative solver
          2094 MiB given to the printing process from OS
             0 MiB allocation reported by mallinfo(arena+hblkhd)
       1354794 MiB available memory on the node where the printing process lives
     GPU memory used/free/total (MiB): 2124 / 79026 / 81151
------------------
     c_bands:  1 eigenvalues not converged
     c_bands:  1 eigenvalues not converged
     c_bands:  1 eigenvalues not converged
     c_bands:  2 eigenvalues not converged
     c_bands:  1 eigenvalues not converged
     ethr =  1.30E-04,  avg # of iterations =  7.5

     total cpu time spent up to now is       67.9 secs

     total energy              =   -1665.50672524 Ry
     estimated scf accuracy    <       0.03014797 Ry

     total magnetization       =     2.28 Bohr mag/cell
     absolute magnetization    =     2.37 Bohr mag/cell
[tb_dev] Currently allocated     1.68E-04 Mbytes, locked:    0 /   2
[tb_pin] Currently allocated     0.00E+00 Mbytes, locked:    0 /   0

     iteration # 11     ecut=    60.00 Ry     beta= 0.30
     Davidson diagonalization with overlap

---- Real-time Memory Report at c_bands before calling an iterative solver
          2094 MiB given to the printing process from OS
             0 MiB allocation reported by mallinfo(arena+hblkhd)
       1341231 MiB available memory on the node where the printing process lives
     GPU memory used/free/total (MiB): 2124 / 79026 / 81151
------------------
     c_bands:  1 eigenvalues not converged
     c_bands:  1 eigenvalues not converged
     c_bands:  1 eigenvalues not converged
     c_bands:  1 eigenvalues not converged
     c_bands:  1 eigenvalues not converged
     c_bands:  1 eigenvalues not converged
     c_bands:  1 eigenvalues not converged
     c_bands:  1 eigenvalues not converged
     c_bands:  1 eigenvalues not converged
     c_bands:  1 eigenvalues not converged
     c_bands:  1 eigenvalues not converged
     c_bands:  1 eigenvalues not converged
     c_bands:  1 eigenvalues not converged
     c_bands:  1 eigenvalues not converged
     c_bands:  1 eigenvalues not converged
     c_bands:  1 eigenvalues not converged
     c_bands:  1 eigenvalues not converged
     c_bands:  1 eigenvalues not converged
     c_bands:  1 eigenvalues not converged
     c_bands:  1 eigenvalues not converged
     c_bands:  1 eigenvalues not converged
     c_bands:  1 eigenvalues not converged
     c_bands:  1 eigenvalues not converged
     c_bands:  1 eigenvalues not converged
     c_bands:  1 eigenvalues not converged
     c_bands:  1 eigenvalues not converged
     ethr =  2.36E-05,  avg # of iterations = 15.9

     total cpu time spent up to now is       79.5 secs

     total energy              =   -1665.50082258 Ry
     estimated scf accuracy    <       0.02624662 Ry

     total magnetization       =     2.31 Bohr mag/cell
     absolute magnetization    =     2.37 Bohr mag/cell
[tb_dev] Currently allocated     1.68E-04 Mbytes, locked:    0 /   2
[tb_pin] Currently allocated     0.00E+00 Mbytes, locked:    0 /   0

     iteration # 12     ecut=    60.00 Ry     beta= 0.30
     Davidson diagonalization with overlap

---- Real-time Memory Report at c_bands before calling an iterative solver
          2094 MiB given to the printing process from OS
             0 MiB allocation reported by mallinfo(arena+hblkhd)
       1359128 MiB available memory on the node where the printing process lives
     GPU memory used/free/total (MiB): 2124 / 79026 / 81151
------------------
     c_bands:  1 eigenvalues not converged
     c_bands:  1 eigenvalues not converged
     c_bands:  1 eigenvalues not converged
     c_bands:  1 eigenvalues not converged
     ethr =  2.05E-05,  avg # of iterations =  3.4

     total cpu time spent up to now is       85.8 secs

     total energy              =   -1665.49938546 Ry
     estimated scf accuracy    <       0.04233768 Ry

     total magnetization       =     2.22 Bohr mag/cell
     absolute magnetization    =     2.29 Bohr mag/cell
[tb_dev] Currently allocated     1.68E-04 Mbytes, locked:    0 /   2
[tb_pin] Currently allocated     0.00E+00 Mbytes, locked:    0 /   0

     iteration # 13     ecut=    60.00 Ry     beta= 0.30
     Davidson diagonalization with overlap

---- Real-time Memory Report at c_bands before calling an iterative solver
          2095 MiB given to the printing process from OS
             0 MiB allocation reported by mallinfo(arena+hblkhd)
       1353426 MiB available memory on the node where the printing process lives
     GPU memory used/free/total (MiB): 2124 / 79026 / 81151
------------------
     c_bands:  1 eigenvalues not converged
     c_bands:  1 eigenvalues not converged
     c_bands:  1 eigenvalues not converged
     c_bands:  1 eigenvalues not converged
     c_bands:  1 eigenvalues not converged
     c_bands:  1 eigenvalues not converged
     c_bands:  1 eigenvalues not converged
     c_bands:  1 eigenvalues not converged
     c_bands:  1 eigenvalues not converged
     c_bands:  1 eigenvalues not converged
     c_bands:  1 eigenvalues not converged
     c_bands:  1 eigenvalues not converged
     c_bands:  1 eigenvalues not converged
     c_bands:  1 eigenvalues not converged
     c_bands:  1 eigenvalues not converged
     ethr =  2.05E-05,  avg # of iterations = 10.6

     total cpu time spent up to now is       95.3 secs

     total energy              =   -1665.50417488 Ry
     estimated scf accuracy    <       0.01797370 Ry

     total magnetization       =     2.25 Bohr mag/cell
     absolute magnetization    =     2.28 Bohr mag/cell
[tb_dev] Currently allocated     1.68E-04 Mbytes, locked:    0 /   2
[tb_pin] Currently allocated     0.00E+00 Mbytes, locked:    0 /   0

     iteration # 14     ecut=    60.00 Ry     beta= 0.30
     Davidson diagonalization with overlap

---- Real-time Memory Report at c_bands before calling an iterative solver
          2095 MiB given to the printing process from OS
             0 MiB allocation reported by mallinfo(arena+hblkhd)
       1336694 MiB available memory on the node where the printing process lives
     GPU memory used/free/total (MiB): 2124 / 79026 / 81151
------------------
     ethr =  1.40E-05,  avg # of iterations =  2.4

     total cpu time spent up to now is      101.0 secs

     total energy              =   -1665.50123572 Ry
     estimated scf accuracy    <       0.01436061 Ry

     total magnetization       =     2.20 Bohr mag/cell
     absolute magnetization    =     2.25 Bohr mag/cell
[tb_dev] Currently allocated     1.68E-04 Mbytes, locked:    0 /   2
[tb_pin] Currently allocated     0.00E+00 Mbytes, locked:    0 /   0

     iteration # 15     ecut=    60.00 Ry     beta= 0.30
     Davidson diagonalization with overlap

---- Real-time Memory Report at c_bands before calling an iterative solver
          2095 MiB given to the printing process from OS
             0 MiB allocation reported by mallinfo(arena+hblkhd)
       1326572 MiB available memory on the node where the printing process lives
     GPU memory used/free/total (MiB): 2124 / 79026 / 81151
------------------
     c_bands:  1 eigenvalues not converged
     c_bands:  1 eigenvalues not converged
     c_bands:  1 eigenvalues not converged
     c_bands:  1 eigenvalues not converged
     c_bands:  1 eigenvalues not converged
     c_bands:  1 eigenvalues not converged
     c_bands:  1 eigenvalues not converged
     c_bands:  1 eigenvalues not converged
     ethr =  1.12E-05,  avg # of iterations =  6.5

     total cpu time spent up to now is      108.5 secs

     total energy              =   -1665.50107091 Ry
     estimated scf accuracy    <       0.00495990 Ry

     total magnetization       =     2.30 Bohr mag/cell
     absolute magnetization    =     2.34 Bohr mag/cell
[tb_dev] Currently allocated     1.68E-04 Mbytes, locked:    0 /   2
[tb_pin] Currently allocated     0.00E+00 Mbytes, locked:    0 /   0

     iteration # 16     ecut=    60.00 Ry     beta= 0.30
     Davidson diagonalization with overlap

---- Real-time Memory Report at c_bands before calling an iterative solver
          2095 MiB given to the printing process from OS
             0 MiB allocation reported by mallinfo(arena+hblkhd)
       1357567 MiB available memory on the node where the printing process lives
     GPU memory used/free/total (MiB): 2124 / 79026 / 81151
------------------
     c_bands:  1 eigenvalues not converged
     c_bands:  1 eigenvalues not converged
     c_bands:  1 eigenvalues not converged
     c_bands:  1 eigenvalues not converged
     c_bands:  1 eigenvalues not converged
     c_bands:  1 eigenvalues not converged
     c_bands:  1 eigenvalues not converged
     c_bands:  1 eigenvalues not converged
     c_bands:  1 eigenvalues not converged
     c_bands:  1 eigenvalues not converged
     c_bands:  1 eigenvalues not converged
     c_bands:  1 eigenvalues not converged
     c_bands:  1 eigenvalues not converged
     c_bands:  1 eigenvalues not converged
     c_bands:  1 eigenvalues not converged
     c_bands:  1 eigenvalues not converged
     c_bands:  1 eigenvalues not converged
     c_bands:  1 eigenvalues not converged
     c_bands:  1 eigenvalues not converged
     c_bands:  1 eigenvalues not converged
     c_bands:  1 eigenvalues not converged
     c_bands:  1 eigenvalues not converged
     c_bands:  2 eigenvalues not converged
     c_bands:  1 eigenvalues not converged
     c_bands:  1 eigenvalues not converged
     c_bands:  1 eigenvalues not converged
     c_bands:  1 eigenvalues not converged
     c_bands:  1 eigenvalues not converged
     c_bands:  1 eigenvalues not converged
     c_bands:  1 eigenvalues not converged
     c_bands:  1 eigenvalues not converged
     c_bands:  1 eigenvalues not converged
     c_bands:  1 eigenvalues not converged
     c_bands:  1 eigenvalues not converged
     c_bands:  1 eigenvalues not converged
     c_bands:  1 eigenvalues not converged
     c_bands:  1 eigenvalues not converged
     c_bands:  1 eigenvalues not converged
     c_bands:  1 eigenvalues not converged
     c_bands:  1 eigenvalues not converged
     c_bands:  1 eigenvalues not converged
     c_bands:  1 eigenvalues not converged
     ethr =  3.87E-06,  avg # of iterations = 17.7

     total cpu time spent up to now is      121.0 secs

     total energy              =   -1665.50208829 Ry
     estimated scf accuracy    <       0.00211686 Ry

     total magnetization       =     2.30 Bohr mag/cell
     absolute magnetization    =     2.34 Bohr mag/cell
[tb_dev] Currently allocated     1.68E-04 Mbytes, locked:    0 /   2
[tb_pin] Currently allocated     0.00E+00 Mbytes, locked:    0 /   0

     iteration # 17     ecut=    60.00 Ry     beta= 0.30
     Davidson diagonalization with overlap

---- Real-time Memory Report at c_bands before calling an iterative solver
          2095 MiB given to the printing process from OS
             0 MiB allocation reported by mallinfo(arena+hblkhd)
       1336311 MiB available memory on the node where the printing process lives
     GPU memory used/free/total (MiB): 2124 / 79026 / 81151
------------------
     c_bands:  1 eigenvalues not converged
     c_bands:  1 eigenvalues not converged
     c_bands:  1 eigenvalues not converged
     c_bands:  1 eigenvalues not converged
     c_bands:  1 eigenvalues not converged
     c_bands:  1 eigenvalues not converged
     c_bands:  1 eigenvalues not converged
     c_bands:  1 eigenvalues not converged
     c_bands:  1 eigenvalues not converged
     c_bands:  1 eigenvalues not converged
     c_bands:  1 eigenvalues not converged
     ethr =  1.65E-06,  avg # of iterations =  6.6

     total cpu time spent up to now is      128.6 secs

     total energy              =   -1665.50203121 Ry
     estimated scf accuracy    <       0.00117118 Ry

     total magnetization       =     2.30 Bohr mag/cell
     absolute magnetization    =     2.35 Bohr mag/cell
[tb_dev] Currently allocated     1.68E-04 Mbytes, locked:    0 /   2
[tb_pin] Currently allocated     0.00E+00 Mbytes, locked:    0 /   0

     iteration # 18     ecut=    60.00 Ry     beta= 0.30
     Davidson diagonalization with overlap

---- Real-time Memory Report at c_bands before calling an iterative solver
          2098 MiB given to the printing process from OS
             0 MiB allocation reported by mallinfo(arena+hblkhd)
       1323523 MiB available memory on the node where the printing process lives
     GPU memory used/free/total (MiB): 2124 / 79026 / 81151
------------------
     c_bands:  1 eigenvalues not converged
     c_bands:  1 eigenvalues not converged
     c_bands:  1 eigenvalues not converged
     c_bands:  1 eigenvalues not converged
     c_bands:  1 eigenvalues not converged
     c_bands:  1 eigenvalues not converged
     ethr =  9.15E-07,  avg # of iterations =  4.6

     total cpu time spent up to now is      135.5 secs

     total energy              =   -1665.50234149 Ry
     estimated scf accuracy    <       0.00049292 Ry

     total magnetization       =     2.29 Bohr mag/cell
     absolute magnetization    =     2.33 Bohr mag/cell
[tb_dev] Currently allocated     1.68E-04 Mbytes, locked:    0 /   2
[tb_pin] Currently allocated     0.00E+00 Mbytes, locked:    0 /   0

     iteration # 19     ecut=    60.00 Ry     beta= 0.30
     Davidson diagonalization with overlap

---- Real-time Memory Report at c_bands before calling an iterative solver
          2098 MiB given to the printing process from OS
             0 MiB allocation reported by mallinfo(arena+hblkhd)
       1358798 MiB available memory on the node where the printing process lives
     GPU memory used/free/total (MiB): 2124 / 79026 / 81151
------------------
     c_bands:  1 eigenvalues not converged
     c_bands:  1 eigenvalues not converged
     c_bands:  1 eigenvalues not converged
     ethr =  3.85E-07,  avg # of iterations =  7.0

     total cpu time spent up to now is      143.7 secs

     total energy              =   -1665.50246489 Ry
     estimated scf accuracy    <       0.00020366 Ry

     total magnetization       =     2.30 Bohr mag/cell
     absolute magnetization    =     2.35 Bohr mag/cell
[tb_dev] Currently allocated     1.68E-04 Mbytes, locked:    0 /   2
[tb_pin] Currently allocated     0.00E+00 Mbytes, locked:    0 /   0

     iteration # 20     ecut=    60.00 Ry     beta= 0.30
     Davidson diagonalization with overlap

---- Real-time Memory Report at c_bands before calling an iterative solver
          2098 MiB given to the printing process from OS
             0 MiB allocation reported by mallinfo(arena+hblkhd)
       1358731 MiB available memory on the node where the printing process lives
     GPU memory used/free/total (MiB): 2124 / 79026 / 81151
------------------
     ethr =  1.59E-07,  avg # of iterations =  2.1

     total cpu time spent up to now is      149.5 secs

     total energy              =   -1665.50245387 Ry
     estimated scf accuracy    <       0.00016181 Ry

     total magnetization       =     2.30 Bohr mag/cell
     absolute magnetization    =     2.35 Bohr mag/cell
[tb_dev] Currently allocated     1.68E-04 Mbytes, locked:    0 /   2
[tb_pin] Currently allocated     0.00E+00 Mbytes, locked:    0 /   0

     iteration # 21     ecut=    60.00 Ry     beta= 0.30
     Davidson diagonalization with overlap

---- Real-time Memory Report at c_bands before calling an iterative solver
          2098 MiB given to the printing process from OS
             0 MiB allocation reported by mallinfo(arena+hblkhd)
       1358416 MiB available memory on the node where the printing process lives
     GPU memory used/free/total (MiB): 2124 / 79026 / 81151
------------------
     ethr =  1.26E-07,  avg # of iterations =  2.0

     total cpu time spent up to now is      155.8 secs

     total energy              =   -1665.50242796 Ry
     estimated scf accuracy    <       0.00009367 Ry

     total magnetization       =     2.30 Bohr mag/cell
     absolute magnetization    =     2.35 Bohr mag/cell
[tb_dev] Currently allocated     1.68E-04 Mbytes, locked:    0 /   2
[tb_pin] Currently allocated     0.00E+00 Mbytes, locked:    0 /   0

     iteration # 22     ecut=    60.00 Ry     beta= 0.30
     Davidson diagonalization with overlap

---- Real-time Memory Report at c_bands before calling an iterative solver
          2098 MiB given to the printing process from OS
             0 MiB allocation reported by mallinfo(arena+hblkhd)
       1358861 MiB available memory on the node where the printing process lives
     GPU memory used/free/total (MiB): 2124 / 79026 / 81151
------------------
     ethr =  7.32E-08,  avg # of iterations =  4.2

     total cpu time spent up to now is      162.8 secs

     total energy              =   -1665.50245732 Ry
     estimated scf accuracy    <       0.00002700 Ry

     total magnetization       =     2.30 Bohr mag/cell
     absolute magnetization    =     2.35 Bohr mag/cell
[tb_dev] Currently allocated     1.68E-04 Mbytes, locked:    0 /   2
[tb_pin] Currently allocated     0.00E+00 Mbytes, locked:    0 /   0

     iteration # 23     ecut=    60.00 Ry     beta= 0.30
     Davidson diagonalization with overlap

---- Real-time Memory Report at c_bands before calling an iterative solver
          2102 MiB given to the printing process from OS
             0 MiB allocation reported by mallinfo(arena+hblkhd)
       1358248 MiB available memory on the node where the printing process lives
     GPU memory used/free/total (MiB): 2124 / 79026 / 81151
------------------
     ethr =  2.11E-08,  avg # of iterations =  5.1

     total cpu time spent up to now is      170.1 secs

     total energy              =   -1665.50246232 Ry
     estimated scf accuracy    <       0.00001360 Ry

     total magnetization       =     2.30 Bohr mag/cell
     absolute magnetization    =     2.35 Bohr mag/cell
[tb_dev] Currently allocated     1.68E-04 Mbytes, locked:    0 /   2
[tb_pin] Currently allocated     0.00E+00 Mbytes, locked:    0 /   0

     iteration # 24     ecut=    60.00 Ry     beta= 0.30
     Davidson diagonalization with overlap

---- Real-time Memory Report at c_bands before calling an iterative solver
          2102 MiB given to the printing process from OS
             0 MiB allocation reported by mallinfo(arena+hblkhd)
       1357348 MiB available memory on the node where the printing process lives
     GPU memory used/free/total (MiB): 2124 / 79026 / 81151
------------------
     ethr =  1.06E-08,  avg # of iterations =  7.1

     total cpu time spent up to now is      178.4 secs

     total energy              =   -1665.50246665 Ry
     estimated scf accuracy    <       0.00000324 Ry

     total magnetization       =     2.30 Bohr mag/cell
     absolute magnetization    =     2.34 Bohr mag/cell
[tb_dev] Currently allocated     1.68E-04 Mbytes, locked:    0 /   2
[tb_pin] Currently allocated     0.00E+00 Mbytes, locked:    0 /   0

     iteration # 25     ecut=    60.00 Ry     beta= 0.30
     Davidson diagonalization with overlap

---- Real-time Memory Report at c_bands before calling an iterative solver
          2102 MiB given to the printing process from OS
             0 MiB allocation reported by mallinfo(arena+hblkhd)
       1356191 MiB available memory on the node where the printing process lives
     GPU memory used/free/total (MiB): 2124 / 79026 / 81151
------------------
     ethr =  2.53E-09,  avg # of iterations =  6.9

     total cpu time spent up to now is      186.3 secs

     total energy              =   -1665.50246781 Ry
     estimated scf accuracy    <       0.00000138 Ry

     total magnetization       =     2.30 Bohr mag/cell
     absolute magnetization    =     2.34 Bohr mag/cell
[tb_dev] Currently allocated     1.68E-04 Mbytes, locked:    0 /   2
[tb_pin] Currently allocated     0.00E+00 Mbytes, locked:    0 /   0

     iteration # 26     ecut=    60.00 Ry     beta= 0.30
     Davidson diagonalization with overlap

---- Real-time Memory Report at c_bands before calling an iterative solver
          2102 MiB given to the printing process from OS
             0 MiB allocation reported by mallinfo(arena+hblkhd)
       1355177 MiB available memory on the node where the printing process lives
     GPU memory used/free/total (MiB): 2124 / 79026 / 81151
------------------
     ethr =  1.08E-09,  avg # of iterations =  3.1

     total cpu time spent up to now is      192.6 secs

     total energy              =   -1665.50246773 Ry
     estimated scf accuracy    <       0.00000100 Ry

     total magnetization       =     2.30 Bohr mag/cell
     absolute magnetization    =     2.34 Bohr mag/cell
[tb_dev] Currently allocated     1.68E-04 Mbytes, locked:    0 /   2
[tb_pin] Currently allocated     0.00E+00 Mbytes, locked:    0 /   0

     iteration # 27     ecut=    60.00 Ry     beta= 0.30
     Davidson diagonalization with overlap

---- Real-time Memory Report at c_bands before calling an iterative solver
          2102 MiB given to the printing process from OS
             0 MiB allocation reported by mallinfo(arena+hblkhd)
       1354234 MiB available memory on the node where the printing process lives
     GPU memory used/free/total (MiB): 2124 / 79026 / 81151
------------------
     ethr =  7.80E-10,  avg # of iterations =  2.1

     total cpu time spent up to now is      198.3 secs

     total energy              =   -1665.50246771 Ry
     estimated scf accuracy    <       0.00000034 Ry

     total magnetization       =     2.30 Bohr mag/cell
     absolute magnetization    =     2.34 Bohr mag/cell
[tb_dev] Currently allocated     1.68E-04 Mbytes, locked:    0 /   2
[tb_pin] Currently allocated     0.00E+00 Mbytes, locked:    0 /   0

     iteration # 28     ecut=    60.00 Ry     beta= 0.30
     Davidson diagonalization with overlap

---- Real-time Memory Report at c_bands before calling an iterative solver
          2102 MiB given to the printing process from OS
             0 MiB allocation reported by mallinfo(arena+hblkhd)
       1353442 MiB available memory on the node where the printing process lives
     GPU memory used/free/total (MiB): 2124 / 79026 / 81151
------------------
     ethr =  2.65E-10,  avg # of iterations =  4.4

     total cpu time spent up to now is      205.5 secs

     total energy              =   -1665.50246781 Ry
     estimated scf accuracy    <       0.00000021 Ry

     total magnetization       =     2.30 Bohr mag/cell
     absolute magnetization    =     2.34 Bohr mag/cell
[tb_dev] Currently allocated     1.68E-04 Mbytes, locked:    0 /   2
[tb_pin] Currently allocated     0.00E+00 Mbytes, locked:    0 /   0

     iteration # 29     ecut=    60.00 Ry     beta= 0.30
     Davidson diagonalization with overlap

---- Real-time Memory Report at c_bands before calling an iterative solver
          2102 MiB given to the printing process from OS
             0 MiB allocation reported by mallinfo(arena+hblkhd)
       1352215 MiB available memory on the node where the printing process lives
     GPU memory used/free/total (MiB): 2124 / 79026 / 81151
------------------
     ethr =  1.62E-10,  avg # of iterations =  2.5

     total cpu time spent up to now is      211.4 secs

     total energy              =   -1665.50246783 Ry
     estimated scf accuracy    <       0.00000014 Ry

     total magnetization       =     2.30 Bohr mag/cell
     absolute magnetization    =     2.34 Bohr mag/cell
[tb_dev] Currently allocated     1.68E-04 Mbytes, locked:    0 /   2
[tb_pin] Currently allocated     0.00E+00 Mbytes, locked:    0 /   0

     iteration # 30     ecut=    60.00 Ry     beta= 0.30
     Davidson diagonalization with overlap

---- Real-time Memory Report at c_bands before calling an iterative solver
          2102 MiB given to the printing process from OS
             0 MiB allocation reported by mallinfo(arena+hblkhd)
       1351511 MiB available memory on the node where the printing process lives
     GPU memory used/free/total (MiB): 2124 / 79026 / 81151
------------------
     ethr =  1.12E-10,  avg # of iterations =  2.1
 
     Magnetic moment per site  (integrated on atomic sphere of radius R)
     atom   1 (R=0.159)  charge= 14.0974  magn=  0.5953
     atom   2 (R=0.159)  charge= 14.1000  magn=  0.5904
     atom   3 (R=0.159)  charge= 14.0991  magn=  0.5893
     atom   4 (R=0.079)  charge=  1.8590  magn=  0.0264
     atom   5 (R=0.079)  charge=  1.8589  magn=  0.0250
     atom   6 (R=0.079)  charge=  1.8595  magn=  0.0248
     atom   7 (R=0.079)  charge=  1.8588  magn=  0.0244
     atom   8 (R=0.079)  charge=  1.8589  magn=  0.0262
     atom   9 (R=0.079)  charge=  1.8585  magn=  0.0256
     atom  10 (R=0.169)  charge=  7.7919  magn=  0.0000
     atom  11 (R=0.079)  charge=  1.9216  magn=  0.0005
     atom  12 (R=0.079)  charge=  0.3949  magn=  0.0000
     atom  13 (R=0.079)  charge=  0.3891  magn=  0.0000
     atom  14 (R=0.079)  charge=  1.9199  magn=  0.0006
     atom  15 (R=0.079)  charge=  0.3994  magn=  0.0000
     atom  16 (R=0.079)  charge=  0.3887  magn=  0.0000
     atom  17 (R=0.079)  charge=  1.9105  magn=  0.0005
     atom  18 (R=0.079)  charge=  0.4026  magn=  0.0000
     atom  19 (R=0.079)  charge=  0.3906  magn=  0.0000
     atom  20 (R=0.079)  charge=  1.9130  magn=  0.0005
     atom  21 (R=0.079)  charge=  0.3998  magn=  0.0000
     atom  22 (R=0.079)  charge=  0.3917  magn=  0.0000

     total cpu time spent up to now is      217.1 secs

     End of self-consistent calculation

 ------ SPIN UP ------------


          k = 0.0000 0.0000 0.0000 ( 11393 PWs)   bands (ev):

   -91.4966 -91.4873 -91.4839 -54.7406 -54.7366 -54.7321 -54.7319 -54.7229
   -54.7123 -54.7078 -54.6948 -54.6944 -47.7113 -19.7176 -19.6756 -19.6449
   -17.6487 -17.3734 -17.0092 -16.8839 -14.9949 -13.3256 -13.3165 -13.3150
   -13.3110 -13.0987  -5.5094  -5.2815  -4.8199  -4.7192  -1.9977  -1.9337
    -1.5749  -1.2547  -1.0837  -1.0727  -1.0582  -1.0477  -0.9356  -0.7980
    -0.7940  -0.6715  -0.6492   0.4293   0.7171   0.8385   0.9236   0.9367
     1.0068   1.0533   1.1697   1.3141   1.3189   2.3397   2.6857   2.6898
     2.7192   2.7213   2.8839   2.8923   3.7697   3.7715   3.7741   3.7778
     3.9384   5.8433   5.8667   5.8722   5.8844   6.5147   6.6122   6.6171
     8.6556  10.5030  11.2773  11.5081  12.7745  13.0447  13.4177  13.5566
    13.7856  13.9514  14.6013  14.8020  15.2654

     occupation numbers 
     1.0000   1.0000   1.0000   1.0000   1.0000   1.0000   1.0000   1.0000
     1.0000   1.0000   1.0000   1.0000   1.0000   1.0000   1.0000   1.0000
     1.0000   1.0000   1.0000   1.0000   1.0000   1.0000   1.0000   1.0000
     1.0000   1.0000   1.0000   1.0000   1.0000   1.0000   1.0000   1.0000
     1.0000   1.0000   1.0000   1.0000   1.0000   1.0000   1.0000   1.0000
     1.0000   1.0000   1.0000   1.0000   1.0000   1.0000   1.0000   1.0000
     1.0000   1.0000   1.0000   1.0000   1.0000   1.0000   1.0000   1.0000
     1.0000   1.0000   1.0000   1.0000   1.0205   1.0209   1.0214   1.0223
     1.0719   0.0000   0.0000   0.0000   0.0000   0.0000   0.0000   0.0000
     0.0000   0.0000   0.0000   0.0000   0.0000   0.0000   0.0000   0.0000
     0.0000   0.0000   0.0000   0.0000   0.0000

          k = 0.0000 0.0000-0.2526 ( 11446 PWs)   bands (ev):

   -91.4966 -91.4873 -91.4839 -54.7406 -54.7367 -54.7322 -54.7319 -54.7231
   -54.7125 -54.7079 -54.6949 -54.6945 -47.7113 -19.7178 -19.6757 -19.6450
   -17.6480 -17.3744 -17.0092 -16.8839 -14.9940 -13.3256 -13.3165 -13.3150
   -13.3110 -13.0997  -5.4958  -5.2805  -4.8208  -4.7356  -1.9888  -1.9286
    -1.6168  -1.3305  -1.0774  -1.0592  -1.0517  -1.0508  -0.8479  -0.7981
    -0.7941  -0.6565  -0.6349   0.4373   0.6903   0.8467   0.9182   0.9391
     0.9976   1.0399   1.1896   1.3171   1.3397   2.2565   2.6857   2.6893
     2.7192   2.7213   2.8838   2.8923   3.7696   3.7719   3.7747   3.7777
     3.9580   5.8413   5.8669   5.8712   5.8846   6.6114   6.6166   6.6640
     8.3799  10.8033  11.0553  11.7465  12.5502  13.0980  13.4230  13.6030
    13.8161  13.9369  14.3610  14.9928  15.2625

     occupation numbers 
     1.0000   1.0000   1.0000   1.0000   1.0000   1.0000   1.0000   1.0000
     1.0000   1.0000   1.0000   1.0000   1.0000   1.0000   1.0000   1.0000
     1.0000   1.0000   1.0000   1.0000   1.0000   1.0000   1.0000   1.0000
     1.0000   1.0000   1.0000   1.0000   1.0000   1.0000   1.0000   1.0000
     1.0000   1.0000   1.0000   1.0000   1.0000   1.0000   1.0000   1.0000
     1.0000   1.0000   1.0000   1.0000   1.0000   1.0000   1.0000   1.0000
     1.0000   1.0000   1.0000   1.0000   1.0000   1.0000   1.0000   1.0000
     1.0000   1.0000   1.0000   1.0000   1.0204   1.0209   1.0216   1.0222
     1.0771   0.0000   0.0000   0.0000   0.0000   0.0000   0.0000   0.0000
     0.0000   0.0000   0.0000   0.0000   0.0000   0.0000   0.0000   0.0000
     0.0000   0.0000   0.0000   0.0000   0.0000

          k = 0.0000 0.1925 0.0000 ( 11360 PWs)   bands (ev):

   -91.4964 -91.4873 -91.4841 -54.7455 -54.7407 -54.7281 -54.7232 -54.7205
   -54.7122 -54.7081 -54.6995 -54.6955 -47.7112 -19.7191 -19.6757 -19.6453
   -17.6060 -17.3467 -17.0501 -16.9175 -14.8918 -13.4683 -13.3804 -13.3066
   -13.2468 -13.1009  -5.5270  -5.3161  -4.8004  -4.6608  -2.0591  -1.8917
    -1.5904  -1.4391  -1.2461  -1.1983  -1.0600  -0.9746  -0.9295  -0.8405
    -0.7302  -0.2942  -0.1093   0.3511   0.5694   0.6790   0.7017   0.8266
     0.8954   1.0299   1.2074   1.6217   1.7053   2.0483   2.1505   2.5699
     2.7678   2.8355   3.1161   3.3166   3.5203   3.5327   3.8624   3.9306
     3.9937   5.8490   5.8954   5.9127   5.9661   6.3324   6.5332   6.8468
     8.9308  10.4865  11.2755  11.5921  12.3323  12.7495  12.9439  13.2833
    13.7068  14.2989  14.7581  14.9080  15.1248

     occupation numbers 
     1.0000   1.0000   1.0000   1.0000   1.0000   1.0000   1.0000   1.0000
     1.0000   1.0000   1.0000   1.0000   1.0000   1.0000   1.0000   1.0000
     1.0000   1.0000   1.0000   1.0000   1.0000   1.0000   1.0000   1.0000
     1.0000   1.0000   1.0000   1.0000   1.0000   1.0000   1.0000   1.0000
     1.0000   1.0000   1.0000   1.0000   1.0000   1.0000   1.0000   1.0000
     1.0000   1.0000   1.0000   1.0000   1.0000   1.0000   1.0000   1.0000
     1.0000   1.0000   1.0000   1.0000   1.0000   1.0000   1.0000   1.0000
     1.0000   1.0000   1.0000   1.0000   1.0006   1.0007   1.0466   1.0696
     1.0829   0.0000   0.0000   0.0000   0.0000   0.0000   0.0000   0.0000
     0.0000   0.0000   0.0000   0.0000   0.0000   0.0000   0.0000   0.0000
     0.0000   0.0000   0.0000   0.0000   0.0000

          k = 0.0000 0.1925-0.2526 ( 11384 PWs)   bands (ev):

   -91.4965 -91.4873 -91.4841 -54.7455 -54.7407 -54.7281 -54.7232 -54.7206
   -54.7123 -54.7081 -54.6996 -54.6955 -47.7113 -19.7191 -19.6757 -19.6453
   -17.6053 -17.3476 -17.0501 -16.9175 -14.8911 -13.4683 -13.3804 -13.3066
   -13.2468 -13.1017  -5.5171  -5.3156  -4.8009  -4.6730  -2.0502  -1.8858
    -1.6264  -1.4551  -1.2652  -1.2230  -1.0500  -0.9471  -0.9028  -0.8048
    -0.7303  -0.2860  -0.1092   0.3947   0.4880   0.6696   0.7479   0.8217
     0.9064   1.0255   1.2007   1.6208   1.7067   2.0496   2.1452   2.5243
     2.7678   2.8355   3.1163   3.3153   3.5201   3.5329   3.8633   3.9311
     4.0107   5.8478   5.8949   5.9135   5.9649   6.3072   6.5393   6.9858
     8.6845  10.7151  11.0835  11.7921  12.3562  12.6788  13.0552  13.2102
    13.6514  14.2335  14.6708  14.8728  15.2218

     occupation numbers 
     1.0000   1.0000   1.0000   1.0000   1.0000   1.0000   1.0000   1.0000
     1.0000   1.0000   1.0000   1.0000   1.0000   1.0000   1.0000   1.0000
     1.0000   1.0000   1.0000   1.0000   1.0000   1.0000   1.0000   1.0000
     1.0000   1.0000   1.0000   1.0000   1.0000   1.0000   1.0000   1.0000
     1.0000   1.0000   1.0000   1.0000   1.0000   1.0000   1.0000   1.0000
     1.0000   1.0000   1.0000   1.0000   1.0000   1.0000   1.0000   1.0000
     1.0000   1.0000   1.0000   1.0000   1.0000   1.0000   1.0000   1.0000
     1.0000   1.0000   1.0000   1.0000   1.0006   1.0007   1.0469   1.0697
     1.0832   0.0000   0.0000   0.0000   0.0000   0.0000   0.0000   0.0000
     0.0000   0.0000   0.0000   0.0000   0.0000   0.0000   0.0000   0.0000
     0.0000   0.0000   0.0000   0.0000   0.0000

          k = 0.0000 0.3849 0.0000 ( 11350 PWs)   bands (ev):

   -91.4961 -91.4872 -91.4846 -54.7508 -54.7384 -54.7254 -54.7162 -54.7140
   -54.7114 -54.7102 -54.7082 -54.6986 -47.7112 -19.7224 -19.6758 -19.6458
   -17.4931 -17.2778 -17.1525 -17.0070 -14.6051 -13.7845 -13.4247 -13.3528
   -13.1836 -13.1110  -5.5651  -5.3670  -4.7646  -4.5569  -2.1299  -1.9826
    -1.7523  -1.5037  -1.2463  -1.0686  -1.0554  -0.9875  -0.7286  -0.6802
    -0.5690  -0.0816   0.1137   0.2999   0.3650   0.5382   0.6212   0.6979
     0.9602   1.0465   1.0869   1.3700   1.5267   1.9116   2.2727   2.8611
     2.8698   3.1878   3.2565   3.2655   3.3014   3.6783   3.7159   3.9760
     3.9846   5.8366   5.8444   5.8933   5.9113   6.2904   6.3131   7.6056
     9.5606  10.0643  11.2918  11.5863  11.9223  12.2294  12.6136  12.8879
    13.6211  14.1444  14.4799  14.8292  15.3103

     occupation numbers 
     1.0000   1.0000   1.0000   1.0000   1.0000   1.0000   1.0000   1.0000
     1.0000   1.0000   1.0000   1.0000   1.0000   1.0000   1.0000   1.0000
     1.0000   1.0000   1.0000   1.0000   1.0000   1.0000   1.0000   1.0000
     1.0000   1.0000   1.0000   1.0000   1.0000   1.0000   1.0000   1.0000
     1.0000   1.0000   1.0000   1.0000   1.0000   1.0000   1.0000   1.0000
     1.0000   1.0000   1.0000   1.0000   1.0000   1.0000   1.0000   1.0000
     1.0000   1.0000   1.0000   1.0000   1.0000   1.0000   1.0000   1.0000
     1.0000   1.0000   1.0000   1.0000   1.0000   1.0069   1.0112   1.0807
     1.0820   0.0000   0.0000   0.0000   0.0000   0.0000   0.0000   0.0000
     0.0000   0.0000   0.0000   0.0000   0.0000   0.0000   0.0000   0.0000
     0.0000   0.0000   0.0000   0.0000   0.0000

          k = 0.0000 0.3849-0.2526 ( 11352 PWs)   bands (ev):

   -91.4961 -91.4872 -91.4845 -54.7507 -54.7384 -54.7255 -54.7163 -54.7141
   -54.7115 -54.7101 -54.7082 -54.6986 -47.7112 -19.7224 -19.6758 -19.6458
   -17.4927 -17.2783 -17.1525 -17.0071 -14.6047 -13.7844 -13.4247 -13.3528
   -13.1836 -13.1115  -5.5614  -5.3663  -4.7640  -4.5632  -2.1251  -1.9788
    -1.7722  -1.5035  -1.2282  -1.0704  -1.0562  -1.0238  -0.6937  -0.6765
    -0.5694  -0.0831   0.1264   0.2455   0.4598   0.5417   0.5959   0.6757
     0.9596   1.0470   1.0799   1.3717   1.5262   1.9063   2.2724   2.8572
     2.8635   3.1878   3.2561   3.2656   3.3012   3.6755   3.7170   3.9812
     3.9869   5.8206   5.8448   5.8930   5.9100   6.2901   6.3205   7.6712
     9.4130  10.1141  11.2669  11.5580  11.9949  12.3830  12.6147  12.9263
    13.5287  14.1021  14.4629  14.7191  15.3080

     occupation numbers 
     1.0000   1.0000   1.0000   1.0000   1.0000   1.0000   1.0000   1.0000
     1.0000   1.0000   1.0000   1.0000   1.0000   1.0000   1.0000   1.0000
     1.0000   1.0000   1.0000   1.0000   1.0000   1.0000   1.0000   1.0000
     1.0000   1.0000   1.0000   1.0000   1.0000   1.0000   1.0000   1.0000
     1.0000   1.0000   1.0000   1.0000   1.0000   1.0000   1.0000   1.0000
     1.0000   1.0000   1.0000   1.0000   1.0000   1.0000   1.0000   1.0000
     1.0000   1.0000   1.0000   1.0000   1.0000   1.0000   1.0000   1.0000
     1.0000   1.0000   1.0000   1.0000   1.0000   1.0067   1.0113   1.0815
     1.0822   0.0000   0.0000   0.0000   0.0000   0.0000   0.0000   0.0000
     0.0000   0.0000   0.0000   0.0000   0.0000   0.0000   0.0000   0.0000
     0.0000   0.0000   0.0000   0.0000   0.0000

          k = 0.0000-0.5774 0.0000 ( 11352 PWs)   bands (ev):

   -91.4959 -91.4871 -91.4848 -54.7527 -54.7303 -54.7257 -54.7243 -54.7121
   -54.7110 -54.7087 -54.7070 -54.7015 -47.7112 -19.7242 -19.6758 -19.6461
   -17.3807 -17.2919 -17.1704 -17.0925 -14.2037 -14.1989 -13.4406 -13.3781
   -13.1396 -13.1345  -5.5853  -5.3862  -4.7479  -4.5089  -2.1625  -2.0982
    -1.7574  -1.5017  -1.2769  -1.0500  -1.0464  -0.6782  -0.6499  -0.4240
    -0.3049  -0.2978  -0.1558   0.1973   0.3421   0.3874   0.4923   0.6858
     0.9523   0.9589   1.0190   1.4145   1.4391   2.0147   2.7688   2.7900
     2.8648   3.1380   3.2125   3.2158   3.5709   3.7158   3.7265   3.8878
     3.9038   5.6901   5.6979   5.9047   6.0376   6.0723   6.4913   8.1340
     9.5971  10.0505  11.1798  11.3539  11.7731  12.3174  12.4012  12.8673
    13.4811  14.0060  14.3319  14.6423  15.3187

     occupation numbers 
     1.0000   1.0000   1.0000   1.0000   1.0000   1.0000   1.0000   1.0000
     1.0000   1.0000   1.0000   1.0000   1.0000   1.0000   1.0000   1.0000
     1.0000   1.0000   1.0000   1.0000   1.0000   1.0000   1.0000   1.0000
     1.0000   1.0000   1.0000   1.0000   1.0000   1.0000   1.0000   1.0000
     1.0000   1.0000   1.0000   1.0000   1.0000   1.0000   1.0000   1.0000
     1.0000   1.0000   1.0000   1.0000   1.0000   1.0000   1.0000   1.0000
     1.0000   1.0000   1.0000   1.0000   1.0000   1.0000   1.0000   1.0000
     1.0000   1.0000   1.0000   1.0000   1.0014   1.0112   1.0127   1.0553
     1.0608   0.0000   0.0000   0.0000   0.0000   0.0000   0.0000   0.0000
     0.0000   0.0000   0.0000   0.0000   0.0000   0.0000   0.0000   0.0000
     0.0000   0.0000   0.0000   0.0000   0.0000

          k = 0.0000-0.5774-0.2526 ( 11344 PWs)   bands (ev):

   -91.4959 -91.4871 -91.4848 -54.7527 -54.7304 -54.7257 -54.7244 -54.7121
   -54.7109 -54.7087 -54.7070 -54.7015 -47.7112 -19.7241 -19.6758 -19.6460
   -17.3805 -17.2917 -17.1706 -17.0928 -14.2035 -14.1986 -13.4406 -13.3781
   -13.1398 -13.1348  -5.5840  -5.3854  -4.7469  -4.5128  -2.1578  -2.1033
    -1.7682  -1.4841  -1.2593  -1.0779  -1.0523  -0.6708  -0.6485  -0.4368
    -0.3037  -0.2878  -0.1557   0.1558   0.4063   0.4140   0.5273   0.6229
     0.9346   0.9620   1.0183   1.4063   1.4474   2.0093   2.7708   2.7905
     2.8656   3.1380   3.2125   3.2157   3.5720   3.7157   3.7271   3.8871
     3.9022   5.6855   5.6924   5.9026   6.0404   6.0766   6.4912   8.1468
     9.6342  10.0051  11.1076  11.4117  11.6906  12.3945  12.4532  12.9356
    13.5049  14.1212  14.2134  14.4780  15.2227

     occupation numbers 
     1.0000   1.0000   1.0000   1.0000   1.0000   1.0000   1.0000   1.0000
     1.0000   1.0000   1.0000   1.0000   1.0000   1.0000   1.0000   1.0000
     1.0000   1.0000   1.0000   1.0000   1.0000   1.0000   1.0000   1.0000
     1.0000   1.0000   1.0000   1.0000   1.0000   1.0000   1.0000   1.0000
     1.0000   1.0000   1.0000   1.0000   1.0000   1.0000   1.0000   1.0000
     1.0000   1.0000   1.0000   1.0000   1.0000   1.0000   1.0000   1.0000
     1.0000   1.0000   1.0000   1.0000   1.0000   1.0000   1.0000   1.0000
     1.0000   1.0000   1.0000   1.0000   1.0014   1.0111   1.0128   1.0550
     1.0603   0.0000   0.0000   0.0000   0.0000   0.0000   0.0000   0.0000
     0.0000   0.0000   0.0000   0.0000   0.0000   0.0000   0.0000   0.0000
     0.0000   0.0000   0.0000   0.0000   0.0000

          k = 0.1667 0.2887 0.0000 ( 11373 PWs)   bands (ev):

   -91.4962 -91.4872 -91.4844 -54.7470 -54.7430 -54.7258 -54.7173 -54.7154
   -54.7117 -54.7096 -54.7062 -54.6975 -47.7112 -19.7189 -19.6761 -19.6469
   -17.5165 -17.2870 -17.1408 -16.9878 -14.6969 -13.5864 -13.5770 -13.2431
   -13.2349 -13.1070  -5.5792  -5.3110  -4.8047  -4.5616  -2.1059  -1.8916
    -1.5830  -1.5435  -1.3973  -1.3007  -1.0085  -0.8626  -0.8493  -0.8029
    -0.6020   0.0369   0.0563   0.3781   0.5229   0.5902   0.7042   0.7421
     0.8481   0.9033   1.1793   1.2588   1.8586   1.9550   1.9820   2.7440
     2.9939   2.9973   3.2272   3.3378   3.3421   3.5512   3.8760   3.8791
     4.0068   5.8334   5.8539   5.8865   6.0783   6.0963   6.4643   7.3836
     9.3471  10.4375  11.0918  11.4776  11.9380  12.5129  12.5838  12.9940
    13.9576  14.1026  14.3548  14.9614  15.2611

     occupation numbers 
     1.0000   1.0000   1.0000   1.0000   1.0000   1.0000   1.0000   1.0000
     1.0000   1.0000   1.0000   1.0000   1.0000   1.0000   1.0000   1.0000
     1.0000   1.0000   1.0000   1.0000   1.0000   1.0000   1.0000   1.0000
     1.0000   1.0000   1.0000   1.0000   1.0000   1.0000   1.0000   1.0000
     1.0000   1.0000   1.0000   1.0000   1.0000   1.0000   1.0000   1.0000
     1.0000   1.0000   1.0000   1.0000   1.0000   1.0000   1.0000   1.0000
     1.0000   1.0000   1.0000   1.0000   1.0000   1.0000   1.0000   1.0000
     1.0000   1.0000   1.0000   1.0000   1.0000   1.0010   1.0512   1.0523
     1.0833   0.0000   0.0000   0.0000   0.0000   0.0000   0.0000   0.0000
     0.0000   0.0000   0.0000   0.0000   0.0000   0.0000   0.0000   0.0000
     0.0000   0.0000   0.0000   0.0000   0.0000

          k = 0.1667 0.2887-0.2526 ( 11348 PWs)   bands (ev):

   -91.4962 -91.4872 -91.4844 -54.7470 -54.7430 -54.7258 -54.7172 -54.7154
   -54.7117 -54.7096 -54.7062 -54.6975 -47.7112 -19.7188 -19.6760 -19.6468
   -17.5160 -17.2876 -17.1408 -16.9879 -14.6963 -13.5864 -13.5770 -13.2431
   -13.2349 -13.1076  -5.5754  -5.3097  -4.8060  -4.5663  -2.1006  -1.8702
    -1.6408  -1.5841  -1.3686  -1.2650  -1.0217  -0.8690  -0.8580  -0.7560
    -0.6020   0.0398   0.0540   0.3683   0.5468   0.6017   0.7020   0.7672
     0.8195   0.8801   1.1764   1.2617   1.8586   1.9529   1.9806   2.7301
     2.9938   2.9973   3.2222   3.3378   3.3420   3.5513   3.8773   3.8805
     4.0156   5.8331   5.8467   5.8764   6.0785   6.0966   6.4642   7.4761
     9.1799  10.4602  11.0294  11.7562  11.8573  12.4493  12.7866  12.9410
    13.8962  13.9598  14.3674  14.9499  15.1828

     occupation numbers 
     1.0000   1.0000   1.0000   1.0000   1.0000   1.0000   1.0000   1.0000
     1.0000   1.0000   1.0000   1.0000   1.0000   1.0000   1.0000   1.0000
     1.0000   1.0000   1.0000   1.0000   1.0000   1.0000   1.0000   1.0000
     1.0000   1.0000   1.0000   1.0000   1.0000   1.0000   1.0000   1.0000
     1.0000   1.0000   1.0000   1.0000   1.0000   1.0000   1.0000   1.0000
     1.0000   1.0000   1.0000   1.0000   1.0000   1.0000   1.0000   1.0000
     1.0000   1.0000   1.0000   1.0000   1.0000   1.0000   1.0000   1.0000
     1.0000   1.0000   1.0000   1.0000   1.0000   1.0010   1.0517   1.0528
     1.0830   0.0000   0.0000   0.0000   0.0000   0.0000   0.0000   0.0000
     0.0000   0.0000   0.0000   0.0000   0.0000   0.0000   0.0000   0.0000
     0.0000   0.0000   0.0000   0.0000   0.0000

          k = 0.1667 0.4811 0.0000 ( 11356 PWs)   bands (ev):

   -91.4959 -91.4871 -91.4849 -54.7489 -54.7369 -54.7268 -54.7216 -54.7124
   -54.7111 -54.7081 -54.7072 -54.7003 -47.7112 -19.7228 -19.6760 -19.6470
   -17.3880 -17.2817 -17.1755 -17.0906 -14.3519 -13.9437 -13.6544 -13.2495
   -13.1702 -13.1269  -5.5946  -5.3511  -4.7796  -4.5089  -2.1833  -1.9163
    -1.7060  -1.5055  -1.3754  -1.1405  -1.1168  -0.7458  -0.5999  -0.5751
    -0.4083  -0.1445  -0.1087   0.2407   0.3228   0.3635   0.4898   0.6830
     0.9666   1.0236   1.2545   1.3631   1.4179   2.0892   2.4594   2.7973
     3.0328   3.2307   3.2452   3.2735   3.4436   3.6582   3.6860   3.8578
     3.8818   5.5616   5.6712   5.8116   6.1943   6.3362   6.4101   8.0454
     9.6421  10.1731  10.8586  11.4158  11.8200  12.1326  12.5491  12.9229
    13.6662  13.9785  14.2499  14.7896  15.4027

     occupation numbers 
     1.0000   1.0000   1.0000   1.0000   1.0000   1.0000   1.0000   1.0000
     1.0000   1.0000   1.0000   1.0000   1.0000   1.0000   1.0000   1.0000
     1.0000   1.0000   1.0000   1.0000   1.0000   1.0000   1.0000   1.0000
     1.0000   1.0000   1.0000   1.0000   1.0000   1.0000   1.0000   1.0000
     1.0000   1.0000   1.0000   1.0000   1.0000   1.0000   1.0000   1.0000
     1.0000   1.0000   1.0000   1.0000   1.0000   1.0000   1.0000   1.0000
     1.0000   1.0000   1.0000   1.0000   1.0000   1.0000   1.0000   1.0000
     1.0000   1.0000   1.0000   1.0000   1.0001   1.0053   1.0077   1.0450
     1.0532   0.0000   0.0000   0.0000   0.0000   0.0000   0.0000   0.0000
     0.0000   0.0000   0.0000   0.0000   0.0000   0.0000   0.0000   0.0000
     0.0000   0.0000   0.0000   0.0000   0.0000

          k = 0.1667 0.4811-0.2526 ( 11352 PWs)   bands (ev):

   -91.4959 -91.4871 -91.4849 -54.7489 -54.7370 -54.7268 -54.7216 -54.7124
   -54.7111 -54.7081 -54.7073 -54.7003 -47.7112 -19.7228 -19.6760 -19.6470
   -17.3878 -17.2816 -17.1758 -17.0908 -14.3516 -13.9436 -13.6544 -13.2495
   -13.1703 -13.1272  -5.5937  -5.3506  -4.7800  -4.5100  -2.1810  -1.9059
    -1.7354  -1.5130  -1.3502  -1.1432  -1.1101  -0.7546  -0.6114  -0.5680
    -0.4075  -0.1446  -0.1082   0.2062   0.3558   0.3988   0.5324   0.6360
     0.9461   1.0236   1.2521   1.3670   1.4152   2.0863   2.4604   2.7974
     3.0328   3.2305   3.2452   3.2727   3.4432   3.6597   3.6855   3.8585
     3.8835   5.5536   5.6693   5.8099   6.1950   6.3371   6.4101   8.0692
     9.6665  10.1162  10.8083  11.3911  11.9061  12.2123  12.5714  12.9206
    13.6333  13.8693  14.2115  15.1001  15.3035

     occupation numbers 
     1.0000   1.0000   1.0000   1.0000   1.0000   1.0000   1.0000   1.0000
     1.0000   1.0000   1.0000   1.0000   1.0000   1.0000   1.0000   1.0000
     1.0000   1.0000   1.0000   1.0000   1.0000   1.0000   1.0000   1.0000
     1.0000   1.0000   1.0000   1.0000   1.0000   1.0000   1.0000   1.0000
     1.0000   1.0000   1.0000   1.0000   1.0000   1.0000   1.0000   1.0000
     1.0000   1.0000   1.0000   1.0000   1.0000   1.0000   1.0000   1.0000
     1.0000   1.0000   1.0000   1.0000   1.0000   1.0000   1.0000   1.0000
     1.0000   1.0000   1.0000   1.0000   1.0001   1.0054   1.0076   1.0453
     1.0538   0.0000   0.0000   0.0000   0.0000   0.0000   0.0000   0.0000
     0.0000   0.0000   0.0000   0.0000   0.0000   0.0000   0.0000   0.0000
     0.0000   0.0000   0.0000   0.0000   0.0000

          k = 0.3333 0.5774 0.0000 ( 11370 PWs)   bands (ev):

   -91.4958 -91.4869 -91.4851 -54.7416 -54.7392 -54.7341 -54.7228 -54.7118
   -54.7112 -54.7072 -54.7050 -54.7009 -47.7112 -19.7255 -19.6763 -19.6479
   -17.4164 -17.2522 -17.1754 -17.0837 -14.0101 -14.0032 -13.9963 -13.1748
   -13.1672 -13.1636  -5.5708  -5.3111  -4.8575  -4.5409  -2.2675  -1.7149
    -1.6627  -1.4572  -1.4277  -1.3970  -0.9231  -0.6185  -0.6029  -0.5669
    -0.2552  -0.2504  -0.2454   0.1066   0.2064   0.2795   0.3861   0.5455
     1.1347   1.2894   1.3515   1.3599   1.3674   2.4476   2.4706   2.4798
     3.2232   3.2299   3.2317   3.4831   3.4846   3.4852   3.7152   3.7189
     3.7250   5.5741   5.5885   5.6097   6.4082   6.4170   6.4197   8.2609
     9.5641   9.9786  10.8428  11.2344  11.7409  12.3821  12.5572  12.9849
    13.6414  13.9241  14.2982  15.1859  15.3550

     occupation numbers 
     1.0000   1.0000   1.0000   1.0000   1.0000   1.0000   1.0000   1.0000
     1.0000   1.0000   1.0000   1.0000   1.0000   1.0000   1.0000   1.0000
     1.0000   1.0000   1.0000   1.0000   1.0000   1.0000   1.0000   1.0000
     1.0000   1.0000   1.0000   1.0000   1.0000   1.0000   1.0000   1.0000
     1.0000   1.0000   1.0000   1.0000   1.0000   1.0000   1.0000   1.0000
     1.0000   1.0000   1.0000   1.0000   1.0000   1.0000   1.0000   1.0000
     1.0000   1.0000   1.0000   1.0000   1.0000   1.0000   1.0000   1.0000
     1.0000   1.0000   1.0000   1.0003   1.0003   1.0003   1.0111   1.0116
     1.0124   0.0000   0.0000   0.0000   0.0000   0.0000   0.0000   0.0000
     0.0000   0.0000   0.0000   0.0000   0.0000   0.0000   0.0000   0.0000
     0.0000   0.0000   0.0000   0.0000   0.0000

          k = 0.3333 0.5774-0.2526 ( 11340 PWs)   bands (ev):

   -91.4958 -91.4869 -91.4851 -54.7416 -54.7392 -54.7341 -54.7228 -54.7118
   -54.7111 -54.7071 -54.7049 -54.7009 -47.7112 -19.7254 -19.6762 -19.6478
   -17.4162 -17.2522 -17.1755 -17.0838 -14.0099 -14.0031 -13.9963 -13.1749
   -13.1673 -13.1636  -5.5714  -5.3116  -4.8582  -4.5380  -2.2667  -1.7127
    -1.6802  -1.4508  -1.4056  -1.3936  -0.9366  -0.6288  -0.6130  -0.5900
    -0.2547  -0.2501  -0.2455   0.1380   0.2565   0.2966   0.3506   0.5382
     1.1205   1.2816   1.3523   1.3591   1.3711   2.4465   2.4713   2.4806
     3.2232   3.2293   3.2316   3.4831   3.4846   3.4853   3.7157   3.7207
     3.7277   5.5688   5.5844   5.6063   6.4082   6.4169   6.4197   8.2583
     9.5932   9.9770  10.8668  11.2401  11.6802  12.3528  12.5501  13.0552
    13.6343  13.8970  14.3299  15.2688  15.4183

     occupation numbers 
     1.0000   1.0000   1.0000   1.0000   1.0000   1.0000   1.0000   1.0000
     1.0000   1.0000   1.0000   1.0000   1.0000   1.0000   1.0000   1.0000
     1.0000   1.0000   1.0000   1.0000   1.0000   1.0000   1.0000   1.0000
     1.0000   1.0000   1.0000   1.0000   1.0000   1.0000   1.0000   1.0000
     1.0000   1.0000   1.0000   1.0000   1.0000   1.0000   1.0000   1.0000
     1.0000   1.0000   1.0000   1.0000   1.0000   1.0000   1.0000   1.0000
     1.0000   1.0000   1.0000   1.0000   1.0000   1.0000   1.0000   1.0000
     1.0000   1.0000   1.0000   1.0003   1.0003   1.0003   1.0111   1.0118
     1.0128   0.0000   0.0000   0.0000   0.0000   0.0000   0.0000   0.0000
     0.0000   0.0000   0.0000   0.0000   0.0000   0.0000   0.0000   0.0000
     0.0000   0.0000   0.0000   0.0000   0.0000

          k =-0.1667 0.0962 0.0000 ( 11360 PWs)   bands (ev):

   -91.4964 -91.4873 -91.4841 -54.7451 -54.7413 -54.7272 -54.7240 -54.7204
   -54.7123 -54.7081 -54.6991 -54.6958 -47.7112 -19.7205 -19.6760 -19.6454
   -17.6212 -17.3608 -17.0244 -16.9065 -14.8918 -13.4680 -13.3807 -13.3067
   -13.2468 -13.1008  -5.4910  -5.2922  -4.8674  -4.6903  -2.1407  -1.7850
    -1.6409  -1.4739  -1.2431  -1.1636  -1.0619  -0.9639  -0.9245  -0.7800
    -0.7282  -0.2923  -0.1111   0.3204   0.5899   0.6333   0.7124   0.8477
     0.8833   1.0604   1.1942   1.6285   1.6995   2.0438   2.1510   2.5739
     2.7681   2.8352   3.1149   3.3180   3.5194   3.5334   3.8624   3.9311
     3.9930   5.8505   5.8925   5.9138   5.9644   6.3297   6.5341   6.8371
     8.9092  10.3798  11.2403  11.4201  12.6127  12.9395  13.0555  13.3901
    13.7458  14.0505  14.6386  14.9866  15.0956

     occupation numbers 
     1.0000   1.0000   1.0000   1.0000   1.0000   1.0000   1.0000   1.0000
     1.0000   1.0000   1.0000   1.0000   1.0000   1.0000   1.0000   1.0000
     1.0000   1.0000   1.0000   1.0000   1.0000   1.0000   1.0000   1.0000
     1.0000   1.0000   1.0000   1.0000   1.0000   1.0000   1.0000   1.0000
     1.0000   1.0000   1.0000   1.0000   1.0000   1.0000   1.0000   1.0000
     1.0000   1.0000   1.0000   1.0000   1.0000   1.0000   1.0000   1.0000
     1.0000   1.0000   1.0000   1.0000   1.0000   1.0000   1.0000   1.0000
     1.0000   1.0000   1.0000   1.0000   1.0006   1.0007   1.0466   1.0697
     1.0828   0.0000   0.0000   0.0000   0.0000   0.0000   0.0000   0.0000
     0.0000   0.0000   0.0000   0.0000   0.0000   0.0000   0.0000   0.0000
     0.0000   0.0000   0.0000   0.0000   0.0000

          k = 0.1667 0.0962 0.0000 ( 11360 PWs)   bands (ev):

   -91.4964 -91.4873 -91.4841 -54.7449 -54.7413 -54.7274 -54.7244 -54.7201
   -54.7123 -54.7082 -54.6988 -54.6959 -47.7112 -19.7178 -19.6759 -19.6460
   -17.6070 -17.3463 -17.0505 -16.9169 -14.8917 -13.4677 -13.3809 -13.3075
   -13.2462 -13.1007  -5.5327  -5.2756  -4.8466  -4.6554  -2.0800  -1.8700
    -1.5680  -1.4795  -1.2311  -1.1943  -1.0667  -0.9882  -0.9286  -0.8399
    -0.7266  -0.2877  -0.1077   0.4322   0.5999   0.6561   0.7149   0.8273
     0.9356   0.9986   1.1072   1.6398   1.6866   2.0403   2.1517   2.5751
     2.7687   2.8346   3.1143   3.3194   3.5185   3.5341   3.8625   3.9302
     3.9944   5.8525   5.8920   5.9189   5.9579   6.3264   6.5351   6.8511
     8.9157  10.5495  11.2582  11.3374  12.4346  12.9234  13.0316  13.3233
    13.6446  14.1665  14.7042  14.9412  15.0714

     occupation numbers 
     1.0000   1.0000   1.0000   1.0000   1.0000   1.0000   1.0000   1.0000
     1.0000   1.0000   1.0000   1.0000   1.0000   1.0000   1.0000   1.0000
     1.0000   1.0000   1.0000   1.0000   1.0000   1.0000   1.0000   1.0000
     1.0000   1.0000   1.0000   1.0000   1.0000   1.0000   1.0000   1.0000
     1.0000   1.0000   1.0000   1.0000   1.0000   1.0000   1.0000   1.0000
     1.0000   1.0000   1.0000   1.0000   1.0000   1.0000   1.0000   1.0000
     1.0000   1.0000   1.0000   1.0000   1.0000   1.0000   1.0000   1.0000
     1.0000   1.0000   1.0000   1.0000   1.0006   1.0008   1.0466   1.0694
     1.0829   0.0000   0.0000   0.0000   0.0000   0.0000   0.0000   0.0000
     0.0000   0.0000   0.0000   0.0000   0.0000   0.0000   0.0000   0.0000
     0.0000   0.0000   0.0000   0.0000   0.0000

          k =-0.1667 0.0962-0.2526 ( 11384 PWs)   bands (ev):

   -91.4965 -91.4873 -91.4841 -54.7451 -54.7413 -54.7272 -54.7241 -54.7204
   -54.7123 -54.7082 -54.6992 -54.6958 -47.7113 -19.7206 -19.6761 -19.6454
   -17.6206 -17.3617 -17.0244 -16.9065 -14.8911 -13.4680 -13.3807 -13.3067
[...]
     1.0288   1.0369   1.0484   1.0662   0.9331   0.8930   0.6721   0.2762
     0.0249   0.0000   0.0000   0.0000   0.0000   0.0000   0.0000   0.0000
     0.0000   0.0000   0.0000   0.0000   0.0000   0.0000   0.0000   0.0000
     0.0000   0.0000   0.0000   0.0000   0.0000

          k = 0.5000-0.0962 0.2526 ( 11352 PWs)   bands (ev):

   -90.7672 -90.7655 -90.7621 -54.0998 -54.0892 -54.0759 -54.0618 -54.0583
   -54.0536 -53.8975 -53.8951 -53.8918 -47.7111 -19.7276 -19.6762 -19.6473
   -17.5051 -17.2904 -17.1067 -17.0032 -14.2536 -13.8433 -13.5530 -13.1440
   -13.0652 -13.0209  -5.5034  -5.2774  -4.9360  -4.6194  -2.2922  -1.7510
    -1.6587  -1.5614  -1.1725  -1.0217  -0.7836  -0.6087  -0.5068  -0.3556
    -0.1899   0.0269   0.0618   0.1847   0.4714   0.6312   0.7281   0.8555
     1.1267   1.1765   1.2830   1.3726   1.6290   2.2645   2.6382   2.9878
     3.8042   3.8290   3.8690   3.9194   4.1816   4.2015   4.2897   4.4434
     4.6764   5.8891   6.0259   6.1847   6.4765   6.6216   6.6843   8.0669
     9.5039   9.8276  10.7169  11.4927  12.1860  12.4272  12.7220  13.0959
    13.7040  14.1790  14.5015  14.8276  15.1758

     occupation numbers 
     1.0000   1.0000   1.0000   1.0000   1.0000   1.0000   1.0000   1.0000
     1.0000   1.0000   1.0000   1.0000   1.0000   1.0000   1.0000   1.0000
     1.0000   1.0000   1.0000   1.0000   1.0000   1.0000   1.0000   1.0000
     1.0000   1.0000   1.0000   1.0000   1.0000   1.0000   1.0000   1.0000
     1.0000   1.0000   1.0000   1.0000   1.0000   1.0000   1.0000   1.0000
     1.0000   1.0000   1.0000   1.0000   1.0000   1.0000   1.0000   1.0000
     1.0000   1.0000   1.0000   1.0000   1.0000   1.0000   1.0000   1.0000
     1.0288   1.0358   1.0488   1.0660   0.9316   0.8917   0.6731   0.2782
     0.0246   0.0000   0.0000   0.0000   0.0000   0.0000   0.0000   0.0000
     0.0000   0.0000   0.0000   0.0000   0.0000   0.0000   0.0000   0.0000
     0.0000   0.0000   0.0000   0.0000   0.0000

     the Fermi energy is     4.3905 ev

!    total energy              =   -1665.50246778 Ry
     total all-electron energy =    -10200.124801 Ry
     estimated scf accuracy    <       0.00000009 Ry
     smearing contrib. (-TS)   =       0.00984309 Ry
     internal energy E=F+TS    =   -1665.51231088 Ry

     The total energy is F=E-TS. E is the sum of the following terms:
     one-electron contribution =   -1721.57930837 Ry
     hartree contribution      =     911.30926755 Ry
     xc contribution           =    -186.44852856 Ry
     ewald contribution        =    -294.93387556 Ry
     one-center paw contrib.   =    -373.85986594 Ry
      -> PAW hartree energy AE =    1007.32241452 Ry
      -> PAW hartree energy PS =   -1004.90659840 Ry
      -> PAW xc energy AE      =    -554.21778527 Ry
      -> PAW xc energy PS      =     177.94210322 Ry
      -> total E_H with PAW    =     913.72508367 Ry
      -> total E_XC with PAW   =    -562.72421062 Ry

     total magnetization       =     2.30 Bohr mag/cell
     absolute magnetization    =     2.34 Bohr mag/cell

     convergence has been achieved in  30 iterations

     Forces acting on atoms (cartesian axes, Ry/au):

     atom    1 type  1   force =    -0.00167577    0.00132609   -0.00472162
     atom    2 type  1   force =     0.00148225   -0.00058678    0.00028285
     atom    3 type  1   force =    -0.00075749   -0.00031076    0.00205226
     atom    4 type  2   force =    -0.00474607   -0.00338011   -0.01862781
     atom    5 type  2   force =    -0.00123274    0.00217861   -0.01881448
     atom    6 type  2   force =     0.00419502    0.00208641   -0.01386492
     atom    7 type  2   force =     0.00423250    0.00158429    0.01706763
     atom    8 type  2   force =    -0.00445702    0.00161271    0.01632736
     atom    9 type  2   force =    -0.00264162   -0.00271422    0.02007024
     atom   10 type  3   force =    -0.02439849    0.00093595    0.05099551
     atom   11 type  2   force =    -0.01223256   -0.01446005    0.00933757
     atom   12 type  4   force =     0.03186761    0.01638711    0.00031636
     atom   13 type  4   force =    -0.00222764   -0.00230651   -0.05084584
     atom   14 type  2   force =    -0.01545386   -0.01490855    0.00819208
     atom   15 type  4   force =    -0.00362521    0.02006807   -0.00378535
     atom   16 type  4   force =     0.00927865    0.00183156   -0.05124224
     atom   17 type  2   force =    -0.00800198   -0.02124294   -0.04473253
     atom   18 type  4   force =     0.00433428    0.03651973    0.00124479
     atom   19 type  4   force =     0.01478191   -0.00779113    0.05196033
     atom   20 type  2   force =    -0.03678722   -0.02936619   -0.03933548
     atom   21 type  4   force =     0.03904059    0.00972967    0.01546592
     atom   22 type  4   force =     0.00902486    0.00280705    0.05265738
     The non-local contrib.  to forces
     atom    1 type  1   force =    -0.00071652    0.01251781    0.01353838
     atom    2 type  1   force =    -0.00085665    0.00173761   -0.00602458
     atom    3 type  1   force =     0.00892904   -0.01647233   -0.01504227
     atom    4 type  2   force =    -0.03635940   -0.02926030   -1.10838464
     atom    5 type  2   force =    -0.01273233    0.01958712   -1.11036942
     atom    6 type  2   force =     0.04014427    0.01350428   -1.06812616
     atom    7 type  2   force =     0.04083888    0.01234447    1.09677056
     atom    8 type  2   force =    -0.04280392    0.00192629    1.08756414
     atom    9 type  2   force =    -0.02880292   -0.00540861    1.11931692
     atom   10 type  3   force =    -0.13407695   -0.43801305    0.46385376
     atom   11 type  2   force =     1.52608245   -0.20702038   -1.23429783
     atom   12 type  4   force =    -0.11060462   -0.01748931   -0.02468046
     atom   13 type  4   force =     0.00568411    0.01540885    0.11544718
     atom   14 type  2   force =    -0.99759898    1.26001113   -1.30419029
     atom   15 type  4   force =     0.06797349   -0.08831735   -0.02462367
     atom   16 type  4   force =    -0.01750127   -0.00294080    0.11552035
     atom   17 type  2   force =    -0.16791650    1.79299840    1.40329514
     atom   18 type  4   force =     0.04414169   -0.10354669    0.01727581
     atom   19 type  4   force =    -0.04727548    0.00026687   -0.10639959
     atom   20 type  2   force =     1.51593468    0.79744056    1.30747081
     atom   21 type  4   force =    -0.06751220   -0.08938814    0.01517693
     atom   22 type  4   force =    -0.02345161    0.03955901   -0.10661470
     The ionic contribution  to forces
     atom    1 type  1   force =    -0.15046495   -0.29414141   -0.61485080
     atom    2 type  1   force =     0.36593655   -0.06250264    0.36146456
     atom    3 type  1   force =    -0.23790651    0.36397528    0.42688681
     atom    4 type  2   force =     0.29964073    0.44636639   32.49725139
     atom    5 type  2   force =     0.23453068   -0.41397812   32.46740926
     atom    6 type  2   force =    -0.52082693   -0.03907770   32.39609152
     atom    7 type  2   force =    -0.47060196    0.00537787  -32.44594343
     atom    8 type  2   force =     0.25628195    0.27541996  -32.39195768
     atom    9 type  2   force =     0.26334226   -0.28831608  -32.48638424
     atom   10 type  3   force =    -2.15672855   -2.98281688    4.18028232
     atom   11 type  2   force =    -0.09049592    0.39781839   10.37957452
     atom   12 type  4   force =     3.08368425    0.21296033    1.95242046
     atom   13 type  4   force =    -0.06043987   -0.43743194    0.08152134
     atom   14 type  2   force =     0.51090362    0.08232366   10.49516789
     atom   15 type  4   force =    -2.21876011    2.44123696    1.93134593
     atom   16 type  4   force =     0.48947434    0.19430702    0.09126421
     atom   17 type  2   force =     1.09791534   -3.27919339  -12.51640308
     atom   18 type  4   force =    -1.20276307    2.64558548   -1.78747115
     atom   19 type  4   force =     1.39424184   -0.02321958   -0.39440371
     atom   20 type  2   force =    -3.11907247   -0.67713021  -12.42847391
     atom   21 type  4   force =     1.54276736    2.52271494   -1.86780311
     atom   22 type  4   force =     0.68934142   -1.09027834   -0.32698908
     The local contribution  to forces
     atom    1 type  1   force =     0.14949646    0.28303792    0.59626863
     atom    2 type  1   force =    -0.36359520    0.06019772   -0.35553026
     atom    3 type  1   force =     0.22827532   -0.34791930   -0.41020786
     atom    4 type  2   force =    -0.26842977   -0.42067025  -31.41729492
     atom    5 type  2   force =    -0.22315196    0.39663256  -31.38568596
     atom    6 type  2   force =     0.48532095    0.02781521  -31.35123270
     atom    7 type  2   force =     0.43438941   -0.01611376   31.37567897
     atom    8 type  2   force =    -0.21843201   -0.27567481   31.33007076
     atom    9 type  2   force =    -0.23736839    0.29102064   31.39680822
     atom   10 type  3   force =     2.26626505    3.42138700   -4.59240091
     atom   11 type  2   force =    -1.43608551   -0.20716623   -9.14525667
     atom   12 type  4   force =    -2.94120892   -0.17908507   -1.92740578
     atom   13 type  4   force =     0.05252959    0.41971427   -0.24783249
     atom   14 type  2   force =     0.46317952   -1.34749352   -9.19273740
     atom   15 type  4   force =     2.14715784   -2.33284798   -1.91049087
     atom   16 type  4   force =    -0.46269243   -0.18953024   -0.25804525
     atom   17 type  2   force =    -0.93953255    1.47875077   11.07920224
     atom   18 type  4   force =     1.16296416   -2.50552560    1.77146898
     atom   19 type  4   force =    -1.33218735    0.01516428    0.55276570
     atom   20 type  2   force =     1.57788005   -0.14346554   11.09155107
     atom   21 type  4   force =    -1.43622053   -2.42360495    1.86811753
     atom   22 type  4   force =    -0.65686770    1.05352992    0.48625575
     The core correction contribution to forces
     atom    1 type  1   force =     0.00000993   -0.00008004   -0.00000949
     atom    2 type  1   force =     0.00000267   -0.00001136    0.00003173
     atom    3 type  1   force =    -0.00005292    0.00009957    0.00007411
     atom    4 type  2   force =     0.00032704    0.00025531    0.00977427
     atom    5 type  2   force =     0.00010357   -0.00016372    0.00980394
     atom    6 type  2   force =    -0.00034670   -0.00012442    0.00938278
     atom    7 type  2   force =    -0.00036340   -0.00012250   -0.00966338
     atom    8 type  2   force =     0.00039390   -0.00002151   -0.00956765
     atom    9 type  2   force =     0.00026162    0.00005630   -0.00988742
     atom   10 type  3   force =     0.00008377    0.00021452   -0.00026713
     atom   11 type  2   force =    -0.01172313    0.00189096    0.00939253
     atom   12 type  4   force =     0.00000000    0.00000000    0.00000000
     atom   13 type  4   force =     0.00000000    0.00000000    0.00000000
     atom   14 type  2   force =     0.00804434   -0.00972107    0.01001326
     atom   15 type  4   force =     0.00000000    0.00000000    0.00000000
     atom   16 type  4   force =     0.00000000    0.00000000    0.00000000
     atom   17 type  2   force =     0.00154033   -0.01377115   -0.01068045
     atom   18 type  4   force =     0.00000000    0.00000000    0.00000000
     atom   19 type  4   force =     0.00000000    0.00000000    0.00000000
     atom   20 type  2   force =    -0.01154003   -0.00619944   -0.00974474
     atom   21 type  4   force =     0.00000000    0.00000000    0.00000000
     atom   22 type  4   force =     0.00000000    0.00000000    0.00000000
     The Hubbard contrib.    to forces
     atom    1 type  1   force =     0.00000000    0.00000000    0.00000000
     atom    2 type  1   force =     0.00000000    0.00000000    0.00000000
     atom    3 type  1   force =     0.00000000    0.00000000    0.00000000
     atom    4 type  2   force =     0.00000000    0.00000000    0.00000000
     atom    5 type  2   force =     0.00000000    0.00000000    0.00000000
     atom    6 type  2   force =     0.00000000    0.00000000    0.00000000
     atom    7 type  2   force =     0.00000000    0.00000000    0.00000000
     atom    8 type  2   force =     0.00000000    0.00000000    0.00000000
     atom    9 type  2   force =     0.00000000    0.00000000    0.00000000
     atom   10 type  3   force =     0.00000000    0.00000000    0.00000000
     atom   11 type  2   force =     0.00000000    0.00000000    0.00000000
     atom   12 type  4   force =     0.00000000    0.00000000    0.00000000
     atom   13 type  4   force =     0.00000000    0.00000000    0.00000000
     atom   14 type  2   force =     0.00000000    0.00000000    0.00000000
     atom   15 type  4   force =     0.00000000    0.00000000    0.00000000
     atom   16 type  4   force =     0.00000000    0.00000000    0.00000000
     atom   17 type  2   force =     0.00000000    0.00000000    0.00000000
     atom   18 type  4   force =     0.00000000    0.00000000    0.00000000
     atom   19 type  4   force =     0.00000000    0.00000000    0.00000000
     atom   20 type  2   force =     0.00000000    0.00000000    0.00000000
     atom   21 type  4   force =     0.00000000    0.00000000    0.00000000
     atom   22 type  4   force =     0.00000000    0.00000000    0.00000000
     The SCF correction term to forces
     atom    1 type  1   force =     0.00000054   -0.00000672    0.00032932
     atom    2 type  1   force =    -0.00000390   -0.00000662    0.00033905
     atom    3 type  1   force =    -0.00000118    0.00000750    0.00033914
     atom    4 type  2   force =     0.00007656   -0.00006978    0.00002376
     atom    5 type  2   force =     0.00001853    0.00010225    0.00002536
     atom    6 type  2   force =    -0.00009533   -0.00002948    0.00001730
     atom    7 type  2   force =    -0.00002920    0.00009970    0.00022257
     atom    8 type  2   force =     0.00010429   -0.00003575    0.00021544
     atom    9 type  2   force =    -0.00007296   -0.00006500    0.00021442
     atom   10 type  3   force =     0.00005942    0.00016584   -0.00047487
     atom   11 type  2   force =    -0.00000921    0.00001870   -0.00007732
     atom   12 type  4   force =    -0.00000187    0.00000265   -0.00002020
     atom   13 type  4   force =    -0.00000023    0.00000378    0.00001578
     atom   14 type  2   force =     0.00001887   -0.00002727   -0.00006372
     atom   15 type  4   force =     0.00000481   -0.00000208   -0.00001907
     atom   16 type  4   force =    -0.00000075   -0.00000294    0.00001611
     atom   17 type  2   force =    -0.00000735   -0.00002609   -0.00014871
     atom   18 type  4   force =    -0.00000726    0.00000801   -0.00003120
     atom   19 type  4   force =     0.00000414   -0.00000122   -0.00000441
     atom   20 type  2   force =     0.00001178   -0.00001008   -0.00014105
     atom   21 type  4   force =     0.00000719    0.00000929   -0.00002777
     atom   22 type  4   force =     0.00000399   -0.00000206    0.00000307

     Total force =     0.168927     Total SCF correction =     0.000928

     Writing all to output data dir ./out/pw.save/ :
     XML data file, charge density, pseudopotentials, collected wavefunctions
 
     init_run     :     26.33s CPU      7.20s WALL (       1 calls)
     electrons    :    574.57s CPU    209.46s WALL (       1 calls)
     forces       :      2.97s CPU      2.75s WALL (       1 calls)

     Called by init_run:
     wfcinit      :      1.76s CPU      2.28s WALL (       1 calls)
     wfcinit:atom :      0.19s CPU      0.19s WALL (      80 calls)
     wfcinit:wfcr :      1.08s CPU      1.14s WALL (      80 calls)
     potinit      :     23.61s CPU      3.86s WALL (       1 calls)
     hinit0       :      0.75s CPU      0.75s WALL (       1 calls)

     Called by electrons:
     c_bands      :    131.95s CPU    133.53s WALL (      30 calls)
     sum_band     :     18.60s CPU     18.66s WALL (      30 calls)
     v_of_rho     :      0.80s CPU      0.51s WALL (      31 calls)
     v_h          :      0.48s CPU      0.14s WALL (      31 calls)
     v_xc         :      0.34s CPU      0.38s WALL (      32 calls)
     newd         :      0.81s CPU      0.77s WALL (      31 calls)
                                        0.77s GPU  (      31 calls)
     PAW_pot      :    432.22s CPU     55.38s WALL (      31 calls)
     mix_rho      :      1.73s CPU      1.72s WALL (      30 calls)

     Called by c_bands:
     init_us_2    :      4.62s CPU      4.62s WALL (    4960 calls)
     cegterg      :    104.16s CPU    105.05s WALL (    2400 calls)

     Called by sum_band:
     sum_band:wei :      0.18s CPU      0.18s WALL (      30 calls)
                                        0.18s GPU  (      30 calls)
     sum_band:loo :     16.93s CPU     16.96s WALL (      30 calls)
                                       16.96s GPU  (      30 calls)
     sum_band:buf :      5.36s CPU      5.47s WALL (    2400 calls)
                                        5.44s GPU  (    2400 calls)
     sum_band:ini :      2.23s CPU      2.26s WALL (    2400 calls)
                                        2.24s GPU  (    2400 calls)
     sum_band:cal :      0.22s CPU      0.52s WALL (    2400 calls)
                                        0.48s GPU  (    2400 calls)
     sum_band:bec :      2.25s CPU      2.30s WALL (    2400 calls)
                                        2.27s GPU  (    2400 calls)
     addusdens    :      1.21s CPU      1.22s WALL (      30 calls)
                                        1.22s GPU  (      30 calls)
     addusd:skk   :      0.02s CPU      0.03s WALL (     120 calls)
                                        0.03s GPU  (     120 calls)

     Called by *egterg:
     cdiaghg      :     38.19s CPU     38.55s WALL (   14296 calls)
                                       38.38s GPU  (   14296 calls)
     cegterg:over :      5.28s CPU      5.33s WALL (   11896 calls)
     cegterg:upda :      4.81s CPU      4.84s WALL (   11896 calls)
     cegterg:last :      1.15s CPU      1.15s WALL (    4788 calls)
     h_psi        :     42.24s CPU     43.14s WALL (   14376 calls)
                                       42.95s GPU  (   14376 calls)
     s_psi        :      8.74s CPU      8.85s WALL (   14376 calls)
     g_psi        :      0.06s CPU      0.59s WALL (   11896 calls)
                                        0.43s GPU  (   11896 calls)

     Called by h_psi:
     h_psi:calbec :      0.53s CPU      1.67s WALL (   14376 calls)
                                        1.50s GPU  (   14376 calls)
     vloc_psi     :     30.39s CPU     30.86s WALL (   14376 calls)
                                       30.68s GPU  (   14376 calls)
     add_vuspsi   :      8.41s CPU      9.56s WALL (   14376 calls)
                                        9.38s GPU  (   14376 calls)

     General routines
     calbec       :      0.67s CPU      0.72s WALL (   17096 calls)
     fft          :      7.17s CPU      1.26s WALL (     788 calls)
                                        0.09s GPU  (     726 calls)
     ffts         :      3.76s CPU      0.98s WALL (    1563 calls)
                                        0.05s GPU  (    1501 calls)
     fftw         :      1.47s CPU     19.96s WALL (   96274 calls)
                                       18.90s GPU  (   96274 calls)
     interpolate  :     11.32s CPU      2.23s WALL (      62 calls)
 
     Parallel routines

     PAW routines
     PAW_pot      :    432.22s CPU     55.38s WALL (      31 calls)
 
     PWSCF        :  10m 5.75s CPU   3m40.81s WALL

 
   This run was terminated on:   5:46:20  12Jul2026            

=------------------------------------------------------------------------------=
   JOB DONE.
=------------------------------------------------------------------------------=
Warning: ieee_divide_by_zero is signaling
Warning: ieee_inexact is signaling
FORTRAN STOP
