
     Program PROJWFC v.7.3.1 starts on 12Jul2026 at  6:32:16 

     This program is part of the open-source Quantum ESPRESSO suite
     for quantum simulation of materials; please cite
         "P. Giannozzi et al., J. Phys.:Condens. Matter 21 395502 (2009);
         "P. Giannozzi et al., J. Phys.:Condens. Matter 29 465901 (2017);
         "P. Giannozzi et al., J. Chem. Phys. 152 154105 (2020);
          URL http://www.quantum-espresso.org", 
     in publications or presentations arising from this work. More details at
     http://www.quantum-espresso.org/quote

     Serial version
     1341449 MiB available memory on the printing compute node when the environment starts


     Reading xml data from directory:

     ./out/pw.save/
     file Co.pbe-spn-kjpaw_psl.0.3.1.UPF: wavefunction(s)  3P 3D renormalized
     file O.pbe-n-kjpaw_psl.1.0.0.UPF: wavefunction(s)  2S 2P renormalized
     file Na.pbe-spn-kjpaw_psl.1.0.0.UPF: wavefunction(s)  2P renormalized

     IMPORTANT: XC functional enforced from input :
     Exchange-correlation= PBE
                           (   1   4   3   4   0   0   0)
     Any further DFT definition will be discarded
     Please, verify this is what you really want


     G-vector sticks info
     --------------------
     sticks:   dense  smooth     PW     G-vecs:    dense   smooth      PW
     Sum        2941    1483    421               142753    50601    7491

     Using Slab Decomposition


     Check: negative core charge=   -0.000009

     Gaussian broadening (read from input): ngauss,degauss=   0    0.020000


     Calling projwave .... 

  Problem Sizes 
  natomwfc =           59
  nbnd     =           64
  nkstot   =          120
  npwx     =         6338
  nkb      =          110


     Atomic states used for projection
     (read from pseudopotential files):

     state #   1: atom   1 (Co ), wfc  1 (l=0 m= 1)
     state #   2: atom   1 (Co ), wfc  2 (l=0 m= 1)
     state #   3: atom   1 (Co ), wfc  3 (l=1 m= 1)
     state #   4: atom   1 (Co ), wfc  3 (l=1 m= 2)
     state #   5: atom   1 (Co ), wfc  3 (l=1 m= 3)
     state #   6: atom   1 (Co ), wfc  4 (l=2 m= 1)
     state #   7: atom   1 (Co ), wfc  4 (l=2 m= 2)
     state #   8: atom   1 (Co ), wfc  4 (l=2 m= 3)
     state #   9: atom   1 (Co ), wfc  4 (l=2 m= 4)
     state #  10: atom   1 (Co ), wfc  4 (l=2 m= 5)
     state #  11: atom   2 (Co ), wfc  1 (l=0 m= 1)
     state #  12: atom   2 (Co ), wfc  2 (l=0 m= 1)
     state #  13: atom   2 (Co ), wfc  3 (l=1 m= 1)
     state #  14: atom   2 (Co ), wfc  3 (l=1 m= 2)
     state #  15: atom   2 (Co ), wfc  3 (l=1 m= 3)
     state #  16: atom   2 (Co ), wfc  4 (l=2 m= 1)
     state #  17: atom   2 (Co ), wfc  4 (l=2 m= 2)
     state #  18: atom   2 (Co ), wfc  4 (l=2 m= 3)
     state #  19: atom   2 (Co ), wfc  4 (l=2 m= 4)
     state #  20: atom   2 (Co ), wfc  4 (l=2 m= 5)
     state #  21: atom   3 (Co ), wfc  1 (l=0 m= 1)
     state #  22: atom   3 (Co ), wfc  2 (l=0 m= 1)
     state #  23: atom   3 (Co ), wfc  3 (l=1 m= 1)
     state #  24: atom   3 (Co ), wfc  3 (l=1 m= 2)
     state #  25: atom   3 (Co ), wfc  3 (l=1 m= 3)
     state #  26: atom   3 (Co ), wfc  4 (l=2 m= 1)
     state #  27: atom   3 (Co ), wfc  4 (l=2 m= 2)
     state #  28: atom   3 (Co ), wfc  4 (l=2 m= 3)
     state #  29: atom   3 (Co ), wfc  4 (l=2 m= 4)
     state #  30: atom   3 (Co ), wfc  4 (l=2 m= 5)
     state #  31: atom   4 (O  ), wfc  1 (l=0 m= 1)
     state #  32: atom   4 (O  ), wfc  2 (l=1 m= 1)
     state #  33: atom   4 (O  ), wfc  2 (l=1 m= 2)
     state #  34: atom   4 (O  ), wfc  2 (l=1 m= 3)
     state #  35: atom   5 (O  ), wfc  1 (l=0 m= 1)
     state #  36: atom   5 (O  ), wfc  2 (l=1 m= 1)
     state #  37: atom   5 (O  ), wfc  2 (l=1 m= 2)
     state #  38: atom   5 (O  ), wfc  2 (l=1 m= 3)
     state #  39: atom   6 (O  ), wfc  1 (l=0 m= 1)
     state #  40: atom   6 (O  ), wfc  2 (l=1 m= 1)
     state #  41: atom   6 (O  ), wfc  2 (l=1 m= 2)
     state #  42: atom   6 (O  ), wfc  2 (l=1 m= 3)
     state #  43: atom   7 (O  ), wfc  1 (l=0 m= 1)
     state #  44: atom   7 (O  ), wfc  2 (l=1 m= 1)
     state #  45: atom   7 (O  ), wfc  2 (l=1 m= 2)
     state #  46: atom   7 (O  ), wfc  2 (l=1 m= 3)
     state #  47: atom   8 (O  ), wfc  1 (l=0 m= 1)
     state #  48: atom   8 (O  ), wfc  2 (l=1 m= 1)
     state #  49: atom   8 (O  ), wfc  2 (l=1 m= 2)
     state #  50: atom   8 (O  ), wfc  2 (l=1 m= 3)
     state #  51: atom   9 (O  ), wfc  1 (l=0 m= 1)
     state #  52: atom   9 (O  ), wfc  2 (l=1 m= 1)
     state #  53: atom   9 (O  ), wfc  2 (l=1 m= 2)
     state #  54: atom   9 (O  ), wfc  2 (l=1 m= 3)
     state #  55: atom  10 (Na ), wfc  1 (l=0 m= 1)
     state #  56: atom  10 (Na ), wfc  2 (l=0 m= 1)
     state #  57: atom  10 (Na ), wfc  3 (l=1 m= 1)
     state #  58: atom  10 (Na ), wfc  3 (l=1 m= 2)
     state #  59: atom  10 (Na ), wfc  3 (l=1 m= 3)

 k =   0.0000000000  0.0000000000  0.0000000000
==== e(   1) =   -89.51919 eV ==== 
     psi = 0.485*[#  11]+0.485*[#  21]+0.011*[#  56]+0.006*[#   2]+0.001*[#  32]
          +0.001*[#  36]+0.001*[#  40]+0.001*[#  44]+0.001*[#  48]+0.001*[#  52]
          
    |psi|^2 = 1.000
==== e(   2) =   -89.51541 eV ==== 
     psi = 0.488*[#  11]+0.488*[#  21]+0.005*[#  12]+0.005*[#  22]+0.002*[#  38]
          +0.002*[#  46]+0.002*[#  33]+0.002*[#  41]+0.002*[#  49]+0.002*[#  53]
          
    |psi|^2 = 1.000
==== e(   3) =   -89.40399 eV ==== 
     psi = 0.972*[#   1]+0.006*[#  56]+0.003*[#  12]+0.003*[#  22]+0.003*[#   2]
          +0.002*[#  37]+0.002*[#  45]+0.001*[#  34]+0.001*[#  42]+0.001*[#  50]
          +0.001*[#  54]
    |psi|^2 = 1.000
==== e(   4) =   -52.75532 eV ==== 
     psi = 0.498*[#  13]+0.498*[#  23]
    |psi|^2 = 1.000
==== e(   5) =   -52.75332 eV ==== 
     psi = 0.249*[#  14]+0.249*[#  15]+0.249*[#  24]+0.249*[#  25]
    |psi|^2 = 1.000
==== e(   6) =   -52.75332 eV ==== 
     psi = 0.249*[#  14]+0.249*[#  15]+0.249*[#  24]+0.249*[#  25]
    |psi|^2 = 1.000
==== e(   7) =   -52.74897 eV ==== 
     psi = 0.499*[#  13]+0.499*[#  23]
    |psi|^2 = 1.000
==== e(   8) =   -52.73249 eV ==== 
     psi = 0.233*[#  14]+0.233*[#  15]+0.233*[#  24]+0.233*[#  25]+0.033*[#   4]
          +0.033*[#   5]
    |psi|^2 = 1.000
==== e(   9) =   -52.73249 eV ==== 
     psi = 0.233*[#  14]+0.233*[#  15]+0.233*[#  24]+0.233*[#  25]+0.033*[#   4]
          +0.033*[#   5]
    |psi|^2 = 1.000
==== e(  10) =   -52.65933 eV ==== 
     psi = 0.465*[#   4]+0.465*[#   5]+0.017*[#  14]+0.017*[#  15]+0.017*[#  24]
          +0.017*[#  25]
    |psi|^2 = 1.000
==== e(  11) =   -52.65933 eV ==== 
     psi = 0.465*[#   4]+0.465*[#   5]+0.017*[#  14]+0.017*[#  15]+0.017*[#  24]
          +0.017*[#  25]
    |psi|^2 = 1.000
==== e(  12) =   -52.59843 eV ==== 
     psi = 0.997*[#   3]
    |psi|^2 = 1.000
==== e(  13) =   -43.60919 eV ==== 
     psi = 0.992*[#  55]+0.004*[#   2]
    |psi|^2 = 1.000
==== e(  14) =   -15.58949 eV ==== 
     psi = 0.991*[#  57]+0.001*[#  31]+0.001*[#  35]+0.001*[#  39]+0.001*[#  43]
          +0.001*[#  47]+0.001*[#  51]
    |psi|^2 = 1.000
==== e(  15) =   -15.52432 eV ==== 
     psi = 0.498*[#  58]+0.498*[#  59]
    |psi|^2 = 1.000
==== e(  16) =   -15.52432 eV ==== 
     psi = 0.498*[#  58]+0.498*[#  59]
    |psi|^2 = 1.000
==== e(  17) =   -13.00548 eV ==== 
     psi = 0.103*[#  31]+0.103*[#  35]+0.103*[#  39]+0.103*[#  43]+0.103*[#  47]
          +0.103*[#  51]+0.098*[#   2]+0.094*[#  12]+0.094*[#  22]+0.060*[#  56]
          +0.004*[#   1]+0.004*[#  11]+0.004*[#  21]+0.003*[#  32]+0.003*[#  36]
          +0.003*[#  40]+0.003*[#  44]+0.003*[#  48]+0.003*[#  52]+0.002*[#  16]
          +0.002*[#  26]+0.002*[#   6]
    |psi|^2 = 0.999
==== e(  18) =   -11.31601 eV ==== 
     psi = 0.156*[#  31]+0.156*[#  35]+0.156*[#  39]+0.156*[#  43]+0.156*[#  47]
          +0.156*[#  51]+0.009*[#   9]+0.009*[#  10]+0.009*[#   7]+0.009*[#   8]
          +0.002*[#  19]+0.002*[#  20]+0.002*[#  29]+0.002*[#  30]+0.002*[#  17]
          +0.002*[#  18]+0.002*[#  27]+0.002*[#  28]+0.001*[#  32]+0.001*[#  36]
          +0.001*[#  40]+0.001*[#  44]+0.001*[#  48]+0.001*[#  52]
    |psi|^2 = 0.998
==== e(  19) =   -11.31601 eV ==== 
     psi = 0.156*[#  31]+0.156*[#  35]+0.156*[#  39]+0.156*[#  43]+0.156*[#  47]
          +0.156*[#  51]+0.009*[#   9]+0.009*[#  10]+0.009*[#   7]+0.009*[#   8]
          +0.002*[#  19]+0.002*[#  20]+0.002*[#  29]+0.002*[#  30]+0.002*[#  17]
          +0.002*[#  18]+0.002*[#  27]+0.002*[#  28]+0.001*[#  32]+0.001*[#  36]
          +0.001*[#  40]+0.001*[#  44]+0.001*[#  48]+0.001*[#  52]
    |psi|^2 = 0.998
==== e(  20) =   -11.30878 eV ==== 
     psi = 0.155*[#  31]+0.155*[#  35]+0.155*[#  39]+0.155*[#  43]+0.155*[#  47]
          +0.155*[#  51]+0.007*[#  19]+0.007*[#  20]+0.007*[#  29]+0.007*[#  30]
          +0.006*[#  17]+0.006*[#  18]+0.006*[#  27]+0.006*[#  28]+0.001*[#  32]
          +0.001*[#  36]+0.001*[#  40]+0.001*[#  44]+0.001*[#  48]+0.001*[#  52]
          +0.001*[#  58]+0.001*[#  59]
    |psi|^2 = 0.998
==== e(  21) =   -11.30878 eV ==== 
     psi = 0.155*[#  31]+0.155*[#  35]+0.155*[#  39]+0.155*[#  43]+0.155*[#  47]
          +0.155*[#  51]+0.007*[#  19]+0.007*[#  20]+0.007*[#  29]+0.007*[#  30]
          +0.006*[#  17]+0.006*[#  18]+0.006*[#  27]+0.006*[#  28]+0.001*[#  32]
          +0.001*[#  36]+0.001*[#  40]+0.001*[#  44]+0.001*[#  48]+0.001*[#  52]
          +0.001*[#  58]+0.001*[#  59]
    |psi|^2 = 0.998
==== e(  22) =   -11.04699 eV ==== 
     psi = 0.164*[#  31]+0.164*[#  35]+0.164*[#  39]+0.164*[#  43]+0.164*[#  47]
          +0.164*[#  51]+0.007*[#  57]
    |psi|^2 = 0.995
==== e(  23) =     0.60347 eV ==== 
     psi = 0.111*[#   6]+0.095*[#  32]+0.095*[#  36]+0.095*[#  40]+0.095*[#  44]
          +0.095*[#  48]+0.095*[#  52]+0.087*[#  16]+0.087*[#  26]+0.052*[#  56]
          +0.007*[#  12]+0.007*[#  22]+0.006*[#  37]+0.006*[#  45]+0.005*[#  31]
          +0.005*[#  35]+0.005*[#  39]+0.005*[#  43]+0.005*[#  47]+0.005*[#  51]
          +0.005*[#  34]+0.005*[#  42]+0.005*[#  50]+0.005*[#  54]+0.002*[#  33]
          +0.002*[#  41]+0.002*[#  49]+0.002*[#  53]+0.002*[#  55]+0.001*[#  11]
          +0.001*[#  21]
    |psi|^2 = 0.998
==== e(  24) =     0.88539 eV ==== 
     psi = 0.088*[#   7]+0.088*[#   8]+0.060*[#  37]+0.060*[#  45]+0.055*[#  34]
          +0.055*[#  42]+0.055*[#  50]+0.055*[#  54]+0.046*[#  33]+0.046*[#  41]
          +0.046*[#  49]+0.046*[#  53]+0.041*[#  38]+0.041*[#  46]+0.018*[#  32]
          +0.018*[#  36]+0.018*[#  40]+0.018*[#  44]+0.018*[#  48]+0.018*[#  52]
          +0.016*[#  17]+0.016*[#  18]+0.016*[#  27]+0.016*[#  28]+0.006*[#   9]
          +0.006*[#  10]+0.006*[#  19]+0.006*[#  20]+0.006*[#  29]+0.006*[#  30]
          
    |psi|^2 = 0.989
==== e(  25) =     0.88539 eV ==== 
     psi = 0.088*[#   7]+0.088*[#   8]+0.060*[#  37]+0.060*[#  45]+0.055*[#  34]
          +0.055*[#  42]+0.055*[#  50]+0.055*[#  54]+0.046*[#  33]+0.046*[#  41]
          +0.046*[#  49]+0.046*[#  53]+0.041*[#  38]+0.041*[#  46]+0.018*[#  32]
          +0.018*[#  36]+0.018*[#  40]+0.018*[#  44]+0.018*[#  48]+0.018*[#  52]
          +0.016*[#  17]+0.016*[#  18]+0.016*[#  27]+0.016*[#  28]+0.006*[#   9]
          +0.006*[#  10]+0.006*[#  19]+0.006*[#  20]+0.006*[#  29]+0.006*[#  30]
          
    |psi|^2 = 0.989
==== e(  26) =     0.97988 eV ==== 
     psi = 0.064*[#  17]+0.064*[#  18]+0.064*[#  27]+0.064*[#  28]+0.051*[#  33]
          +0.051*[#  34]+0.051*[#  37]+0.051*[#  38]+0.051*[#  41]+0.051*[#  42]
          +0.051*[#  45]+0.051*[#  46]+0.051*[#  49]+0.051*[#  50]+0.051*[#  53]
          +0.051*[#  54]+0.014*[#  32]+0.014*[#  36]+0.014*[#  40]+0.014*[#  44]
          +0.014*[#  48]+0.014*[#  52]+0.006*[#  19]+0.006*[#  20]+0.006*[#  29]
          +0.006*[#  30]
    |psi|^2 = 0.989
==== e(  27) =     0.97988 eV ==== 
     psi = 0.064*[#  17]+0.064*[#  18]+0.064*[#  27]+0.064*[#  28]+0.051*[#  33]
          +0.051*[#  34]+0.051*[#  37]+0.051*[#  38]+0.051*[#  41]+0.051*[#  42]
          +0.051*[#  45]+0.051*[#  46]+0.051*[#  49]+0.051*[#  50]+0.051*[#  53]
          +0.051*[#  54]+0.014*[#  32]+0.014*[#  36]+0.014*[#  40]+0.014*[#  44]
          +0.014*[#  48]+0.014*[#  52]+0.006*[#  19]+0.006*[#  20]+0.006*[#  29]
          +0.006*[#  30]
    |psi|^2 = 0.989
==== e(  28) =     1.20582 eV ==== 
     psi = 0.069*[#   9]+0.069*[#  10]+0.066*[#  19]+0.066*[#  20]+0.066*[#  29]
          +0.066*[#  30]+0.049*[#  38]+0.049*[#  46]+0.044*[#  33]+0.044*[#  41]
          +0.044*[#  49]+0.044*[#  53]+0.035*[#  34]+0.035*[#  42]+0.035*[#  50]
          +0.035*[#  54]+0.030*[#  37]+0.030*[#  45]+0.024*[#  17]+0.024*[#  18]
          +0.024*[#  27]+0.024*[#  28]+0.011*[#   7]+0.011*[#   8]
    |psi|^2 = 0.998
==== e(  29) =     1.20582 eV ==== 
     psi = 0.069*[#   9]+0.069*[#  10]+0.066*[#  19]+0.066*[#  20]+0.066*[#  29]
          +0.066*[#  30]+0.049*[#  38]+0.049*[#  46]+0.044*[#  33]+0.044*[#  41]
          +0.044*[#  49]+0.044*[#  53]+0.035*[#  34]+0.035*[#  42]+0.035*[#  50]
          +0.035*[#  54]+0.030*[#  37]+0.030*[#  45]+0.024*[#  17]+0.024*[#  18]
          +0.024*[#  27]+0.024*[#  28]+0.011*[#   7]+0.011*[#   8]
    |psi|^2 = 0.998
==== e(  30) =     1.22719 eV ==== 
     psi = 0.128*[#  37]+0.128*[#  45]+0.110*[#   2]+0.096*[#  34]+0.096*[#  42]
          +0.096*[#  50]+0.096*[#  54]+0.032*[#  33]+0.032*[#  41]+0.032*[#  49]
          +0.032*[#  53]+0.025*[#  12]+0.025*[#  22]+0.016*[#  16]+0.016*[#  26]
          +0.005*[#  32]+0.005*[#  36]+0.005*[#  40]+0.005*[#  44]+0.005*[#  48]
          +0.005*[#  52]+0.004*[#   1]+0.002*[#   6]
    |psi|^2 = 0.998
==== e(  31) =     1.38778 eV ==== 
     psi = 0.136*[#  38]+0.136*[#  46]+0.102*[#  33]+0.102*[#  41]+0.102*[#  49]
          +0.102*[#  53]+0.080*[#  12]+0.080*[#  22]+0.034*[#  34]+0.034*[#  42]
          +0.034*[#  50]+0.034*[#  54]+0.007*[#  16]+0.007*[#  26]+0.002*[#  11]
          +0.002*[#  21]
    |psi|^2 = 0.997
==== e(  32) =     2.89585 eV ==== 
     psi = 0.091*[#  32]+0.091*[#  36]+0.091*[#  40]+0.091*[#  44]+0.091*[#  48]
          +0.091*[#  52]+0.073*[#  19]+0.073*[#  20]+0.073*[#  29]+0.073*[#  30]
          +0.018*[#  17]+0.018*[#  18]+0.018*[#  27]+0.018*[#  28]+0.006*[#  31]
          +0.006*[#  35]+0.006*[#  39]+0.006*[#  43]+0.006*[#  47]+0.006*[#  51]
          +0.005*[#  37]+0.005*[#  45]+0.005*[#  34]+0.005*[#  42]+0.005*[#  50]
          +0.005*[#  54]+0.004*[#  33]+0.004*[#  41]+0.004*[#  49]+0.004*[#  53]
          +0.003*[#  38]+0.003*[#  46]
    |psi|^2 = 0.997
==== e(  33) =     2.89585 eV ==== 
     psi = 0.091*[#  32]+0.091*[#  36]+0.091*[#  40]+0.091*[#  44]+0.091*[#  48]
          +0.091*[#  52]+0.073*[#  19]+0.073*[#  20]+0.073*[#  29]+0.073*[#  30]
          +0.018*[#  17]+0.018*[#  18]+0.018*[#  27]+0.018*[#  28]+0.006*[#  31]
          +0.006*[#  35]+0.006*[#  39]+0.006*[#  43]+0.006*[#  47]+0.006*[#  51]
          +0.005*[#  37]+0.005*[#  45]+0.005*[#  34]+0.005*[#  42]+0.005*[#  50]
          +0.005*[#  54]+0.004*[#  33]+0.004*[#  41]+0.004*[#  49]+0.004*[#  53]
          +0.003*[#  38]+0.003*[#  46]
    |psi|^2 = 0.997
==== e(  34) =     2.96335 eV ==== 
     psi = 0.098*[#   9]+0.098*[#  10]+0.088*[#  32]+0.088*[#  36]+0.088*[#  40]
          +0.088*[#  44]+0.088*[#  48]+0.088*[#  52]+0.031*[#   7]+0.031*[#   8]
          +0.021*[#  19]+0.021*[#  20]+0.021*[#  29]+0.021*[#  30]+0.007*[#  17]
          +0.007*[#  18]+0.007*[#  27]+0.007*[#  28]+0.006*[#  31]+0.006*[#  35]
          +0.006*[#  39]+0.006*[#  43]+0.006*[#  47]+0.006*[#  51]+0.006*[#  37]
          +0.006*[#  45]+0.005*[#  34]+0.005*[#  42]+0.005*[#  50]+0.005*[#  54]
          +0.005*[#  33]+0.005*[#  41]+0.005*[#  49]+0.005*[#  53]+0.005*[#  38]
          +0.005*[#  46]
    |psi|^2 = 0.997
==== e(  35) =     2.96335 eV ==== 
     psi = 0.098*[#   9]+0.098*[#  10]+0.088*[#  32]+0.088*[#  36]+0.088*[#  40]
          +0.088*[#  44]+0.088*[#  48]+0.088*[#  52]+0.031*[#   7]+0.031*[#   8]
          +0.021*[#  19]+0.021*[#  20]+0.021*[#  29]+0.021*[#  30]+0.007*[#  17]
          +0.007*[#  18]+0.007*[#  27]+0.007*[#  28]+0.006*[#  31]+0.006*[#  35]
          +0.006*[#  39]+0.006*[#  43]+0.006*[#  47]+0.006*[#  51]+0.006*[#  37]
          +0.006*[#  45]+0.005*[#  34]+0.005*[#  42]+0.005*[#  50]+0.005*[#  54]
          +0.005*[#  33]+0.005*[#  41]+0.005*[#  49]+0.005*[#  53]+0.005*[#  38]
          +0.005*[#  46]
    |psi|^2 = 0.997
==== e(  36) =     3.25683 eV ==== 
     psi = 0.162*[#  37]+0.162*[#  45]+0.121*[#  34]+0.121*[#  42]+0.121*[#  50]
          +0.121*[#  54]+0.040*[#  33]+0.040*[#  41]+0.040*[#  49]+0.040*[#  53]
          +0.002*[#   3]+0.002*[#  57]
    |psi|^2 = 0.979
==== e(  37) =     3.41292 eV ==== 
     psi = 0.163*[#  38]+0.163*[#  46]+0.123*[#  33]+0.123*[#  41]+0.123*[#  49]
          +0.123*[#  53]+0.041*[#  34]+0.041*[#  42]+0.041*[#  50]+0.041*[#  54]
          +0.001*[#  13]+0.001*[#  23]
    |psi|^2 = 0.984
==== e(  38) =     4.63568 eV ==== 
     psi = 0.164*[#  32]+0.164*[#  36]+0.164*[#  40]+0.164*[#  44]+0.164*[#  48]
          +0.164*[#  52]
    |psi|^2 = 0.991
==== e(  39) =     4.67054 eV ==== 
     psi = 0.492*[#  16]+0.492*[#  26]+0.002*[#  38]+0.002*[#  46]+0.002*[#  33]
          +0.002*[#  41]+0.002*[#  49]+0.002*[#  53]
    |psi|^2 = 0.999
==== e(  40) =     4.71551 eV ==== 
     psi = 0.633*[#   6]+0.172*[#  16]+0.172*[#  26]+0.003*[#  37]+0.003*[#  45]
          +0.002*[#  34]+0.002*[#  42]+0.002*[#  50]+0.002*[#  54]
    |psi|^2 = 0.998
==== e(  41) =     4.71644 eV ==== 
     psi = 0.121*[#  17]+0.121*[#  18]+0.121*[#  27]+0.121*[#  28]+0.113*[#   7]
          +0.113*[#   8]+0.049*[#  19]+0.049*[#  20]+0.049*[#  29]+0.049*[#  30]
          +0.043*[#   9]+0.043*[#  10]
    |psi|^2 = 0.999
==== e(  42) =     4.71644 eV ==== 
     psi = 0.121*[#  17]+0.121*[#  18]+0.121*[#  27]+0.121*[#  28]+0.113*[#   7]
          +0.113*[#   8]+0.049*[#  19]+0.049*[#  20]+0.049*[#  29]+0.049*[#  30]
          +0.043*[#   9]+0.043*[#  10]
    |psi|^2 = 0.999
==== e(  43) =     4.88849 eV ==== 
     psi = 0.084*[#  38]+0.084*[#  46]+0.083*[#  33]+0.083*[#  41]+0.083*[#  49]
          +0.083*[#  53]+0.082*[#  34]+0.082*[#  42]+0.082*[#  50]+0.082*[#  54]
          +0.081*[#  37]+0.081*[#  45]
    |psi|^2 = 0.994
==== e(  44) =     4.88849 eV ==== 
     psi = 0.084*[#  38]+0.084*[#  46]+0.083*[#  33]+0.083*[#  41]+0.083*[#  49]
          +0.083*[#  53]+0.082*[#  34]+0.082*[#  42]+0.082*[#  50]+0.082*[#  54]
          +0.081*[#  37]+0.081*[#  45]
    |psi|^2 = 0.994
==== e(  45) =     5.78248 eV ==== 
     psi = 0.171*[#   9]+0.171*[#  10]+0.083*[#   7]+0.083*[#   8]+0.042*[#  19]
          +0.042*[#  20]+0.042*[#  29]+0.042*[#  30]+0.028*[#  32]+0.028*[#  36]
          +0.028*[#  40]+0.028*[#  44]+0.028*[#  48]+0.028*[#  52]+0.017*[#  17]
          +0.017*[#  18]+0.017*[#  27]+0.017*[#  28]+0.007*[#  37]+0.007*[#  45]
          +0.007*[#  34]+0.007*[#  42]+0.007*[#  50]+0.007*[#  54]+0.006*[#  33]
          +0.006*[#  41]+0.006*[#  49]+0.006*[#  53]+0.006*[#  38]+0.006*[#  46]
          
    |psi|^2 = 0.993
==== e(  46) =     5.78248 eV ==== 
     psi = 0.171*[#   9]+0.171*[#  10]+0.083*[#   7]+0.083*[#   8]+0.042*[#  19]
          +0.042*[#  20]+0.042*[#  29]+0.042*[#  30]+0.028*[#  32]+0.028*[#  36]
          +0.028*[#  40]+0.028*[#  44]+0.028*[#  48]+0.028*[#  52]+0.017*[#  17]
          +0.017*[#  18]+0.017*[#  27]+0.017*[#  28]+0.007*[#  37]+0.007*[#  45]
          +0.007*[#  34]+0.007*[#  42]+0.007*[#  50]+0.007*[#  54]+0.006*[#  33]
          +0.006*[#  41]+0.006*[#  49]+0.006*[#  53]+0.006*[#  38]+0.006*[#  46]
          
    |psi|^2 = 0.993
==== e(  47) =     5.78895 eV ==== 
     psi = 0.126*[#  19]+0.126*[#  20]+0.126*[#  29]+0.126*[#  30]+0.057*[#  17]
          +0.057*[#  18]+0.057*[#  27]+0.057*[#  28]+0.030*[#  32]+0.030*[#  36]
          +0.030*[#  40]+0.030*[#  44]+0.030*[#  48]+0.030*[#  52]+0.007*[#  37]
          +0.007*[#  45]+0.007*[#  34]+0.007*[#  42]+0.007*[#  50]+0.007*[#  54]
          +0.006*[#  33]+0.006*[#  41]+0.006*[#  49]+0.006*[#  53]+0.006*[#  38]
          +0.006*[#  46]
    |psi|^2 = 0.992
==== e(  48) =     5.78895 eV ==== 
     psi = 0.126*[#  19]+0.126*[#  20]+0.126*[#  29]+0.126*[#  30]+0.057*[#  17]
          +0.057*[#  18]+0.057*[#  27]+0.057*[#  28]+0.030*[#  32]+0.030*[#  36]
          +0.030*[#  40]+0.030*[#  44]+0.030*[#  48]+0.030*[#  52]+0.007*[#  37]
          +0.007*[#  45]+0.007*[#  34]+0.007*[#  42]+0.007*[#  50]+0.007*[#  54]
          +0.006*[#  33]+0.006*[#  41]+0.006*[#  49]+0.006*[#  53]+0.006*[#  38]
          +0.006*[#  46]
    |psi|^2 = 0.992
==== e(  49) =     5.89564 eV ==== 
     psi = 0.248*[#   6]+0.220*[#  16]+0.220*[#  26]+0.041*[#  32]+0.041*[#  36]
          +0.041*[#  40]+0.041*[#  44]+0.041*[#  48]+0.041*[#  52]+0.025*[#  56]
          +0.012*[#   2]+0.009*[#  12]+0.009*[#  22]+0.001*[#  31]+0.001*[#  35]
          +0.001*[#  39]+0.001*[#  43]+0.001*[#  47]+0.001*[#  51]
    |psi|^2 = 0.998
==== e(  50) =     7.80404 eV ==== 
     psi = 0.104*[#  17]+0.104*[#  18]+0.104*[#  27]+0.104*[#  28]+0.037*[#  19]
          +0.037*[#  20]+0.037*[#  29]+0.037*[#  30]+0.028*[#  32]+0.028*[#  36]
          +0.028*[#  40]+0.028*[#  44]+0.028*[#  48]+0.028*[#  52]+0.020*[#  38]
          +0.020*[#  46]+0.020*[#  33]+0.020*[#  41]+0.020*[#  49]+0.020*[#  53]
          +0.019*[#  34]+0.019*[#  42]+0.019*[#  50]+0.019*[#  54]+0.019*[#  37]
          +0.019*[#  45]+0.004*[#  31]+0.004*[#  35]+0.004*[#  39]+0.004*[#  43]
          +0.004*[#  47]+0.004*[#  51]
    |psi|^2 = 0.988
==== e(  51) =     7.80404 eV ==== 
     psi = 0.104*[#  17]+0.104*[#  18]+0.104*[#  27]+0.104*[#  28]+0.037*[#  19]
          +0.037*[#  20]+0.037*[#  29]+0.037*[#  30]+0.028*[#  32]+0.028*[#  36]
          +0.028*[#  40]+0.028*[#  44]+0.028*[#  48]+0.028*[#  52]+0.020*[#  38]
          +0.020*[#  46]+0.020*[#  33]+0.020*[#  41]+0.020*[#  49]+0.020*[#  53]
          +0.019*[#  34]+0.019*[#  42]+0.019*[#  50]+0.019*[#  54]+0.019*[#  37]
          +0.019*[#  45]+0.004*[#  31]+0.004*[#  35]+0.004*[#  39]+0.004*[#  43]
          +0.004*[#  47]+0.004*[#  51]
    |psi|^2 = 0.988
==== e(  52) =     7.88653 eV ==== 
     psi = 0.131*[#   7]+0.131*[#   8]+0.043*[#   9]+0.043*[#  10]+0.037*[#  17]
          +0.037*[#  18]+0.037*[#  27]+0.037*[#  28]+0.029*[#  32]+0.029*[#  36]
          +0.029*[#  40]+0.029*[#  44]+0.029*[#  48]+0.029*[#  52]+0.023*[#  38]
          +0.023*[#  46]+0.021*[#  33]+0.021*[#  41]+0.021*[#  49]+0.021*[#  53]
          +0.018*[#  34]+0.018*[#  42]+0.018*[#  50]+0.018*[#  54]+0.017*[#  37]
          +0.017*[#  45]+0.015*[#  19]+0.015*[#  20]+0.015*[#  29]+0.015*[#  30]
          +0.004*[#  31]+0.004*[#  35]+0.004*[#  39]+0.004*[#  43]+0.004*[#  47]
          +0.004*[#  51]
    |psi|^2 = 0.989
==== e(  53) =     7.88653 eV ==== 
     psi = 0.131*[#   7]+0.131*[#   8]+0.043*[#   9]+0.043*[#  10]+0.037*[#  17]
          +0.037*[#  18]+0.037*[#  27]+0.037*[#  28]+0.029*[#  32]+0.029*[#  36]
          +0.029*[#  40]+0.029*[#  44]+0.029*[#  48]+0.029*[#  52]+0.023*[#  38]
          +0.023*[#  46]+0.021*[#  33]+0.021*[#  41]+0.021*[#  49]+0.021*[#  53]
          +0.018*[#  34]+0.018*[#  42]+0.018*[#  50]+0.018*[#  54]+0.017*[#  37]
          +0.017*[#  45]+0.015*[#  19]+0.015*[#  20]+0.015*[#  29]+0.015*[#  30]
          +0.004*[#  31]+0.004*[#  35]+0.004*[#  39]+0.004*[#  43]+0.004*[#  47]
          +0.004*[#  51]
    |psi|^2 = 0.989
==== e(  54) =     8.61566 eV ==== 
     psi = 0.059*[#   9]+0.059*[#  10]+0.048*[#  19]+0.048*[#  20]+0.048*[#  29]
          +0.048*[#  30]+0.045*[#  37]+0.045*[#  45]+0.044*[#  34]+0.044*[#  42]
          +0.044*[#  50]+0.044*[#  54]+0.042*[#  33]+0.042*[#  41]+0.042*[#  49]
          +0.042*[#  53]+0.040*[#  38]+0.040*[#  46]+0.034*[#   7]+0.034*[#   8]
          +0.026*[#  17]+0.026*[#  18]+0.026*[#  27]+0.026*[#  28]
    |psi|^2 = 0.995
==== e(  55) =     8.61566 eV ==== 
     psi = 0.059*[#   9]+0.059*[#  10]+0.048*[#  19]+0.048*[#  20]+0.048*[#  29]
          +0.048*[#  30]+0.045*[#  37]+0.045*[#  45]+0.044*[#  34]+0.044*[#  42]
          +0.044*[#  50]+0.044*[#  54]+0.042*[#  33]+0.042*[#  41]+0.042*[#  49]
          +0.042*[#  53]+0.040*[#  38]+0.040*[#  46]+0.034*[#   7]+0.034*[#   8]
          +0.026*[#  17]+0.026*[#  18]+0.026*[#  27]+0.026*[#  28]
    |psi|^2 = 0.995
==== e(  56) =    11.73647 eV ==== 
     psi = 0.553*[#  56]+0.054*[#  12]+0.054*[#  22]+0.045*[#  31]+0.045*[#  35]
          +0.045*[#  39]+0.045*[#  43]+0.045*[#  47]+0.045*[#  51]+0.042*[#   2]
          +0.004*[#   1]+0.004*[#  11]+0.004*[#  21]
    |psi|^2 = 0.991
==== e(  57) =    15.87698 eV ==== 
     psi = 0.001*[#  32]+0.001*[#  36]+0.001*[#  40]+0.001*[#  44]+0.001*[#  48]
          +0.001*[#  52]
    |psi|^2 = 0.010
==== e(  58) =    17.19369 eV ==== 
     psi = 0.261*[#   2]+0.228*[#  56]+0.105*[#  12]+0.105*[#  22]+0.015*[#  32]
          +0.015*[#  36]+0.015*[#  40]+0.015*[#  44]+0.015*[#  48]+0.015*[#  52]
          +0.011*[#  31]+0.011*[#  35]+0.011*[#  39]+0.011*[#  43]+0.011*[#  47]
          +0.011*[#  51]+0.003*[#  55]+0.003*[#   1]+0.003*[#   6]+0.002*[#  16]
          +0.002*[#  26]
    |psi|^2 = 0.868
==== e(  59) =    18.44193 eV ==== 

    |psi|^2 = 0.008
==== e(  60) =    18.44193 eV ==== 

    |psi|^2 = 0.008
==== e(  61) =    18.53408 eV ==== 
     psi = 0.099*[#  12]+0.099*[#  22]+0.004*[#  38]+0.004*[#  46]+0.003*[#  33]
          +0.003*[#  41]+0.003*[#  49]+0.003*[#  53]+0.002*[#  11]+0.002*[#  21]
          
    |psi|^2 = 0.225
==== e(  62) =    18.63800 eV ==== 

    |psi|^2 = 0.007
==== e(  63) =    18.63800 eV ==== 

    |psi|^2 = 0.007
==== e(  64) =    19.04423 eV ==== 
     psi = 0.140*[#  12]+0.140*[#  22]+0.129*[#   2]+0.042*[#  56]+0.011*[#  37]
          +0.011*[#  45]+0.008*[#  34]+0.008*[#  42]+0.008*[#  50]+0.008*[#  54]
          +0.004*[#   1]+0.003*[#  11]+0.003*[#  21]+0.003*[#  33]+0.003*[#  41]
          +0.003*[#  49]+0.003*[#  53]+0.002*[#  32]+0.002*[#  36]+0.002*[#  40]
          +0.002*[#  44]+0.002*[#  48]+0.002*[#  52]
    |psi|^2 = 0.541

 k =   0.0227272727  0.0131215970  0.0000000000
==== e(   1) =   -89.51918 eV ==== 
     psi = 0.485*[#  11]+0.485*[#  21]+0.011*[#  56]+0.006*[#   2]+0.001*[#  32]
          +0.001*[#  36]+0.001*[#  40]+0.001*[#  44]+0.001*[#  48]+0.001*[#  52]
          
    |psi|^2 = 1.000
==== e(   2) =   -89.51541 eV ==== 
     psi = 0.488*[#  11]+0.488*[#  21]+0.005*[#  12]+0.005*[#  22]+0.002*[#  38]
          +0.002*[#  46]+0.002*[#  33]+0.002*[#  41]+0.002*[#  49]+0.002*[#  53]
          
    |psi|^2 = 1.000
==== e(   3) =   -89.40399 eV ==== 
     psi = 0.972*[#   1]+0.006*[#  56]+0.003*[#  12]+0.003*[#  22]+0.003*[#   2]
          +0.002*[#  37]+0.002*[#  45]+0.001*[#  34]+0.001*[#  42]+0.001*[#  50]
          +0.001*[#  54]
    |psi|^2 = 1.000
==== e(   4) =   -52.75531 eV ==== 
     psi = 0.498*[#  13]+0.498*[#  23]
    |psi|^2 = 1.000
==== e(   5) =   -52.75336 eV ==== 
     psi = 0.248*[#  14]+0.248*[#  15]+0.248*[#  24]+0.248*[#  25]
    |psi|^2 = 1.000
==== e(   6) =   -52.75333 eV ==== 
     psi = 0.249*[#  14]+0.249*[#  15]+0.249*[#  24]+0.249*[#  25]
    |psi|^2 = 1.000
==== e(   7) =   -52.74898 eV ==== 
     psi = 0.499*[#  13]+0.499*[#  23]
    |psi|^2 = 1.000
==== e(   8) =   -52.73246 eV ==== 
     psi = 0.233*[#  14]+0.233*[#  15]+0.233*[#  24]+0.233*[#  25]+0.033*[#   4]
          +0.033*[#   5]
    |psi|^2 = 1.000
==== e(   9) =   -52.73245 eV ==== 
     psi = 0.233*[#  14]+0.233*[#  15]+0.233*[#  24]+0.233*[#  25]+0.033*[#   4]
          +0.033*[#   5]
    |psi|^2 = 1.000
==== e(  10) =   -52.65936 eV ==== 
     psi = 0.465*[#   4]+0.465*[#   5]+0.017*[#  14]+0.017*[#  15]+0.017*[#  24]
          +0.017*[#  25]
    |psi|^2 = 1.000
==== e(  11) =   -52.65933 eV ==== 
     psi = 0.465*[#   4]+0.465*[#   5]+0.017*[#  14]+0.017*[#  15]+0.017*[#  24]
          +0.017*[#  25]
    |psi|^2 = 1.000
==== e(  12) =   -52.59843 eV ==== 
     psi = 0.997*[#   3]
    |psi|^2 = 1.000
==== e(  13) =   -43.60918 eV ==== 
     psi = 0.992*[#  55]+0.004*[#   2]
    |psi|^2 = 1.000
==== e(  14) =   -15.58949 eV ==== 
     psi = 0.991*[#  57]+0.001*[#  31]+0.001*[#  35]+0.001*[#  39]+0.001*[#  43]
          +0.001*[#  47]+0.001*[#  51]
    |psi|^2 = 1.000
==== e(  15) =   -15.52434 eV ==== 
     psi = 0.498*[#  58]+0.498*[#  59]
    |psi|^2 = 1.000
==== e(  16) =   -15.52432 eV ==== 
     psi = 0.498*[#  58]+0.498*[#  59]
    |psi|^2 = 1.000
==== e(  17) =   -13.00350 eV ==== 
     psi = 0.103*[#  31]+0.103*[#  35]+0.103*[#  39]+0.103*[#  43]+0.103*[#  47]
          +0.103*[#  51]+0.098*[#   2]+0.094*[#  12]+0.094*[#  22]+0.060*[#  56]
          +0.004*[#   1]+0.004*[#  11]+0.004*[#  21]+0.003*[#  32]+0.003*[#  36]
          +0.003*[#  40]+0.003*[#  44]+0.003*[#  48]+0.003*[#  52]+0.002*[#  16]
          +0.002*[#  26]+0.002*[#   6]
    |psi|^2 = 0.999
==== e(  18) =   -11.32371 eV ==== 
     psi = 0.156*[#  31]+0.156*[#  35]+0.156*[#  39]+0.156*[#  43]+0.156*[#  47]
          +0.156*[#  51]+0.006*[#   9]+0.006*[#  10]+0.006*[#   7]+0.006*[#   8]
          +0.003*[#  19]+0.003*[#  20]+0.003*[#  29]+0.003*[#  30]+0.003*[#  17]
          +0.003*[#  18]+0.003*[#  27]+0.003*[#  28]+0.001*[#  32]+0.001*[#  36]
          +0.001*[#  40]+0.001*[#  44]+0.001*[#  48]+0.001*[#  52]
    |psi|^2 = 0.998
==== e(  19) =   -11.32223 eV ==== 
     psi = 0.156*[#  31]+0.156*[#  35]+0.156*[#  39]+0.156*[#  43]+0.156*[#  47]
          +0.156*[#  51]+0.006*[#   9]+0.006*[#  10]+0.006*[#   7]+0.006*[#   8]
          +0.003*[#  19]+0.003*[#  20]+0.003*[#  29]+0.003*[#  30]+0.003*[#  17]
          +0.003*[#  18]+0.003*[#  27]+0.003*[#  28]+0.001*[#  32]+0.001*[#  36]
          +0.001*[#  40]+0.001*[#  44]+0.001*[#  48]+0.001*[#  52]
    |psi|^2 = 0.998
==== e(  20) =   -11.30382 eV ==== 
     psi = 0.155*[#  31]+0.155*[#  35]+0.155*[#  39]+0.155*[#  43]+0.155*[#  47]
          +0.155*[#  51]+0.005*[#  19]+0.005*[#  20]+0.005*[#  29]+0.005*[#  30]
          +0.005*[#  17]+0.005*[#  18]+0.005*[#  27]+0.005*[#  28]+0.003*[#   7]
          +0.003*[#   8]+0.003*[#   9]+0.003*[#  10]+0.001*[#  32]+0.001*[#  36]
          +0.001*[#  40]+0.001*[#  44]+0.001*[#  48]+0.001*[#  52]
    |psi|^2 = 0.998
==== e(  21) =   -11.30238 eV ==== 
     psi = 0.155*[#  31]+0.155*[#  35]+0.155*[#  39]+0.155*[#  43]+0.155*[#  47]
          +0.155*[#  51]+0.005*[#  19]+0.005*[#  20]+0.005*[#  29]+0.005*[#  30]
          +0.005*[#  17]+0.005*[#  18]+0.005*[#  27]+0.005*[#  28]+0.003*[#   7]
          +0.003*[#   8]+0.003*[#   9]+0.003*[#  10]+0.001*[#  32]+0.001*[#  36]
          +0.001*[#  40]+0.001*[#  44]+0.001*[#  48]+0.001*[#  52]
    |psi|^2 = 0.998
==== e(  22) =   -11.04711 eV ==== 
     psi = 0.164*[#  31]+0.164*[#  35]+0.164*[#  39]+0.164*[#  43]+0.164*[#  47]
          +0.164*[#  51]+0.007*[#  57]
    |psi|^2 = 0.995
==== e(  23) =     0.60508 eV ==== 
     psi = 0.110*[#   6]+0.095*[#  32]+0.095*[#  36]+0.095*[#  40]+0.095*[#  44]
          +0.095*[#  48]+0.095*[#  52]+0.087*[#  16]+0.087*[#  26]+0.052*[#  56]
          +0.007*[#  12]+0.007*[#  22]+0.007*[#  37]+0.007*[#  45]+0.005*[#  31]
          +0.005*[#  34]+0.005*[#  35]+0.005*[#  39]+0.005*[#  42]+0.005*[#  43]
          +0.005*[#  47]+0.005*[#  50]+0.005*[#  51]+0.005*[#  54]+0.002*[#  33]
          +0.002*[#  41]+0.002*[#  49]+0.002*[#  53]+0.002*[#  55]+0.001*[#  11]
          +0.001*[#  21]
    |psi|^2 = 0.998
==== e(  24) =     0.87370 eV ==== 
     psi = 0.085*[#   7]+0.085*[#   8]+0.058*[#  37]+0.058*[#  45]+0.054*[#  34]
          +0.054*[#  42]+0.054*[#  50]+0.054*[#  54]+0.047*[#  33]+0.047*[#  41]
          +0.047*[#  49]+0.047*[#  53]+0.043*[#  38]+0.043*[#  46]+0.018*[#  32]
          +0.018*[#  36]+0.018*[#  40]+0.018*[#  44]+0.018*[#  48]+0.018*[#  52]
          +0.015*[#  17]+0.015*[#  18]+0.015*[#  27]+0.015*[#  28]+0.006*[#   9]
          +0.006*[#  10]+0.006*[#  19]+0.006*[#  20]+0.006*[#  29]+0.006*[#  30]
          +0.003*[#  12]+0.003*[#  22]
    |psi|^2 = 0.990
==== e(  25) =     0.88608 eV ==== 
     psi = 0.087*[#   7]+0.087*[#   8]+0.060*[#  37]+0.060*[#  45]+0.055*[#  34]
          +0.055*[#  42]+0.055*[#  50]+0.055*[#  54]+0.046*[#  33]+0.046*[#  41]
          +0.046*[#  49]+0.046*[#  53]+0.041*[#  38]+0.041*[#  46]+0.018*[#  32]
          +0.018*[#  36]+0.018*[#  40]+0.018*[#  44]+0.018*[#  48]+0.018*[#  52]
          +0.016*[#  17]+0.016*[#  18]+0.016*[#  27]+0.016*[#  28]+0.006*[#   9]
          +0.006*[#  10]+0.006*[#  19]+0.006*[#  20]+0.006*[#  29]+0.006*[#  30]
          
    |psi|^2 = 0.989
==== e(  26) =     0.96092 eV ==== 
     psi = 0.060*[#  17]+0.060*[#  18]+0.060*[#  27]+0.060*[#  28]+0.056*[#  37]
          +0.056*[#  45]+0.054*[#  34]+0.054*[#  42]+0.054*[#  50]+0.054*[#  54]
          +0.050*[#  33]+0.050*[#  41]+0.050*[#  49]+0.050*[#  53]+0.047*[#  38]
          +0.047*[#  46]+0.014*[#  32]+0.014*[#  36]+0.014*[#  40]+0.014*[#  44]
          +0.014*[#  48]+0.014*[#  52]+0.009*[#   2]+0.006*[#  19]+0.006*[#  20]
          +0.006*[#  29]+0.006*[#  30]+0.002*[#  12]+0.002*[#  16]+0.002*[#  22]
          +0.002*[#  26]
    |psi|^2 = 0.990
==== e(  27) =     0.98146 eV ==== 
     psi = 0.064*[#  17]+0.064*[#  18]+0.064*[#  27]+0.064*[#  28]+0.051*[#  33]
          +0.051*[#  34]+0.051*[#  37]+0.051*[#  38]+0.051*[#  41]+0.051*[#  42]
          +0.051*[#  45]+0.051*[#  46]+0.051*[#  49]+0.051*[#  50]+0.051*[#  53]
          +0.051*[#  54]+0.014*[#  32]+0.014*[#  36]+0.014*[#  40]+0.014*[#  44]
          +0.014*[#  48]+0.014*[#  52]+0.006*[#  19]+0.006*[#  20]+0.006*[#  29]
          +0.006*[#  30]
    |psi|^2 = 0.989
==== e(  28) =     1.20390 eV ==== 
     psi = 0.069*[#   9]+0.069*[#  10]+0.066*[#  19]+0.066*[#  20]+0.066*[#  29]
          +0.066*[#  30]+0.049*[#  38]+0.049*[#  46]+0.044*[#  33]+0.044*[#  41]
          +0.044*[#  49]+0.044*[#  53]+0.035*[#  34]+0.035*[#  42]+0.035*[#  50]
          +0.035*[#  54]+0.030*[#  37]+0.030*[#  45]+0.024*[#  17]+0.024*[#  18]
          +0.024*[#  27]+0.024*[#  28]+0.011*[#   7]+0.011*[#   8]
    |psi|^2 = 0.998
==== e(  29) =     1.20686 eV ==== 
     psi = 0.069*[#   9]+0.069*[#  10]+0.066*[#  19]+0.066*[#  20]+0.066*[#  29]
          +0.066*[#  30]+0.048*[#  38]+0.048*[#  46]+0.044*[#  33]+0.044*[#  41]
          +0.044*[#  49]+0.044*[#  53]+0.035*[#  34]+0.035*[#  42]+0.035*[#  50]
          +0.035*[#  54]+0.031*[#  37]+0.031*[#  45]+0.024*[#  17]+0.024*[#  18]
          +0.024*[#  27]+0.024*[#  28]+0.012*[#   7]+0.012*[#   8]
    |psi|^2 = 0.998
==== e(  30) =     1.25101 eV ==== 
     psi = 0.123*[#  37]+0.123*[#  45]+0.100*[#   2]+0.093*[#  34]+0.093*[#  42]
          +0.093*[#  50]+0.093*[#  54]+0.034*[#  33]+0.034*[#  41]+0.034*[#  49]
          +0.034*[#  53]+0.023*[#  12]+0.023*[#  22]+0.014*[#  16]+0.014*[#  26]
          +0.005*[#  32]+0.005*[#  36]+0.005*[#  40]+0.005*[#  44]+0.005*[#  48]
          +0.005*[#  52]+0.005*[#  17]+0.005*[#  18]+0.005*[#  27]+0.005*[#  28]
          +0.004*[#  38]+0.004*[#  46]+0.003*[#   1]+0.002*[#   6]
    |psi|^2 = 0.997
==== e(  31) =     1.40273 eV ==== 
     psi = 0.135*[#  38]+0.135*[#  46]+0.101*[#  33]+0.101*[#  41]+0.101*[#  49]
          +0.101*[#  53]+0.077*[#  12]+0.077*[#  22]+0.034*[#  34]+0.034*[#  42]
          +0.034*[#  50]+0.034*[#  54]+0.007*[#  16]+0.007*[#  26]+0.002*[#  11]
          +0.002*[#  21]+0.002*[#   7]+0.002*[#   8]
    |psi|^2 = 0.997
==== e(  32) =     2.88855 eV ==== 
     psi = 0.089*[#  32]+0.089*[#  36]+0.089*[#  40]+0.089*[#  44]+0.089*[#  48]
          +0.089*[#  52]+0.072*[#  19]+0.072*[#  20]+0.072*[#  29]+0.072*[#  30]
          +0.018*[#  17]+0.018*[#  18]+0.018*[#  27]+0.018*[#  28]+0.006*[#  31]
          +0.006*[#  35]+0.006*[#  38]+0.006*[#  39]+0.006*[#  43]+0.006*[#  46]
          +0.006*[#  47]+0.006*[#  51]+0.006*[#  33]+0.006*[#  41]+0.006*[#  49]
          +0.006*[#  53]+0.005*[#  34]+0.005*[#  42]+0.005*[#  50]+0.005*[#  54]
          +0.005*[#  37]+0.005*[#  45]
    |psi|^2 = 0.997
==== e(  33) =     2.89342 eV ==== 
     psi = 0.091*[#  32]+0.091*[#  36]+0.091*[#  40]+0.091*[#  44]+0.091*[#  48]
          +0.091*[#  52]+0.073*[#  19]+0.073*[#  20]+0.073*[#  29]+0.073*[#  30]
          +0.018*[#  17]+0.018*[#  18]+0.018*[#  27]+0.018*[#  28]+0.006*[#  31]
          +0.006*[#  35]+0.006*[#  39]+0.006*[#  43]+0.006*[#  47]+0.006*[#  51]
          +0.005*[#  37]+0.005*[#  45]+0.005*[#  34]+0.005*[#  42]+0.005*[#  50]
          +0.005*[#  54]+0.004*[#  33]+0.004*[#  41]+0.004*[#  49]+0.004*[#  53]
          +0.003*[#  38]+0.003*[#  46]
    |psi|^2 = 0.997
==== e(  34) =     2.95000 eV ==== 
     psi = 0.093*[#   9]+0.093*[#  10]+0.083*[#  32]+0.083*[#  36]+0.083*[#  40]
          +0.083*[#  44]+0.083*[#  48]+0.083*[#  52]+0.031*[#   7]+0.031*[#   8]
          +0.020*[#  19]+0.020*[#  20]+0.020*[#  29]+0.020*[#  30]+0.013*[#  37]
          +0.013*[#  45]+0.011*[#  34]+0.011*[#  42]+0.011*[#  50]+0.011*[#  54]
          +0.007*[#  17]+0.007*[#  18]+0.007*[#  27]+0.007*[#  28]+0.007*[#  33]
          +0.007*[#  41]+0.007*[#  49]+0.007*[#  53]+0.006*[#  31]+0.006*[#  35]
          +0.006*[#  39]+0.006*[#  43]+0.006*[#  47]+0.006*[#  51]+0.004*[#  38]
          +0.004*[#  46]
    |psi|^2 = 0.996
==== e(  35) =     2.96143 eV ==== 
     psi = 0.098*[#   9]+0.098*[#  10]+0.088*[#  32]+0.088*[#  36]+0.088*[#  40]
          +0.088*[#  44]+0.088*[#  48]+0.088*[#  52]+0.031*[#   7]+0.031*[#   8]
          +0.021*[#  19]+0.021*[#  20]+0.021*[#  29]+0.021*[#  30]+0.007*[#  17]
          +0.007*[#  18]+0.007*[#  27]+0.007*[#  28]+0.006*[#  31]+0.006*[#  35]
          +0.006*[#  39]+0.006*[#  43]+0.006*[#  47]+0.006*[#  51]+0.006*[#  37]
          +0.006*[#  45]+0.005*[#  34]+0.005*[#  42]+0.005*[#  50]+0.005*[#  54]
          +0.005*[#  33]+0.005*[#  41]+0.005*[#  49]+0.005*[#  53]+0.005*[#  38]
          +0.005*[#  46]
    |psi|^2 = 0.997
==== e(  36) =     3.27122 eV ==== 
     psi = 0.154*[#  37]+0.154*[#  45]+0.115*[#  34]+0.115*[#  42]+0.115*[#  50]
          +0.115*[#  54]+0.039*[#  33]+0.039*[#  41]+0.039*[#  49]+0.039*[#  53]
          +0.006*[#  32]+0.006*[#  36]+0.006*[#  40]+0.006*[#  44]+0.006*[#  48]
          +0.006*[#  52]+0.005*[#   9]+0.005*[#  10]+0.002*[#   3]+0.001*[#  57]
          +0.001*[#  19]+0.001*[#  20]+0.001*[#  29]+0.001*[#  30]
    |psi|^2 = 0.980
==== e(  37) =     3.42045 eV ==== 
     psi = 0.160*[#  38]+0.160*[#  46]+0.120*[#  33]+0.120*[#  41]+0.120*[#  49]
          +0.120*[#  53]+0.040*[#  34]+0.040*[#  42]+0.040*[#  50]+0.040*[#  54]
          +0.002*[#  32]+0.002*[#  36]+0.002*[#  40]+0.002*[#  44]+0.002*[#  48]
          +0.002*[#  52]+0.001*[#  13]+0.001*[#  23]+0.001*[#  19]+0.001*[#  20]
          +0.001*[#  29]+0.001*[#  30]
    |psi|^2 = 0.984
==== e(  38) =     4.62867 eV ==== 
     psi = 0.139*[#  32]+0.139*[#  36]+0.139*[#  40]+0.139*[#  44]+0.139*[#  48]
          +0.139*[#  52]+0.018*[#  17]+0.018*[#  18]+0.018*[#  27]+0.018*[#  28]
          +0.016*[#   7]+0.016*[#   8]+0.006*[#  19]+0.006*[#  20]+0.006*[#  29]
          +0.006*[#  30]+0.005*[#   9]+0.005*[#  10]+0.002*[#  37]+0.002*[#  45]
          +0.002*[#  34]+0.002*[#  42]+0.002*[#  50]+0.002*[#  54]+0.001*[#  33]
          +0.001*[#  41]+0.001*[#  49]+0.001*[#  53]+0.001*[#  38]+0.001*[#  46]
          
    |psi|^2 = 0.992
==== e(  39) =     4.67282 eV ==== 
     psi = 0.491*[#  16]+0.491*[#  26]+0.002*[#  38]+0.002*[#  46]+0.002*[#  33]
          +0.002*[#  41]+0.002*[#  49]+0.002*[#  53]
    |psi|^2 = 0.999
==== e(  40) =     4.68644 eV ==== 
     psi = 0.105*[#  17]+0.105*[#  18]+0.105*[#  27]+0.105*[#  28]+0.098*[#   7]
          +0.098*[#   8]+0.042*[#  19]+0.042*[#  20]+0.042*[#  29]+0.042*[#  30]
          +0.037*[#   9]+0.037*[#  10]+0.012*[#  33]+0.012*[#  38]+0.012*[#  41]
          +0.012*[#  46]+0.012*[#  49]+0.012*[#  53]+0.011*[#  34]+0.011*[#  37]
          +0.011*[#  42]+0.011*[#  45]+0.011*[#  50]+0.011*[#  54]
    |psi|^2 = 0.998
==== e(  41) =     4.69693 eV ==== 
     psi = 0.089*[#  17]+0.089*[#  18]+0.089*[#  27]+0.089*[#  28]+0.083*[#   7]
          +0.083*[#   8]+0.036*[#  19]+0.036*[#  20]+0.036*[#  29]+0.036*[#  30]
          +0.033*[#   9]+0.033*[#  10]+0.024*[#  32]+0.024*[#  36]+0.024*[#  40]
          +0.024*[#  44]+0.024*[#  48]+0.024*[#  52]+0.010*[#  33]+0.010*[#  38]
          +0.010*[#  41]+0.010*[#  46]+0.010*[#  34]+0.010*[#  53]+0.010*[#  37]
          +0.010*[#  42]+0.010*[#  49]+0.010*[#  45]+0.010*[#  50]+0.010*[#  54]
          
    |psi|^2 = 0.997
==== e(  42) =     4.71786 eV ==== 
     psi = 0.632*[#   6]+0.172*[#  16]+0.172*[#  26]+0.003*[#  37]+0.003*[#  45]
          +0.002*[#  34]+0.002*[#  42]+0.002*[#  50]+0.002*[#  54]
    |psi|^2 = 0.998
==== e(  43) =     4.90898 eV ==== 
     psi = 0.072*[#  38]+0.072*[#  46]+0.072*[#  33]+0.072*[#  41]+0.072*[#  49]
          +0.072*[#  53]+0.071*[#  34]+0.071*[#  42]+0.071*[#  50]+0.071*[#  54]
          +0.070*[#  37]+0.070*[#  45]+0.016*[#  17]+0.016*[#  18]+0.016*[#  27]
          +0.016*[#  28]+0.015*[#   7]+0.015*[#   8]+0.008*[#  19]+0.008*[#  20]
          +0.008*[#  29]+0.008*[#  30]+0.006*[#   9]+0.006*[#  10]
    |psi|^2 = 0.994
==== e(  44) =     4.91653 eV ==== 
     psi = 0.073*[#  38]+0.073*[#  46]+0.072*[#  33]+0.072*[#  41]+0.072*[#  49]
          +0.072*[#  53]+0.071*[#  34]+0.071*[#  42]+0.071*[#  50]+0.071*[#  54]
          +0.071*[#  37]+0.071*[#  45]+0.015*[#  17]+0.015*[#  18]+0.015*[#  27]
          +0.015*[#  28]+0.014*[#   7]+0.014*[#   8]+0.007*[#  19]+0.007*[#  20]
          +0.007*[#  29]+0.007*[#  30]+0.006*[#   9]+0.006*[#  10]
    |psi|^2 = 0.994
==== e(  45) =     5.75496 eV ==== 
     psi = 0.097*[#   9]+0.097*[#  10]+0.082*[#  19]+0.082*[#  20]+0.082*[#  29]
          +0.082*[#  30]+0.045*[#   7]+0.045*[#   8]+0.033*[#  17]+0.033*[#  18]
          +0.033*[#  27]+0.033*[#  28]+0.029*[#  32]+0.029*[#  36]+0.029*[#  40]
          +0.029*[#  44]+0.029*[#  48]+0.029*[#  52]+0.006*[#  37]+0.006*[#  45]
          +0.006*[#  34]+0.006*[#  42]+0.006*[#  50]+0.006*[#  54]+0.006*[#  33]
          +0.006*[#  41]+0.006*[#  49]+0.006*[#  53]+0.005*[#  38]+0.005*[#  46]
          
    |psi|^2 = 0.993
==== e(  46) =     5.75577 eV ==== 
     psi = 0.097*[#   9]+0.097*[#  10]+0.082*[#  19]+0.082*[#  20]+0.082*[#  29]
          +0.082*[#  30]+0.045*[#   7]+0.045*[#   8]+0.033*[#  17]+0.033*[#  18]
          +0.033*[#  27]+0.033*[#  28]+0.029*[#  32]+0.029*[#  36]+0.029*[#  40]
          +0.029*[#  44]+0.029*[#  48]+0.029*[#  52]+0.006*[#  37]+0.006*[#  45]
          +0.006*[#  34]+0.006*[#  42]+0.006*[#  50]+0.006*[#  54]+0.006*[#  33]
          +0.006*[#  41]+0.006*[#  49]+0.006*[#  53]+0.005*[#  38]+0.005*[#  46]
          
    |psi|^2 = 0.993
==== e(  47) =     5.81312 eV ==== 
     psi = 0.086*[#  19]+0.086*[#  20]+0.086*[#  29]+0.086*[#  30]+0.073*[#   9]
          +0.073*[#  10]+0.040*[#  17]+0.040*[#  18]+0.040*[#  27]+0.040*[#  28]
          +0.038*[#   7]+0.038*[#   8]+0.029*[#  32]+0.029*[#  36]+0.029*[#  40]
          +0.029*[#  44]+0.029*[#  48]+0.029*[#  52]+0.008*[#  37]+0.008*[#  45]
          +0.008*[#  34]+0.008*[#  42]+0.008*[#  50]+0.008*[#  54]+0.007*[#  33]
          +0.007*[#  41]+0.007*[#  49]+0.007*[#  53]+0.007*[#  38]+0.007*[#  46]
          
    |psi|^2 = 0.992
==== e(  48) =     5.81410 eV ==== 
     psi = 0.086*[#  19]+0.086*[#  20]+0.086*[#  29]+0.086*[#  30]+0.073*[#   9]
          +0.073*[#  10]+0.040*[#  17]+0.040*[#  18]+0.040*[#  27]+0.040*[#  28]
          +0.038*[#   7]+0.038*[#   8]+0.029*[#  32]+0.029*[#  36]+0.029*[#  40]
          +0.029*[#  44]+0.029*[#  48]+0.029*[#  52]+0.008*[#  37]+0.008*[#  45]
          +0.008*[#  34]+0.008*[#  42]+0.008*[#  50]+0.008*[#  54]+0.007*[#  33]
          +0.007*[#  41]+0.007*[#  49]+0.007*[#  53]+0.007*[#  38]+0.007*[#  46]
          
    |psi|^2 = 0.992
==== e(  49) =     5.89712 eV ==== 
     psi = 0.247*[#   6]+0.220*[#  16]+0.220*[#  26]+0.041*[#  32]+0.041*[#  36]
          +0.041*[#  40]+0.041*[#  44]+0.041*[#  48]+0.041*[#  52]+0.025*[#  56]
          +0.011*[#   2]+0.009*[#  12]+0.009*[#  22]+0.001*[#  31]+0.001*[#  35]
          +0.001*[#  39]+0.001*[#  43]+0.001*[#  47]+0.001*[#  51]
    |psi|^2 = 0.998
==== e(  50) =     7.80407 eV ==== 
     psi = 0.104*[#  17]+0.104*[#  18]+0.104*[#  27]+0.104*[#  28]+0.037*[#  19]
          +0.037*[#  20]+0.037*[#  29]+0.037*[#  30]+0.028*[#  32]+0.028*[#  36]
          +0.028*[#  40]+0.028*[#  44]+0.028*[#  48]+0.028*[#  52]+0.020*[#  38]
          +0.020*[#  46]+0.020*[#  33]+0.020*[#  41]+0.020*[#  49]+0.020*[#  53]
          +0.019*[#  34]+0.019*[#  42]+0.019*[#  50]+0.019*[#  54]+0.019*[#  37]
          +0.019*[#  45]+0.004*[#  31]+0.004*[#  35]+0.004*[#  39]+0.004*[#  43]
          +0.004*[#  47]+0.004*[#  51]
    |psi|^2 = 0.987
==== e(  51) =     7.80575 eV ==== 
     psi = 0.104*[#  17]+0.104*[#  18]+0.104*[#  27]+0.104*[#  28]+0.036*[#  19]
          +0.036*[#  20]+0.036*[#  29]+0.036*[#  30]+0.027*[#  32]+0.027*[#  36]
          +0.027*[#  40]+0.027*[#  44]+0.027*[#  48]+0.027*[#  52]+0.020*[#  38]
          +0.020*[#  46]+0.020*[#  33]+0.020*[#  41]+0.020*[#  49]+0.020*[#  53]
          +0.019*[#  34]+0.019*[#  42]+0.019*[#  50]+0.019*[#  54]+0.019*[#  37]
          +0.019*[#  45]+0.004*[#  31]+0.004*[#  35]+0.004*[#  39]+0.004*[#  43]
          +0.004*[#  47]+0.004*[#  51]
    |psi|^2 = 0.988
==== e(  52) =     7.88689 eV ==== 
     psi = 0.130*[#   7]+0.130*[#   8]+0.043*[#   9]+0.043*[#  10]+0.037*[#  17]
          +0.037*[#  18]+0.037*[#  27]+0.037*[#  28]+0.029*[#  32]+0.029*[#  36]
          +0.029*[#  40]+0.029*[#  44]+0.029*[#  48]+0.029*[#  52]+0.022*[#  38]
          +0.022*[#  46]+0.021*[#  33]+0.021*[#  41]+0.021*[#  49]+0.021*[#  53]
          +0.018*[#  34]+0.018*[#  42]+0.018*[#  50]+0.018*[#  54]+0.016*[#  37]
          +0.016*[#  45]+0.015*[#  19]+0.015*[#  20]+0.015*[#  29]+0.015*[#  30]
          +0.004*[#  31]+0.004*[#  35]+0.004*[#  39]+0.004*[#  43]+0.004*[#  47]
          +0.004*[#  51]
    |psi|^2 = 0.989
==== e(  53) =     7.88832 eV ==== 
     psi = 0.130*[#   7]+0.130*[#   8]+0.043*[#   9]+0.043*[#  10]+0.037*[#  17]
          +0.037*[#  18]+0.037*[#  27]+0.037*[#  28]+0.029*[#  32]+0.029*[#  36]
          +0.029*[#  40]+0.029*[#  44]+0.029*[#  48]+0.029*[#  52]+0.023*[#  38]
          +0.023*[#  46]+0.021*[#  33]+0.021*[#  41]+0.021*[#  49]+0.021*[#  53]
          +0.018*[#  34]+0.018*[#  42]+0.018*[#  50]+0.018*[#  54]+0.017*[#  37]
          +0.017*[#  45]+0.015*[#  19]+0.015*[#  20]+0.015*[#  29]+0.015*[#  30]
          +0.004*[#  31]+0.004*[#  35]+0.004*[#  39]+0.004*[#  43]+0.004*[#  47]
          +0.004*[#  51]
    |psi|^2 = 0.989
==== e(  54) =     8.61021 eV ==== 
     psi = 0.059*[#   9]+0.059*[#  10]+0.048*[#  19]+0.048*[#  20]+0.048*[#  29]
          +0.048*[#  30]+0.045*[#  37]+0.045*[#  45]+0.044*[#  34]+0.044*[#  42]
          +0.044*[#  50]+0.044*[#  54]+0.042*[#  33]+0.042*[#  41]+0.042*[#  49]
          +0.042*[#  53]+0.040*[#  38]+0.040*[#  46]+0.034*[#   7]+0.034*[#   8]
          +0.026*[#  17]+0.026*[#  18]+0.026*[#  27]+0.026*[#  28]
    |psi|^2 = 0.995
==== e(  55) =     8.61439 eV ==== 
     psi = 0.059*[#   9]+0.059*[#  10]+0.048*[#  19]+0.048*[#  20]+0.048*[#  29]
          +0.048*[#  30]+0.045*[#  37]+0.045*[#  45]+0.044*[#  34]+0.044*[#  42]
          +0.044*[#  50]+0.044*[#  54]+0.042*[#  33]+0.042*[#  41]+0.042*[#  49]
          +0.042*[#  53]+0.040*[#  38]+0.040*[#  46]+0.034*[#   7]+0.034*[#   8]
          +0.026*[#  17]+0.026*[#  18]+0.026*[#  27]+0.026*[#  28]
    |psi|^2 = 0.995
==== e(  56) =    11.74355 eV ==== 
     psi = 0.553*[#  56]+0.054*[#  12]+0.054*[#  22]+0.045*[#  31]+0.045*[#  35]
          +0.045*[#  39]+0.045*[#  43]+0.045*[#  47]+0.045*[#  51]+0.042*[#   2]
          +0.004*[#   1]+0.004*[#  11]+0.004*[#  21]
    |psi|^2 = 0.991
==== e(  57) =    15.88483 eV ==== 
     psi = 0.001*[#  32]+0.001*[#  36]+0.001*[#  40]+0.001*[#  44]+0.001*[#  48]
          +0.001*[#  52]
    |psi|^2 = 0.010
==== e(  58) =    17.19690 eV ==== 
     psi = 0.261*[#   2]+0.227*[#  56]+0.105*[#  12]+0.105*[#  22]+0.015*[#  32]
          +0.015*[#  36]+0.015*[#  40]+0.015*[#  44]+0.015*[#  48]+0.015*[#  52]
          +0.011*[#  31]+0.011*[#  35]+0.011*[#  39]+0.011*[#  43]+0.011*[#  47]
          +0.011*[#  51]+0.003*[#  55]+0.003*[#   1]+0.003*[#   6]+0.002*[#  16]
          +0.002*[#  26]
    |psi|^2 = 0.866
==== e(  59) =    18.34858 eV ==== 
     psi = 0.019*[#  12]+0.019*[#  22]+0.002*[#  56]
    |psi|^2 = 0.052
==== e(  60) =    18.39598 eV ==== 

    |psi|^2 = 0.008
==== e(  61) =    18.47223 eV ==== 
     psi = 0.055*[#  12]+0.055*[#  22]+0.002*[#  38]+0.002*[#  46]+0.002*[#  33]
          +0.002*[#  41]+0.002*[#  49]+0.002*[#  53]+0.001*[#  56]+0.001*[#  11]
          +0.001*[#  21]
    |psi|^2 = 0.130
==== e(  62) =    18.68362 eV ==== 

    |psi|^2 = 0.006
==== e(  63) =    18.76377 eV ==== 
     psi = 0.033*[#  12]+0.033*[#  22]+0.002*[#  38]+0.002*[#  46]+0.001*[#  33]
          +0.001*[#  41]+0.001*[#  49]+0.001*[#  53]
    |psi|^2 = 0.081
==== e(  64) =    19.06439 eV ==== 
     psi = 0.136*[#  12]+0.136*[#  22]+0.129*[#   2]+0.039*[#  56]+0.010*[#  37]
          +0.010*[#  45]+0.008*[#  34]+0.008*[#  42]+0.008*[#  50]+0.008*[#  54]
          +0.004*[#   1]+0.003*[#  11]+0.003*[#  21]+0.003*[#  33]+0.003*[#  41]
          +0.003*[#  49]+0.003*[#  53]+0.002*[#  32]+0.002*[#  36]+0.002*[#  40]
          +0.002*[#  44]+0.002*[#  48]+0.002*[#  52]
    |psi|^2 = 0.527

 k =   0.0454545455  0.0262431941  0.0000000000
==== e(   1) =   -89.51918 eV ==== 
     psi = 0.486*[#  11]+0.486*[#  21]+0.011*[#  56]+0.006*[#   2]+0.001*[#  32]
          +0.001*[#  36]+0.001*[#  40]+0.001*[#  44]+0.001*[#  48]+0.001*[#  52]
          
    |psi|^2 = 1.000
==== e(   2) =   -89.51543 eV ==== 
     psi = 0.488*[#  11]+0.488*[#  21]+0.005*[#  12]+0.005*[#  22]+0.002*[#  38]
          +0.002*[#  46]+0.002*[#  33]+0.002*[#  41]+0.002*[#  49]+0.002*[#  53]
          
    |psi|^2 = 1.000
==== e(   3) =   -89.40400 eV ==== 
     psi = 0.972*[#   1]+0.006*[#  56]+0.003*[#  12]+0.003*[#  22]+0.003*[#   2]
          +0.002*[#  37]+0.002*[#  45]+0.001*[#  34]+0.001*[#  42]+0.001*[#  50]
          +0.001*[#  54]
    |psi|^2 = 1.000
==== e(   4) =   -52.75534 eV ==== 
     psi = 0.498*[#  13]+0.498*[#  23]
    |psi|^2 = 1.000
==== e(   5) =   -52.75349 eV ==== 
     psi = 0.248*[#  14]+0.248*[#  15]+0.248*[#  24]+0.248*[#  25]
    |psi|^2 = 1.000
==== e(   6) =   -52.75338 eV ==== 
     psi = 0.248*[#  14]+0.248*[#  15]+0.248*[#  24]+0.248*[#  25]
    |psi|^2 = 1.000
==== e(   7) =   -52.74902 eV ==== 
     psi = 0.499*[#  13]+0.499*[#  23]
    |psi|^2 = 1.000
==== e(   8) =   -52.73238 eV ==== 
     psi = 0.233*[#  14]+0.233*[#  15]+0.233*[#  24]+0.233*[#  25]+0.031*[#   4]
          +0.031*[#   5]
    |psi|^2 = 1.000
==== e(   9) =   -52.73231 eV ==== 
     psi = 0.233*[#  14]+0.233*[#  15]+0.233*[#  24]+0.233*[#  25]+0.032*[#   4]
          +0.032*[#   5]
    |psi|^2 = 1.000
==== e(  10) =   -52.65947 eV ==== 
     psi = 0.466*[#   4]+0.466*[#   5]+0.016*[#  14]+0.016*[#  15]+0.016*[#  24]
          +0.016*[#  25]
    |psi|^2 = 1.000
==== e(  11) =   -52.65934 eV ==== 
     psi = 0.465*[#   4]+0.465*[#   5]+0.017*[#  14]+0.017*[#  15]+0.017*[#  24]
          +0.017*[#  25]
    |psi|^2 = 1.000
==== e(  12) =   -52.59847 eV ==== 
     psi = 0.997*[#   3]
    |psi|^2 = 1.000
==== e(  13) =   -43.60920 eV ==== 
     psi = 0.992*[#  55]+0.004*[#   2]
    |psi|^2 = 1.000
==== e(  14) =   -15.58955 eV ==== 
     psi = 0.991*[#  57]+0.001*[#  31]+0.001*[#  35]+0.001*[#  39]+0.001*[#  43]
          +0.001*[#  47]+0.001*[#  51]
    |psi|^2 = 1.000
==== e(  15) =   -15.52445 eV ==== 
     psi = 0.498*[#  58]+0.498*[#  59]
    |psi|^2 = 1.000
==== e(  16) =   -15.52433 eV ==== 
     psi = 0.498*[#  58]+0.498*[#  59]
    |psi|^2 = 1.000
==== e(  17) =   -12.99757 eV ==== 
     psi = 0.103*[#  31]+0.103*[#  35]+0.103*[#  39]+0.103*[#  43]+0.103*[#  47]
          +0.103*[#  51]+0.097*[#   2]+0.094*[#  12]+0.094*[#  22]+0.060*[#  56]
          +0.004*[#   1]+0.004*[#  11]+0.004*[#  21]+0.003*[#  32]+0.003*[#  36]
          +0.003*[#  40]+0.003*[#  44]+0.003*[#  48]+0.003*[#  52]+0.002*[#  16]
          +0.002*[#  26]+0.002*[#   6]
    |psi|^2 = 0.999
==== e(  18) =   -11.33693 eV ==== 
     psi = 0.156*[#  31]+0.156*[#  35]+0.156*[#  39]+0.156*[#  43]+0.156*[#  47]
          +0.156*[#  51]+0.005*[#   9]+0.005*[#  10]+0.004*[#   7]+0.004*[#   8]
          +0.004*[#  19]+0.004*[#  20]+0.004*[#  29]+0.004*[#  30]+0.003*[#  17]
          +0.003*[#  18]+0.003*[#  27]+0.003*[#  28]+0.001*[#  32]+0.001*[#  36]
          +0.001*[#  40]+0.001*[#  44]+0.001*[#  48]+0.001*[#  52]
    |psi|^2 = 0.998
==== e(  19) =   -11.33084 eV ==== 
     psi = 0.156*[#  31]+0.156*[#  35]+0.156*[#  39]+0.156*[#  43]+0.156*[#  47]
          +0.156*[#  51]+0.005*[#   9]+0.005*[#  10]+0.005*[#   7]+0.005*[#   8]
          +0.004*[#  19]+0.004*[#  20]+0.004*[#  29]+0.004*[#  30]+0.003*[#  17]
          +0.003*[#  18]+0.003*[#  27]+0.003*[#  28]+0.001*[#  32]+0.001*[#  36]
          +0.001*[#  40]+0.001*[#  44]+0.001*[#  48]+0.001*[#  52]
    |psi|^2 = 0.998
==== e(  20) =   -11.29880 eV ==== 
     psi = 0.154*[#  31]+0.154*[#  35]+0.154*[#  39]+0.154*[#  43]+0.154*[#  47]
          +0.154*[#  51]+0.005*[#  19]+0.005*[#  20]+0.005*[#  29]+0.005*[#  30]
          +0.005*[#  17]+0.005*[#  18]+0.005*[#  27]+0.005*[#  28]+0.004*[#   7]
          +0.004*[#   8]+0.004*[#   9]+0.004*[#  10]+0.001*[#  32]+0.001*[#  36]
          +0.001*[#  40]+0.001*[#  44]+0.001*[#  48]+0.001*[#  52]
    |psi|^2 = 0.998
==== e(  21) =   -11.29323 eV ==== 
     psi = 0.155*[#  31]+0.155*[#  35]+0.155*[#  39]+0.155*[#  43]+0.155*[#  47]
          +0.155*[#  51]+0.005*[#  19]+0.005*[#  20]+0.005*[#  29]+0.005*[#  30]
          +0.005*[#  17]+0.005*[#  18]+0.005*[#  27]+0.005*[#  28]+0.004*[#   7]
          +0.004*[#   8]+0.004*[#   9]+0.004*[#  10]+0.001*[#  32]+0.001*[#  36]
          +0.001*[#  40]+0.001*[#  44]+0.001*[#  48]+0.001*[#  52]
    |psi|^2 = 0.998
==== e(  22) =   -11.04746 eV ==== 
     psi = 0.164*[#  31]+0.164*[#  35]+0.164*[#  39]+0.164*[#  43]+0.164*[#  47]
          +0.164*[#  51]+0.007*[#  57]
    |psi|^2 = 0.995
==== e(  23) =     0.60960 eV ==== 
     psi = 0.109*[#   6]+0.093*[#  32]+0.093*[#  36]+0.093*[#  40]+0.093*[#  44]
          +0.093*[#  48]+0.093*[#  52]+0.085*[#  16]+0.085*[#  26]+0.051*[#  56]
          +0.008*[#  37]+0.008*[#  45]+0.008*[#  12]+0.008*[#  22]+0.006*[#  34]
          +0.006*[#  42]+0.006*[#  50]+0.006*[#  54]+0.005*[#  31]+0.005*[#  35]
          +0.005*[#  39]+0.005*[#  43]+0.005*[#  47]+0.005*[#  51]+0.003*[#  33]
          +0.003*[#  41]+0.003*[#  49]+0.003*[#  53]+0.002*[#  55]+0.001*[#  11]
          +0.001*[#  21]+0.001*[#   2]
    |psi|^2 = 0.998
==== e(  24) =     0.84104 eV ==== 
     psi = 0.077*[#   7]+0.077*[#   8]+0.054*[#  37]+0.054*[#  45]+0.053*[#  34]
          +0.053*[#  42]+0.053*[#  50]+0.053*[#  54]+0.049*[#  33]+0.049*[#  41]
          +0.049*[#  49]+0.049*[#  53]+0.048*[#  38]+0.048*[#  46]+0.017*[#  32]
          +0.017*[#  36]+0.017*[#  40]+0.017*[#  44]+0.017*[#  48]+0.017*[#  52]
          +0.015*[#  17]+0.015*[#  18]+0.015*[#  27]+0.015*[#  28]+0.008*[#  12]
          +0.008*[#  22]+0.007*[#   9]+0.007*[#  10]+0.006*[#  19]+0.006*[#  20]
          +0.006*[#  29]+0.006*[#  30]
    |psi|^2 = 0.991
==== e(  25) =     0.88810 eV ==== 
     psi = 0.085*[#   7]+0.085*[#   8]+0.060*[#  37]+0.060*[#  45]+0.055*[#  34]
          +0.055*[#  42]+0.055*[#  50]+0.055*[#  54]+0.045*[#  33]+0.045*[#  41]
          +0.045*[#  49]+0.045*[#  53]+0.041*[#  38]+0.041*[#  46]+0.018*[#  32]
          +0.018*[#  36]+0.018*[#  40]+0.018*[#  44]+0.018*[#  48]+0.018*[#  52]
          +0.015*[#  17]+0.015*[#  18]+0.015*[#  27]+0.015*[#  28]+0.007*[#  19]
          +0.007*[#  20]+0.007*[#  29]+0.007*[#  30]+0.006*[#   9]+0.006*[#  10]
          
    |psi|^2 = 0.989
==== e(  26) =     0.91990 eV ==== 
     psi = 0.061*[#  37]+0.061*[#  45]+0.056*[#  34]+0.056*[#  42]+0.056*[#  50]
          +0.056*[#  54]+0.052*[#  17]+0.052*[#  18]+0.052*[#  27]+0.052*[#  28]
          +0.047*[#  33]+0.047*[#  41]+0.047*[#  49]+0.047*[#  53]+0.042*[#  38]
          +0.042*[#  46]+0.023*[#   2]+0.015*[#  32]+0.015*[#  36]+0.015*[#  40]
          +0.015*[#  44]+0.015*[#  48]+0.015*[#  52]+0.006*[#  16]+0.006*[#  26]
          +0.005*[#  19]+0.005*[#  20]+0.005*[#  29]+0.005*[#  30]+0.005*[#  12]
          +0.005*[#  22]+0.004*[#   7]+0.004*[#   8]
    |psi|^2 = 0.992
==== e(  27) =     0.98620 eV ==== 
     psi = 0.064*[#  17]+0.064*[#  18]+0.064*[#  27]+0.064*[#  28]+0.052*[#  34]
          +0.052*[#  37]+0.052*[#  42]+0.052*[#  45]+0.052*[#  50]+0.052*[#  54]
          +0.051*[#  33]+0.051*[#  38]+0.051*[#  41]+0.051*[#  46]+0.051*[#  49]
          +0.051*[#  53]+0.014*[#  32]+0.014*[#  36]+0.014*[#  40]+0.014*[#  44]
          +0.014*[#  48]+0.014*[#  52]+0.006*[#  19]+0.006*[#  20]+0.006*[#  29]
          +0.006*[#  30]+0.002*[#   7]+0.002*[#   8]
    |psi|^2 = 0.989
==== e(  28) =     1.19820 eV ==== 
     psi = 0.069*[#   9]+0.069*[#  10]+0.065*[#  19]+0.065*[#  20]+0.065*[#  29]
          +0.065*[#  30]+0.049*[#  38]+0.049*[#  46]+0.045*[#  33]+0.045*[#  41]
          +0.045*[#  49]+0.045*[#  53]+0.035*[#  34]+0.035*[#  42]+0.035*[#  50]
          +0.035*[#  54]+0.030*[#  37]+0.030*[#  45]+0.024*[#  17]+0.024*[#  18]
          +0.024*[#  27]+0.024*[#  28]+0.010*[#   7]+0.010*[#   8]
    |psi|^2 = 0.998
==== e(  29) =     1.21021 eV ==== 
     psi = 0.068*[#   9]+0.068*[#  10]+0.066*[#  19]+0.066*[#  20]+0.066*[#  29]
          +0.066*[#  30]+0.047*[#  38]+0.047*[#  46]+0.043*[#  33]+0.043*[#  41]
          +0.043*[#  49]+0.043*[#  53]+0.036*[#  34]+0.036*[#  42]+0.036*[#  50]
          +0.036*[#  54]+0.033*[#  37]+0.033*[#  45]+0.023*[#  17]+0.023*[#  18]
          +0.023*[#  27]+0.023*[#  28]+0.013*[#   7]+0.013*[#   8]
    |psi|^2 = 0.998
==== e(  30) =     1.30783 eV ==== 
     psi = 0.116*[#  37]+0.116*[#  45]+0.089*[#  34]+0.089*[#  42]+0.089*[#  50]
          +0.089*[#  54]+0.085*[#   2]+0.036*[#  33]+0.036*[#  41]+0.036*[#  49]
          +0.036*[#  53]+0.020*[#  12]+0.020*[#  22]+0.012*[#  16]+0.012*[#  26]
          +0.011*[#  17]+0.011*[#  18]+0.011*[#  27]+0.011*[#  28]+0.010*[#  38]
          +0.010*[#  46]+0.006*[#  32]+0.006*[#  36]+0.006*[#  40]+0.006*[#  44]
          +0.006*[#  48]+0.006*[#  52]+0.003*[#   1]+0.003*[#   6]
    |psi|^2 = 0.996
==== e(  31) =     1.44373 eV ==== 
     psi = 0.131*[#  38]+0.131*[#  46]+0.099*[#  33]+0.099*[#  41]+0.099*[#  49]
          +0.099*[#  53]+0.071*[#  12]+0.071*[#  22]+0.035*[#  34]+0.035*[#  42]
          +0.035*[#  50]+0.035*[#  54]+0.007*[#  16]+0.007*[#  26]+0.005*[#   7]
          +0.005*[#   8]+0.003*[#  37]+0.003*[#  45]+0.002*[#  11]+0.002*[#  21]
          +0.002*[#  17]+0.002*[#  18]+0.002*[#  27]+0.002*[#  28]+0.001*[#  32]
          +0.001*[#  36]+0.001*[#  40]+0.001*[#  44]+0.001*[#  48]+0.001*[#  52]
          
    |psi|^2 = 0.996
==== e(  32) =     2.86782 eV ==== 
     psi = 0.085*[#  32]+0.085*[#  36]+0.085*[#  40]+0.085*[#  44]+0.085*[#  48]
          +0.085*[#  52]+0.067*[#  19]+0.067*[#  20]+0.067*[#  29]+0.067*[#  30]
          +0.018*[#  17]+0.018*[#  18]+0.018*[#  27]+0.018*[#  28]+0.013*[#  38]
          +0.013*[#  46]+0.011*[#  33]+0.011*[#  41]+0.011*[#  49]+0.011*[#  53]
          +0.007*[#  34]+0.007*[#  42]+0.007*[#  50]+0.007*[#  54]+0.006*[#  31]
          +0.006*[#  35]+0.006*[#  39]+0.006*[#  43]+0.006*[#  47]+0.006*[#  51]
          +0.005*[#  37]+0.005*[#  45]+0.001*[#   9]+0.001*[#  10]
    |psi|^2 = 0.996
==== e(  33) =     2.88608 eV ==== 
     psi = 0.091*[#  32]+0.091*[#  36]+0.091*[#  40]+0.091*[#  44]+0.091*[#  48]
          +0.091*[#  52]+0.071*[#  19]+0.071*[#  20]+0.071*[#  29]+0.071*[#  30]
          +0.017*[#  17]+0.017*[#  18]+0.017*[#  27]+0.017*[#  28]+0.006*[#  31]
          +0.006*[#  35]+0.006*[#  39]+0.006*[#  43]+0.006*[#  47]+0.006*[#  51]
          +0.005*[#  37]+0.005*[#  45]+0.005*[#  34]+0.005*[#  42]+0.005*[#  50]
          +0.005*[#  54]+0.004*[#   6]+0.004*[#  33]+0.004*[#  41]+0.004*[#  49]
          +0.004*[#  53]+0.003*[#  38]+0.003*[#  46]+0.001*[#  16]+0.001*[#  26]
          
    |psi|^2 = 0.997
==== e(  34) =     2.91610 eV ==== 
     psi = 0.082*[#   9]+0.082*[#  10]+0.073*[#  32]+0.073*[#  36]+0.073*[#  40]
          +0.073*[#  44]+0.073*[#  48]+0.073*[#  52]+0.031*[#   7]+0.031*[#   8]
          +0.028*[#  37]+0.028*[#  45]+0.022*[#  34]+0.022*[#  42]+0.022*[#  50]
          +0.022*[#  54]+0.018*[#  19]+0.018*[#  20]+0.018*[#  29]+0.018*[#  30]
          +0.010*[#  33]+0.010*[#  41]+0.010*[#  49]+0.010*[#  53]+0.008*[#  17]
          +0.008*[#  18]+0.008*[#  27]+0.008*[#  28]+0.005*[#  31]+0.005*[#  35]
          +0.005*[#  39]+0.005*[#  43]+0.005*[#  47]+0.005*[#  51]+0.004*[#  38]
          +0.004*[#  46]
    |psi|^2 = 0.995
==== e(  35) =     2.95582 eV ==== 
     psi = 0.096*[#   9]+0.096*[#  10]+0.087*[#  32]+0.087*[#  36]+0.087*[#  40]
          +0.087*[#  44]+0.087*[#  48]+0.087*[#  52]+0.030*[#   7]+0.030*[#   8]
          +0.021*[#  19]+0.021*[#  20]+0.021*[#  29]+0.021*[#  30]+0.007*[#  17]
          +0.007*[#  18]+0.007*[#  27]+0.007*[#  28]+0.006*[#  31]+0.006*[#  35]
          +0.006*[#  39]+0.006*[#  43]+0.006*[#  47]+0.006*[#  51]+0.006*[#  37]
          +0.006*[#  45]+0.006*[#  34]+0.006*[#  42]+0.006*[#  50]+0.006*[#  54]
          +0.005*[#  33]+0.005*[#  41]+0.005*[#  49]+0.005*[#  53]+0.005*[#  38]
          +0.005*[#  46]+0.003*[#  16]+0.003*[#  26]
    |psi|^2 = 0.997
==== e(  36) =     3.30832 eV ==== 
     psi = 0.138*[#  37]+0.138*[#  45]+0.104*[#  34]+0.104*[#  42]+0.104*[#  50]
          +0.104*[#  54]+0.035*[#  33]+0.035*[#  41]+0.035*[#  49]+0.035*[#  53]
          +0.016*[#  32]+0.016*[#  36]+0.016*[#  40]+0.016*[#  44]+0.016*[#  48]
          +0.016*[#  52]+0.014*[#   9]+0.014*[#  10]+0.003*[#  19]+0.003*[#  20]
          +0.003*[#  29]+0.003*[#  30]+0.002*[#   3]+0.001*[#  57]
    |psi|^2 = 0.982
==== e(  37) =     3.44177 eV ==== 
     psi = 0.153*[#  38]+0.153*[#  46]+0.115*[#  33]+0.115*[#  41]+0.115*[#  49]
          +0.115*[#  53]+0.039*[#  34]+0.039*[#  42]+0.039*[#  50]+0.039*[#  54]
          +0.007*[#  32]+0.007*[#  36]+0.007*[#  40]+0.007*[#  44]+0.007*[#  48]
          +0.007*[#  52]+0.005*[#  19]+0.005*[#  20]+0.005*[#  29]+0.005*[#  30]
          +0.001*[#  13]+0.001*[#  23]
    |psi|^2 = 0.985
==== e(  38) =     4.58919 eV ==== 
     psi = 0.062*[#  17]+0.062*[#  18]+0.062*[#  27]+0.062*[#  28]+0.061*[#  32]
          +0.061*[#  36]+0.061*[#  40]+0.061*[#  44]+0.061*[#  48]+0.061*[#  52]
          +0.057*[#   7]+0.057*[#   8]+0.021*[#  19]+0.021*[#  20]+0.021*[#  29]
          +0.021*[#  30]+0.018*[#   9]+0.018*[#  10]+0.012*[#  33]+0.012*[#  34]
          +0.012*[#  37]+0.012*[#  38]+0.012*[#  41]+0.012*[#  42]+0.012*[#  45]
          +0.012*[#  46]+0.012*[#  49]+0.012*[#  50]+0.012*[#  53]+0.012*[#  54]
          
    |psi|^2 = 0.995
==== e(  39) =     4.61807 eV ==== 
     psi = 0.086*[#  17]+0.086*[#  18]+0.086*[#  27]+0.086*[#  28]+0.080*[#   7]
          +0.080*[#   8]+0.033*[#  19]+0.033*[#  20]+0.033*[#  29]+0.033*[#  30]
          +0.030*[#   9]+0.030*[#  10]+0.025*[#  38]+0.025*[#  46]+0.025*[#  33]
          +0.025*[#  41]+0.025*[#  49]+0.025*[#  53]+0.025*[#  34]+0.025*[#  42]
          +0.025*[#  50]+0.025*[#  54]+0.024*[#  37]+0.024*[#  45]
    |psi|^2 = 0.997
==== e(  40) =     4.67965 eV ==== 
     psi = 0.489*[#  16]+0.489*[#  26]+0.002*[#  38]+0.002*[#  46]+0.002*[#  33]
          +0.002*[#  41]+0.002*[#  49]+0.002*[#  53]+0.001*[#   9]+0.001*[#  10]
          
    |psi|^2 = 0.999
==== e(  41) =     4.68235 eV ==== 
     psi = 0.102*[#  32]+0.102*[#  36]+0.102*[#  40]+0.102*[#  44]+0.102*[#  48]
          +0.102*[#  52]+0.028*[#  17]+0.028*[#  18]+0.028*[#  27]+0.028*[#  28]
          +0.027*[#   7]+0.027*[#   8]+0.013*[#  19]+0.013*[#  20]+0.013*[#  29]
          +0.013*[#  30]+0.013*[#   9]+0.013*[#  10]+0.012*[#  34]+0.012*[#  37]
          +0.011*[#  41]+0.012*[#  42]+0.012*[#  45]+0.011*[#  33]+0.011*[#  49]
          +0.012*[#  50]+0.011*[#  53]+0.012*[#  54]+0.011*[#  38]+0.011*[#  46]
          
    |psi|^2 = 0.993
==== e(  42) =     4.72489 eV ==== 
     psi = 0.628*[#   6]+0.171*[#  16]+0.171*[#  26]+0.003*[#  37]+0.003*[#  45]
          +0.002*[#  34]+0.002*[#  42]+0.002*[#  50]+0.002*[#  54]
    |psi|^2 = 0.998
==== e(  43) =     4.94904 eV ==== 
     psi = 0.058*[#  38]+0.058*[#  46]+0.058*[#  33]+0.058*[#  41]+0.058*[#  49]
          +0.058*[#  53]+0.057*[#  34]+0.057*[#  42]+0.057*[#  50]+0.057*[#  54]
          +0.056*[#  37]+0.056*[#  45]+0.035*[#  17]+0.035*[#  18]+0.035*[#  27]
          +0.035*[#  28]+0.032*[#   7]+0.032*[#   8]+0.017*[#  19]+0.017*[#  20]
          +0.017*[#  29]+0.017*[#  30]+0.014*[#   9]+0.014*[#  10]+0.002*[#  16]
          +0.002*[#  26]+0.001*[#   6]
    |psi|^2 = 0.995
==== e(  44) =     4.97492 eV ==== 
     psi = 0.061*[#  38]+0.061*[#  46]+0.061*[#  33]+0.061*[#  41]+0.061*[#  49]
          +0.061*[#  53]+0.060*[#  34]+0.060*[#  42]+0.060*[#  50]+0.060*[#  54]
          +0.059*[#  37]+0.059*[#  45]+0.031*[#  17]+0.031*[#  18]+0.031*[#  27]
          +0.031*[#  28]+0.028*[#   7]+0.028*[#   8]+0.015*[#  19]+0.015*[#  20]
          +0.015*[#  29]+0.015*[#  30]+0.012*[#   9]+0.012*[#  10]
    |psi|^2 = 0.995
==== e(  45) =     5.72162 eV ==== 
     psi = 0.095*[#   9]+0.095*[#  10]+0.086*[#  19]+0.086*[#  20]+0.086*[#  29]
          +0.086*[#  30]+0.042*[#   7]+0.042*[#   8]+0.034*[#  17]+0.034*[#  18]
          +0.034*[#  27]+0.034*[#  28]+0.029*[#  32]+0.029*[#  36]+0.029*[#  40]
          +0.029*[#  44]+0.029*[#  48]+0.029*[#  52]+0.006*[#  37]+0.006*[#  45]
          +0.005*[#  34]+0.005*[#  42]+0.005*[#  50]+0.005*[#  54]+0.005*[#  33]
          +0.005*[#  41]+0.005*[#  49]+0.005*[#  53]+0.005*[#  38]+0.005*[#  46]
          
    |psi|^2 = 0.993
==== e(  46) =     5.72454 eV ==== 
     psi = 0.095*[#   9]+0.095*[#  10]+0.087*[#  19]+0.087*[#  20]+0.087*[#  29]
          +0.087*[#  30]+0.041*[#   7]+0.041*[#   8]+0.033*[#  17]+0.033*[#  18]
          +0.033*[#  27]+0.033*[#  28]+0.030*[#  32]+0.030*[#  36]+0.030*[#  40]
          +0.030*[#  44]+0.030*[#  48]+0.030*[#  52]+0.006*[#  37]+0.006*[#  45]
          +0.006*[#  34]+0.006*[#  42]+0.006*[#  50]+0.006*[#  54]+0.005*[#  33]
          +0.005*[#  41]+0.005*[#  49]+0.005*[#  53]+0.005*[#  38]+0.005*[#  46]
          
    |psi|^2 = 0.993
==== e(  47) =     5.83641 eV ==== 
     psi = 0.081*[#  19]+0.081*[#  20]+0.081*[#  29]+0.081*[#  30]+0.076*[#   9]
          +0.076*[#  10]+0.042*[#   7]+0.042*[#   8]+0.040*[#  17]+0.040*[#  18]
          +0.040*[#  27]+0.040*[#  28]+0.029*[#  32]+0.029*[#  36]+0.029*[#  40]
          +0.029*[#  44]+0.029*[#  48]+0.029*[#  52]+0.008*[#  37]+0.008*[#  45]
          +0.008*[#  34]+0.008*[#  42]+0.008*[#  50]+0.008*[#  54]+0.008*[#  33]
          +0.008*[#  41]+0.008*[#  49]+0.008*[#  53]+0.008*[#  38]+0.008*[#  46]
          
    |psi|^2 = 0.992
==== e(  48) =     5.84064 eV ==== 
     psi = 0.082*[#  19]+0.082*[#  20]+0.082*[#  29]+0.082*[#  30]+0.076*[#   9]
          +0.076*[#  10]+0.041*[#   7]+0.041*[#   8]+0.040*[#  17]+0.040*[#  18]
          +0.040*[#  27]+0.040*[#  28]+0.029*[#  32]+0.029*[#  36]+0.029*[#  40]
          +0.029*[#  44]+0.029*[#  48]+0.029*[#  52]+0.008*[#  37]+0.008*[#  45]
          +0.008*[#  34]+0.008*[#  42]+0.008*[#  50]+0.008*[#  54]+0.008*[#  33]
          +0.008*[#  41]+0.008*[#  49]+0.008*[#  53]+0.008*[#  38]+0.008*[#  46]
          
    |psi|^2 = 0.992
==== e(  49) =     5.90139 eV ==== 
     psi = 0.246*[#   6]+0.218*[#  16]+0.218*[#  26]+0.041*[#  32]+0.041*[#  36]
          +0.041*[#  40]+0.041*[#  44]+0.041*[#  48]+0.041*[#  52]+0.025*[#  56]
          +0.011*[#   2]+0.008*[#  12]+0.008*[#  22]+0.001*[#  31]+0.001*[#  35]
          +0.001*[#  39]+0.001*[#  43]+0.001*[#  47]+0.001*[#  51]
    |psi|^2 = 0.998
==== e(  50) =     7.80413 eV ==== 
     psi = 0.103*[#  17]+0.103*[#  18]+0.103*[#  27]+0.103*[#  28]+0.036*[#  19]
          +0.036*[#  20]+0.036*[#  29]+0.036*[#  30]+0.027*[#  32]+0.027*[#  36]
          +0.027*[#  40]+0.027*[#  44]+0.027*[#  48]+0.027*[#  52]+0.020*[#  38]
          +0.020*[#  46]+0.020*[#  33]+0.020*[#  41]+0.020*[#  49]+0.020*[#  53]
          +0.019*[#  34]+0.019*[#  42]+0.019*[#  50]+0.019*[#  54]+0.019*[#  37]
          +0.019*[#  45]+0.004*[#  31]+0.004*[#  35]+0.004*[#  39]+0.004*[#  43]
          +0.004*[#  47]+0.004*[#  51]+0.002*[#   7]+0.002*[#   8]
    |psi|^2 = 0.987
==== e(  51) =     7.81095 eV ==== 
     psi = 0.104*[#  17]+0.104*[#  18]+0.104*[#  27]+0.104*[#  28]+0.036*[#  19]
          +0.036*[#  20]+0.036*[#  29]+0.036*[#  30]+0.027*[#  32]+0.027*[#  36]
          +0.027*[#  40]+0.027*[#  44]+0.027*[#  48]+0.027*[#  52]+0.021*[#  38]
          +0.021*[#  46]+0.020*[#  33]+0.020*[#  41]+0.020*[#  49]+0.020*[#  53]
          +0.019*[#  34]+0.019*[#  42]+0.019*[#  50]+0.019*[#  54]+0.019*[#  37]
          +0.019*[#  45]+0.004*[#  31]+0.004*[#  35]+0.004*[#  39]+0.004*[#  43]
          +0.004*[#  47]+0.004*[#  51]+0.001*[#   7]+0.001*[#   8]
    |psi|^2 = 0.988
==== e(  52) =     7.88795 eV ==== 
     psi = 0.128*[#   7]+0.128*[#   8]+0.044*[#   9]+0.044*[#  10]+0.037*[#  17]
          +0.037*[#  18]+0.037*[#  27]+0.037*[#  28]+0.030*[#  32]+0.030*[#  36]
          +0.030*[#  40]+0.030*[#  44]+0.030*[#  48]+0.030*[#  52]+0.022*[#  38]
          +0.022*[#  46]+0.021*[#  33]+0.021*[#  41]+0.021*[#  49]+0.021*[#  53]
          +0.018*[#  34]+0.018*[#  42]+0.018*[#  50]+0.018*[#  54]+0.016*[#  37]
          +0.016*[#  45]+0.016*[#  19]+0.016*[#  20]+0.016*[#  29]+0.016*[#  30]
          +0.004*[#  31]+0.004*[#  35]+0.004*[#  39]+0.004*[#  43]+0.004*[#  47]
          +0.004*[#  51]
    |psi|^2 = 0.989
==== e(  53) =     7.89350 eV ==== 
     psi = 0.129*[#   7]+0.129*[#   8]+0.043*[#   9]+0.043*[#  10]+0.037*[#  17]
          +0.037*[#  18]+0.037*[#  27]+0.037*[#  28]+0.029*[#  32]+0.029*[#  36]
          +0.029*[#  40]+0.029*[#  44]+0.029*[#  48]+0.029*[#  52]+0.022*[#  38]
          +0.022*[#  46]+0.021*[#  33]+0.021*[#  41]+0.021*[#  49]+0.021*[#  53]
          +0.018*[#  34]+0.018*[#  42]+0.018*[#  50]+0.018*[#  54]+0.017*[#  37]
          +0.017*[#  45]+0.016*[#  19]+0.016*[#  20]+0.016*[#  29]+0.016*[#  30]
          +0.004*[#  31]+0.004*[#  35]+0.004*[#  39]+0.004*[#  43]+0.004*[#  47]
          +0.004*[#  51]
    |psi|^2 = 0.989
==== e(  54) =     8.59400 eV ==== 
     psi = 0.059*[#   9]+0.059*[#  10]+0.048*[#  19]+0.048*[#  20]+0.048*[#  29]
          +0.048*[#  30]+0.045*[#  37]+0.045*[#  45]+0.044*[#  34]+0.044*[#  42]
          +0.044*[#  50]+0.044*[#  54]+0.041*[#  33]+0.041*[#  41]+0.041*[#  49]
          +0.041*[#  53]+0.040*[#  38]+0.040*[#  46]+0.034*[#   7]+0.034*[#   8]
          +0.026*[#  17]+0.026*[#  18]+0.026*[#  27]+0.026*[#  28]
    |psi|^2 = 0.994
==== e(  55) =     8.61055 eV ==== 
     psi = 0.059*[#   9]+0.059*[#  10]+0.048*[#  19]+0.048*[#  20]+0.048*[#  29]
          +0.048*[#  30]+0.045*[#  37]+0.045*[#  45]+0.044*[#  34]+0.044*[#  42]
          +0.044*[#  50]+0.044*[#  54]+0.042*[#  33]+0.042*[#  41]+0.042*[#  49]
          +0.042*[#  53]+0.040*[#  38]+0.040*[#  46]+0.034*[#   7]+0.034*[#   8]
          +0.026*[#  17]+0.026*[#  18]+0.026*[#  27]+0.026*[#  28]
    |psi|^2 = 0.995
==== e(  56) =    11.76470 eV ==== 
     psi = 0.554*[#  56]+0.054*[#  12]+0.054*[#  22]+0.045*[#  31]+0.045*[#  35]
          +0.045*[#  39]+0.045*[#  43]+0.045*[#  47]+0.045*[#  51]+0.042*[#   2]
          +0.004*[#   1]+0.004*[#  11]+0.004*[#  21]
    |psi|^2 = 0.991
==== e(  57) =    15.90821 eV ==== 
     psi = 0.001*[#  32]+0.001*[#  36]+0.001*[#  40]+0.001*[#  44]+0.001*[#  48]
          +0.001*[#  52]
    |psi|^2 = 0.011
==== e(  58) =    17.20636 eV ==== 
     psi = 0.264*[#   2]+0.224*[#  56]+0.103*[#  12]+0.103*[#  22]+0.015*[#  32]
          +0.015*[#  36]+0.015*[#  40]+0.015*[#  44]+0.015*[#  48]+0.015*[#  52]
          +0.011*[#  31]+0.011*[#  35]+0.011*[#  39]+0.011*[#  43]+0.011*[#  47]
          +0.011*[#  51]+0.003*[#  55]+0.003*[#   1]+0.003*[#   6]+0.002*[#  16]
          +0.002*[#  26]
    |psi|^2 = 0.861
==== e(  59) =    18.15891 eV ==== 
     psi = 0.028*[#  12]+0.028*[#  22]+0.004*[#  56]+0.001*[#   2]+0.001*[#  38]
          +0.001*[#  46]
    |psi|^2 = 0.076
==== e(  60) =    18.30723 eV ==== 

    |psi|^2 = 0.008
==== e(  61) =    18.42403 eV ==== 
     psi = 0.048*[#  12]+0.048*[#  22]+0.006*[#  56]+0.003*[#   2]+0.002*[#  38]
          +0.002*[#  46]+0.001*[#  33]+0.001*[#  41]+0.001*[#  49]+0.001*[#  53]
          
    |psi|^2 = 0.124
==== e(  62) =    18.77123 eV ==== 

    |psi|^2 = 0.006
==== e(  63) =    18.91508 eV ==== 
     psi = 0.053*[#  12]+0.053*[#  22]+0.006*[#   2]+0.004*[#  56]+0.002*[#  38]
          +0.002*[#  46]+0.002*[#  33]+0.002*[#  41]+0.002*[#  49]+0.002*[#  53]
          +0.001*[#  11]+0.001*[#  21]+0.001*[#  34]+0.001*[#  42]+0.001*[#  50]
          +0.001*[#  54]
    |psi|^2 = 0.138
==== e(  64) =    19.12163 eV ==== 
     psi = 0.125*[#   2]+0.122*[#  12]+0.122*[#  22]+0.031*[#  56]+0.010*[#  37]
          +0.010*[#  45]+0.007*[#  34]+0.007*[#  42]+0.007*[#  50]+0.007*[#  54]
          +0.004*[#   1]+0.003*[#  33]+0.003*[#  41]+0.003*[#  49]+0.003*[#  53]
          +0.002*[#  11]+0.002*[#  21]+0.002*[#  32]+0.002*[#  36]+0.002*[#  40]
          +0.002*[#  44]+0.002*[#  48]+0.002*[#  52]
    |psi|^2 = 0.482

 k =   0.0681818182  0.0393647911  0.0000000000
==== e(   1) =   -89.51916 eV ==== 
     psi = 0.486*[#  11]+0.486*[#  21]+0.011*[#  56]+0.006*[#   2]+0.001*[#  32]
          +0.001*[#  36]+0.001*[#  40]+0.001*[#  44]+0.001*[#  48]+0.001*[#  52]
          
    |psi|^2 = 1.000
==== e(   2) =   -89.51545 eV ==== 
     psi = 0.488*[#  11]+0.488*[#  21]+0.005*[#  12]+0.005*[#  22]+0.002*[#  38]
          +0.002*[#  46]+0.002*[#  33]+0.002*[#  41]+0.002*[#  49]+0.002*[#  53]
          
    |psi|^2 = 1.000
==== e(   3) =   -89.40400 eV ==== 
     psi = 0.972*[#   1]+0.006*[#  56]+0.003*[#  12]+0.003*[#  22]+0.003*[#   2]
          +0.002*[#  37]+0.002*[#  45]+0.001*[#  34]+0.001*[#  42]+0.001*[#  50]
          +0.001*[#  54]
    |psi|^2 = 1.000
==== e(   4) =   -52.75530 eV ==== 
     psi = 0.496*[#  13]+0.496*[#  23]+0.001*[#  14]+0.001*[#  15]+0.001*[#  24]
          +0.001*[#  25]
    |psi|^2 = 1.000
==== e(   5) =   -52.75372 eV ==== 
     psi = 0.246*[#  14]+0.246*[#  15]+0.246*[#  24]+0.246*[#  25]+0.003*[#  13]
          +0.003*[#  23]+0.002*[#   4]+0.002*[#   5]
    |psi|^2 = 1.000
==== e(   6) =   -52.75336 eV ==== 
     psi = 0.248*[#  14]+0.248*[#  15]+0.248*[#  24]+0.248*[#  25]+0.002*[#   4]
          +0.002*[#   5]
    |psi|^2 = 1.000
==== e(   7) =   -52.74905 eV ==== 
     psi = 0.498*[#  13]+0.498*[#  23]
    |psi|^2 = 1.000
==== e(   8) =   -52.73220 eV ==== 
     psi = 0.235*[#  14]+0.235*[#  15]+0.235*[#  24]+0.235*[#  25]+0.029*[#   4]
          +0.029*[#   5]
    |psi|^2 = 1.000
==== e(   9) =   -52.73211 eV ==== 
     psi = 0.234*[#  14]+0.234*[#  15]+0.234*[#  24]+0.234*[#  25]+0.031*[#   4]
          +0.031*[#   5]
    |psi|^2 = 1.000
==== e(  10) =   -52.65963 eV ==== 
     psi = 0.467*[#   4]+0.467*[#   5]+0.016*[#  14]+0.016*[#  15]+0.016*[#  24]
          +0.016*[#  25]
    |psi|^2 = 1.000
==== e(  11) =   -52.65936 eV ==== 
     psi = 0.465*[#   4]+0.465*[#   5]+0.017*[#  14]+0.017*[#  15]+0.017*[#  24]
          +0.017*[#  25]
    |psi|^2 = 1.000
==== e(  12) =   -52.59847 eV ==== 
     psi = 0.997*[#   3]
    |psi|^2 = 1.000
==== e(  13) =   -43.60920 eV ==== 
     psi = 0.992*[#  55]+0.004*[#   2]
    |psi|^2 = 1.000
==== e(  14) =   -15.58950 eV ==== 
     psi = 0.991*[#  57]+0.001*[#  31]+0.001*[#  35]+0.001*[#  39]+0.001*[#  43]
          +0.001*[#  47]+0.001*[#  51]
    |psi|^2 = 1.000
==== e(  15) =   -15.52450 eV ==== 
     psi = 0.498*[#  58]+0.498*[#  59]
    |psi|^2 = 1.000
==== e(  16) =   -15.52439 eV ==== 
     psi = 0.498*[#  58]+0.498*[#  59]
    |psi|^2 = 1.000
==== e(  17) =   -12.98771 eV ==== 
     psi = 0.103*[#  31]+0.103*[#  35]+0.103*[#  39]+0.103*[#  43]+0.103*[#  47]
          +0.103*[#  51]+0.097*[#   2]+0.093*[#  12]+0.093*[#  22]+0.059*[#  56]
          +0.004*[#   1]+0.004*[#  11]+0.004*[#  21]+0.003*[#  32]+0.003*[#  36]
          +0.003*[#  40]+0.003*[#  44]+0.003*[#  48]+0.003*[#  52]+0.002*[#  16]
          +0.002*[#  26]+0.002*[#   6]
    |psi|^2 = 0.999
==== e(  18) =   -11.35341 eV ==== 
     psi = 0.156*[#  31]+0.156*[#  35]+0.156*[#  39]+0.156*[#  43]+0.156*[#  47]
          +0.156*[#  51]+0.004*[#   9]+0.004*[#  10]+0.004*[#   7]+0.004*[#   8]
          +0.004*[#  19]+0.004*[#  20]+0.004*[#  29]+0.004*[#  30]+0.003*[#  17]
          +0.003*[#  18]+0.003*[#  27]+0.003*[#  28]+0.002*[#  32]+0.002*[#  36]
          +0.002*[#  40]+0.002*[#  44]+0.002*[#  48]+0.002*[#  52]+0.001*[#  12]
          +0.001*[#  22]
    |psi|^2 = 0.998
==== e(  19) =   -11.33943 eV ==== 
     psi = 0.156*[#  31]+0.156*[#  35]+0.156*[#  39]+0.156*[#  43]+0.156*[#  47]
          +0.156*[#  51]+0.004*[#   9]+0.004*[#  10]+0.004*[#   7]+0.004*[#   8]
          +0.003*[#  19]+0.003*[#  20]+0.003*[#  29]+0.003*[#  30]+0.003*[#  17]
          +0.003*[#  18]+0.003*[#  27]+0.003*[#  28]+0.002*[#  32]+0.002*[#  36]
          +0.002*[#  40]+0.002*[#  44]+0.002*[#  48]+0.002*[#  52]
    |psi|^2 = 0.997
==== e(  20) =   -11.29589 eV ==== 
     psi = 0.154*[#  31]+0.154*[#  35]+0.154*[#  39]+0.154*[#  43]+0.154*[#  47]
          +0.154*[#  51]+0.005*[#  19]+0.005*[#  20]+0.005*[#  29]+0.005*[#  30]
          +0.005*[#  17]+0.005*[#  18]+0.005*[#  27]+0.005*[#  28]+0.005*[#   7]
          +0.005*[#   8]+0.005*[#   9]+0.005*[#  10]+0.001*[#  32]+0.001*[#  36]
          +0.001*[#  40]+0.001*[#  44]+0.001*[#  48]+0.001*[#  52]
    |psi|^2 = 0.998
==== e(  21) =   -11.28373 eV ==== 
     psi = 0.154*[#  31]+0.154*[#  35]+0.154*[#  39]+0.154*[#  43]+0.154*[#  47]
          +0.154*[#  51]+0.005*[#  19]+0.005*[#  20]+0.005*[#  29]+0.005*[#  30]
          +0.005*[#  17]+0.005*[#  18]+0.005*[#  27]+0.005*[#  28]+0.005*[#   7]
          +0.005*[#   8]+0.004*[#   9]+0.004*[#  10]+0.001*[#  32]+0.001*[#  36]
          +0.001*[#  40]+0.001*[#  44]+0.001*[#  48]+0.001*[#  52]
    |psi|^2 = 0.998
==== e(  22) =   -11.04803 eV ==== 
     psi = 0.164*[#  31]+0.164*[#  35]+0.164*[#  39]+0.164*[#  43]+0.164*[#  47]
          +0.164*[#  51]+0.007*[#  57]
    |psi|^2 = 0.995
==== e(  23) =     0.61586 eV ==== 
     psi = 0.106*[#   6]+0.090*[#  32]+0.090*[#  36]+0.090*[#  40]+0.090*[#  44]
          +0.090*[#  48]+0.090*[#  52]+0.081*[#  16]+0.081*[#  26]+0.049*[#  56]
          +0.011*[#  37]+0.011*[#  45]+0.009*[#  34]+0.009*[#  42]+0.009*[#  50]
          +0.009*[#  54]+0.009*[#  12]+0.009*[#  22]+0.005*[#  31]+0.005*[#  35]
          +0.005*[#  39]+0.005*[#  43]+0.005*[#  47]+0.005*[#  51]+0.004*[#  33]
          +0.004*[#  41]+0.004*[#  49]+0.004*[#  53]+0.002*[#   2]+0.002*[#  17]
          +0.002*[#  18]+0.002*[#  27]+0.002*[#  28]+0.002*[#  38]+0.002*[#  46]
          +0.002*[#  55]+0.001*[#  11]+0.001*[#  21]
    |psi|^2 = 0.998
==== e(  24) =     0.79300 eV ==== 
     psi = 0.064*[#   7]+0.064*[#   8]+0.051*[#  38]+0.051*[#  46]+0.051*[#  33]
          +0.051*[#  41]+0.051*[#  49]+0.051*[#  53]+0.050*[#  34]+0.050*[#  42]
          +0.050*[#  50]+0.050*[#  54]+0.050*[#  37]+0.050*[#  45]+0.018*[#  32]
          +0.018*[#  36]+0.018*[#  40]+0.018*[#  44]+0.018*[#  48]+0.018*[#  52]
          +0.016*[#  17]+0.016*[#  18]+0.016*[#  27]+0.016*[#  28]+0.014*[#  12]
          +0.014*[#  22]+0.007*[#   9]+0.007*[#  10]+0.007*[#  19]+0.007*[#  20]
          +0.007*[#  29]+0.007*[#  30]+0.004*[#   2]+0.003*[#  16]+0.003*[#  26]
          +0.001*[#   6]
    |psi|^2 = 0.992
==== e(  25) =     0.87757 eV ==== 
     psi = 0.062*[#  37]+0.062*[#  45]+0.056*[#  34]+0.056*[#  42]+0.056*[#  50]
          +0.056*[#  54]+0.045*[#  17]+0.045*[#  18]+0.045*[#  27]+0.045*[#  28]
          +0.044*[#  33]+0.044*[#  41]+0.044*[#  49]+0.044*[#  53]+0.038*[#  38]
          +0.038*[#  46]+0.029*[#   2]+0.017*[#  32]+0.017*[#  36]+0.017*[#  40]
[...]
          +0.025*[#  27]+0.025*[#  28]+0.013*[#   7]+0.013*[#   8]
    |psi|^2 = 0.998
==== e(  31) =     1.48018 eV ==== 
     psi = 0.137*[#  38]+0.137*[#  46]+0.103*[#  33]+0.103*[#  41]+0.103*[#  49]
          +0.103*[#  53]+0.080*[#  12]+0.080*[#  22]+0.034*[#  34]+0.034*[#  42]
          +0.034*[#  50]+0.034*[#  54]+0.005*[#  16]+0.005*[#  26]+0.002*[#  11]
          +0.002*[#  21]
    |psi|^2 = 0.997
==== e(  32) =     3.16555 eV ==== 
     psi = 0.098*[#  32]+0.098*[#  36]+0.098*[#  40]+0.098*[#  44]+0.098*[#  48]
          +0.098*[#  52]+0.064*[#  19]+0.064*[#  20]+0.064*[#  29]+0.064*[#  30]
          +0.017*[#  17]+0.017*[#  18]+0.017*[#  27]+0.017*[#  28]+0.006*[#  31]
          +0.006*[#  35]+0.006*[#  39]+0.006*[#  43]+0.006*[#  47]+0.006*[#  51]
          +0.005*[#  37]+0.005*[#  45]+0.005*[#  34]+0.005*[#  42]+0.005*[#  50]
          +0.005*[#  54]+0.003*[#  33]+0.003*[#  41]+0.003*[#  49]+0.003*[#  53]
          +0.002*[#  38]+0.002*[#  46]
    |psi|^2 = 0.996
==== e(  33) =     3.16555 eV ==== 
     psi = 0.098*[#  32]+0.098*[#  36]+0.098*[#  40]+0.098*[#  44]+0.098*[#  48]
          +0.098*[#  52]+0.064*[#  19]+0.064*[#  20]+0.064*[#  29]+0.064*[#  30]
          +0.017*[#  17]+0.017*[#  18]+0.017*[#  27]+0.017*[#  28]+0.006*[#  31]
          +0.006*[#  35]+0.006*[#  39]+0.006*[#  43]+0.006*[#  47]+0.006*[#  51]
          +0.005*[#  37]+0.005*[#  45]+0.005*[#  34]+0.005*[#  42]+0.005*[#  50]
          +0.005*[#  54]+0.003*[#  33]+0.003*[#  41]+0.003*[#  49]+0.003*[#  53]
          +0.002*[#  38]+0.002*[#  46]
    |psi|^2 = 0.996
==== e(  34) =     3.22288 eV ==== 
     psi = 0.094*[#  32]+0.094*[#  36]+0.094*[#  40]+0.094*[#  44]+0.094*[#  48]
          +0.094*[#  52]+0.087*[#   9]+0.087*[#  10]+0.030*[#   7]+0.030*[#   8]
          +0.019*[#  19]+0.019*[#  20]+0.019*[#  29]+0.019*[#  30]+0.007*[#  17]
          +0.007*[#  18]+0.007*[#  27]+0.007*[#  28]+0.006*[#  31]+0.006*[#  35]
          +0.006*[#  39]+0.006*[#  43]+0.006*[#  47]+0.006*[#  51]+0.005*[#  37]
          +0.005*[#  45]+0.005*[#  34]+0.005*[#  42]+0.005*[#  50]+0.005*[#  54]
          +0.005*[#  33]+0.005*[#  41]+0.005*[#  49]+0.005*[#  53]+0.004*[#  38]
          +0.004*[#  46]
    |psi|^2 = 0.997
==== e(  35) =     3.22288 eV ==== 
     psi = 0.094*[#  32]+0.094*[#  36]+0.094*[#  40]+0.094*[#  44]+0.094*[#  48]
          +0.094*[#  52]+0.087*[#   9]+0.087*[#  10]+0.030*[#   7]+0.030*[#   8]
          +0.019*[#  19]+0.019*[#  20]+0.019*[#  29]+0.019*[#  30]+0.007*[#  17]
          +0.007*[#  18]+0.007*[#  27]+0.007*[#  28]+0.006*[#  31]+0.006*[#  35]
          +0.006*[#  39]+0.006*[#  43]+0.006*[#  47]+0.006*[#  51]+0.005*[#  37]
          +0.005*[#  45]+0.005*[#  34]+0.005*[#  42]+0.005*[#  50]+0.005*[#  54]
          +0.005*[#  33]+0.005*[#  41]+0.005*[#  49]+0.005*[#  53]+0.004*[#  38]
          +0.004*[#  46]
    |psi|^2 = 0.997
==== e(  36) =     3.32976 eV ==== 
     psi = 0.162*[#  37]+0.162*[#  45]+0.121*[#  34]+0.121*[#  42]+0.121*[#  50]
          +0.121*[#  54]+0.040*[#  33]+0.040*[#  41]+0.040*[#  49]+0.040*[#  53]
          +0.002*[#   3]+0.002*[#  57]
    |psi|^2 = 0.979
==== e(  37) =     3.48931 eV ==== 
     psi = 0.163*[#  38]+0.163*[#  46]+0.123*[#  33]+0.123*[#  41]+0.123*[#  49]
          +0.123*[#  53]+0.041*[#  34]+0.041*[#  42]+0.041*[#  50]+0.041*[#  54]
          +0.001*[#  13]+0.001*[#  23]
    |psi|^2 = 0.984
==== e(  38) =     4.81099 eV ==== 
     psi = 0.164*[#  32]+0.164*[#  36]+0.164*[#  40]+0.164*[#  44]+0.164*[#  48]
          +0.164*[#  52]
    |psi|^2 = 0.990
==== e(  39) =     4.96295 eV ==== 
     psi = 0.084*[#  38]+0.084*[#  46]+0.083*[#  33]+0.083*[#  41]+0.083*[#  49]
          +0.083*[#  53]+0.082*[#  34]+0.082*[#  42]+0.082*[#  50]+0.082*[#  54]
          +0.081*[#  37]+0.081*[#  45]
    |psi|^2 = 0.994
==== e(  40) =     4.96295 eV ==== 
     psi = 0.084*[#  38]+0.084*[#  46]+0.083*[#  33]+0.083*[#  41]+0.083*[#  49]
          +0.083*[#  53]+0.082*[#  34]+0.082*[#  42]+0.082*[#  50]+0.082*[#  54]
          +0.081*[#  37]+0.081*[#  45]
    |psi|^2 = 0.994
==== e(  41) =     5.31057 eV ==== 
     psi = 0.121*[#  17]+0.121*[#  18]+0.121*[#  27]+0.121*[#  28]+0.113*[#   7]
          +0.113*[#   8]+0.049*[#  19]+0.049*[#  20]+0.049*[#  29]+0.049*[#  30]
          +0.044*[#   9]+0.044*[#  10]
    |psi|^2 = 0.998
==== e(  42) =     5.31057 eV ==== 
     psi = 0.121*[#  17]+0.121*[#  18]+0.121*[#  27]+0.121*[#  28]+0.113*[#   7]
          +0.113*[#   8]+0.049*[#  19]+0.049*[#  20]+0.049*[#  29]+0.049*[#  30]
          +0.044*[#   9]+0.044*[#  10]
    |psi|^2 = 0.998
==== e(  43) =     5.63409 eV ==== 
     psi = 0.689*[#   6]+0.146*[#  16]+0.146*[#  26]+0.002*[#  37]+0.002*[#  45]
          +0.002*[#  34]+0.002*[#  42]+0.002*[#  50]+0.002*[#  54]
    |psi|^2 = 0.997
==== e(  44) =     5.72458 eV ==== 
     psi = 0.494*[#  16]+0.494*[#  26]+0.002*[#  38]+0.002*[#  46]+0.001*[#  33]
          +0.001*[#  41]+0.001*[#  49]+0.001*[#  53]
    |psi|^2 = 0.998
==== e(  45) =     6.36961 eV ==== 
     psi = 0.182*[#   9]+0.182*[#  10]+0.084*[#   7]+0.084*[#   8]+0.045*[#  19]
          +0.045*[#  20]+0.045*[#  29]+0.045*[#  30]+0.024*[#  32]+0.024*[#  36]
          +0.024*[#  40]+0.024*[#  44]+0.024*[#  48]+0.024*[#  52]+0.017*[#  17]
          +0.017*[#  18]+0.017*[#  27]+0.017*[#  28]+0.006*[#  34]+0.006*[#  37]
          +0.006*[#  42]+0.006*[#  45]+0.006*[#  50]+0.006*[#  54]+0.006*[#  33]
          +0.006*[#  38]+0.006*[#  41]+0.006*[#  46]+0.006*[#  49]+0.006*[#  53]
          
    |psi|^2 = 0.994
==== e(  46) =     6.36961 eV ==== 
     psi = 0.182*[#   9]+0.182*[#  10]+0.084*[#   7]+0.084*[#   8]+0.045*[#  19]
          +0.045*[#  20]+0.045*[#  29]+0.045*[#  30]+0.024*[#  32]+0.024*[#  36]
          +0.024*[#  40]+0.024*[#  44]+0.024*[#  48]+0.024*[#  52]+0.017*[#  17]
          +0.017*[#  18]+0.017*[#  27]+0.017*[#  28]+0.006*[#  34]+0.006*[#  37]
          +0.006*[#  42]+0.006*[#  45]+0.006*[#  50]+0.006*[#  54]+0.006*[#  33]
          +0.006*[#  38]+0.006*[#  41]+0.006*[#  46]+0.006*[#  49]+0.006*[#  53]
          
    |psi|^2 = 0.994
==== e(  47) =     6.38007 eV ==== 
     psi = 0.134*[#  19]+0.134*[#  20]+0.134*[#  29]+0.134*[#  30]+0.059*[#  17]
          +0.059*[#  18]+0.059*[#  27]+0.059*[#  28]+0.025*[#  32]+0.025*[#  36]
          +0.025*[#  40]+0.025*[#  44]+0.025*[#  48]+0.025*[#  52]+0.006*[#  37]
          +0.006*[#  45]+0.006*[#  34]+0.006*[#  42]+0.006*[#  50]+0.006*[#  54]
          +0.006*[#  33]+0.006*[#  41]+0.006*[#  49]+0.006*[#  53]+0.006*[#  38]
          +0.006*[#  46]
    |psi|^2 = 0.994
==== e(  48) =     6.38007 eV ==== 
     psi = 0.134*[#  19]+0.134*[#  20]+0.134*[#  29]+0.134*[#  30]+0.059*[#  17]
          +0.059*[#  18]+0.059*[#  27]+0.059*[#  28]+0.025*[#  32]+0.025*[#  36]
          +0.025*[#  40]+0.025*[#  44]+0.025*[#  48]+0.025*[#  52]+0.006*[#  37]
          +0.006*[#  45]+0.006*[#  34]+0.006*[#  42]+0.006*[#  50]+0.006*[#  54]
          +0.006*[#  33]+0.006*[#  41]+0.006*[#  49]+0.006*[#  53]+0.006*[#  38]
          +0.006*[#  46]
    |psi|^2 = 0.994
==== e(  49) =     6.74843 eV ==== 
     psi = 0.267*[#  16]+0.267*[#  26]+0.206*[#   6]+0.034*[#  32]+0.034*[#  36]
          +0.034*[#  40]+0.034*[#  44]+0.034*[#  48]+0.034*[#  52]+0.022*[#  56]
          +0.012*[#   2]+0.008*[#  12]+0.008*[#  22]
    |psi|^2 = 0.999
==== e(  50) =     8.12576 eV ==== 
     psi = 0.107*[#  17]+0.107*[#  18]+0.107*[#  27]+0.107*[#  28]+0.039*[#  19]
          +0.039*[#  20]+0.039*[#  29]+0.039*[#  30]+0.026*[#  32]+0.026*[#  36]
          +0.026*[#  40]+0.026*[#  44]+0.026*[#  48]+0.026*[#  52]+0.019*[#  38]
          +0.019*[#  46]+0.018*[#  33]+0.018*[#  41]+0.018*[#  49]+0.018*[#  53]
          +0.018*[#  34]+0.018*[#  42]+0.018*[#  50]+0.018*[#  54]+0.017*[#  37]
          +0.017*[#  45]+0.005*[#  31]+0.005*[#  35]+0.005*[#  39]+0.005*[#  43]
          +0.005*[#  47]+0.005*[#  51]
    |psi|^2 = 0.987
==== e(  51) =     8.12576 eV ==== 
     psi = 0.107*[#  17]+0.107*[#  18]+0.107*[#  27]+0.107*[#  28]+0.039*[#  19]
          +0.039*[#  20]+0.039*[#  29]+0.039*[#  30]+0.026*[#  32]+0.026*[#  36]
          +0.026*[#  40]+0.026*[#  44]+0.026*[#  48]+0.026*[#  52]+0.019*[#  38]
          +0.019*[#  46]+0.018*[#  33]+0.018*[#  41]+0.018*[#  49]+0.018*[#  53]
          +0.018*[#  34]+0.018*[#  42]+0.018*[#  50]+0.018*[#  54]+0.017*[#  37]
          +0.017*[#  45]+0.005*[#  31]+0.005*[#  35]+0.005*[#  39]+0.005*[#  43]
          +0.005*[#  47]+0.005*[#  51]
    |psi|^2 = 0.987
==== e(  52) =     8.19259 eV ==== 
     psi = 0.138*[#   7]+0.138*[#   8]+0.047*[#   9]+0.047*[#  10]+0.037*[#  17]
          +0.037*[#  18]+0.037*[#  27]+0.037*[#  28]+0.028*[#  32]+0.028*[#  36]
          +0.028*[#  40]+0.028*[#  44]+0.028*[#  48]+0.028*[#  52]+0.020*[#  38]
          +0.020*[#  46]+0.019*[#  33]+0.019*[#  41]+0.019*[#  49]+0.019*[#  53]
          +0.017*[#  34]+0.017*[#  42]+0.017*[#  50]+0.017*[#  54]+0.017*[#  37]
          +0.017*[#  45]+0.015*[#  19]+0.015*[#  20]+0.015*[#  29]+0.015*[#  30]
          +0.004*[#  31]+0.004*[#  35]+0.004*[#  39]+0.004*[#  43]+0.004*[#  47]
          +0.004*[#  51]
    |psi|^2 = 0.989
==== e(  53) =     8.19259 eV ==== 
     psi = 0.138*[#   7]+0.138*[#   8]+0.047*[#   9]+0.047*[#  10]+0.037*[#  17]
          +0.037*[#  18]+0.037*[#  27]+0.037*[#  28]+0.028*[#  32]+0.028*[#  36]
          +0.028*[#  40]+0.028*[#  44]+0.028*[#  48]+0.028*[#  52]+0.020*[#  38]
          +0.020*[#  46]+0.019*[#  33]+0.019*[#  41]+0.019*[#  49]+0.019*[#  53]
          +0.017*[#  34]+0.017*[#  42]+0.017*[#  50]+0.017*[#  54]+0.017*[#  37]
          +0.017*[#  45]+0.015*[#  19]+0.015*[#  20]+0.015*[#  29]+0.015*[#  30]
          +0.004*[#  31]+0.004*[#  35]+0.004*[#  39]+0.004*[#  43]+0.004*[#  47]
          +0.004*[#  51]
    |psi|^2 = 0.989
==== e(  54) =     8.92330 eV ==== 
     psi = 0.061*[#   9]+0.061*[#  10]+0.054*[#  19]+0.054*[#  20]+0.054*[#  29]
          +0.054*[#  30]+0.042*[#  37]+0.042*[#  45]+0.042*[#  34]+0.042*[#  42]
          +0.042*[#  50]+0.042*[#  54]+0.040*[#  33]+0.040*[#  41]+0.040*[#  49]
          +0.040*[#  53]+0.040*[#  38]+0.040*[#  46]+0.030*[#   7]+0.030*[#   8]
          +0.026*[#  17]+0.026*[#  18]+0.026*[#  27]+0.026*[#  28]
    |psi|^2 = 0.995
==== e(  55) =     8.92330 eV ==== 
     psi = 0.061*[#   9]+0.061*[#  10]+0.054*[#  19]+0.054*[#  20]+0.054*[#  29]
          +0.054*[#  30]+0.042*[#  37]+0.042*[#  45]+0.042*[#  34]+0.042*[#  42]
          +0.042*[#  50]+0.042*[#  54]+0.040*[#  33]+0.040*[#  41]+0.040*[#  49]
          +0.040*[#  53]+0.040*[#  38]+0.040*[#  46]+0.030*[#   7]+0.030*[#   8]
          +0.026*[#  17]+0.026*[#  18]+0.026*[#  27]+0.026*[#  28]
    |psi|^2 = 0.995
==== e(  56) =    11.79790 eV ==== 
     psi = 0.557*[#  56]+0.053*[#  12]+0.053*[#  22]+0.045*[#  31]+0.045*[#  35]
          +0.045*[#  39]+0.045*[#  43]+0.045*[#  47]+0.045*[#  51]+0.041*[#   2]
          +0.004*[#   1]+0.004*[#  11]+0.004*[#  21]
    |psi|^2 = 0.991
==== e(  57) =    15.97524 eV ==== 
     psi = 0.001*[#  32]+0.001*[#  36]+0.001*[#  40]+0.001*[#  44]+0.001*[#  48]
          +0.001*[#  52]
    |psi|^2 = 0.011
==== e(  58) =    17.32620 eV ==== 
     psi = 0.262*[#   2]+0.220*[#  56]+0.104*[#  12]+0.104*[#  22]+0.015*[#  32]
          +0.015*[#  36]+0.015*[#  40]+0.015*[#  44]+0.015*[#  48]+0.015*[#  52]
          +0.011*[#  31]+0.011*[#  35]+0.011*[#  39]+0.011*[#  43]+0.011*[#  47]
          +0.011*[#  51]+0.003*[#   6]+0.003*[#  55]+0.003*[#   1]+0.002*[#  16]
          +0.002*[#  26]
    |psi|^2 = 0.862
==== e(  59) =    18.47620 eV ==== 

    |psi|^2 = 0.008
==== e(  60) =    18.47620 eV ==== 

    |psi|^2 = 0.008
==== e(  61) =    18.58507 eV ==== 
     psi = 0.091*[#  12]+0.091*[#  22]+0.003*[#  38]+0.003*[#  46]+0.002*[#  33]
          +0.002*[#  41]+0.002*[#  49]+0.002*[#  53]+0.002*[#  11]+0.002*[#  21]
          
    |psi|^2 = 0.207
==== e(  62) =    18.67532 eV ==== 

    |psi|^2 = 0.007
==== e(  63) =    18.67532 eV ==== 

    |psi|^2 = 0.007
==== e(  64) =    19.13861 eV ==== 
     psi = 0.136*[#  12]+0.136*[#  22]+0.112*[#   2]+0.044*[#  56]+0.010*[#  37]
          +0.010*[#  45]+0.007*[#  34]+0.007*[#  42]+0.007*[#  50]+0.007*[#  54]
          +0.003*[#   1]+0.003*[#  11]+0.003*[#  21]+0.002*[#  33]+0.002*[#  41]
          +0.002*[#  49]+0.002*[#  53]+0.002*[#  32]+0.002*[#  36]+0.002*[#  40]
          +0.002*[#  44]+0.002*[#  48]+0.002*[#  52]+0.001*[#   6]
    |psi|^2 = 0.513

Lowdin Charges: 

     Atom #   1: total charge =  15.7156, s =  2.4430, p =  5.9989, d =  7.2737, 
                 spin up      =   8.1728, s =  1.2244, 
                 spin up      =   8.1728, p =  2.9996, pz=  0.9999, px=  0.9998, py=  0.9998, 
                 spin up      =   8.1728, d =  3.9488, dz2=  0.9964, dxz=  0.6895, dyz=  0.6895, dx2-y2=  0.7866, dxy=  0.7866, 
                 spin down    =   7.5427, s =  1.2186, 
                 spin down    =   7.5427, p =  2.9993, pz=  0.9999, px=  0.9997, py=  0.9997, 
                 spin down    =   7.5427, d =  3.3249, dz2=  0.7450, dxz=  0.6203, dyz=  0.6203, dx2-y2=  0.6696, dxy=  0.6696, 
                 polarization =   0.6301, s =  0.0058, p =  0.0003, d =  0.6240, 
     Atom #   2: total charge =  15.6529, s =  2.4438, p =  5.9988, d =  7.2103, 
                 spin up      =   8.1718, s =  1.2240, 
                 spin up      =   8.1718, p =  2.9995, pz=  0.9999, px=  0.9998, py=  0.9998, 
                 spin up      =   8.1718, d =  3.9483, dz2=  0.9980, dxz=  0.6847, dyz=  0.6847, dx2-y2=  0.7905, dxy=  0.7905, 
                 spin down    =   7.4810, s =  1.2198, 
                 spin down    =   7.4810, p =  2.9993, pz=  0.9999, px=  0.9997, py=  0.9997, 
                 spin down    =   7.4810, d =  3.2620, dz2=  0.6758, dxz=  0.6220, dyz=  0.6220, dx2-y2=  0.6710, dxy=  0.6710, 
                 polarization =   0.6908, s =  0.0042, p =  0.0002, d =  0.6864, 
     Atom #   3: total charge =  15.6529, s =  2.4438, p =  5.9988, d =  7.2103, 
                 spin up      =   8.1718, s =  1.2240, 
                 spin up      =   8.1718, p =  2.9995, pz=  0.9999, px=  0.9998, py=  0.9998, 
                 spin up      =   8.1718, d =  3.9483, dz2=  0.9980, dxz=  0.6847, dyz=  0.6847, dx2-y2=  0.7905, dxy=  0.7905, 
                 spin down    =   7.4810, s =  1.2198, 
                 spin down    =   7.4810, p =  2.9993, pz=  0.9999, px=  0.9997, py=  0.9997, 
                 spin down    =   7.4810, d =  3.2620, dz2=  0.6758, dxz=  0.6220, dyz=  0.6220, dx2-y2=  0.6710, dxy=  0.6710, 
                 polarization =   0.6908, s =  0.0042, p =  0.0002, d =  0.6864, 
     Atom #   4: total charge =   6.6939, s =  1.8507, p =  4.8431, d =  0.0000, 
                 spin up      =   3.3889, s =  0.9257, 
                 spin up      =   3.3889, p =  2.4632, pz=  0.8590, px=  0.8015, py=  0.8027, 
                 spin up      =   3.3889, d =  0.0000, dz2=  0.0000, dxz=  0.0000, dyz=  0.0000, dx2-y2=  0.0000, dxy=  0.0000, 
                 spin down    =   3.3050, s =  0.9250, 
                 spin down    =   3.3050, p =  2.3800, pz=  0.7973, px=  0.7908, py=  0.7919, 
                 spin down    =   3.3050, d =  0.0000, dz2=  0.0000, dxz=  0.0000, dyz=  0.0000, dx2-y2=  0.0000, dxy=  0.0000, 
                 polarization =   0.0839, s =  0.0007, p =  0.0832, d =  0.0000, 
     Atom #   5: total charge =   6.6939, s =  1.8507, p =  4.8431, d =  0.0000, 
                 spin up      =   3.3889, s =  0.9257, 
                 spin up      =   3.3889, p =  2.4632, pz=  0.8590, px=  0.8033, py=  0.8009, 
                 spin up      =   3.3889, d =  0.0000, dz2=  0.0000, dxz=  0.0000, dyz=  0.0000, dx2-y2=  0.0000, dxy=  0.0000, 
                 spin down    =   3.3050, s =  0.9250, 
                 spin down    =   3.3050, p =  2.3800, pz=  0.7973, px=  0.7924, py=  0.7903, 
                 spin down    =   3.3050, d =  0.0000, dz2=  0.0000, dxz=  0.0000, dyz=  0.0000, dx2-y2=  0.0000, dxy=  0.0000, 
                 polarization =   0.0839, s =  0.0007, p =  0.0832, d =  0.0000, 
     Atom #   6: total charge =   6.6939, s =  1.8507, p =  4.8431, d =  0.0000, 
                 spin up      =   3.3889, s =  0.9257, 
                 spin up      =   3.3889, p =  2.4632, pz=  0.8590, px=  0.8015, py=  0.8027, 
                 spin up      =   3.3889, d =  0.0000, dz2=  0.0000, dxz=  0.0000, dyz=  0.0000, dx2-y2=  0.0000, dxy=  0.0000, 
                 spin down    =   3.3050, s =  0.9250, 
                 spin down    =   3.3050, p =  2.3800, pz=  0.7973, px=  0.7908, py=  0.7919, 
                 spin down    =   3.3050, d =  0.0000, dz2=  0.0000, dxz=  0.0000, dyz=  0.0000, dx2-y2=  0.0000, dxy=  0.0000, 
                 polarization =   0.0839, s =  0.0007, p =  0.0832, d =  0.0000, 
     Atom #   7: total charge =   6.6939, s =  1.8507, p =  4.8431, d =  0.0000, 
                 spin up      =   3.3889, s =  0.9257, 
                 spin up      =   3.3889, p =  2.4632, pz=  0.8590, px=  0.8033, py=  0.8009, 
                 spin up      =   3.3889, d =  0.0000, dz2=  0.0000, dxz=  0.0000, dyz=  0.0000, dx2-y2=  0.0000, dxy=  0.0000, 
                 spin down    =   3.3050, s =  0.9250, 
                 spin down    =   3.3050, p =  2.3800, pz=  0.7973, px=  0.7924, py=  0.7903, 
                 spin down    =   3.3050, d =  0.0000, dz2=  0.0000, dxz=  0.0000, dyz=  0.0000, dx2-y2=  0.0000, dxy=  0.0000, 
                 polarization =   0.0839, s =  0.0007, p =  0.0832, d =  0.0000, 
     Atom #   8: total charge =   6.6939, s =  1.8507, p =  4.8431, d =  0.0000, 
                 spin up      =   3.3889, s =  0.9257, 
                 spin up      =   3.3889, p =  2.4632, pz=  0.8590, px=  0.8015, py=  0.8027, 
                 spin up      =   3.3889, d =  0.0000, dz2=  0.0000, dxz=  0.0000, dyz=  0.0000, dx2-y2=  0.0000, dxy=  0.0000, 
                 spin down    =   3.3050, s =  0.9250, 
                 spin down    =   3.3050, p =  2.3800, pz=  0.7973, px=  0.7908, py=  0.7919, 
                 spin down    =   3.3050, d =  0.0000, dz2=  0.0000, dxz=  0.0000, dyz=  0.0000, dx2-y2=  0.0000, dxy=  0.0000, 
                 polarization =   0.0839, s =  0.0007, p =  0.0832, d =  0.0000, 
     Atom #   9: total charge =   6.6939, s =  1.8507, p =  4.8431, d =  0.0000, 
                 spin up      =   3.3889, s =  0.9257, 
                 spin up      =   3.3889, p =  2.4632, pz=  0.8590, px=  0.8015, py=  0.8027, 
                 spin up      =   3.3889, d =  0.0000, dz2=  0.0000, dxz=  0.0000, dyz=  0.0000, dx2-y2=  0.0000, dxy=  0.0000, 
                 spin down    =   3.3050, s =  0.9250, 
                 spin down    =   3.3050, p =  2.3800, pz=  0.7973, px=  0.7908, py=  0.7919, 
                 spin down    =   3.3050, d =  0.0000, dz2=  0.0000, dxz=  0.0000, dyz=  0.0000, dx2-y2=  0.0000, dxy=  0.0000, 
                 polarization =   0.0839, s =  0.0007, p =  0.0832, d =  0.0000, 
     Atom #  10: total charge =   8.2307, s =  2.2331, p =  5.9976, d =  0.0000, 
                 spin up      =   4.1216, s =  1.1228, 
                 spin up      =   4.1216, p =  2.9988, pz=  0.9996, px=  0.9996, py=  0.9996, 
                 spin up      =   4.1216, d =  0.0000, dz2=  0.0000, dxz=  0.0000, dyz=  0.0000, dx2-y2=  0.0000, dxy=  0.0000, 
                 spin down    =   4.1090, s =  1.1103, 
                 spin down    =   4.1090, p =  2.9988, pz=  0.9996, px=  0.9996, py=  0.9996, 
                 spin down    =   4.1090, d =  0.0000, dz2=  0.0000, dxz=  0.0000, dyz=  0.0000, dx2-y2=  0.0000, dxy=  0.0000, 
                 polarization =   0.0126, s =  0.0126, p =  0.0000, d =  0.0000, 
     Spilling Parameter:   0.0061

     PROJWFC      :     25.63s CPU      9.81s WALL


   This run was terminated on:   6:32:26  12Jul2026            

=------------------------------------------------------------------------------=
   JOB DONE.
=------------------------------------------------------------------------------=
