
     Program PWSCF v.7.3.1 starts on 12Jul2026 at  4: 8:46 

     This program is part of the open-source Quantum ESPRESSO suite
     for quantum simulation of materials; please cite
         "P. Giannozzi et al., J. Phys.:Condens. Matter 21 395502 (2009);
         "P. Giannozzi et al., J. Phys.:Condens. Matter 29 465901 (2017);
         "P. Giannozzi et al., J. Chem. Phys. 152 154105 (2020);
          URL http://www.quantum-espresso.org", 
     in publications or presentations arising from this work. More details at
     http://www.quantum-espresso.org/quote

     Parallel version (MPI & OpenMP), running on      14 processor cores
     Number of MPI processes:                 1
     Threads/MPI process:                    14

     MPI processes distributed on     1 nodes
     824502 MiB available memory on the printing compute node when the environment starts
 
     Reading input from pw.in

     Current dimensions of program PWSCF are:
     Max number of different atomic species (ntypx) = 10
     Max number of k-points (npk) =  40000
     Max angular momentum in pseudopotentials (lmaxx) =  4
     file Co.pbe-spn-kjpaw_psl.0.3.1.UPF: wavefunction(s)  3P 3D renormalized
     file O.pbe-n-kjpaw_psl.1.0.0.UPF: wavefunction(s)  2S 2P renormalized
     file Na.pbe-spn-kjpaw_psl.1.0.0.UPF: wavefunction(s)  2P renormalized

     Atomic positions and unit cell read from directory:
     ../Na_s3_c8.4_d0.75/out/pw.save/
 
 
     Subspace diagonalization in iterative solution of the eigenvalue problem:
     a serial algorithm will be used

 
     G-vector sticks info
     --------------------
     sticks:   dense  smooth     PW     G-vecs:    dense   smooth      PW
     Sum        2941    1483    421               218019    77149   11597
 
     Using Slab Decomposition
 


     bravais-lattice index     =            4
     lattice parameter (alat)  =       9.4527  a.u.
     unit-cell volume          =    1228.3501 (a.u.)^3
     number of atoms/cell      =           10
     number of atomic types    =            3
     number of electrons       =        96.00
     number of Kohn-Sham states=           64
     kinetic-energy cutoff     =      60.0000  Ry
     charge density cutoff     =     480.0000  Ry
     Exchange-correlation= SLA  PW   PBX  PBC
                           (   1   4   3   4   0   0   0)

     GPU acceleration is ACTIVE.  1 visible GPUs per MPI rank
     GPU-aware MPI enabled


     GPU used by master process:

        Device Number: 0
        Device name: NVIDIA A100-SXM4-80GB
        Compute capability : 80
        Ratio of single to double precision performance  : 2
        Memory Clock Rate (KHz): 1593000
        Memory Bus Width (bits): 5120
        Peak Memory Bandwidth (GB/s): ******

     celldm(1)=   9.452718  celldm(2)=   0.000000  celldm(3)=   1.679274
     celldm(4)=   0.000000  celldm(5)=   0.000000  celldm(6)=   0.000000

     crystal axes: (cart. coord. in units of alat)
               a(1) = (   1.000000   0.000000   0.000000 )  
               a(2) = (  -0.500000   0.866025   0.000000 )  
               a(3) = (   0.000000   0.000000   1.679274 )  

     reciprocal axes: (cart. coord. in units 2 pi/alat)
               b(1) = (  1.000000  0.577350 -0.000000 )  
               b(2) = (  0.000000  1.154701  0.000000 )  
               b(3) = (  0.000000 -0.000000  0.595496 )  


     PseudoPot. # 1 for Co read from file:
     ../../pseudo/Co.pbe-spn-kjpaw_psl.0.3.1.UPF
     MD5 check sum: 3c0a43779828c046024e4f3be63f8e67
     Pseudo is Projector augmented-wave + core cor, Zval = 17.0
     Generated using &quot;atomic&quot; code by A. Dal Corso  v.6.2.2
     Shape of augmentation charge: PSQ
     Using radial grid of 1193 points,  6 beta functions with: 
                l(1) =   0
                l(2) =   0
                l(3) =   1
                l(4) =   1
                l(5) =   2
                l(6) =   2
     Q(r) pseudized with 0 coefficients 


     PseudoPot. # 2 for O  read from file:
     ../../pseudo/O.pbe-n-kjpaw_psl.1.0.0.UPF
     MD5 check sum: e99d9cef9b487d1ca56f5b95ecd0fd7a
     Pseudo is Projector augmented-wave + core cor, Zval =  6.0
     Generated using &quot;atomic&quot; code by A. Dal Corso  v.6.3
     Shape of augmentation charge: PSQ
     Using radial grid of 1095 points,  4 beta functions with: 
                l(1) =   0
                l(2) =   0
                l(3) =   1
                l(4) =   1
     Q(r) pseudized with 0 coefficients 


     PseudoPot. # 3 for Na read from file:
     ../../pseudo/Na.pbe-spn-kjpaw_psl.1.0.0.UPF
     MD5 check sum: 05b4deb74e3932c23ab016979dc8b5d4
     Pseudo is Projector augmented-wave + core cor, Zval =  9.0
     Generated using &quot;atomic&quot; code by A. Dal Corso  v.6.3
     Shape of augmentation charge: PSQ
     Using radial grid of 1121 points,  4 beta functions with: 
                l(1) =   0
                l(2) =   0
                l(3) =   1
                l(4) =   1
     Q(r) pseudized with 0 coefficients 


     atomic species   valence    mass     pseudopotential
     Co               17.00    58.93300     Co( 1.00)
     O                 6.00    15.99900     O ( 1.00)
     Na                9.00    22.98977     Na( 1.00)

     Starting magnetic structure 
     atomic species   magnetization
     Co              0.300
     O               0.000
     Na              0.000

      6 Sym. Ops. (no inversion) found


                                    s                        frac. trans.

      isym =  1     identity                                     

 cryst.   s( 1) = (     1          0          0      )
                  (     0          1          0      )
                  (     0          0          1      )

 cart.    s( 1) = (  1.0000000  0.0000000  0.0000000 )
                  (  0.0000000  1.0000000  0.0000000 )
                  (  0.0000000  0.0000000  1.0000000 )


      isym =  2     120 deg rotation - cryst. axis [0,0,1]       

 cryst.   s( 2) = (     0          1          0      )
                  (    -1         -1          0      )
                  (     0          0          1      )

 cart.    s( 2) = ( -0.5000000 -0.8660254  0.0000000 )
                  (  0.8660254 -0.5000000  0.0000000 )
                  (  0.0000000  0.0000000  1.0000000 )


      isym =  3     120 deg rotation - cryst. axis [0,0,-1]      

 cryst.   s( 3) = (    -1         -1          0      )
                  (     1          0          0      )
                  (     0          0          1      )

 cart.    s( 3) = ( -0.5000000  0.8660254  0.0000000 )
                  ( -0.8660254 -0.5000000  0.0000000 )
                  (  0.0000000  0.0000000  1.0000000 )


      isym =  4     inv. 180 deg rotation - cart. axis [0,1,0]   

 cryst.   s( 4) = (     1          0          0      )
                  (    -1         -1          0      )
                  (     0          0          1      )

 cart.    s( 4) = (  1.0000000  0.0000000  0.0000000 )
                  (  0.0000000 -1.0000000  0.0000000 )
                  (  0.0000000  0.0000000  1.0000000 )


      isym =  5     inv. 180 deg rotation - cryst. axis [1,-1,0] 

 cryst.   s( 5) = (     0          1          0      )
                  (     1          0          0      )
                  (     0          0          1      )

 cart.    s( 5) = ( -0.5000000  0.8660254  0.0000000 )
                  (  0.8660254  0.5000000  0.0000000 )
                  (  0.0000000  0.0000000  1.0000000 )


      isym =  6     inv. 180 deg rotation - cryst. axis [2,1,0]  

 cryst.   s( 6) = (    -1         -1          0      )
                  (     0          1          0      )
                  (     0          0          1      )

 cart.    s( 6) = ( -0.5000000 -0.8660254  0.0000000 )
                  ( -0.8660254  0.5000000  0.0000000 )
                  (  0.0000000  0.0000000  1.0000000 )


     point group C_3v (3m)  
     there are  3 classes
     the character table:

       E     2C3   3s_v 
A_1    1.00  1.00  1.00
A_2    1.00  1.00 -1.00
E      2.00 -1.00  0.00

     the symmetry operations in each class and the name of the first element:

     E        1
          identity                                               
     2C3      2    3
          120 deg rotation - cryst. axis [0,0,1]                 
     3s_v     4    6    5
          inv. 180 deg rotation - cart. axis [0,1,0]             

   Cartesian axes

     site n.     atom                  positions (alat units)
         1        Co     tau(   1) = (   0.0000000   0.0000000   0.0000000  )
         2        Co     tau(   2) = (  -0.0000000   0.5773503   0.0000000  )
         3        Co     tau(   3) = (   0.5000000   0.2886751   0.0000000  )
         4        O      tau(   4) = (   0.1666667   0.2886751   0.1919170  )
         5        O      tau(   5) = (   0.6666667   0.0000000   0.1919170  )
         6        O      tau(   6) = (  -0.3333333   0.5773503   0.1919170  )
         7        O      tau(   7) = (   0.3333333   0.0000000   1.4873567  )
         8        O      tau(   8) = (   0.3333333   0.5773503   1.4873567  )
         9        O      tau(   9) = (  -0.1666667   0.2886751   1.4873567  )
        10        Na     tau(  10) = (   0.0000000   0.0000000   0.9895720  )

   Crystallographic axes

     site n.     atom                  positions (cryst. coord.)
         1        Co     tau(   1) = (  0.0000000  0.0000000  0.0000000  )
         2        Co     tau(   2) = (  0.3333333  0.6666667  0.0000000  )
         3        Co     tau(   3) = (  0.6666667  0.3333333  0.0000000  )
         4        O      tau(   4) = (  0.3333333  0.3333333  0.1142857  )
         5        O      tau(   5) = (  0.6666667  0.0000000  0.1142857  )
         6        O      tau(   6) = (  0.0000000  0.6666667  0.1142857  )
         7        O      tau(   7) = (  0.3333333  0.0000000  0.8857143  )
         8        O      tau(   8) = (  0.6666667  0.6666667  0.8857143  )
         9        O      tau(   9) = ( -0.0000000  0.3333333  0.8857143  )
        10        Na     tau(  10) = (  0.0000000  0.0000000  0.5892857  )

     number of k points=   449  Marzari-Vanderbilt smearing, width (Ry)=  0.0200
                       cart. coord. in units 2pi/alat
        k(    1) = (   0.0000000   0.0000000   0.0000000), wk =   0.0002170
        k(    2) = (   0.0000000   0.0000000   0.0744369), wk =   0.0004340
        k(    3) = (   0.0000000   0.0000000   0.1488739), wk =   0.0004340
        k(    4) = (   0.0000000   0.0000000   0.2233108), wk =   0.0004340
        k(    5) = (   0.0000000   0.0000000  -0.2977478), wk =   0.0002170
        k(    6) = (   0.0000000   0.0481125   0.0000000), wk =   0.0013021
        k(    7) = (   0.0000000   0.0481125   0.0744369), wk =   0.0026042
        k(    8) = (   0.0000000   0.0481125   0.1488739), wk =   0.0026042
        k(    9) = (   0.0000000   0.0481125   0.2233108), wk =   0.0026042
        k(   10) = (   0.0000000   0.0481125  -0.2977478), wk =   0.0013021
        k(   11) = (   0.0000000   0.0962250   0.0000000), wk =   0.0013021
        k(   12) = (   0.0000000   0.0962250   0.0744369), wk =   0.0026042
        k(   13) = (   0.0000000   0.0962250   0.1488739), wk =   0.0026042
        k(   14) = (   0.0000000   0.0962250   0.2233108), wk =   0.0026042
        k(   15) = (   0.0000000   0.0962250  -0.2977478), wk =   0.0013021
        k(   16) = (   0.0000000   0.1443376   0.0000000), wk =   0.0013021
        k(   17) = (   0.0000000   0.1443376   0.0744369), wk =   0.0026042
        k(   18) = (   0.0000000   0.1443376   0.1488739), wk =   0.0026042
        k(   19) = (   0.0000000   0.1443376   0.2233108), wk =   0.0026042
        k(   20) = (   0.0000000   0.1443376  -0.2977478), wk =   0.0013021
        k(   21) = (   0.0000000   0.1924501   0.0000000), wk =   0.0013021
        k(   22) = (   0.0000000   0.1924501   0.0744369), wk =   0.0026042
        k(   23) = (   0.0000000   0.1924501   0.1488739), wk =   0.0026042
        k(   24) = (   0.0000000   0.1924501   0.2233108), wk =   0.0026042
        k(   25) = (   0.0000000   0.1924501  -0.2977478), wk =   0.0013021
        k(   26) = (   0.0000000   0.2405626   0.0000000), wk =   0.0013021
        k(   27) = (   0.0000000   0.2405626   0.0744369), wk =   0.0026042
        k(   28) = (   0.0000000   0.2405626   0.1488739), wk =   0.0026042
        k(   29) = (   0.0000000   0.2405626   0.2233108), wk =   0.0026042
        k(   30) = (   0.0000000   0.2405626  -0.2977478), wk =   0.0013021
        k(   31) = (   0.0000000   0.2886751   0.0000000), wk =   0.0013021
        k(   32) = (   0.0000000   0.2886751   0.0744369), wk =   0.0026042
        k(   33) = (   0.0000000   0.2886751   0.1488739), wk =   0.0026042
        k(   34) = (   0.0000000   0.2886751   0.2233108), wk =   0.0026042
        k(   35) = (   0.0000000   0.2886751  -0.2977478), wk =   0.0013021
        k(   36) = (   0.0000000   0.3367877   0.0000000), wk =   0.0013021
        k(   37) = (   0.0000000   0.3367877   0.0744369), wk =   0.0026042
        k(   38) = (   0.0000000   0.3367877   0.1488739), wk =   0.0026042
        k(   39) = (   0.0000000   0.3367877   0.2233108), wk =   0.0026042
        k(   40) = (   0.0000000   0.3367877  -0.2977478), wk =   0.0013021
        k(   41) = (   0.0000000   0.3849002   0.0000000), wk =   0.0013021
        k(   42) = (   0.0000000   0.3849002   0.0744369), wk =   0.0026042
        k(   43) = (   0.0000000   0.3849002   0.1488739), wk =   0.0026042
        k(   44) = (   0.0000000   0.3849002   0.2233108), wk =   0.0026042
        k(   45) = (   0.0000000   0.3849002  -0.2977478), wk =   0.0013021
        k(   46) = (   0.0000000   0.4330127   0.0000000), wk =   0.0013021
        k(   47) = (   0.0000000   0.4330127   0.0744369), wk =   0.0026042
        k(   48) = (   0.0000000   0.4330127   0.1488739), wk =   0.0026042
        k(   49) = (   0.0000000   0.4330127   0.2233108), wk =   0.0026042
        k(   50) = (   0.0000000   0.4330127  -0.2977478), wk =   0.0013021
        k(   51) = (   0.0000000   0.4811252   0.0000000), wk =   0.0013021
        k(   52) = (   0.0000000   0.4811252   0.0744369), wk =   0.0026042
        k(   53) = (   0.0000000   0.4811252   0.1488739), wk =   0.0026042
        k(   54) = (   0.0000000   0.4811252   0.2233108), wk =   0.0026042
        k(   55) = (   0.0000000   0.4811252  -0.2977478), wk =   0.0013021
        k(   56) = (   0.0000000   0.5292377   0.0000000), wk =   0.0013021
        k(   57) = (   0.0000000   0.5292377   0.0744369), wk =   0.0026042
        k(   58) = (   0.0000000   0.5292377   0.1488739), wk =   0.0026042
        k(   59) = (   0.0000000   0.5292377   0.2233108), wk =   0.0026042
        k(   60) = (   0.0000000   0.5292377  -0.2977478), wk =   0.0013021
        k(   61) = (   0.0000000  -0.5773503   0.0000000), wk =   0.0006510
        k(   62) = (   0.0000000  -0.5773503   0.0744369), wk =   0.0013021
        k(   63) = (   0.0000000  -0.5773503   0.1488739), wk =   0.0013021
        k(   64) = (   0.0000000  -0.5773503   0.2233108), wk =   0.0013021
        k(   65) = (   0.0000000  -0.5773503  -0.2977478), wk =   0.0006510
        k(   66) = (   0.0416667   0.0721688   0.0000000), wk =   0.0013021
        k(   67) = (   0.0416667   0.0721688   0.0744369), wk =   0.0013021
        k(   68) = (   0.0416667   0.0721688   0.1488739), wk =   0.0013021
        k(   69) = (   0.0416667   0.0721688   0.2233108), wk =   0.0013021
        k(   70) = (   0.0416667   0.0721688  -0.2977478), wk =   0.0013021
        k(   71) = (   0.0416667   0.1202813   0.0000000), wk =   0.0026042
        k(   72) = (   0.0416667   0.1202813   0.0744369), wk =   0.0026042
        k(   73) = (   0.0416667   0.1202813   0.1488739), wk =   0.0026042
        k(   74) = (   0.0416667   0.1202813   0.2233108), wk =   0.0026042
        k(   75) = (   0.0416667   0.1202813  -0.2977478), wk =   0.0026042
        k(   76) = (   0.0416667   0.1683938   0.0000000), wk =   0.0026042
        k(   77) = (   0.0416667   0.1683938   0.0744369), wk =   0.0026042
        k(   78) = (   0.0416667   0.1683938   0.1488739), wk =   0.0026042
        k(   79) = (   0.0416667   0.1683938   0.2233108), wk =   0.0026042
        k(   80) = (   0.0416667   0.1683938  -0.2977478), wk =   0.0026042
        k(   81) = (   0.0416667   0.2165064   0.0000000), wk =   0.0026042
        k(   82) = (   0.0416667   0.2165064   0.0744369), wk =   0.0026042
        k(   83) = (   0.0416667   0.2165064   0.1488739), wk =   0.0026042
        k(   84) = (   0.0416667   0.2165064   0.2233108), wk =   0.0026042
        k(   85) = (   0.0416667   0.2165064  -0.2977478), wk =   0.0026042
        k(   86) = (   0.0416667   0.2646189   0.0000000), wk =   0.0026042
        k(   87) = (   0.0416667   0.2646189   0.0744369), wk =   0.0026042
        k(   88) = (   0.0416667   0.2646189   0.1488739), wk =   0.0026042
        k(   89) = (   0.0416667   0.2646189   0.2233108), wk =   0.0026042
        k(   90) = (   0.0416667   0.2646189  -0.2977478), wk =   0.0026042
        k(   91) = (   0.0416667   0.3127314   0.0000000), wk =   0.0026042
        k(   92) = (   0.0416667   0.3127314   0.0744369), wk =   0.0026042
        k(   93) = (   0.0416667   0.3127314   0.1488739), wk =   0.0026042
        k(   94) = (   0.0416667   0.3127314   0.2233108), wk =   0.0026042
        k(   95) = (   0.0416667   0.3127314  -0.2977478), wk =   0.0026042
        k(   96) = (   0.0416667   0.3608439   0.0000000), wk =   0.0026042
        k(   97) = (   0.0416667   0.3608439   0.0744369), wk =   0.0026042
        k(   98) = (   0.0416667   0.3608439   0.1488739), wk =   0.0026042
        k(   99) = (   0.0416667   0.3608439   0.2233108), wk =   0.0026042
        k(  100) = (   0.0416667   0.3608439  -0.2977478), wk =   0.0026042
        k(  101) = (   0.0416667   0.4089564   0.0000000), wk =   0.0026042
        k(  102) = (   0.0416667   0.4089564   0.0744369), wk =   0.0026042
        k(  103) = (   0.0416667   0.4089564   0.1488739), wk =   0.0026042
        k(  104) = (   0.0416667   0.4089564   0.2233108), wk =   0.0026042
        k(  105) = (   0.0416667   0.4089564  -0.2977478), wk =   0.0026042
        k(  106) = (   0.0416667   0.4570690   0.0000000), wk =   0.0026042
        k(  107) = (   0.0416667   0.4570690   0.0744369), wk =   0.0026042
        k(  108) = (   0.0416667   0.4570690   0.1488739), wk =   0.0026042
        k(  109) = (   0.0416667   0.4570690   0.2233108), wk =   0.0026042
        k(  110) = (   0.0416667   0.4570690  -0.2977478), wk =   0.0026042
        k(  111) = (   0.0416667   0.5051815   0.0000000), wk =   0.0026042
        k(  112) = (   0.0416667   0.5051815   0.0744369), wk =   0.0026042
        k(  113) = (   0.0416667   0.5051815   0.1488739), wk =   0.0026042
        k(  114) = (   0.0416667   0.5051815   0.2233108), wk =   0.0026042
        k(  115) = (   0.0416667   0.5051815  -0.2977478), wk =   0.0026042
        k(  116) = (   0.0416667   0.5532940   0.0000000), wk =   0.0026042
        k(  117) = (   0.0416667   0.5532940   0.0744369), wk =   0.0026042
        k(  118) = (   0.0416667   0.5532940   0.1488739), wk =   0.0026042
        k(  119) = (   0.0416667   0.5532940   0.2233108), wk =   0.0026042
        k(  120) = (   0.0416667   0.5532940  -0.2977478), wk =   0.0026042
        k(  121) = (   0.0833333   0.1443376   0.0000000), wk =   0.0013021
        k(  122) = (   0.0833333   0.1443376   0.0744369), wk =   0.0013021
        k(  123) = (   0.0833333   0.1443376   0.1488739), wk =   0.0013021
        k(  124) = (   0.0833333   0.1443376   0.2233108), wk =   0.0013021
        k(  125) = (   0.0833333   0.1443376  -0.2977478), wk =   0.0013021
        k(  126) = (   0.0833333   0.1924501   0.0000000), wk =   0.0026042
        k(  127) = (   0.0833333   0.1924501   0.0744369), wk =   0.0026042
        k(  128) = (   0.0833333   0.1924501   0.1488739), wk =   0.0026042
        k(  129) = (   0.0833333   0.1924501   0.2233108), wk =   0.0026042
        k(  130) = (   0.0833333   0.1924501  -0.2977478), wk =   0.0026042
        k(  131) = (   0.0833333   0.2405626   0.0000000), wk =   0.0026042
        k(  132) = (   0.0833333   0.2405626   0.0744369), wk =   0.0026042
        k(  133) = (   0.0833333   0.2405626   0.1488739), wk =   0.0026042
        k(  134) = (   0.0833333   0.2405626   0.2233108), wk =   0.0026042
        k(  135) = (   0.0833333   0.2405626  -0.2977478), wk =   0.0026042
        k(  136) = (   0.0833333   0.2886751   0.0000000), wk =   0.0026042
        k(  137) = (   0.0833333   0.2886751   0.0744369), wk =   0.0026042
        k(  138) = (   0.0833333   0.2886751   0.1488739), wk =   0.0026042
        k(  139) = (   0.0833333   0.2886751   0.2233108), wk =   0.0026042
        k(  140) = (   0.0833333   0.2886751  -0.2977478), wk =   0.0026042
        k(  141) = (   0.0833333   0.3367877   0.0000000), wk =   0.0026042
        k(  142) = (   0.0833333   0.3367877   0.0744369), wk =   0.0026042
        k(  143) = (   0.0833333   0.3367877   0.1488739), wk =   0.0026042
        k(  144) = (   0.0833333   0.3367877   0.2233108), wk =   0.0026042
        k(  145) = (   0.0833333   0.3367877  -0.2977478), wk =   0.0026042
        k(  146) = (   0.0833333   0.3849002   0.0000000), wk =   0.0026042
        k(  147) = (   0.0833333   0.3849002   0.0744369), wk =   0.0026042
        k(  148) = (   0.0833333   0.3849002   0.1488739), wk =   0.0026042
        k(  149) = (   0.0833333   0.3849002   0.2233108), wk =   0.0026042
        k(  150) = (   0.0833333   0.3849002  -0.2977478), wk =   0.0026042
        k(  151) = (   0.0833333   0.4330127   0.0000000), wk =   0.0026042
        k(  152) = (   0.0833333   0.4330127   0.0744369), wk =   0.0026042
        k(  153) = (   0.0833333   0.4330127   0.1488739), wk =   0.0026042
        k(  154) = (   0.0833333   0.4330127   0.2233108), wk =   0.0026042
        k(  155) = (   0.0833333   0.4330127  -0.2977478), wk =   0.0026042
        k(  156) = (   0.0833333   0.4811252   0.0000000), wk =   0.0026042
        k(  157) = (   0.0833333   0.4811252   0.0744369), wk =   0.0026042
        k(  158) = (   0.0833333   0.4811252   0.1488739), wk =   0.0026042
        k(  159) = (   0.0833333   0.4811252   0.2233108), wk =   0.0026042
        k(  160) = (   0.0833333   0.4811252  -0.2977478), wk =   0.0026042
        k(  161) = (   0.0833333   0.5292377   0.0000000), wk =   0.0026042
        k(  162) = (   0.0833333   0.5292377   0.0744369), wk =   0.0026042
        k(  163) = (   0.0833333   0.5292377   0.1488739), wk =   0.0026042
        k(  164) = (   0.0833333   0.5292377   0.2233108), wk =   0.0026042
        k(  165) = (   0.0833333   0.5292377  -0.2977478), wk =   0.0026042
        k(  166) = (   0.0833333   0.5773503   0.0000000), wk =   0.0013021
        k(  167) = (   0.0833333   0.5773503   0.0744369), wk =   0.0013021
        k(  168) = (   0.0833333   0.5773503   0.1488739), wk =   0.0013021
        k(  169) = (   0.0833333   0.5773503   0.2233108), wk =   0.0013021
        k(  170) = (   0.0833333   0.5773503  -0.2977478), wk =   0.0013021
        k(  171) = (   0.1250000   0.2165064   0.0000000), wk =   0.0013021
        k(  172) = (   0.1250000   0.2165064   0.0744369), wk =   0.0013021
        k(  173) = (   0.1250000   0.2165064   0.1488739), wk =   0.0013021
        k(  174) = (   0.1250000   0.2165064   0.2233108), wk =   0.0013021
        k(  175) = (   0.1250000   0.2165064  -0.2977478), wk =   0.0013021
        k(  176) = (   0.1250000   0.2646189   0.0000000), wk =   0.0026042
        k(  177) = (   0.1250000   0.2646189   0.0744369), wk =   0.0026042
        k(  178) = (   0.1250000   0.2646189   0.1488739), wk =   0.0026042
        k(  179) = (   0.1250000   0.2646189   0.2233108), wk =   0.0026042
        k(  180) = (   0.1250000   0.2646189  -0.2977478), wk =   0.0026042
        k(  181) = (   0.1250000   0.3127314   0.0000000), wk =   0.0026042
        k(  182) = (   0.1250000   0.3127314   0.0744369), wk =   0.0026042
        k(  183) = (   0.1250000   0.3127314   0.1488739), wk =   0.0026042
        k(  184) = (   0.1250000   0.3127314   0.2233108), wk =   0.0026042
        k(  185) = (   0.1250000   0.3127314  -0.2977478), wk =   0.0026042
        k(  186) = (   0.1250000   0.3608439   0.0000000), wk =   0.0026042
        k(  187) = (   0.1250000   0.3608439   0.0744369), wk =   0.0026042
        k(  188) = (   0.1250000   0.3608439   0.1488739), wk =   0.0026042
        k(  189) = (   0.1250000   0.3608439   0.2233108), wk =   0.0026042
        k(  190) = (   0.1250000   0.3608439  -0.2977478), wk =   0.0026042
        k(  191) = (   0.1250000   0.4089564   0.0000000), wk =   0.0026042
        k(  192) = (   0.1250000   0.4089564   0.0744369), wk =   0.0026042
        k(  193) = (   0.1250000   0.4089564   0.1488739), wk =   0.0026042
        k(  194) = (   0.1250000   0.4089564   0.2233108), wk =   0.0026042
        k(  195) = (   0.1250000   0.4089564  -0.2977478), wk =   0.0026042
        k(  196) = (   0.1250000   0.4570690   0.0000000), wk =   0.0026042
        k(  197) = (   0.1250000   0.4570690   0.0744369), wk =   0.0026042
        k(  198) = (   0.1250000   0.4570690   0.1488739), wk =   0.0026042
        k(  199) = (   0.1250000   0.4570690   0.2233108), wk =   0.0026042
        k(  200) = (   0.1250000   0.4570690  -0.2977478), wk =   0.0026042
        k(  201) = (   0.1250000   0.5051815   0.0000000), wk =   0.0026042
        k(  202) = (   0.1250000   0.5051815   0.0744369), wk =   0.0026042
        k(  203) = (   0.1250000   0.5051815   0.1488739), wk =   0.0026042
        k(  204) = (   0.1250000   0.5051815   0.2233108), wk =   0.0026042
        k(  205) = (   0.1250000   0.5051815  -0.2977478), wk =   0.0026042
        k(  206) = (   0.1250000   0.5532940   0.0000000), wk =   0.0026042
        k(  207) = (   0.1250000   0.5532940   0.0744369), wk =   0.0026042
        k(  208) = (   0.1250000   0.5532940   0.1488739), wk =   0.0026042
        k(  209) = (   0.1250000   0.5532940   0.2233108), wk =   0.0026042
        k(  210) = (   0.1250000   0.5532940  -0.2977478), wk =   0.0026042
        k(  211) = (   0.1666667   0.2886751   0.0000000), wk =   0.0013021
        k(  212) = (   0.1666667   0.2886751   0.0744369), wk =   0.0013021
        k(  213) = (   0.1666667   0.2886751   0.1488739), wk =   0.0013021
        k(  214) = (   0.1666667   0.2886751   0.2233108), wk =   0.0013021
        k(  215) = (   0.1666667   0.2886751  -0.2977478), wk =   0.0013021
        k(  216) = (   0.1666667   0.3367877   0.0000000), wk =   0.0026042
        k(  217) = (   0.1666667   0.3367877   0.0744369), wk =   0.0026042
        k(  218) = (   0.1666667   0.3367877   0.1488739), wk =   0.0026042
        k(  219) = (   0.1666667   0.3367877   0.2233108), wk =   0.0026042
        k(  220) = (   0.1666667   0.3367877  -0.2977478), wk =   0.0026042
        k(  221) = (   0.1666667   0.3849002   0.0000000), wk =   0.0026042
        k(  222) = (   0.1666667   0.3849002   0.0744369), wk =   0.0026042
        k(  223) = (   0.1666667   0.3849002   0.1488739), wk =   0.0026042
        k(  224) = (   0.1666667   0.3849002   0.2233108), wk =   0.0026042
        k(  225) = (   0.1666667   0.3849002  -0.2977478), wk =   0.0026042
        k(  226) = (   0.1666667   0.4330127   0.0000000), wk =   0.0026042
        k(  227) = (   0.1666667   0.4330127   0.0744369), wk =   0.0026042
        k(  228) = (   0.1666667   0.4330127   0.1488739), wk =   0.0026042
        k(  229) = (   0.1666667   0.4330127   0.2233108), wk =   0.0026042
        k(  230) = (   0.1666667   0.4330127  -0.2977478), wk =   0.0026042
        k(  231) = (   0.1666667   0.4811252   0.0000000), wk =   0.0026042
        k(  232) = (   0.1666667   0.4811252   0.0744369), wk =   0.0026042
        k(  233) = (   0.1666667   0.4811252   0.1488739), wk =   0.0026042
        k(  234) = (   0.1666667   0.4811252   0.2233108), wk =   0.0026042
        k(  235) = (   0.1666667   0.4811252  -0.2977478), wk =   0.0026042
        k(  236) = (   0.1666667   0.5292377   0.0000000), wk =   0.0026042
        k(  237) = (   0.1666667   0.5292377   0.0744369), wk =   0.0026042
        k(  238) = (   0.1666667   0.5292377   0.1488739), wk =   0.0026042
        k(  239) = (   0.1666667   0.5292377   0.2233108), wk =   0.0026042
        k(  240) = (   0.1666667   0.5292377  -0.2977478), wk =   0.0026042
        k(  241) = (   0.1666667   0.5773503   0.0000000), wk =   0.0013021
        k(  242) = (   0.1666667   0.5773503   0.0744369), wk =   0.0013021
        k(  243) = (   0.1666667   0.5773503   0.1488739), wk =   0.0013021
        k(  244) = (   0.1666667   0.5773503   0.2233108), wk =   0.0013021
        k(  245) = (   0.1666667   0.5773503  -0.2977478), wk =   0.0013021
        k(  246) = (   0.2083333   0.3608439   0.0000000), wk =   0.0013021
        k(  247) = (   0.2083333   0.3608439   0.0744369), wk =   0.0013021
        k(  248) = (   0.2083333   0.3608439   0.1488739), wk =   0.0013021
        k(  249) = (   0.2083333   0.3608439   0.2233108), wk =   0.0013021
        k(  250) = (   0.2083333   0.3608439  -0.2977478), wk =   0.0013021
        k(  251) = (   0.2083333   0.4089564   0.0000000), wk =   0.0026042
        k(  252) = (   0.2083333   0.4089564   0.0744369), wk =   0.0026042
        k(  253) = (   0.2083333   0.4089564   0.1488739), wk =   0.0026042
        k(  254) = (   0.2083333   0.4089564   0.2233108), wk =   0.0026042
        k(  255) = (   0.2083333   0.4089564  -0.2977478), wk =   0.0026042
        k(  256) = (   0.2083333   0.4570690   0.0000000), wk =   0.0026042
        k(  257) = (   0.2083333   0.4570690   0.0744369), wk =   0.0026042
        k(  258) = (   0.2083333   0.4570690   0.1488739), wk =   0.0026042
        k(  259) = (   0.2083333   0.4570690   0.2233108), wk =   0.0026042
        k(  260) = (   0.2083333   0.4570690  -0.2977478), wk =   0.0026042
        k(  261) = (   0.2083333   0.5051815   0.0000000), wk =   0.0026042
        k(  262) = (   0.2083333   0.5051815   0.0744369), wk =   0.0026042
        k(  263) = (   0.2083333   0.5051815   0.1488739), wk =   0.0026042
        k(  264) = (   0.2083333   0.5051815   0.2233108), wk =   0.0026042
        k(  265) = (   0.2083333   0.5051815  -0.2977478), wk =   0.0026042
        k(  266) = (   0.2083333   0.5532940   0.0000000), wk =   0.0026042
        k(  267) = (   0.2083333   0.5532940   0.0744369), wk =   0.0026042
        k(  268) = (   0.2083333   0.5532940   0.1488739), wk =   0.0026042
        k(  269) = (   0.2083333   0.5532940   0.2233108), wk =   0.0026042
        k(  270) = (   0.2083333   0.5532940  -0.2977478), wk =   0.0026042
        k(  271) = (   0.2500000   0.4330127   0.0000000), wk =   0.0013021
        k(  272) = (   0.2500000   0.4330127   0.0744369), wk =   0.0013021
        k(  273) = (   0.2500000   0.4330127   0.1488739), wk =   0.0013021
        k(  274) = (   0.2500000   0.4330127   0.2233108), wk =   0.0013021
        k(  275) = (   0.2500000   0.4330127  -0.2977478), wk =   0.0013021
        k(  276) = (   0.2500000   0.4811252   0.0000000), wk =   0.0026042
        k(  277) = (   0.2500000   0.4811252   0.0744369), wk =   0.0026042
        k(  278) = (   0.2500000   0.4811252   0.1488739), wk =   0.0026042
        k(  279) = (   0.2500000   0.4811252   0.2233108), wk =   0.0026042
        k(  280) = (   0.2500000   0.4811252  -0.2977478), wk =   0.0026042
        k(  281) = (   0.2500000   0.5292377   0.0000000), wk =   0.0026042
        k(  282) = (   0.2500000   0.5292377   0.0744369), wk =   0.0026042
        k(  283) = (   0.2500000   0.5292377   0.1488739), wk =   0.0026042
        k(  284) = (   0.2500000   0.5292377   0.2233108), wk =   0.0026042
        k(  285) = (   0.2500000   0.5292377  -0.2977478), wk =   0.0026042
        k(  286) = (   0.2500000   0.5773503   0.0000000), wk =   0.0013021
        k(  287) = (   0.2500000   0.5773503   0.0744369), wk =   0.0013021
        k(  288) = (   0.2500000   0.5773503   0.1488739), wk =   0.0013021
        k(  289) = (   0.2500000   0.5773503   0.2233108), wk =   0.0013021
        k(  290) = (   0.2500000   0.5773503  -0.2977478), wk =   0.0013021
        k(  291) = (   0.2916667   0.5051815   0.0000000), wk =   0.0013021
        k(  292) = (   0.2916667   0.5051815   0.0744369), wk =   0.0013021
        k(  293) = (   0.2916667   0.5051815   0.1488739), wk =   0.0013021
        k(  294) = (   0.2916667   0.5051815   0.2233108), wk =   0.0013021
        k(  295) = (   0.2916667   0.5051815  -0.2977478), wk =   0.0013021
        k(  296) = (   0.2916667   0.5532940   0.0000000), wk =   0.0026042
        k(  297) = (   0.2916667   0.5532940   0.0744369), wk =   0.0026042
        k(  298) = (   0.2916667   0.5532940   0.1488739), wk =   0.0026042
        k(  299) = (   0.2916667   0.5532940   0.2233108), wk =   0.0026042
        k(  300) = (   0.2916667   0.5532940  -0.2977478), wk =   0.0026042
        k(  301) = (   0.3333333   0.5773503   0.0000000), wk =   0.0004340
        k(  302) = (   0.3333333   0.5773503   0.0744369), wk =   0.0004340
        k(  303) = (   0.3333333   0.5773503   0.1488739), wk =   0.0004340
        k(  304) = (   0.3333333   0.5773503   0.2233108), wk =   0.0004340
        k(  305) = (   0.3333333   0.5773503  -0.2977478), wk =   0.0004340
        k(  306) = (  -0.0416667  -0.0721688   0.0744369), wk =   0.0013021
        k(  307) = (  -0.0416667  -0.0721688   0.1488739), wk =   0.0013021
        k(  308) = (  -0.0416667  -0.0721688   0.2233108), wk =   0.0013021
        k(  309) = (  -0.0416667  -0.1202813   0.0744369), wk =   0.0026042
        k(  310) = (  -0.0416667  -0.1202813   0.1488739), wk =   0.0026042
        k(  311) = (  -0.0416667  -0.1202813   0.2233108), wk =   0.0026042
        k(  312) = (  -0.0416667  -0.1683938   0.0744369), wk =   0.0026042
        k(  313) = (  -0.0416667  -0.1683938   0.1488739), wk =   0.0026042
        k(  314) = (  -0.0416667  -0.1683938   0.2233108), wk =   0.0026042
        k(  315) = (  -0.0416667  -0.2165064   0.0744369), wk =   0.0026042
        k(  316) = (  -0.0416667  -0.2165064   0.1488739), wk =   0.0026042
        k(  317) = (  -0.0416667  -0.2165064   0.2233108), wk =   0.0026042
        k(  318) = (  -0.0416667  -0.2646189   0.0744369), wk =   0.0026042
        k(  319) = (  -0.0416667  -0.2646189   0.1488739), wk =   0.0026042
        k(  320) = (  -0.0416667  -0.2646189   0.2233108), wk =   0.0026042
        k(  321) = (  -0.0416667  -0.3127314   0.0744369), wk =   0.0026042
        k(  322) = (  -0.0416667  -0.3127314   0.1488739), wk =   0.0026042
        k(  323) = (  -0.0416667  -0.3127314   0.2233108), wk =   0.0026042
        k(  324) = (  -0.0416667  -0.3608439   0.0744369), wk =   0.0026042
        k(  325) = (  -0.0416667  -0.3608439   0.1488739), wk =   0.0026042
        k(  326) = (  -0.0416667  -0.3608439   0.2233108), wk =   0.0026042
        k(  327) = (  -0.0416667  -0.4089564   0.0744369), wk =   0.0026042
        k(  328) = (  -0.0416667  -0.4089564   0.1488739), wk =   0.0026042
        k(  329) = (  -0.0416667  -0.4089564   0.2233108), wk =   0.0026042
        k(  330) = (  -0.0416667  -0.4570690   0.0744369), wk =   0.0026042
        k(  331) = (  -0.0416667  -0.4570690   0.1488739), wk =   0.0026042
        k(  332) = (  -0.0416667  -0.4570690   0.2233108), wk =   0.0026042
        k(  333) = (  -0.0416667  -0.5051815   0.0744369), wk =   0.0026042
        k(  334) = (  -0.0416667  -0.5051815   0.1488739), wk =   0.0026042
        k(  335) = (  -0.0416667  -0.5051815   0.2233108), wk =   0.0026042
        k(  336) = (  -0.0416667  -0.5532940   0.0744369), wk =   0.0026042
        k(  337) = (  -0.0416667  -0.5532940   0.1488739), wk =   0.0026042
        k(  338) = (  -0.0416667  -0.5532940   0.2233108), wk =   0.0026042
        k(  339) = (  -0.0833333  -0.1443376   0.0744369), wk =   0.0013021
        k(  340) = (  -0.0833333  -0.1443376   0.1488739), wk =   0.0013021
        k(  341) = (  -0.0833333  -0.1443376   0.2233108), wk =   0.0013021
        k(  342) = (  -0.0833333  -0.1924501   0.0744369), wk =   0.0026042
        k(  343) = (  -0.0833333  -0.1924501   0.1488739), wk =   0.0026042
        k(  344) = (  -0.0833333  -0.1924501   0.2233108), wk =   0.0026042
        k(  345) = (  -0.0833333  -0.2405626   0.0744369), wk =   0.0026042
        k(  346) = (  -0.0833333  -0.2405626   0.1488739), wk =   0.0026042
        k(  347) = (  -0.0833333  -0.2405626   0.2233108), wk =   0.0026042
        k(  348) = (  -0.0833333  -0.2886751   0.0744369), wk =   0.0026042
        k(  349) = (  -0.0833333  -0.2886751   0.1488739), wk =   0.0026042
        k(  350) = (  -0.0833333  -0.2886751   0.2233108), wk =   0.0026042
        k(  351) = (  -0.0833333  -0.3367877   0.0744369), wk =   0.0026042
        k(  352) = (  -0.0833333  -0.3367877   0.1488739), wk =   0.0026042
        k(  353) = (  -0.0833333  -0.3367877   0.2233108), wk =   0.0026042
        k(  354) = (  -0.0833333  -0.3849002   0.0744369), wk =   0.0026042
        k(  355) = (  -0.0833333  -0.3849002   0.1488739), wk =   0.0026042
        k(  356) = (  -0.0833333  -0.3849002   0.2233108), wk =   0.0026042
        k(  357) = (  -0.0833333  -0.4330127   0.0744369), wk =   0.0026042
        k(  358) = (  -0.0833333  -0.4330127   0.1488739), wk =   0.0026042
        k(  359) = (  -0.0833333  -0.4330127   0.2233108), wk =   0.0026042
        k(  360) = (  -0.0833333  -0.4811252   0.0744369), wk =   0.0026042
        k(  361) = (  -0.0833333  -0.4811252   0.1488739), wk =   0.0026042
        k(  362) = (  -0.0833333  -0.4811252   0.2233108), wk =   0.0026042
        k(  363) = (  -0.0833333  -0.5292377   0.0744369), wk =   0.0026042
        k(  364) = (  -0.0833333  -0.5292377   0.1488739), wk =   0.0026042
        k(  365) = (  -0.0833333  -0.5292377   0.2233108), wk =   0.0026042
        k(  366) = (  -0.0833333  -0.5773503   0.0744369), wk =   0.0013021
        k(  367) = (  -0.0833333  -0.5773503   0.1488739), wk =   0.0013021
        k(  368) = (  -0.0833333  -0.5773503   0.2233108), wk =   0.0013021
        k(  369) = (  -0.1250000  -0.2165064   0.0744369), wk =   0.0013021
        k(  370) = (  -0.1250000  -0.2165064   0.1488739), wk =   0.0013021
        k(  371) = (  -0.1250000  -0.2165064   0.2233108), wk =   0.0013021
        k(  372) = (  -0.1250000  -0.2646189   0.0744369), wk =   0.0026042
        k(  373) = (  -0.1250000  -0.2646189   0.1488739), wk =   0.0026042
        k(  374) = (  -0.1250000  -0.2646189   0.2233108), wk =   0.0026042
        k(  375) = (  -0.1250000  -0.3127314   0.0744369), wk =   0.0026042
        k(  376) = (  -0.1250000  -0.3127314   0.1488739), wk =   0.0026042
        k(  377) = (  -0.1250000  -0.3127314   0.2233108), wk =   0.0026042
        k(  378) = (  -0.1250000  -0.3608439   0.0744369), wk =   0.0026042
        k(  379) = (  -0.1250000  -0.3608439   0.1488739), wk =   0.0026042
        k(  380) = (  -0.1250000  -0.3608439   0.2233108), wk =   0.0026042
        k(  381) = (  -0.1250000  -0.4089564   0.0744369), wk =   0.0026042
        k(  382) = (  -0.1250000  -0.4089564   0.1488739), wk =   0.0026042
        k(  383) = (  -0.1250000  -0.4089564   0.2233108), wk =   0.0026042
        k(  384) = (  -0.1250000  -0.4570690   0.0744369), wk =   0.0026042
        k(  385) = (  -0.1250000  -0.4570690   0.1488739), wk =   0.0026042
        k(  386) = (  -0.1250000  -0.4570690   0.2233108), wk =   0.0026042
        k(  387) = (  -0.1250000  -0.5051815   0.0744369), wk =   0.0026042
        k(  388) = (  -0.1250000  -0.5051815   0.1488739), wk =   0.0026042
        k(  389) = (  -0.1250000  -0.5051815   0.2233108), wk =   0.0026042
        k(  390) = (  -0.1250000  -0.5532940   0.0744369), wk =   0.0026042
        k(  391) = (  -0.1250000  -0.5532940   0.1488739), wk =   0.0026042
        k(  392) = (  -0.1250000  -0.5532940   0.2233108), wk =   0.0026042
        k(  393) = (  -0.1666667  -0.2886751   0.0744369), wk =   0.0013021
        k(  394) = (  -0.1666667  -0.2886751   0.1488739), wk =   0.0013021
        k(  395) = (  -0.1666667  -0.2886751   0.2233108), wk =   0.0013021
        k(  396) = (  -0.1666667  -0.3367877   0.0744369), wk =   0.0026042
        k(  397) = (  -0.1666667  -0.3367877   0.1488739), wk =   0.0026042
        k(  398) = (  -0.1666667  -0.3367877   0.2233108), wk =   0.0026042
        k(  399) = (  -0.1666667  -0.3849002   0.0744369), wk =   0.0026042
        k(  400) = (  -0.1666667  -0.3849002   0.1488739), wk =   0.0026042
        k(  401) = (  -0.1666667  -0.3849002   0.2233108), wk =   0.0026042
        k(  402) = (  -0.1666667  -0.4330127   0.0744369), wk =   0.0026042
        k(  403) = (  -0.1666667  -0.4330127   0.1488739), wk =   0.0026042
        k(  404) = (  -0.1666667  -0.4330127   0.2233108), wk =   0.0026042
        k(  405) = (  -0.1666667  -0.4811252   0.0744369), wk =   0.0026042
        k(  406) = (  -0.1666667  -0.4811252   0.1488739), wk =   0.0026042
        k(  407) = (  -0.1666667  -0.4811252   0.2233108), wk =   0.0026042
        k(  408) = (  -0.1666667  -0.5292377   0.0744369), wk =   0.0026042
        k(  409) = (  -0.1666667  -0.5292377   0.1488739), wk =   0.0026042
        k(  410) = (  -0.1666667  -0.5292377   0.2233108), wk =   0.0026042
        k(  411) = (  -0.1666667  -0.5773503   0.0744369), wk =   0.0013021
        k(  412) = (  -0.1666667  -0.5773503   0.1488739), wk =   0.0013021
        k(  413) = (  -0.1666667  -0.5773503   0.2233108), wk =   0.0013021
        k(  414) = (  -0.2083333  -0.3608439   0.0744369), wk =   0.0013021
        k(  415) = (  -0.2083333  -0.3608439   0.1488739), wk =   0.0013021
        k(  416) = (  -0.2083333  -0.3608439   0.2233108), wk =   0.0013021
        k(  417) = (  -0.2083333  -0.4089564   0.0744369), wk =   0.0026042
        k(  418) = (  -0.2083333  -0.4089564   0.1488739), wk =   0.0026042
        k(  419) = (  -0.2083333  -0.4089564   0.2233108), wk =   0.0026042
        k(  420) = (  -0.2083333  -0.4570690   0.0744369), wk =   0.0026042
        k(  421) = (  -0.2083333  -0.4570690   0.1488739), wk =   0.0026042
        k(  422) = (  -0.2083333  -0.4570690   0.2233108), wk =   0.0026042
        k(  423) = (  -0.2083333  -0.5051815   0.0744369), wk =   0.0026042
        k(  424) = (  -0.2083333  -0.5051815   0.1488739), wk =   0.0026042
        k(  425) = (  -0.2083333  -0.5051815   0.2233108), wk =   0.0026042
        k(  426) = (  -0.2083333  -0.5532940   0.0744369), wk =   0.0026042
        k(  427) = (  -0.2083333  -0.5532940   0.1488739), wk =   0.0026042
        k(  428) = (  -0.2083333  -0.5532940   0.2233108), wk =   0.0026042
        k(  429) = (  -0.2500000  -0.4330127   0.0744369), wk =   0.0013021
        k(  430) = (  -0.2500000  -0.4330127   0.1488739), wk =   0.0013021
        k(  431) = (  -0.2500000  -0.4330127   0.2233108), wk =   0.0013021
        k(  432) = (  -0.2500000  -0.4811252   0.0744369), wk =   0.0026042
        k(  433) = (  -0.2500000  -0.4811252   0.1488739), wk =   0.0026042
        k(  434) = (  -0.2500000  -0.4811252   0.2233108), wk =   0.0026042
        k(  435) = (  -0.2500000  -0.5292377   0.0744369), wk =   0.0026042
        k(  436) = (  -0.2500000  -0.5292377   0.1488739), wk =   0.0026042
        k(  437) = (  -0.2500000  -0.5292377   0.2233108), wk =   0.0026042
        k(  438) = (  -0.2500000  -0.5773503   0.0744369), wk =   0.0013021
        k(  439) = (  -0.2500000  -0.5773503   0.1488739), wk =   0.0013021
        k(  440) = (  -0.2500000  -0.5773503   0.2233108), wk =   0.0013021
        k(  441) = (  -0.2916667  -0.5051815   0.0744369), wk =   0.0013021
        k(  442) = (  -0.2916667  -0.5051815   0.1488739), wk =   0.0013021
        k(  443) = (  -0.2916667  -0.5051815   0.2233108), wk =   0.0013021
        k(  444) = (  -0.2916667  -0.5532940   0.0744369), wk =   0.0026042
        k(  445) = (  -0.2916667  -0.5532940   0.1488739), wk =   0.0026042
        k(  446) = (  -0.2916667  -0.5532940   0.2233108), wk =   0.0026042
        k(  447) = (  -0.3333333  -0.5773503   0.0744369), wk =   0.0004340
        k(  448) = (  -0.3333333  -0.5773503   0.1488739), wk =   0.0004340
        k(  449) = (  -0.3333333  -0.5773503   0.2233108), wk =   0.0004340

                       cryst. coord.
        k(    1) = (   0.0000000   0.0000000   0.0000000), wk =   0.0002170
        k(    2) = (   0.0000000   0.0000000   0.1250000), wk =   0.0004340
        k(    3) = (   0.0000000   0.0000000   0.2500000), wk =   0.0004340
        k(    4) = (   0.0000000   0.0000000   0.3750000), wk =   0.0004340
        k(    5) = (   0.0000000   0.0000000  -0.5000000), wk =   0.0002170
        k(    6) = (   0.0000000   0.0416667   0.0000000), wk =   0.0013021
        k(    7) = (   0.0000000   0.0416667   0.1250000), wk =   0.0026042
        k(    8) = (   0.0000000   0.0416667   0.2500000), wk =   0.0026042
        k(    9) = (   0.0000000   0.0416667   0.3750000), wk =   0.0026042
        k(   10) = (   0.0000000   0.0416667  -0.5000000), wk =   0.0013021
        k(   11) = (   0.0000000   0.0833333   0.0000000), wk =   0.0013021
        k(   12) = (   0.0000000   0.0833333   0.1250000), wk =   0.0026042
        k(   13) = (   0.0000000   0.0833333   0.2500000), wk =   0.0026042
        k(   14) = (   0.0000000   0.0833333   0.3750000), wk =   0.0026042
        k(   15) = (   0.0000000   0.0833333  -0.5000000), wk =   0.0013021
        k(   16) = (   0.0000000   0.1250000   0.0000000), wk =   0.0013021
        k(   17) = (   0.0000000   0.1250000   0.1250000), wk =   0.0026042
        k(   18) = (   0.0000000   0.1250000   0.2500000), wk =   0.0026042
        k(   19) = (   0.0000000   0.1250000   0.3750000), wk =   0.0026042
        k(   20) = (   0.0000000   0.1250000  -0.5000000), wk =   0.0013021
        k(   21) = (   0.0000000   0.1666667   0.0000000), wk =   0.0013021
        k(   22) = (   0.0000000   0.1666667   0.1250000), wk =   0.0026042
        k(   23) = (   0.0000000   0.1666667   0.2500000), wk =   0.0026042
        k(   24) = (   0.0000000   0.1666667   0.3750000), wk =   0.0026042
        k(   25) = (   0.0000000   0.1666667  -0.5000000), wk =   0.0013021
        k(   26) = (   0.0000000   0.2083333   0.0000000), wk =   0.0013021
        k(   27) = (   0.0000000   0.2083333   0.1250000), wk =   0.0026042
        k(   28) = (   0.0000000   0.2083333   0.2500000), wk =   0.0026042
        k(   29) = (   0.0000000   0.2083333   0.3750000), wk =   0.0026042
        k(   30) = (   0.0000000   0.2083333  -0.5000000), wk =   0.0013021
        k(   31) = (   0.0000000   0.2500000   0.0000000), wk =   0.0013021
        k(   32) = (   0.0000000   0.2500000   0.1250000), wk =   0.0026042
        k(   33) = (   0.0000000   0.2500000   0.2500000), wk =   0.0026042
        k(   34) = (   0.0000000   0.2500000   0.3750000), wk =   0.0026042
        k(   35) = (   0.0000000   0.2500000  -0.5000000), wk =   0.0013021
        k(   36) = (   0.0000000   0.2916667   0.0000000), wk =   0.0013021
        k(   37) = (   0.0000000   0.2916667   0.1250000), wk =   0.0026042
        k(   38) = (   0.0000000   0.2916667   0.2500000), wk =   0.0026042
        k(   39) = (   0.0000000   0.2916667   0.3750000), wk =   0.0026042
        k(   40) = (   0.0000000   0.2916667  -0.5000000), wk =   0.0013021
        k(   41) = (   0.0000000   0.3333333   0.0000000), wk =   0.0013021
        k(   42) = (   0.0000000   0.3333333   0.1250000), wk =   0.0026042
        k(   43) = (   0.0000000   0.3333333   0.2500000), wk =   0.0026042
        k(   44) = (   0.0000000   0.3333333   0.3750000), wk =   0.0026042
        k(   45) = (   0.0000000   0.3333333  -0.5000000), wk =   0.0013021
        k(   46) = (   0.0000000   0.3750000   0.0000000), wk =   0.0013021
        k(   47) = (   0.0000000   0.3750000   0.1250000), wk =   0.0026042
        k(   48) = (   0.0000000   0.3750000   0.2500000), wk =   0.0026042
        k(   49) = (   0.0000000   0.3750000   0.3750000), wk =   0.0026042
        k(   50) = (   0.0000000   0.3750000  -0.5000000), wk =   0.0013021
        k(   51) = (   0.0000000   0.4166667   0.0000000), wk =   0.0013021
        k(   52) = (   0.0000000   0.4166667   0.1250000), wk =   0.0026042
        k(   53) = (   0.0000000   0.4166667   0.2500000), wk =   0.0026042
        k(   54) = (   0.0000000   0.4166667   0.3750000), wk =   0.0026042
        k(   55) = (   0.0000000   0.4166667  -0.5000000), wk =   0.0013021
        k(   56) = (   0.0000000   0.4583333   0.0000000), wk =   0.0013021
        k(   57) = (   0.0000000   0.4583333   0.1250000), wk =   0.0026042
        k(   58) = (   0.0000000   0.4583333   0.2500000), wk =   0.0026042
        k(   59) = (   0.0000000   0.4583333   0.3750000), wk =   0.0026042
        k(   60) = (   0.0000000   0.4583333  -0.5000000), wk =   0.0013021
        k(   61) = (   0.0000000  -0.5000000   0.0000000), wk =   0.0006510
        k(   62) = (   0.0000000  -0.5000000   0.1250000), wk =   0.0013021
        k(   63) = (   0.0000000  -0.5000000   0.2500000), wk =   0.0013021
        k(   64) = (   0.0000000  -0.5000000   0.3750000), wk =   0.0013021
        k(   65) = (   0.0000000  -0.5000000  -0.5000000), wk =   0.0006510
        k(   66) = (   0.0416667   0.0416667   0.0000000), wk =   0.0013021
        k(   67) = (   0.0416667   0.0416667   0.1250000), wk =   0.0013021
        k(   68) = (   0.0416667   0.0416667   0.2500000), wk =   0.0013021
        k(   69) = (   0.0416667   0.0416667   0.3750000), wk =   0.0013021
        k(   70) = (   0.0416667   0.0416667  -0.5000000), wk =   0.0013021
        k(   71) = (   0.0416667   0.0833333   0.0000000), wk =   0.0026042
        k(   72) = (   0.0416667   0.0833333   0.1250000), wk =   0.0026042
        k(   73) = (   0.0416667   0.0833333   0.2500000), wk =   0.0026042
        k(   74) = (   0.0416667   0.0833333   0.3750000), wk =   0.0026042
        k(   75) = (   0.0416667   0.0833333  -0.5000000), wk =   0.0026042
        k(   76) = (   0.0416667   0.1250000   0.0000000), wk =   0.0026042
        k(   77) = (   0.0416667   0.1250000   0.1250000), wk =   0.0026042
        k(   78) = (   0.0416667   0.1250000   0.2500000), wk =   0.0026042
        k(   79) = (   0.0416667   0.1250000   0.3750000), wk =   0.0026042
        k(   80) = (   0.0416667   0.1250000  -0.5000000), wk =   0.0026042
        k(   81) = (   0.0416667   0.1666667   0.0000000), wk =   0.0026042
        k(   82) = (   0.0416667   0.1666667   0.1250000), wk =   0.0026042
        k(   83) = (   0.0416667   0.1666667   0.2500000), wk =   0.0026042
        k(   84) = (   0.0416667   0.1666667   0.3750000), wk =   0.0026042
        k(   85) = (   0.0416667   0.1666667  -0.5000000), wk =   0.0026042
        k(   86) = (   0.0416667   0.2083333   0.0000000), wk =   0.0026042
        k(   87) = (   0.0416667   0.2083333   0.1250000), wk =   0.0026042
        k(   88) = (   0.0416667   0.2083333   0.2500000), wk =   0.0026042
        k(   89) = (   0.0416667   0.2083333   0.3750000), wk =   0.0026042
        k(   90) = (   0.0416667   0.2083333  -0.5000000), wk =   0.0026042
        k(   91) = (   0.0416667   0.2500000   0.0000000), wk =   0.0026042
        k(   92) = (   0.0416667   0.2500000   0.1250000), wk =   0.0026042
        k(   93) = (   0.0416667   0.2500000   0.2500000), wk =   0.0026042
        k(   94) = (   0.0416667   0.2500000   0.3750000), wk =   0.0026042
        k(   95) = (   0.0416667   0.2500000  -0.5000000), wk =   0.0026042
        k(   96) = (   0.0416667   0.2916667   0.0000000), wk =   0.0026042
        k(   97) = (   0.0416667   0.2916667   0.1250000), wk =   0.0026042
        k(   98) = (   0.0416667   0.2916667   0.2500000), wk =   0.0026042
        k(   99) = (   0.0416667   0.2916667   0.3750000), wk =   0.0026042
        k(  100) = (   0.0416667   0.2916667  -0.5000000), wk =   0.0026042
        k(  101) = (   0.0416667   0.3333333   0.0000000), wk =   0.0026042
        k(  102) = (   0.0416667   0.3333333   0.1250000), wk =   0.0026042
        k(  103) = (   0.0416667   0.3333333   0.2500000), wk =   0.0026042
        k(  104) = (   0.0416667   0.3333333   0.3750000), wk =   0.0026042
        k(  105) = (   0.0416667   0.3333333  -0.5000000), wk =   0.0026042
        k(  106) = (   0.0416667   0.3750000   0.0000000), wk =   0.0026042
        k(  107) = (   0.0416667   0.3750000   0.1250000), wk =   0.0026042
        k(  108) = (   0.0416667   0.3750000   0.2500000), wk =   0.0026042
        k(  109) = (   0.0416667   0.3750000   0.3750000), wk =   0.0026042
        k(  110) = (   0.0416667   0.3750000  -0.5000000), wk =   0.0026042
        k(  111) = (   0.0416667   0.4166667   0.0000000), wk =   0.0026042
        k(  112) = (   0.0416667   0.4166667   0.1250000), wk =   0.0026042
        k(  113) = (   0.0416667   0.4166667   0.2500000), wk =   0.0026042
        k(  114) = (   0.0416667   0.4166667   0.3750000), wk =   0.0026042
        k(  115) = (   0.0416667   0.4166667  -0.5000000), wk =   0.0026042
        k(  116) = (   0.0416667   0.4583333   0.0000000), wk =   0.0026042
        k(  117) = (   0.0416667   0.4583333   0.1250000), wk =   0.0026042
        k(  118) = (   0.0416667   0.4583333   0.2500000), wk =   0.0026042
        k(  119) = (   0.0416667   0.4583333   0.3750000), wk =   0.0026042
        k(  120) = (   0.0416667   0.4583333  -0.5000000), wk =   0.0026042
        k(  121) = (   0.0833333   0.0833333   0.0000000), wk =   0.0013021
        k(  122) = (   0.0833333   0.0833333   0.1250000), wk =   0.0013021
        k(  123) = (   0.0833333   0.0833333   0.2500000), wk =   0.0013021
        k(  124) = (   0.0833333   0.0833333   0.3750000), wk =   0.0013021
        k(  125) = (   0.0833333   0.0833333  -0.5000000), wk =   0.0013021
        k(  126) = (   0.0833333   0.1250000   0.0000000), wk =   0.0026042
        k(  127) = (   0.0833333   0.1250000   0.1250000), wk =   0.0026042
        k(  128) = (   0.0833333   0.1250000   0.2500000), wk =   0.0026042
        k(  129) = (   0.0833333   0.1250000   0.3750000), wk =   0.0026042
        k(  130) = (   0.0833333   0.1250000  -0.5000000), wk =   0.0026042
        k(  131) = (   0.0833333   0.1666667   0.0000000), wk =   0.0026042
        k(  132) = (   0.0833333   0.1666667   0.1250000), wk =   0.0026042
        k(  133) = (   0.0833333   0.1666667   0.2500000), wk =   0.0026042
        k(  134) = (   0.0833333   0.1666667   0.3750000), wk =   0.0026042
        k(  135) = (   0.0833333   0.1666667  -0.5000000), wk =   0.0026042
        k(  136) = (   0.0833333   0.2083333   0.0000000), wk =   0.0026042
        k(  137) = (   0.0833333   0.2083333   0.1250000), wk =   0.0026042
        k(  138) = (   0.0833333   0.2083333   0.2500000), wk =   0.0026042
        k(  139) = (   0.0833333   0.2083333   0.3750000), wk =   0.0026042
        k(  140) = (   0.0833333   0.2083333  -0.5000000), wk =   0.0026042
        k(  141) = (   0.0833333   0.2500000   0.0000000), wk =   0.0026042
        k(  142) = (   0.0833333   0.2500000   0.1250000), wk =   0.0026042
        k(  143) = (   0.0833333   0.2500000   0.2500000), wk =   0.0026042
        k(  144) = (   0.0833333   0.2500000   0.3750000), wk =   0.0026042
        k(  145) = (   0.0833333   0.2500000  -0.5000000), wk =   0.0026042
        k(  146) = (   0.0833333   0.2916667   0.0000000), wk =   0.0026042
        k(  147) = (   0.0833333   0.2916667   0.1250000), wk =   0.0026042
        k(  148) = (   0.0833333   0.2916667   0.2500000), wk =   0.0026042
        k(  149) = (   0.0833333   0.2916667   0.3750000), wk =   0.0026042
        k(  150) = (   0.0833333   0.2916667  -0.5000000), wk =   0.0026042
        k(  151) = (   0.0833333   0.3333333   0.0000000), wk =   0.0026042
        k(  152) = (   0.0833333   0.3333333   0.1250000), wk =   0.0026042
        k(  153) = (   0.0833333   0.3333333   0.2500000), wk =   0.0026042
        k(  154) = (   0.0833333   0.3333333   0.3750000), wk =   0.0026042
        k(  155) = (   0.0833333   0.3333333  -0.5000000), wk =   0.0026042
        k(  156) = (   0.0833333   0.3750000   0.0000000), wk =   0.0026042
        k(  157) = (   0.0833333   0.3750000   0.1250000), wk =   0.0026042
        k(  158) = (   0.0833333   0.3750000   0.2500000), wk =   0.0026042
        k(  159) = (   0.0833333   0.3750000   0.3750000), wk =   0.0026042
        k(  160) = (   0.0833333   0.3750000  -0.5000000), wk =   0.0026042
        k(  161) = (   0.0833333   0.4166667   0.0000000), wk =   0.0026042
        k(  162) = (   0.0833333   0.4166667   0.1250000), wk =   0.0026042
        k(  163) = (   0.0833333   0.4166667   0.2500000), wk =   0.0026042
        k(  164) = (   0.0833333   0.4166667   0.3750000), wk =   0.0026042
        k(  165) = (   0.0833333   0.4166667  -0.5000000), wk =   0.0026042
        k(  166) = (   0.0833333   0.4583333   0.0000000), wk =   0.0013021
        k(  167) = (   0.0833333   0.4583333   0.1250000), wk =   0.0013021
        k(  168) = (   0.0833333   0.4583333   0.2500000), wk =   0.0013021
        k(  169) = (   0.0833333   0.4583333   0.3750000), wk =   0.0013021
        k(  170) = (   0.0833333   0.4583333  -0.5000000), wk =   0.0013021
        k(  171) = (   0.1250000   0.1250000   0.0000000), wk =   0.0013021
        k(  172) = (   0.1250000   0.1250000   0.1250000), wk =   0.0013021
        k(  173) = (   0.1250000   0.1250000   0.2500000), wk =   0.0013021
        k(  174) = (   0.1250000   0.1250000   0.3750000), wk =   0.0013021
        k(  175) = (   0.1250000   0.1250000  -0.5000000), wk =   0.0013021
        k(  176) = (   0.1250000   0.1666667   0.0000000), wk =   0.0026042
        k(  177) = (   0.1250000   0.1666667   0.1250000), wk =   0.0026042
        k(  178) = (   0.1250000   0.1666667   0.2500000), wk =   0.0026042
        k(  179) = (   0.1250000   0.1666667   0.3750000), wk =   0.0026042
        k(  180) = (   0.1250000   0.1666667  -0.5000000), wk =   0.0026042
        k(  181) = (   0.1250000   0.2083333   0.0000000), wk =   0.0026042
        k(  182) = (   0.1250000   0.2083333   0.1250000), wk =   0.0026042
        k(  183) = (   0.1250000   0.2083333   0.2500000), wk =   0.0026042
        k(  184) = (   0.1250000   0.2083333   0.3750000), wk =   0.0026042
        k(  185) = (   0.1250000   0.2083333  -0.5000000), wk =   0.0026042
        k(  186) = (   0.1250000   0.2500000   0.0000000), wk =   0.0026042
        k(  187) = (   0.1250000   0.2500000   0.1250000), wk =   0.0026042
        k(  188) = (   0.1250000   0.2500000   0.2500000), wk =   0.0026042
        k(  189) = (   0.1250000   0.2500000   0.3750000), wk =   0.0026042
        k(  190) = (   0.1250000   0.2500000  -0.5000000), wk =   0.0026042
        k(  191) = (   0.1250000   0.2916667   0.0000000), wk =   0.0026042
        k(  192) = (   0.1250000   0.2916667   0.1250000), wk =   0.0026042
        k(  193) = (   0.1250000   0.2916667   0.2500000), wk =   0.0026042
        k(  194) = (   0.1250000   0.2916667   0.3750000), wk =   0.0026042
        k(  195) = (   0.1250000   0.2916667  -0.5000000), wk =   0.0026042
        k(  196) = (   0.1250000   0.3333333   0.0000000), wk =   0.0026042
        k(  197) = (   0.1250000   0.3333333   0.1250000), wk =   0.0026042
        k(  198) = (   0.1250000   0.3333333   0.2500000), wk =   0.0026042
        k(  199) = (   0.1250000   0.3333333   0.3750000), wk =   0.0026042
        k(  200) = (   0.1250000   0.3333333  -0.5000000), wk =   0.0026042
        k(  201) = (   0.1250000   0.3750000   0.0000000), wk =   0.0026042
        k(  202) = (   0.1250000   0.3750000   0.1250000), wk =   0.0026042
        k(  203) = (   0.1250000   0.3750000   0.2500000), wk =   0.0026042
        k(  204) = (   0.1250000   0.3750000   0.3750000), wk =   0.0026042
        k(  205) = (   0.1250000   0.3750000  -0.5000000), wk =   0.0026042
        k(  206) = (   0.1250000   0.4166667   0.0000000), wk =   0.0026042
        k(  207) = (   0.1250000   0.4166667   0.1250000), wk =   0.0026042
        k(  208) = (   0.1250000   0.4166667   0.2500000), wk =   0.0026042
        k(  209) = (   0.1250000   0.4166667   0.3750000), wk =   0.0026042
        k(  210) = (   0.1250000   0.4166667  -0.5000000), wk =   0.0026042
        k(  211) = (   0.1666667   0.1666667   0.0000000), wk =   0.0013021
        k(  212) = (   0.1666667   0.1666667   0.1250000), wk =   0.0013021
        k(  213) = (   0.1666667   0.1666667   0.2500000), wk =   0.0013021
        k(  214) = (   0.1666667   0.1666667   0.3750000), wk =   0.0013021
        k(  215) = (   0.1666667   0.1666667  -0.5000000), wk =   0.0013021
        k(  216) = (   0.1666667   0.2083333   0.0000000), wk =   0.0026042
        k(  217) = (   0.1666667   0.2083333   0.1250000), wk =   0.0026042
        k(  218) = (   0.1666667   0.2083333   0.2500000), wk =   0.0026042
        k(  219) = (   0.1666667   0.2083333   0.3750000), wk =   0.0026042
        k(  220) = (   0.1666667   0.2083333  -0.5000000), wk =   0.0026042
        k(  221) = (   0.1666667   0.2500000   0.0000000), wk =   0.0026042
        k(  222) = (   0.1666667   0.2500000   0.1250000), wk =   0.0026042
        k(  223) = (   0.1666667   0.2500000   0.2500000), wk =   0.0026042
        k(  224) = (   0.1666667   0.2500000   0.3750000), wk =   0.0026042
        k(  225) = (   0.1666667   0.2500000  -0.5000000), wk =   0.0026042
        k(  226) = (   0.1666667   0.2916667   0.0000000), wk =   0.0026042
        k(  227) = (   0.1666667   0.2916667   0.1250000), wk =   0.0026042
        k(  228) = (   0.1666667   0.2916667   0.2500000), wk =   0.0026042
        k(  229) = (   0.1666667   0.2916667   0.3750000), wk =   0.0026042
        k(  230) = (   0.1666667   0.2916667  -0.5000000), wk =   0.0026042
        k(  231) = (   0.1666667   0.3333333   0.0000000), wk =   0.0026042
        k(  232) = (   0.1666667   0.3333333   0.1250000), wk =   0.0026042
        k(  233) = (   0.1666667   0.3333333   0.2500000), wk =   0.0026042
        k(  234) = (   0.1666667   0.3333333   0.3750000), wk =   0.0026042
        k(  235) = (   0.1666667   0.3333333  -0.5000000), wk =   0.0026042
        k(  236) = (   0.1666667   0.3750000   0.0000000), wk =   0.0026042
        k(  237) = (   0.1666667   0.3750000   0.1250000), wk =   0.0026042
        k(  238) = (   0.1666667   0.3750000   0.2500000), wk =   0.0026042
        k(  239) = (   0.1666667   0.3750000   0.3750000), wk =   0.0026042
        k(  240) = (   0.1666667   0.3750000  -0.5000000), wk =   0.0026042
        k(  241) = (   0.1666667   0.4166667   0.0000000), wk =   0.0013021
        k(  242) = (   0.1666667   0.4166667   0.1250000), wk =   0.0013021
        k(  243) = (   0.1666667   0.4166667   0.2500000), wk =   0.0013021
        k(  244) = (   0.1666667   0.4166667   0.3750000), wk =   0.0013021
        k(  245) = (   0.1666667   0.4166667  -0.5000000), wk =   0.0013021
        k(  246) = (   0.2083333   0.2083333   0.0000000), wk =   0.0013021
        k(  247) = (   0.2083333   0.2083333   0.1250000), wk =   0.0013021
        k(  248) = (   0.2083333   0.2083333   0.2500000), wk =   0.0013021
        k(  249) = (   0.2083333   0.2083333   0.3750000), wk =   0.0013021
        k(  250) = (   0.2083333   0.2083333  -0.5000000), wk =   0.0013021
        k(  251) = (   0.2083333   0.2500000   0.0000000), wk =   0.0026042
        k(  252) = (   0.2083333   0.2500000   0.1250000), wk =   0.0026042
        k(  253) = (   0.2083333   0.2500000   0.2500000), wk =   0.0026042
        k(  254) = (   0.2083333   0.2500000   0.3750000), wk =   0.0026042
        k(  255) = (   0.2083333   0.2500000  -0.5000000), wk =   0.0026042
        k(  256) = (   0.2083333   0.2916667   0.0000000), wk =   0.0026042
        k(  257) = (   0.2083333   0.2916667   0.1250000), wk =   0.0026042
        k(  258) = (   0.2083333   0.2916667   0.2500000), wk =   0.0026042
        k(  259) = (   0.2083333   0.2916667   0.3750000), wk =   0.0026042
        k(  260) = (   0.2083333   0.2916667  -0.5000000), wk =   0.0026042
        k(  261) = (   0.2083333   0.3333333   0.0000000), wk =   0.0026042
        k(  262) = (   0.2083333   0.3333333   0.1250000), wk =   0.0026042
        k(  263) = (   0.2083333   0.3333333   0.2500000), wk =   0.0026042
        k(  264) = (   0.2083333   0.3333333   0.3750000), wk =   0.0026042
        k(  265) = (   0.2083333   0.3333333  -0.5000000), wk =   0.0026042
        k(  266) = (   0.2083333   0.3750000   0.0000000), wk =   0.0026042
        k(  267) = (   0.2083333   0.3750000   0.1250000), wk =   0.0026042
        k(  268) = (   0.2083333   0.3750000   0.2500000), wk =   0.0026042
        k(  269) = (   0.2083333   0.3750000   0.3750000), wk =   0.0026042
        k(  270) = (   0.2083333   0.3750000  -0.5000000), wk =   0.0026042
        k(  271) = (   0.2500000   0.2500000   0.0000000), wk =   0.0013021
        k(  272) = (   0.2500000   0.2500000   0.1250000), wk =   0.0013021
        k(  273) = (   0.2500000   0.2500000   0.2500000), wk =   0.0013021
        k(  274) = (   0.2500000   0.2500000   0.3750000), wk =   0.0013021
        k(  275) = (   0.2500000   0.2500000  -0.5000000), wk =   0.0013021
        k(  276) = (   0.2500000   0.2916667   0.0000000), wk =   0.0026042
        k(  277) = (   0.2500000   0.2916667   0.1250000), wk =   0.0026042
        k(  278) = (   0.2500000   0.2916667   0.2500000), wk =   0.0026042
        k(  279) = (   0.2500000   0.2916667   0.3750000), wk =   0.0026042
        k(  280) = (   0.2500000   0.2916667  -0.5000000), wk =   0.0026042
        k(  281) = (   0.2500000   0.3333333   0.0000000), wk =   0.0026042
        k(  282) = (   0.2500000   0.3333333   0.1250000), wk =   0.0026042
        k(  283) = (   0.2500000   0.3333333   0.2500000), wk =   0.0026042
        k(  284) = (   0.2500000   0.3333333   0.3750000), wk =   0.0026042
        k(  285) = (   0.2500000   0.3333333  -0.5000000), wk =   0.0026042
        k(  286) = (   0.2500000   0.3750000   0.0000000), wk =   0.0013021
        k(  287) = (   0.2500000   0.3750000   0.1250000), wk =   0.0013021
        k(  288) = (   0.2500000   0.3750000   0.2500000), wk =   0.0013021
        k(  289) = (   0.2500000   0.3750000   0.3750000), wk =   0.0013021
        k(  290) = (   0.2500000   0.3750000  -0.5000000), wk =   0.0013021
        k(  291) = (   0.2916667   0.2916667   0.0000000), wk =   0.0013021
        k(  292) = (   0.2916667   0.2916667   0.1250000), wk =   0.0013021
        k(  293) = (   0.2916667   0.2916667   0.2500000), wk =   0.0013021
        k(  294) = (   0.2916667   0.2916667   0.3750000), wk =   0.0013021
        k(  295) = (   0.2916667   0.2916667  -0.5000000), wk =   0.0013021
        k(  296) = (   0.2916667   0.3333333   0.0000000), wk =   0.0026042
        k(  297) = (   0.2916667   0.3333333   0.1250000), wk =   0.0026042
        k(  298) = (   0.2916667   0.3333333   0.2500000), wk =   0.0026042
        k(  299) = (   0.2916667   0.3333333   0.3750000), wk =   0.0026042
        k(  300) = (   0.2916667   0.3333333  -0.5000000), wk =   0.0026042
        k(  301) = (   0.3333333   0.3333333   0.0000000), wk =   0.0004340
        k(  302) = (   0.3333333   0.3333333   0.1250000), wk =   0.0004340
        k(  303) = (   0.3333333   0.3333333   0.2500000), wk =   0.0004340
        k(  304) = (   0.3333333   0.3333333   0.3750000), wk =   0.0004340
        k(  305) = (   0.3333333   0.3333333  -0.5000000), wk =   0.0004340
        k(  306) = (  -0.0416667  -0.0416667   0.1250000), wk =   0.0013021
        k(  307) = (  -0.0416667  -0.0416667   0.2500000), wk =   0.0013021
        k(  308) = (  -0.0416667  -0.0416667   0.3750000), wk =   0.0013021
        k(  309) = (  -0.0416667  -0.0833333   0.1250000), wk =   0.0026042
        k(  310) = (  -0.0416667  -0.0833333   0.2500000), wk =   0.0026042
        k(  311) = (  -0.0416667  -0.0833333   0.3750000), wk =   0.0026042
        k(  312) = (  -0.0416667  -0.1250000   0.1250000), wk =   0.0026042
        k(  313) = (  -0.0416667  -0.1250000   0.2500000), wk =   0.0026042
        k(  314) = (  -0.0416667  -0.1250000   0.3750000), wk =   0.0026042
        k(  315) = (  -0.0416667  -0.1666667   0.1250000), wk =   0.0026042
        k(  316) = (  -0.0416667  -0.1666667   0.2500000), wk =   0.0026042
        k(  317) = (  -0.0416667  -0.1666667   0.3750000), wk =   0.0026042
        k(  318) = (  -0.0416667  -0.2083333   0.1250000), wk =   0.0026042
        k(  319) = (  -0.0416667  -0.2083333   0.2500000), wk =   0.0026042
        k(  320) = (  -0.0416667  -0.2083333   0.3750000), wk =   0.0026042
        k(  321) = (  -0.0416667  -0.2500000   0.1250000), wk =   0.0026042
        k(  322) = (  -0.0416667  -0.2500000   0.2500000), wk =   0.0026042
        k(  323) = (  -0.0416667  -0.2500000   0.3750000), wk =   0.0026042
        k(  324) = (  -0.0416667  -0.2916667   0.1250000), wk =   0.0026042
        k(  325) = (  -0.0416667  -0.2916667   0.2500000), wk =   0.0026042
        k(  326) = (  -0.0416667  -0.2916667   0.3750000), wk =   0.0026042
        k(  327) = (  -0.0416667  -0.3333333   0.1250000), wk =   0.0026042
        k(  328) = (  -0.0416667  -0.3333333   0.2500000), wk =   0.0026042
        k(  329) = (  -0.0416667  -0.3333333   0.3750000), wk =   0.0026042
        k(  330) = (  -0.0416667  -0.3750000   0.1250000), wk =   0.0026042
        k(  331) = (  -0.0416667  -0.3750000   0.2500000), wk =   0.0026042
        k(  332) = (  -0.0416667  -0.3750000   0.3750000), wk =   0.0026042
        k(  333) = (  -0.0416667  -0.4166667   0.1250000), wk =   0.0026042
        k(  334) = (  -0.0416667  -0.4166667   0.2500000), wk =   0.0026042
        k(  335) = (  -0.0416667  -0.4166667   0.3750000), wk =   0.0026042
        k(  336) = (  -0.0416667  -0.4583333   0.1250000), wk =   0.0026042
        k(  337) = (  -0.0416667  -0.4583333   0.2500000), wk =   0.0026042
        k(  338) = (  -0.0416667  -0.4583333   0.3750000), wk =   0.0026042
        k(  339) = (  -0.0833333  -0.0833333   0.1250000), wk =   0.0013021
        k(  340) = (  -0.0833333  -0.0833333   0.2500000), wk =   0.0013021
        k(  341) = (  -0.0833333  -0.0833333   0.3750000), wk =   0.0013021
        k(  342) = (  -0.0833333  -0.1250000   0.1250000), wk =   0.0026042
        k(  343) = (  -0.0833333  -0.1250000   0.2500000), wk =   0.0026042
        k(  344) = (  -0.0833333  -0.1250000   0.3750000), wk =   0.0026042
        k(  345) = (  -0.0833333  -0.1666667   0.1250000), wk =   0.0026042
        k(  346) = (  -0.0833333  -0.1666667   0.2500000), wk =   0.0026042
        k(  347) = (  -0.0833333  -0.1666667   0.3750000), wk =   0.0026042
        k(  348) = (  -0.0833333  -0.2083333   0.1250000), wk =   0.0026042
        k(  349) = (  -0.0833333  -0.2083333   0.2500000), wk =   0.0026042
        k(  350) = (  -0.0833333  -0.2083333   0.3750000), wk =   0.0026042
        k(  351) = (  -0.0833333  -0.2500000   0.1250000), wk =   0.0026042
        k(  352) = (  -0.0833333  -0.2500000   0.2500000), wk =   0.0026042
        k(  353) = (  -0.0833333  -0.2500000   0.3750000), wk =   0.0026042
        k(  354) = (  -0.0833333  -0.2916667   0.1250000), wk =   0.0026042
        k(  355) = (  -0.0833333  -0.2916667   0.2500000), wk =   0.0026042
        k(  356) = (  -0.0833333  -0.2916667   0.3750000), wk =   0.0026042
        k(  357) = (  -0.0833333  -0.3333333   0.1250000), wk =   0.0026042
        k(  358) = (  -0.0833333  -0.3333333   0.2500000), wk =   0.0026042
        k(  359) = (  -0.0833333  -0.3333333   0.3750000), wk =   0.0026042
        k(  360) = (  -0.0833333  -0.3750000   0.1250000), wk =   0.0026042
        k(  361) = (  -0.0833333  -0.3750000   0.2500000), wk =   0.0026042
        k(  362) = (  -0.0833333  -0.3750000   0.3750000), wk =   0.0026042
        k(  363) = (  -0.0833333  -0.4166667   0.1250000), wk =   0.0026042
        k(  364) = (  -0.0833333  -0.4166667   0.2500000), wk =   0.0026042
        k(  365) = (  -0.0833333  -0.4166667   0.3750000), wk =   0.0026042
        k(  366) = (  -0.0833333  -0.4583333   0.1250000), wk =   0.0013021
        k(  367) = (  -0.0833333  -0.4583333   0.2500000), wk =   0.0013021
        k(  368) = (  -0.0833333  -0.4583333   0.3750000), wk =   0.0013021
        k(  369) = (  -0.1250000  -0.1250000   0.1250000), wk =   0.0013021
        k(  370) = (  -0.1250000  -0.1250000   0.2500000), wk =   0.0013021
        k(  371) = (  -0.1250000  -0.1250000   0.3750000), wk =   0.0013021
        k(  372) = (  -0.1250000  -0.1666667   0.1250000), wk =   0.0026042
        k(  373) = (  -0.1250000  -0.1666667   0.2500000), wk =   0.0026042
        k(  374) = (  -0.1250000  -0.1666667   0.3750000), wk =   0.0026042
        k(  375) = (  -0.1250000  -0.2083333   0.1250000), wk =   0.0026042
        k(  376) = (  -0.1250000  -0.2083333   0.2500000), wk =   0.0026042
        k(  377) = (  -0.1250000  -0.2083333   0.3750000), wk =   0.0026042
        k(  378) = (  -0.1250000  -0.2500000   0.1250000), wk =   0.0026042
        k(  379) = (  -0.1250000  -0.2500000   0.2500000), wk =   0.0026042
        k(  380) = (  -0.1250000  -0.2500000   0.3750000), wk =   0.0026042
        k(  381) = (  -0.1250000  -0.2916667   0.1250000), wk =   0.0026042
        k(  382) = (  -0.1250000  -0.2916667   0.2500000), wk =   0.0026042
        k(  383) = (  -0.1250000  -0.2916667   0.3750000), wk =   0.0026042
        k(  384) = (  -0.1250000  -0.3333333   0.1250000), wk =   0.0026042
        k(  385) = (  -0.1250000  -0.3333333   0.2500000), wk =   0.0026042
        k(  386) = (  -0.1250000  -0.3333333   0.3750000), wk =   0.0026042
        k(  387) = (  -0.1250000  -0.3750000   0.1250000), wk =   0.0026042
        k(  388) = (  -0.1250000  -0.3750000   0.2500000), wk =   0.0026042
        k(  389) = (  -0.1250000  -0.3750000   0.3750000), wk =   0.0026042
        k(  390) = (  -0.1250000  -0.4166667   0.1250000), wk =   0.0026042
        k(  391) = (  -0.1250000  -0.4166667   0.2500000), wk =   0.0026042
        k(  392) = (  -0.1250000  -0.4166667   0.3750000), wk =   0.0026042
        k(  393) = (  -0.1666667  -0.1666667   0.1250000), wk =   0.0013021
        k(  394) = (  -0.1666667  -0.1666667   0.2500000), wk =   0.0013021
        k(  395) = (  -0.1666667  -0.1666667   0.3750000), wk =   0.0013021
        k(  396) = (  -0.1666667  -0.2083333   0.1250000), wk =   0.0026042
        k(  397) = (  -0.1666667  -0.2083333   0.2500000), wk =   0.0026042
        k(  398) = (  -0.1666667  -0.2083333   0.3750000), wk =   0.0026042
        k(  399) = (  -0.1666667  -0.2500000   0.1250000), wk =   0.0026042
        k(  400) = (  -0.1666667  -0.2500000   0.2500000), wk =   0.0026042
        k(  401) = (  -0.1666667  -0.2500000   0.3750000), wk =   0.0026042
        k(  402) = (  -0.1666667  -0.2916667   0.1250000), wk =   0.0026042
        k(  403) = (  -0.1666667  -0.2916667   0.2500000), wk =   0.0026042
        k(  404) = (  -0.1666667  -0.2916667   0.3750000), wk =   0.0026042
        k(  405) = (  -0.1666667  -0.3333333   0.1250000), wk =   0.0026042
        k(  406) = (  -0.1666667  -0.3333333   0.2500000), wk =   0.0026042
        k(  407) = (  -0.1666667  -0.3333333   0.3750000), wk =   0.0026042
        k(  408) = (  -0.1666667  -0.3750000   0.1250000), wk =   0.0026042
        k(  409) = (  -0.1666667  -0.3750000   0.2500000), wk =   0.0026042
        k(  410) = (  -0.1666667  -0.3750000   0.3750000), wk =   0.0026042
        k(  411) = (  -0.1666667  -0.4166667   0.1250000), wk =   0.0013021
        k(  412) = (  -0.1666667  -0.4166667   0.2500000), wk =   0.0013021
        k(  413) = (  -0.1666667  -0.4166667   0.3750000), wk =   0.0013021
        k(  414) = (  -0.2083333  -0.2083333   0.1250000), wk =   0.0013021
        k(  415) = (  -0.2083333  -0.2083333   0.2500000), wk =   0.0013021
        k(  416) = (  -0.2083333  -0.2083333   0.3750000), wk =   0.0013021
        k(  417) = (  -0.2083333  -0.2500000   0.1250000), wk =   0.0026042
        k(  418) = (  -0.2083333  -0.2500000   0.2500000), wk =   0.0026042
        k(  419) = (  -0.2083333  -0.2500000   0.3750000), wk =   0.0026042
        k(  420) = (  -0.2083333  -0.2916667   0.1250000), wk =   0.0026042
        k(  421) = (  -0.2083333  -0.2916667   0.2500000), wk =   0.0026042
        k(  422) = (  -0.2083333  -0.2916667   0.3750000), wk =   0.0026042
        k(  423) = (  -0.2083333  -0.3333333   0.1250000), wk =   0.0026042
        k(  424) = (  -0.2083333  -0.3333333   0.2500000), wk =   0.0026042
        k(  425) = (  -0.2083333  -0.3333333   0.3750000), wk =   0.0026042
        k(  426) = (  -0.2083333  -0.3750000   0.1250000), wk =   0.0026042
        k(  427) = (  -0.2083333  -0.3750000   0.2500000), wk =   0.0026042
        k(  428) = (  -0.2083333  -0.3750000   0.3750000), wk =   0.0026042
        k(  429) = (  -0.2500000  -0.2500000   0.1250000), wk =   0.0013021
        k(  430) = (  -0.2500000  -0.2500000   0.2500000), wk =   0.0013021
        k(  431) = (  -0.2500000  -0.2500000   0.3750000), wk =   0.0013021
        k(  432) = (  -0.2500000  -0.2916667   0.1250000), wk =   0.0026042
        k(  433) = (  -0.2500000  -0.2916667   0.2500000), wk =   0.0026042
        k(  434) = (  -0.2500000  -0.2916667   0.3750000), wk =   0.0026042
        k(  435) = (  -0.2500000  -0.3333333   0.1250000), wk =   0.0026042
        k(  436) = (  -0.2500000  -0.3333333   0.2500000), wk =   0.0026042
        k(  437) = (  -0.2500000  -0.3333333   0.3750000), wk =   0.0026042
        k(  438) = (  -0.2500000  -0.3750000   0.1250000), wk =   0.0013021
        k(  439) = (  -0.2500000  -0.3750000   0.2500000), wk =   0.0013021
        k(  440) = (  -0.2500000  -0.3750000   0.3750000), wk =   0.0013021
        k(  441) = (  -0.2916667  -0.2916667   0.1250000), wk =   0.0013021
        k(  442) = (  -0.2916667  -0.2916667   0.2500000), wk =   0.0013021
        k(  443) = (  -0.2916667  -0.2916667   0.3750000), wk =   0.0013021
        k(  444) = (  -0.2916667  -0.3333333   0.1250000), wk =   0.0026042
        k(  445) = (  -0.2916667  -0.3333333   0.2500000), wk =   0.0026042
        k(  446) = (  -0.2916667  -0.3333333   0.3750000), wk =   0.0026042
        k(  447) = (  -0.3333333  -0.3333333   0.1250000), wk =   0.0004340
        k(  448) = (  -0.3333333  -0.3333333   0.2500000), wk =   0.0004340
        k(  449) = (  -0.3333333  -0.3333333   0.3750000), wk =   0.0004340

     Dense  grid:   218019 G-vectors     FFT dimensions: (  72,  72, 120)

     Smooth grid:    77149 G-vectors     FFT dimensions: (  48,  48,  80)

     Dynamical RAM for                 wfc:       9.41 MB

     Dynamical RAM for     wfc (w. buffer):       9.41 MB

     Dynamical RAM for           str. fact:       9.98 MB

     Dynamical RAM for           local pot:       0.00 MB

     Dynamical RAM for          nlocal pot:      16.18 MB

     Dynamical RAM for                qrad:       5.27 MB

     Dynamical RAM for          rho,v,vnew:      48.44 MB

     Dynamical RAM for           G-vectors:      13.06 MB

     Dynamical RAM for          h,s,v(r/c):       0.75 MB

     Dynamical RAM for          <psi|beta>:       0.11 MB

     Dynamical RAM for                 psi:      18.83 MB

     Dynamical RAM for                hpsi:      18.83 MB

     Dynamical RAM for                spsi:      18.83 MB

     Dynamical RAM for      wfcinit/wfcrot:      18.92 MB

     Dynamical RAM for           addusdens:     642.05 MB

     Estimated static dynamical RAM per process >     144.13 MB

     Estimated max dynamical RAM per process >     786.19 MB

     Check: negative core charge=   -0.000007
     Generating pointlists ...
     new r_m :   0.1587 (alat units)  1.4998 (a.u.) for type    1
     new r_m :   0.1587 (alat units)  1.4998 (a.u.) for type    2
     new r_m :   0.2471 (alat units)  2.3360 (a.u.) for type    3

[...]
     3.0210   3.0446   3.0498   3.1913   3.3086   3.3332   3.5511   3.6455
     3.7605   5.0339   5.1525   5.2629   5.8301   5.8601   5.9023   6.4219
     7.2913   7.9236  10.2994  11.0952  11.7218  13.1998  13.5711  13.9969

     occupation numbers 
     1.0000   1.0000   1.0000   1.0000   1.0000   1.0000   1.0000   1.0000
     1.0000   1.0000   1.0000   1.0000   1.0000   1.0000   1.0000   1.0000
     1.0000   1.0000   1.0000   1.0000   1.0000   1.0000   1.0000   1.0000
     1.0000   1.0000   1.0000   1.0000   1.0000   1.0000   1.0000   1.0000
     1.0000   1.0000   1.0000   1.0000   1.0000   1.0000   1.0000   1.0000
     1.0352   1.0426   1.0444   1.0831   1.0309   1.0009   0.4878   0.2615
     0.0916   0.0000   0.0000   0.0000   0.0000   0.0000   0.0000   0.0000
     0.0000   0.0000   0.0000   0.0000   0.0000   0.0000   0.0000   0.0000

          k =-0.2500-0.5774 0.0744 (  9617 PWs)   bands (ev):

   -91.5747 -91.5742 -91.5610 -54.9001 -54.8919 -54.8886 -54.8644 -54.8589
   -54.8570 -54.7059 -54.7050 -54.6917 -50.4502 -22.3691 -22.3690 -22.3052
   -14.7922 -14.7864 -14.5309 -13.8864 -13.8408 -13.8390  -2.3178  -2.0011
    -1.9809  -1.2986  -1.2636  -1.2604  -0.8698  -0.8692  -0.8033  -0.3149
    -0.2571  -0.0744   0.6924   0.7063   0.7121   1.6333   1.9393   1.9585
     3.0173   3.0499   3.0505   3.1834   3.3233   3.3276   3.5505   3.6936
     3.7067   5.0911   5.1312   5.2686   5.8407   5.8453   5.9173   6.4594
     7.1507   7.8908  10.4570  11.0674  11.6933  13.2856  13.4691  13.7776

     occupation numbers 
     1.0000   1.0000   1.0000   1.0000   1.0000   1.0000   1.0000   1.0000
     1.0000   1.0000   1.0000   1.0000   1.0000   1.0000   1.0000   1.0000
     1.0000   1.0000   1.0000   1.0000   1.0000   1.0000   1.0000   1.0000
     1.0000   1.0000   1.0000   1.0000   1.0000   1.0000   1.0000   1.0000
     1.0000   1.0000   1.0000   1.0000   1.0000   1.0000   1.0000   1.0000
     1.0341   1.0444   1.0446   1.0825   1.0138   1.0084   0.4893   0.1754
     0.1558   0.0000   0.0000   0.0000   0.0000   0.0000   0.0000   0.0000
     0.0000   0.0000   0.0000   0.0000   0.0000   0.0000   0.0000   0.0000

          k =-0.2500-0.5774 0.1489 (  9647 PWs)   bands (ev):

   -91.5747 -91.5742 -91.5610 -54.9002 -54.8919 -54.8886 -54.8644 -54.8590
   -54.8571 -54.7059 -54.7051 -54.6918 -50.4503 -22.3692 -22.3691 -22.3052
   -14.7921 -14.7864 -14.5309 -13.8864 -13.8408 -13.8390  -2.3181  -2.0019
    -1.9814  -1.2992  -1.2638  -1.2606  -0.8698  -0.8692  -0.8033  -0.3114
    -0.2551  -0.0728   0.6923   0.7063   0.7121   1.6330   1.9376   1.9560
     3.0168   3.0488   3.0498   3.1834   3.3229   3.3273   3.5499   3.6930
     3.7065   5.0885   5.1302   5.2689   5.8415   5.8456   5.9172   6.4636
     7.1544   7.8832  10.4642  11.0560  11.7357  13.2379  13.4856  13.8419

     occupation numbers 
     1.0000   1.0000   1.0000   1.0000   1.0000   1.0000   1.0000   1.0000
     1.0000   1.0000   1.0000   1.0000   1.0000   1.0000   1.0000   1.0000
     1.0000   1.0000   1.0000   1.0000   1.0000   1.0000   1.0000   1.0000
     1.0000   1.0000   1.0000   1.0000   1.0000   1.0000   1.0000   1.0000
     1.0000   1.0000   1.0000   1.0000   1.0000   1.0000   1.0000   1.0000
     1.0340   1.0440   1.0444   1.0825   1.0144   1.0088   0.4909   0.1762
     0.1561   0.0000   0.0000   0.0000   0.0000   0.0000   0.0000   0.0000
     0.0000   0.0000   0.0000   0.0000   0.0000   0.0000   0.0000   0.0000

          k =-0.2500-0.5774 0.2233 (  9628 PWs)   bands (ev):

   -91.5747 -91.5742 -91.5610 -54.9001 -54.8919 -54.8886 -54.8644 -54.8590
   -54.8571 -54.7059 -54.7050 -54.6917 -50.4503 -22.3692 -22.3690 -22.3051
   -14.7921 -14.7864 -14.5309 -13.8865 -13.8409 -13.8390  -2.3183  -2.0026
    -1.9818  -1.2996  -1.2639  -1.2606  -0.8697  -0.8691  -0.8033  -0.3084
    -0.2533  -0.0715   0.6923   0.7063   0.7121   1.6335   1.9368   1.9547
     3.0161   3.0476   3.0489   3.1834   3.3224   3.3269   3.5503   3.6956
     3.7083   5.0582   5.1151   5.2602   5.8447   5.8467   5.9172   6.5096
     7.1856   7.9006  10.4039  10.9832  11.6992  13.1946  13.6208  14.0193

     occupation numbers 
     1.0000   1.0000   1.0000   1.0000   1.0000   1.0000   1.0000   1.0000
     1.0000   1.0000   1.0000   1.0000   1.0000   1.0000   1.0000   1.0000
     1.0000   1.0000   1.0000   1.0000   1.0000   1.0000   1.0000   1.0000
     1.0000   1.0000   1.0000   1.0000   1.0000   1.0000   1.0000   1.0000
     1.0000   1.0000   1.0000   1.0000   1.0000   1.0000   1.0000   1.0000
     1.0338   1.0436   1.0441   1.0825   1.0150   1.0092   0.4899   0.1723
     0.1535   0.0000   0.0000   0.0000   0.0000   0.0000   0.0000   0.0000
     0.0000   0.0000   0.0000   0.0000   0.0000   0.0000   0.0000   0.0000

          k =-0.2917-0.5052 0.0744 (  9624 PWs)   bands (ev):

   -91.5748 -91.5741 -91.5610 -54.8985 -54.8956 -54.8865 -54.8646 -54.8592
   -54.8566 -54.7060 -54.7050 -54.6917 -50.4502 -22.3691 -22.3690 -22.3052
   -14.8913 -14.6116 -14.6070 -13.8686 -13.8676 -13.8286  -2.1912  -2.1834
    -1.9326  -1.3360  -1.3065  -1.1931  -0.9244  -0.8100  -0.8017  -0.3372
    -0.1595  -0.1238   0.6422   0.6508   0.8181   1.7281   1.7490   2.0337
     3.0346   3.0456   3.0486   3.2459   3.2492   3.3198   3.5939   3.6039
     3.7599   5.0637   5.2019   5.2285   5.8677   5.8696   5.8784   6.3574
     7.3926   7.7453  10.3838  11.2518  11.5857  13.3127  13.6204  13.8889

     occupation numbers 
     1.0000   1.0000   1.0000   1.0000   1.0000   1.0000   1.0000   1.0000
     1.0000   1.0000   1.0000   1.0000   1.0000   1.0000   1.0000   1.0000
     1.0000   1.0000   1.0000   1.0000   1.0000   1.0000   1.0000   1.0000
     1.0000   1.0000   1.0000   1.0000   1.0000   1.0000   1.0000   1.0000
     1.0000   1.0000   1.0000   1.0000   1.0000   1.0000   1.0000   1.0000
     1.0394   1.0430   1.0440   1.0752   1.0739   1.0182   0.3771   0.3532
     0.0921   0.0000   0.0000   0.0000   0.0000   0.0000   0.0000   0.0000
     0.0000   0.0000   0.0000   0.0000   0.0000   0.0000   0.0000   0.0000

          k =-0.2917-0.5052 0.1489 (  9625 PWs)   bands (ev):

   -91.5748 -91.5741 -91.5610 -54.8984 -54.8955 -54.8865 -54.8646 -54.8592
   -54.8567 -54.7060 -54.7050 -54.6917 -50.4502 -22.3691 -22.3690 -22.3052
   -14.8913 -14.6115 -14.6069 -13.8687 -13.8676 -13.8287  -2.1916  -2.1836
    -1.9333  -1.3365  -1.3068  -1.1931  -0.9244  -0.8101  -0.8017  -0.3340
    -0.1572  -0.1221   0.6423   0.6508   0.8181   1.7274   1.7481   2.0303
     3.0338   3.0452   3.0469   3.2458   3.2491   3.3198   3.5929   3.6034
     3.7603   5.0610   5.2021   5.2282   5.8679   5.8697   5.8783   6.3659
     7.3892   7.7408  10.3745  11.2712  11.6131  13.3755  13.5628  13.8201

     occupation numbers 
     1.0000   1.0000   1.0000   1.0000   1.0000   1.0000   1.0000   1.0000
     1.0000   1.0000   1.0000   1.0000   1.0000   1.0000   1.0000   1.0000
     1.0000   1.0000   1.0000   1.0000   1.0000   1.0000   1.0000   1.0000
     1.0000   1.0000   1.0000   1.0000   1.0000   1.0000   1.0000   1.0000
     1.0000   1.0000   1.0000   1.0000   1.0000   1.0000   1.0000   1.0000
     1.0392   1.0429   1.0434   1.0752   1.0740   1.0182   0.3796   0.3544
     0.0917   0.0000   0.0000   0.0000   0.0000   0.0000   0.0000   0.0000
     0.0000   0.0000   0.0000   0.0000   0.0000   0.0000   0.0000   0.0000

          k =-0.2917-0.5052 0.2233 (  9639 PWs)   bands (ev):

   -91.5748 -91.5741 -91.5610 -54.8985 -54.8956 -54.8865 -54.8646 -54.8593
   -54.8567 -54.7060 -54.7049 -54.6917 -50.4503 -22.3692 -22.3691 -22.3052
   -14.8913 -14.6115 -14.6070 -13.8687 -13.8676 -13.8287  -2.1920  -2.1839
    -1.9340  -1.3370  -1.3070  -1.1928  -0.9244  -0.8101  -0.8017  -0.3313
    -0.1553  -0.1208   0.6422   0.6508   0.8181   1.7276   1.7482   2.0280
     3.0329   3.0447   3.0453   3.2457   3.2489   3.3198   3.5937   3.6039
     3.7639   5.0296   5.1883   5.2188   5.8691   5.8702   5.8783   6.4195
     7.4137   7.7601  10.2989  11.2208  11.5674  13.5299  13.5336  13.8755

     occupation numbers 
     1.0000   1.0000   1.0000   1.0000   1.0000   1.0000   1.0000   1.0000
     1.0000   1.0000   1.0000   1.0000   1.0000   1.0000   1.0000   1.0000
     1.0000   1.0000   1.0000   1.0000   1.0000   1.0000   1.0000   1.0000
     1.0000   1.0000   1.0000   1.0000   1.0000   1.0000   1.0000   1.0000
     1.0000   1.0000   1.0000   1.0000   1.0000   1.0000   1.0000   1.0000
     1.0389   1.0427   1.0429   1.0753   1.0741   1.0182   0.3777   0.3530
     0.0883   0.0000   0.0000   0.0000   0.0000   0.0000   0.0000   0.0000
     0.0000   0.0000   0.0000   0.0000   0.0000   0.0000   0.0000   0.0000

          k =-0.2917-0.5533 0.0744 (  9615 PWs)   bands (ev):

   -91.5746 -91.5743 -91.5610 -54.8979 -54.8935 -54.8896 -54.8642 -54.8584
   -54.8572 -54.7058 -54.7052 -54.6918 -50.4502 -22.3691 -22.3690 -22.3052
   -14.7977 -14.7030 -14.6162 -13.8683 -13.8529 -13.8397  -2.2029  -2.0904
    -2.0025  -1.3113  -1.2820  -1.2428  -0.8849  -0.8457  -0.8230  -0.3085
    -0.2204  -0.1448   0.7001   0.7081   0.7638   1.7368   1.8457   1.9477
     3.0318   3.0470   3.0502   3.2273   3.2755   3.2991   3.5995   3.6511
     3.7070   5.0931   5.1573   5.2127   5.8754   5.8787   5.9001   6.5013
     7.2867   7.6242  10.4975  11.1866  11.4800  13.4818  13.7221  13.8580

     occupation numbers 
     1.0000   1.0000   1.0000   1.0000   1.0000   1.0000   1.0000   1.0000
     1.0000   1.0000   1.0000   1.0000   1.0000   1.0000   1.0000   1.0000
     1.0000   1.0000   1.0000   1.0000   1.0000   1.0000   1.0000   1.0000
     1.0000   1.0000   1.0000   1.0000   1.0000   1.0000   1.0000   1.0000
     1.0000   1.0000   1.0000   1.0000   1.0000   1.0000   1.0000   1.0000
     1.0386   1.0434   1.0445   1.0806   1.0597   1.0405   0.3637   0.2504
     0.1554   0.0000   0.0000   0.0000   0.0000   0.0000   0.0000   0.0000
     0.0000   0.0000   0.0000   0.0000   0.0000   0.0000   0.0000   0.0000

          k =-0.2917-0.5533 0.1489 (  9635 PWs)   bands (ev):

   -91.5746 -91.5743 -91.5610 -54.8980 -54.8935 -54.8896 -54.8643 -54.8585
   -54.8572 -54.7058 -54.7052 -54.6918 -50.4503 -22.3692 -22.3691 -22.3052
   -14.7977 -14.7030 -14.6162 -13.8684 -13.8529 -13.8397  -2.2033  -2.0908
    -2.0031  -1.3119  -1.2823  -1.2431  -0.8849  -0.8458  -0.8230  -0.3051
    -0.2182  -0.1429   0.7001   0.7081   0.7638   1.7360   1.8443   1.9455
     3.0309   3.0462   3.0492   3.2273   3.2754   3.2991   3.5987   3.6505
     3.7068   5.0912   5.1567   5.2125   5.8756   5.8788   5.9001   6.5038
     7.2875   7.6205  10.5113  11.1889  11.5034  13.4759  13.6579  13.8592

     occupation numbers 
     1.0000   1.0000   1.0000   1.0000   1.0000   1.0000   1.0000   1.0000
     1.0000   1.0000   1.0000   1.0000   1.0000   1.0000   1.0000   1.0000
     1.0000   1.0000   1.0000   1.0000   1.0000   1.0000   1.0000   1.0000
     1.0000   1.0000   1.0000   1.0000   1.0000   1.0000   1.0000   1.0000
     1.0000   1.0000   1.0000   1.0000   1.0000   1.0000   1.0000   1.0000
     1.0383   1.0432   1.0442   1.0806   1.0598   1.0405   0.3654   0.2515
     0.1557   0.0000   0.0000   0.0000   0.0000   0.0000   0.0000   0.0000
     0.0000   0.0000   0.0000   0.0000   0.0000   0.0000   0.0000   0.0000

          k =-0.2917-0.5533 0.2233 (  9657 PWs)   bands (ev):

   -91.5746 -91.5743 -91.5610 -54.8980 -54.8936 -54.8896 -54.8643 -54.8585
   -54.8573 -54.7058 -54.7052 -54.6918 -50.4503 -22.3692 -22.3692 -22.3052
   -14.7977 -14.7029 -14.6162 -13.8684 -13.8529 -13.8397  -2.2035  -2.0913
    -2.0036  -1.3123  -1.2825  -1.2431  -0.8850  -0.8458  -0.8230  -0.3023
    -0.2164  -0.1415   0.7001   0.7081   0.7638   1.7362   1.8440   1.9443
     3.0300   3.0453   3.0481   3.2273   3.2753   3.2990   3.5996   3.6518
     3.7090   5.0631   5.1421   5.2016   5.8761   5.8790   5.9002   6.5507
     7.3165   7.6429  10.4521  11.1230  11.4517  13.5604  13.6696  13.9715

     occupation numbers 
     1.0000   1.0000   1.0000   1.0000   1.0000   1.0000   1.0000   1.0000
     1.0000   1.0000   1.0000   1.0000   1.0000   1.0000   1.0000   1.0000
     1.0000   1.0000   1.0000   1.0000   1.0000   1.0000   1.0000   1.0000
     1.0000   1.0000   1.0000   1.0000   1.0000   1.0000   1.0000   1.0000
     1.0000   1.0000   1.0000   1.0000   1.0000   1.0000   1.0000   1.0000
     1.0380   1.0429   1.0438   1.0806   1.0599   1.0406   0.3634   0.2489
     0.1525   0.0000   0.0000   0.0000   0.0000   0.0000   0.0000   0.0000
     0.0000   0.0000   0.0000   0.0000   0.0000   0.0000   0.0000   0.0000

          k =-0.3333-0.5774 0.0744 (  9621 PWs)   bands (ev):

   -91.5744 -91.5744 -91.5610 -54.8969 -54.8923 -54.8923 -54.8641 -54.8577
   -54.8577 -54.7055 -54.7055 -54.6918 -50.4502 -22.3691 -22.3691 -22.3052
   -14.7121 -14.7042 -14.7042 -13.8543 -13.8521 -13.8521  -2.1097  -2.0906
    -2.0906  -1.3030  -1.2695  -1.2695  -0.8566  -0.8566  -0.8483  -0.2787
    -0.2068  -0.2068   0.7318   0.7318   0.7403   1.8345   1.8345   1.8654
     3.0363   3.0480   3.0480   3.2623   3.2634   3.2634   3.6419   3.6589
     3.6589   5.1151   5.1667   5.1667   5.8921   5.8926   5.8926   6.5583
     7.4054   7.4054  10.5425  11.2968  11.2968  13.5470  13.8859  13.8859

     occupation numbers 
     1.0000   1.0000   1.0000   1.0000   1.0000   1.0000   1.0000   1.0000
     1.0000   1.0000   1.0000   1.0000   1.0000   1.0000   1.0000   1.0000
     1.0000   1.0000   1.0000   1.0000   1.0000   1.0000   1.0000   1.0000
     1.0000   1.0000   1.0000   1.0000   1.0000   1.0000   1.0000   1.0000
     1.0000   1.0000   1.0000   1.0000   1.0000   1.0000   1.0000   1.0000
     1.0400   1.0438   1.0438   1.0678   1.0672   1.0672   0.2689   0.2352
     0.2352   0.0000   0.0000   0.0000   0.0000   0.0000   0.0000   0.0000
     0.0000   0.0000   0.0000   0.0000   0.0000   0.0000   0.0000   0.0000

          k =-0.3333-0.5774 0.1489 (  9633 PWs)   bands (ev):

   -91.5744 -91.5744 -91.5610 -54.8968 -54.8923 -54.8923 -54.8641 -54.8578
   -54.8578 -54.7055 -54.7055 -54.6918 -50.4503 -22.3691 -22.3691 -22.3052
   -14.7120 -14.7042 -14.7042 -13.8543 -13.8522 -13.8522  -2.1104  -2.0910
    -2.0910  -1.3036  -1.2698  -1.2698  -0.8566  -0.8566  -0.8484  -0.2750
    -0.2048  -0.2048   0.7318   0.7318   0.7402   1.8334   1.8334   1.8635
     3.0350   3.0472   3.0472   3.2622   3.2634   3.2634   3.6409   3.6586
     3.6586   5.1138   5.1661   5.1661   5.8921   5.8926   5.8926   6.5582
     7.4051   7.4051  10.5665  11.3050  11.3050  13.5113  13.8466  13.8466

     occupation numbers 
     1.0000   1.0000   1.0000   1.0000   1.0000   1.0000   1.0000   1.0000
     1.0000   1.0000   1.0000   1.0000   1.0000   1.0000   1.0000   1.0000
     1.0000   1.0000   1.0000   1.0000   1.0000   1.0000   1.0000   1.0000
     1.0000   1.0000   1.0000   1.0000   1.0000   1.0000   1.0000   1.0000
     1.0000   1.0000   1.0000   1.0000   1.0000   1.0000   1.0000   1.0000
     1.0396   1.0435   1.0435   1.0678   1.0672   1.0672   0.2709   0.2358
     0.2358   0.0000   0.0000   0.0000   0.0000   0.0000   0.0000   0.0000
     0.0000   0.0000   0.0000   0.0000   0.0000   0.0000   0.0000   0.0000

          k =-0.3333-0.5774 0.2233 (  9654 PWs)   bands (ev):

   -91.5745 -91.5745 -91.5610 -54.8969 -54.8923 -54.8923 -54.8642 -54.8578
   -54.8578 -54.7055 -54.7055 -54.6918 -50.4503 -22.3692 -22.3692 -22.3052
   -14.7120 -14.7042 -14.7042 -13.8543 -13.8522 -13.8522  -2.1110  -2.0913
    -2.0913  -1.3040  -1.2700  -1.2700  -0.8566  -0.8566  -0.8484  -0.2719
    -0.2033  -0.2033   0.7317   0.7317   0.7402   1.8331   1.8331   1.8629
     3.0337   3.0464   3.0464   3.2622   3.2634   3.2634   3.6426   3.6597
     3.6597   5.0855   5.1536   5.1536   5.8920   5.8925   5.8925   6.6031
     7.4323   7.4323  10.5138  11.2414  11.2414  13.6084  13.8965  13.8965

     occupation numbers 
     1.0000   1.0000   1.0000   1.0000   1.0000   1.0000   1.0000   1.0000
     1.0000   1.0000   1.0000   1.0000   1.0000   1.0000   1.0000   1.0000
     1.0000   1.0000   1.0000   1.0000   1.0000   1.0000   1.0000   1.0000
     1.0000   1.0000   1.0000   1.0000   1.0000   1.0000   1.0000   1.0000
     1.0000   1.0000   1.0000   1.0000   1.0000   1.0000   1.0000   1.0000
     1.0391   1.0432   1.0432   1.0678   1.0672   1.0672   0.2672   0.2336
     0.2336   0.0000   0.0000   0.0000   0.0000   0.0000   0.0000   0.0000
     0.0000   0.0000   0.0000   0.0000   0.0000   0.0000   0.0000   0.0000

     the Fermi energy is     3.5845 ev
     (compare with:     3.5840 eV, computed in scf)

     Writing all to output data dir ../Na_s3_c8.4_d0.75/out/pw.save/ :
     XML data file, pseudopotentials, collected wavefunctions
 
     init_run     :     24.42s CPU      5.52s WALL (       1 calls)
     electrons    :    623.72s CPU    623.66s WALL (       1 calls)

     Called by init_run:
     wfcinit      :      0.00s CPU      0.00s WALL (       1 calls)
     wfcinit:atom :      1.54s CPU      1.54s WALL (     898 calls)
     wfcinit:wfcr :      7.17s CPU      7.17s WALL (     898 calls)
     potinit      :     22.95s CPU      3.94s WALL (       1 calls)
     hinit0       :      0.55s CPU      0.53s WALL (       1 calls)

     Called by electrons:
     c_bands      :    623.67s CPU    623.60s WALL (       1 calls)
     v_of_rho     :      0.03s CPU      0.07s WALL (       1 calls)
     v_h          :      0.01s CPU      0.01s WALL (       1 calls)
     v_xc         :      0.01s CPU      0.06s WALL (       1 calls)
     newd         :      0.06s CPU      0.09s WALL (       1 calls)
                                        0.09s GPU  (       1 calls)
     PAW_pot      :     11.87s CPU      1.49s WALL (       1 calls)

     Called by c_bands:
     init_us_2    :      0.36s CPU      0.51s WALL (     898 calls)
     cegterg      :    612.17s CPU    610.92s WALL (    5071 calls)

     Called by sum_band:

     Called by *egterg:
     cdiaghg      :    242.80s CPU    245.16s WALL (   97683 calls)
                                      243.94s GPU  (   97683 calls)
     cegterg:over :     33.25s CPU     33.71s WALL (   96785 calls)
     cegterg:upda :     49.02s CPU     49.21s WALL (   96785 calls)
     cegterg:last :      9.77s CPU      9.63s WALL (   46526 calls)
     h_psi        :    221.31s CPU    220.32s WALL (  102754 calls)
                                      219.00s GPU  (  102754 calls)
     s_psi        :     32.45s CPU     33.39s WALL (  102754 calls)
     g_psi        :      0.50s CPU      4.61s WALL (   96785 calls)
                                        3.29s GPU  (   96785 calls)

     Called by h_psi:
     h_psi:calbec :      2.87s CPU      7.62s WALL (  102754 calls)
                                        6.31s GPU  (  102754 calls)
     vloc_psi     :    172.05s CPU    169.20s WALL (  102754 calls)
                                      167.89s GPU  (  102754 calls)
     add_vuspsi   :     30.60s CPU     35.95s WALL (  102754 calls)
                                       34.62s GPU  (  102754 calls)

     General routines
     calbec       :      2.61s CPU      2.77s WALL (  102754 calls)
     fft          :      7.73s CPU      1.50s WALL (      23 calls)
                                        0.00s GPU  (      21 calls)
     ffts         :      3.30s CPU      0.85s WALL (       2 calls)
     fftw         :      8.47s CPU     87.98s WALL (  474470 calls)
                                       82.45s GPU  (  474470 calls)
     interpolate  :     11.04s CPU      2.36s WALL (       2 calls)
     davcio       :      7.28s CPU      2.15s WALL (    1796 calls)
 
     Parallel routines

     PAW routines
     PAW_pot      :     11.87s CPU      1.49s WALL (       1 calls)
 
     PWSCF        :  10m58.51s CPU  10m34.24s WALL

 
   This run was terminated on:   4:19:21  12Jul2026            

=------------------------------------------------------------------------------=
   JOB DONE.
=------------------------------------------------------------------------------=
Warning: ieee_divide_by_zero is signaling
Warning: ieee_inexact is signaling
FORTRAN STOP
