
     Program PWSCF v.7.3.1 starts on 12Jul2026 at  3:52: 6 

     This program is part of the open-source Quantum ESPRESSO suite
     for quantum simulation of materials; please cite
         "P. Giannozzi et al., J. Phys.:Condens. Matter 21 395502 (2009);
         "P. Giannozzi et al., J. Phys.:Condens. Matter 29 465901 (2017);
         "P. Giannozzi et al., J. Chem. Phys. 152 154105 (2020);
          URL http://www.quantum-espresso.org", 
     in publications or presentations arising from this work. More details at
     http://www.quantum-espresso.org/quote

     Parallel version (MPI & OpenMP), running on      14 processor cores
     Number of MPI processes:                 1
     Threads/MPI process:                    14

     MPI processes distributed on     1 nodes
     841533 MiB available memory on the printing compute node when the environment starts
 
     Reading input from pw.in

     Current dimensions of program PWSCF are:
     Max number of different atomic species (ntypx) = 10
     Max number of k-points (npk) =  40000
     Max angular momentum in pseudopotentials (lmaxx) =  4
     file Co.pbe-spn-kjpaw_psl.0.3.1.UPF: wavefunction(s)  3P 3D renormalized
     file O.pbe-n-kjpaw_psl.1.0.0.UPF: wavefunction(s)  2S 2P renormalized
     file Na.pbe-spn-kjpaw_psl.1.0.0.UPF: wavefunction(s)  2P renormalized
 
     Subspace diagonalization in iterative solution of the eigenvalue problem:
     a serial algorithm will be used

 
     G-vector sticks info
     --------------------
     sticks:   dense  smooth     PW     G-vecs:    dense   smooth      PW
     Sum         979     499    151                85601    30351    5001
 
     Using Slab Decomposition
 


     bravais-lattice index     =            4
     lattice parameter (alat)  =       5.4575  a.u.
     unit-cell volume          =     482.5661 (a.u.)^3
     number of atoms/cell      =            4
     number of atomic types    =            3
     number of electrons       =        38.00
     number of Kohn-Sham states=           27
     kinetic-energy cutoff     =      60.0000  Ry
     charge density cutoff     =     480.0000  Ry
     scf convergence threshold =      1.0E-07
     mixing beta               =       0.3000
     number of iterations used =            8  local-TF  mixing
     Exchange-correlation= SLA  PW   PBX  PBC
                           (   1   4   3   4   0   0   0)

     GPU acceleration is ACTIVE.  1 visible GPUs per MPI rank
     GPU-aware MPI enabled


     GPU used by master process:

        Device Number: 0
        Device name: NVIDIA A100-SXM4-80GB
        Compute capability : 80
        Ratio of single to double precision performance  : 2
        Memory Clock Rate (KHz): 1593000
        Memory Bus Width (bits): 5120
        Peak Memory Bandwidth (GB/s): ******

     celldm(1)=   5.457529  celldm(2)=   0.000000  celldm(3)=   3.427978
     celldm(4)=   0.000000  celldm(5)=   0.000000  celldm(6)=   0.000000

     crystal axes: (cart. coord. in units of alat)
               a(1) = (   1.000000   0.000000   0.000000 )  
               a(2) = (  -0.500000   0.866025   0.000000 )  
               a(3) = (   0.000000   0.000000   3.427978 )  

     reciprocal axes: (cart. coord. in units 2 pi/alat)
               b(1) = (  1.000000  0.577350 -0.000000 )  
               b(2) = (  0.000000  1.154701  0.000000 )  
               b(3) = (  0.000000 -0.000000  0.291717 )  


     PseudoPot. # 1 for Co read from file:
     ../../pseudo/Co.pbe-spn-kjpaw_psl.0.3.1.UPF
     MD5 check sum: 3c0a43779828c046024e4f3be63f8e67
     Pseudo is Projector augmented-wave + core cor, Zval = 17.0
     Generated using &quot;atomic&quot; code by A. Dal Corso  v.6.2.2
     Shape of augmentation charge: PSQ
     Using radial grid of 1193 points,  6 beta functions with: 
                l(1) =   0
                l(2) =   0
                l(3) =   1
                l(4) =   1
                l(5) =   2
                l(6) =   2
     Q(r) pseudized with 0 coefficients 


     PseudoPot. # 2 for O  read from file:
     ../../pseudo/O.pbe-n-kjpaw_psl.1.0.0.UPF
     MD5 check sum: e99d9cef9b487d1ca56f5b95ecd0fd7a
     Pseudo is Projector augmented-wave + core cor, Zval =  6.0
     Generated using &quot;atomic&quot; code by A. Dal Corso  v.6.3
     Shape of augmentation charge: PSQ
     Using radial grid of 1095 points,  4 beta functions with: 
                l(1) =   0
                l(2) =   0
                l(3) =   1
                l(4) =   1
     Q(r) pseudized with 0 coefficients 


     PseudoPot. # 3 for Na read from file:
     ../../pseudo/Na.pbe-spn-kjpaw_psl.1.0.0.UPF
     MD5 check sum: 05b4deb74e3932c23ab016979dc8b5d4
     Pseudo is Projector augmented-wave + core cor, Zval =  9.0
     Generated using &quot;atomic&quot; code by A. Dal Corso  v.6.3
     Shape of augmentation charge: PSQ
     Using radial grid of 1121 points,  4 beta functions with: 
                l(1) =   0
                l(2) =   0
                l(3) =   1
                l(4) =   1
     Q(r) pseudized with 0 coefficients 


     atomic species   valence    mass     pseudopotential
     Co               17.00    58.93300     Co( 1.00)
     O                 6.00    15.99900     O ( 1.00)
     Na                9.00    22.98977     Na( 1.00)

     Starting magnetic structure 
     atomic species   magnetization
     Co              0.300
     O               0.000
     Na              0.000

      6 Sym. Ops. (no inversion) found


                                    s                        frac. trans.

      isym =  1     identity                                     

 cryst.   s( 1) = (     1          0          0      )
                  (     0          1          0      )
                  (     0          0          1      )

 cart.    s( 1) = (  1.0000000  0.0000000  0.0000000 )
                  (  0.0000000  1.0000000  0.0000000 )
                  (  0.0000000  0.0000000  1.0000000 )


      isym =  2     120 deg rotation - cryst. axis [0,0,1]       

 cryst.   s( 2) = (     0          1          0      )
                  (    -1         -1          0      )
                  (     0          0          1      )

 cart.    s( 2) = ( -0.5000000 -0.8660254  0.0000000 )
                  (  0.8660254 -0.5000000  0.0000000 )
                  (  0.0000000  0.0000000  1.0000000 )


      isym =  3     120 deg rotation - cryst. axis [0,0,-1]      

 cryst.   s( 3) = (    -1         -1          0      )
                  (     1          0          0      )
                  (     0          0          1      )

 cart.    s( 3) = ( -0.5000000  0.8660254  0.0000000 )
                  ( -0.8660254 -0.5000000  0.0000000 )
                  (  0.0000000  0.0000000  1.0000000 )


      isym =  4     inv. 180 deg rotation - cart. axis [1,0,0]   

 cryst.   s( 4) = (    -1          0          0      )
                  (     1          1          0      )
                  (     0          0          1      )

 cart.    s( 4) = ( -1.0000000  0.0000000  0.0000000 )
                  (  0.0000000  1.0000000  0.0000000 )
                  (  0.0000000  0.0000000  1.0000000 )


      isym =  5     inv. 180 deg rotation - cryst. axis [0,1,0]  

 cryst.   s( 5) = (     1          1          0      )
                  (     0         -1          0      )
                  (     0          0          1      )

 cart.    s( 5) = (  0.5000000  0.8660254  0.0000000 )
                  (  0.8660254 -0.5000000  0.0000000 )
                  (  0.0000000  0.0000000  1.0000000 )


      isym =  6     inv. 180 deg rotation - cryst. axis [1,1,0]  

 cryst.   s( 6) = (     0         -1          0      )
                  (    -1          0          0      )
                  (     0          0          1      )

 cart.    s( 6) = (  0.5000000 -0.8660254  0.0000000 )
                  ( -0.8660254 -0.5000000  0.0000000 )
                  (  0.0000000  0.0000000  1.0000000 )


     point group C_3v (3m)  
     there are  3 classes
     the character table:

       E     2C3   3s_v 
A_1    1.00  1.00  1.00
A_2    1.00  1.00 -1.00
E      2.00 -1.00  0.00

     the symmetry operations in each class and the name of the first element:

     E        1
          identity                                               
     2C3      2    3
          120 deg rotation - cryst. axis [0,0,1]                 
     3s_v     4    5    6
          inv. 180 deg rotation - cart. axis [1,0,0]             

   Cartesian axes

     site n.     atom                  positions (alat units)
         1        Co     tau(   1) = (   0.0000000   0.0000000   0.0000000  )
         2        O      tau(   2) = (  -0.0000000   0.5773503   0.3324100  )
         3        O      tau(   3) = (   0.5000000   0.2886751   3.0955679  )
         4        Na     tau(   4) = (   0.0000000   0.0000000   1.8178670  )

   Crystallographic axes

     site n.     atom                  positions (cryst. coord.)
         1        Co     tau(   1) = (  0.0000000  0.0000000  0.0000000  )
         2        O      tau(   2) = (  0.3333333  0.6666667  0.0969697  )
         3        O      tau(   3) = (  0.6666667  0.3333333  0.9030303  )
         4        Na     tau(   4) = (  0.0000000  0.0000000  0.5303030  )

     number of k points=    25  Marzari-Vanderbilt smearing, width (Ry)=  0.0200
                       cart. coord. in units 2pi/alat
        k(    1) = (   0.0000000   0.0000000   0.0000000), wk =   0.0052083
        k(    2) = (   0.0000000   0.0000000   0.0972391), wk =   0.0104167
        k(    3) = (   0.0000000   0.1443376   0.0000000), wk =   0.0312500
        k(    4) = (   0.0000000   0.1443376   0.0972391), wk =   0.0312500
        k(    5) = (   0.0000000   0.2886751   0.0000000), wk =   0.0312500
        k(    6) = (   0.0000000   0.2886751   0.0972391), wk =   0.0312500
        k(    7) = (   0.0000000   0.4330127   0.0000000), wk =   0.0312500
        k(    8) = (   0.0000000   0.4330127   0.0972391), wk =   0.0312500
        k(    9) = (   0.0000000  -0.5773503   0.0000000), wk =   0.0156250
        k(   10) = (   0.0000000  -0.5773503   0.0972391), wk =   0.0312500
        k(   11) = (   0.1250000   0.2165064   0.0000000), wk =   0.0312500
        k(   12) = (   0.1250000   0.2165064   0.0972391), wk =   0.0625000
        k(   13) = (   0.1250000   0.3608439   0.0000000), wk =   0.0625000
        k(   14) = (   0.1250000   0.3608439   0.0972391), wk =   0.0625000
        k(   15) = (   0.1250000   0.5051815   0.0000000), wk =   0.0625000
        k(   16) = (   0.1250000   0.5051815   0.0972391), wk =   0.0625000
        k(   17) = (   0.2500000   0.4330127   0.0000000), wk =   0.0312500
        k(   18) = (   0.2500000   0.4330127   0.0972391), wk =   0.0625000
        k(   19) = (   0.2500000   0.5773503   0.0000000), wk =   0.0312500
        k(   20) = (   0.2500000   0.5773503   0.0972391), wk =   0.0625000
        k(   21) = (   0.0000000  -0.1443376   0.0972391), wk =   0.0312500
        k(   22) = (   0.0000000  -0.2886751   0.0972391), wk =   0.0312500
        k(   23) = (   0.0000000  -0.4330127   0.0972391), wk =   0.0312500
        k(   24) = (  -0.1250000  -0.3608439   0.0972391), wk =   0.0625000
        k(   25) = (  -0.1250000  -0.5051815   0.0972391), wk =   0.0625000

                       cryst. coord.
        k(    1) = (   0.0000000   0.0000000   0.0000000), wk =   0.0052083
        k(    2) = (   0.0000000   0.0000000   0.3333333), wk =   0.0104167
        k(    3) = (   0.0000000   0.1250000   0.0000000), wk =   0.0312500
        k(    4) = (   0.0000000   0.1250000   0.3333333), wk =   0.0312500
        k(    5) = (   0.0000000   0.2500000   0.0000000), wk =   0.0312500
        k(    6) = (   0.0000000   0.2500000   0.3333333), wk =   0.0312500
        k(    7) = (   0.0000000   0.3750000   0.0000000), wk =   0.0312500
        k(    8) = (   0.0000000   0.3750000   0.3333333), wk =   0.0312500
        k(    9) = (   0.0000000  -0.5000000   0.0000000), wk =   0.0156250
        k(   10) = (   0.0000000  -0.5000000   0.3333333), wk =   0.0312500
        k(   11) = (   0.1250000   0.1250000   0.0000000), wk =   0.0312500
        k(   12) = (   0.1250000   0.1250000   0.3333333), wk =   0.0625000
        k(   13) = (   0.1250000   0.2500000   0.0000000), wk =   0.0625000
        k(   14) = (   0.1250000   0.2500000   0.3333333), wk =   0.0625000
        k(   15) = (   0.1250000   0.3750000   0.0000000), wk =   0.0625000
        k(   16) = (   0.1250000   0.3750000   0.3333333), wk =   0.0625000
        k(   17) = (   0.2500000   0.2500000   0.0000000), wk =   0.0312500
        k(   18) = (   0.2500000   0.2500000   0.3333333), wk =   0.0625000
        k(   19) = (   0.2500000   0.3750000   0.0000000), wk =   0.0312500
        k(   20) = (   0.2500000   0.3750000   0.3333333), wk =   0.0625000
        k(   21) = (   0.0000000  -0.1250000   0.3333333), wk =   0.0312500
        k(   22) = (   0.0000000  -0.2500000   0.3333333), wk =   0.0312500
        k(   23) = (   0.0000000  -0.3750000   0.3333333), wk =   0.0312500
        k(   24) = (  -0.1250000  -0.2500000   0.3333333), wk =   0.0625000
        k(   25) = (  -0.1250000  -0.3750000   0.3333333), wk =   0.0625000

     Dense  grid:    85601 G-vectors     FFT dimensions: (  40,  40, 135)

     Smooth grid:    30351 G-vectors     FFT dimensions: (  27,  27,  96)

     Dynamical RAM for                 wfc:       1.56 MB

     Dynamical RAM for     wfc (w. buffer):      79.57 MB

     Dynamical RAM for           str. fact:       3.92 MB

     Dynamical RAM for           local pot:       0.00 MB

     Dynamical RAM for          nlocal pot:       2.43 MB

     Dynamical RAM for                qrad:       5.27 MB

     Dynamical RAM for          rho,v,vnew:      17.72 MB

     Dynamical RAM for               rhoin:       5.91 MB

     Dynamical RAM for            rho*nmix:      41.80 MB

     Dynamical RAM for           G-vectors:       5.13 MB

     Dynamical RAM for          h,s,v(r/c):       0.13 MB

     Dynamical RAM for          <psi|beta>:       0.02 MB

     Dynamical RAM for                 psi:       3.12 MB

     Dynamical RAM for                hpsi:       3.12 MB

     Dynamical RAM for                spsi:       3.12 MB

     Dynamical RAM for      wfcinit/wfcrot:       3.14 MB

     Dynamical RAM for           addusdens:     246.87 MB

     Dynamical RAM for          addusforce:     249.49 MB

     Estimated static dynamical RAM per process >     135.06 MB

     Estimated max dynamical RAM per process >     426.35 MB

     Check: negative core charge=   -0.000006
     Generating pointlists ...
     new r_m :   0.2748 (alat units)  1.4998 (a.u.) for type    1
     new r_m :   0.2748 (alat units)  1.4998 (a.u.) for type    2
     new r_m :   0.4125 (alat units)  2.2512 (a.u.) for type    3

     Initial potential from superposition of free atoms

     starting charge      37.9934, renormalised to      38.0000
     Starting wfcs are   23 randomized atomic wfcs +    4 random wfcs
     Checking if some PAW data can be deallocated... 

     total cpu time spent up to now is        3.5 secs

     Self-consistent Calculation
[tb_dev] Currently allocated     6.54E-01 Mbytes, locked:    0 /   6
[tb_pin] Currently allocated     0.00E+00 Mbytes, locked:    0 /   0

     iteration #  1     ecut=    60.00 Ry     beta= 0.30
     Davidson diagonalization with overlap

---- Real-time Memory Report at c_bands before calling an iterative solver
           710 MiB given to the printing process from OS
             0 MiB allocation reported by mallinfo(arena+hblkhd)
        841176 MiB available memory on the node where the printing process lives
     GPU memory used/free/total (MiB): 1108 / 80042 / 81151
------------------
     ethr =  1.00E-02,  avg # of iterations =  9.8

     total cpu time spent up to now is        5.8 secs

     total energy              =    -568.96239638 Ry
     estimated scf accuracy    <       2.01970676 Ry

     total magnetization       =     4.24 Bohr mag/cell
     absolute magnetization    =     4.24 Bohr mag/cell
[tb_dev] Currently allocated     3.05E-05 Mbytes, locked:    0 /   2
[tb_pin] Currently allocated     0.00E+00 Mbytes, locked:    0 /   0

     iteration #  2     ecut=    60.00 Ry     beta= 0.30
     Davidson diagonalization with overlap

---- Real-time Memory Report at c_bands before calling an iterative solver
           754 MiB given to the printing process from OS
             0 MiB allocation reported by mallinfo(arena+hblkhd)
        841447 MiB available memory on the node where the printing process lives
     GPU memory used/free/total (MiB): 1128 / 80022 / 81151
------------------
     ethr =  5.32E-03,  avg # of iterations =  1.8

     total cpu time spent up to now is        6.9 secs

     total energy              =    -569.00342935 Ry
     estimated scf accuracy    <       1.08974296 Ry

     total magnetization       =     3.65 Bohr mag/cell
     absolute magnetization    =     3.65 Bohr mag/cell
[tb_dev] Currently allocated     3.05E-05 Mbytes, locked:    0 /   2
[tb_pin] Currently allocated     0.00E+00 Mbytes, locked:    0 /   0

     iteration #  3     ecut=    60.00 Ry     beta= 0.30
     Davidson diagonalization with overlap

---- Real-time Memory Report at c_bands before calling an iterative solver
           758 MiB given to the printing process from OS
             0 MiB allocation reported by mallinfo(arena+hblkhd)
        841265 MiB available memory on the node where the printing process lives
     GPU memory used/free/total (MiB): 1128 / 80022 / 81151
------------------
     ethr =  2.87E-03,  avg # of iterations =  1.9

     total cpu time spent up to now is        8.1 secs

     total energy              =    -569.07362723 Ry
     estimated scf accuracy    <       0.83762692 Ry

     total magnetization       =     2.01 Bohr mag/cell
     absolute magnetization    =     2.05 Bohr mag/cell
[tb_dev] Currently allocated     3.05E-05 Mbytes, locked:    0 /   2
[tb_pin] Currently allocated     0.00E+00 Mbytes, locked:    0 /   0

     iteration #  4     ecut=    60.00 Ry     beta= 0.30
     Davidson diagonalization with overlap

---- Real-time Memory Report at c_bands before calling an iterative solver
           761 MiB given to the printing process from OS
             0 MiB allocation reported by mallinfo(arena+hblkhd)
        842265 MiB available memory on the node where the printing process lives
     GPU memory used/free/total (MiB): 1128 / 80022 / 81151
------------------
     ethr =  2.20E-03,  avg # of iterations =  1.2

     total cpu time spent up to now is        9.2 secs

     total energy              =    -569.05103049 Ry
     estimated scf accuracy    <       0.68225846 Ry

     total magnetization       =     3.22 Bohr mag/cell
     absolute magnetization    =     3.23 Bohr mag/cell
[tb_dev] Currently allocated     3.05E-05 Mbytes, locked:    0 /   2
[tb_pin] Currently allocated     0.00E+00 Mbytes, locked:    0 /   0

     iteration #  5     ecut=    60.00 Ry     beta= 0.30
     Davidson diagonalization with overlap

---- Real-time Memory Report at c_bands before calling an iterative solver
           762 MiB given to the printing process from OS
             0 MiB allocation reported by mallinfo(arena+hblkhd)
        841697 MiB available memory on the node where the printing process lives
     GPU memory used/free/total (MiB): 1128 / 80022 / 81151
------------------
     ethr =  1.80E-03,  avg # of iterations =  1.5

     total cpu time spent up to now is       10.3 secs

     total energy              =    -569.16026807 Ry
     estimated scf accuracy    <       0.14508331 Ry

     total magnetization       =     0.72 Bohr mag/cell
     absolute magnetization    =     1.20 Bohr mag/cell
[tb_dev] Currently allocated     3.05E-05 Mbytes, locked:    0 /   2
[tb_pin] Currently allocated     0.00E+00 Mbytes, locked:    0 /   0

     iteration #  6     ecut=    60.00 Ry     beta= 0.30
     Davidson diagonalization with overlap

---- Real-time Memory Report at c_bands before calling an iterative solver
           763 MiB given to the printing process from OS
             0 MiB allocation reported by mallinfo(arena+hblkhd)
        841356 MiB available memory on the node where the printing process lives
     GPU memory used/free/total (MiB): 1128 / 80022 / 81151
------------------
     ethr =  3.82E-04,  avg # of iterations =  6.1

     total cpu time spent up to now is       12.0 secs

     total energy              =    -569.16527239 Ry
     estimated scf accuracy    <       0.06235804 Ry

     total magnetization       =     0.71 Bohr mag/cell
     absolute magnetization    =     0.87 Bohr mag/cell
[tb_dev] Currently allocated     3.05E-05 Mbytes, locked:    0 /   2
[tb_pin] Currently allocated     0.00E+00 Mbytes, locked:    0 /   0

     iteration #  7     ecut=    60.00 Ry     beta= 0.30
     Davidson diagonalization with overlap

---- Real-time Memory Report at c_bands before calling an iterative solver
           765 MiB given to the printing process from OS
             0 MiB allocation reported by mallinfo(arena+hblkhd)
        841145 MiB available memory on the node where the printing process lives
     GPU memory used/free/total (MiB): 1128 / 80022 / 81151
------------------
     c_bands:  1 eigenvalues not converged
     ethr =  1.64E-04,  avg # of iterations =  4.2

     total cpu time spent up to now is       13.5 secs

     total energy              =    -569.16547607 Ry
     estimated scf accuracy    <       0.10182917 Ry

     total magnetization       =     0.85 Bohr mag/cell
     absolute magnetization    =     0.97 Bohr mag/cell
[tb_dev] Currently allocated     3.05E-05 Mbytes, locked:    0 /   2
[tb_pin] Currently allocated     0.00E+00 Mbytes, locked:    0 /   0

     iteration #  8     ecut=    60.00 Ry     beta= 0.30
     Davidson diagonalization with overlap

---- Real-time Memory Report at c_bands before calling an iterative solver
           766 MiB given to the printing process from OS
             0 MiB allocation reported by mallinfo(arena+hblkhd)
        840889 MiB available memory on the node where the printing process lives
     GPU memory used/free/total (MiB): 1128 / 80022 / 81151
------------------
     ethr =  1.64E-04,  avg # of iterations =  1.6

     total cpu time spent up to now is       14.6 secs

     total energy              =    -569.17499177 Ry
     estimated scf accuracy    <       0.00561945 Ry

     total magnetization       =     0.77 Bohr mag/cell
     absolute magnetization    =     0.80 Bohr mag/cell
[tb_dev] Currently allocated     3.05E-05 Mbytes, locked:    0 /   2
[tb_pin] Currently allocated     0.00E+00 Mbytes, locked:    0 /   0

     iteration #  9     ecut=    60.00 Ry     beta= 0.30
     Davidson diagonalization with overlap

---- Real-time Memory Report at c_bands before calling an iterative solver
           767 MiB given to the printing process from OS
             0 MiB allocation reported by mallinfo(arena+hblkhd)
        840801 MiB available memory on the node where the printing process lives
     GPU memory used/free/total (MiB): 1128 / 80022 / 81151
------------------
     c_bands:  1 eigenvalues not converged
     c_bands:  1 eigenvalues not converged
     ethr =  1.48E-05,  avg # of iterations =  9.1

     total cpu time spent up to now is       16.7 secs

     total energy              =    -569.17709565 Ry
     estimated scf accuracy    <       0.00718074 Ry

     total magnetization       =     0.82 Bohr mag/cell
     absolute magnetization    =     0.85 Bohr mag/cell
[tb_dev] Currently allocated     3.05E-05 Mbytes, locked:    0 /   2
[tb_pin] Currently allocated     0.00E+00 Mbytes, locked:    0 /   0

     iteration # 10     ecut=    60.00 Ry     beta= 0.30
     Davidson diagonalization with overlap

---- Real-time Memory Report at c_bands before calling an iterative solver
           772 MiB given to the printing process from OS
             0 MiB allocation reported by mallinfo(arena+hblkhd)
        840807 MiB available memory on the node where the printing process lives
     GPU memory used/free/total (MiB): 1128 / 80022 / 81151
------------------
     ethr =  1.48E-05,  avg # of iterations =  1.4

     total cpu time spent up to now is       17.9 secs

     total energy              =    -569.17732022 Ry
     estimated scf accuracy    <       0.00182097 Ry

     total magnetization       =     0.84 Bohr mag/cell
     absolute magnetization    =     0.88 Bohr mag/cell
[tb_dev] Currently allocated     3.05E-05 Mbytes, locked:    0 /   2
[tb_pin] Currently allocated     0.00E+00 Mbytes, locked:    0 /   0

     iteration # 11     ecut=    60.00 Ry     beta= 0.30
     Davidson diagonalization with overlap

---- Real-time Memory Report at c_bands before calling an iterative solver
           772 MiB given to the printing process from OS
             0 MiB allocation reported by mallinfo(arena+hblkhd)
        840755 MiB available memory on the node where the printing process lives
     GPU memory used/free/total (MiB): 1128 / 80022 / 81151
------------------
     c_bands:  1 eigenvalues not converged
     c_bands:  1 eigenvalues not converged
     c_bands:  1 eigenvalues not converged
     ethr =  4.79E-06,  avg # of iterations =  3.5

     total cpu time spent up to now is       19.2 secs

     total energy              =    -569.17764874 Ry
     estimated scf accuracy    <       0.01353701 Ry

     total magnetization       =     0.91 Bohr mag/cell
     absolute magnetization    =     0.95 Bohr mag/cell
[tb_dev] Currently allocated     3.05E-05 Mbytes, locked:    0 /   2
[tb_pin] Currently allocated     0.00E+00 Mbytes, locked:    0 /   0

     iteration # 12     ecut=    60.00 Ry     beta= 0.30
     Davidson diagonalization with overlap

---- Real-time Memory Report at c_bands before calling an iterative solver
           772 MiB given to the printing process from OS
             0 MiB allocation reported by mallinfo(arena+hblkhd)
        840743 MiB available memory on the node where the printing process lives
     GPU memory used/free/total (MiB): 1128 / 80022 / 81151
------------------
     ethr =  4.79E-06,  avg # of iterations =  1.8

     total cpu time spent up to now is       20.4 secs

     total energy              =    -569.17777022 Ry
     estimated scf accuracy    <       0.00391468 Ry

     total magnetization       =     0.88 Bohr mag/cell
     absolute magnetization    =     0.93 Bohr mag/cell
[tb_dev] Currently allocated     3.05E-05 Mbytes, locked:    0 /   2
[tb_pin] Currently allocated     0.00E+00 Mbytes, locked:    0 /   0

     iteration # 13     ecut=    60.00 Ry     beta= 0.30
     Davidson diagonalization with overlap

---- Real-time Memory Report at c_bands before calling an iterative solver
           772 MiB given to the printing process from OS
             0 MiB allocation reported by mallinfo(arena+hblkhd)
        840749 MiB available memory on the node where the printing process lives
     GPU memory used/free/total (MiB): 1128 / 80022 / 81151
------------------
     ethr =  4.79E-06,  avg # of iterations =  1.1

     total cpu time spent up to now is       21.5 secs

     total energy              =    -569.17778538 Ry
     estimated scf accuracy    <       0.00134084 Ry

     total magnetization       =     0.85 Bohr mag/cell
     absolute magnetization    =     0.92 Bohr mag/cell
[tb_dev] Currently allocated     3.05E-05 Mbytes, locked:    0 /   2
[tb_pin] Currently allocated     0.00E+00 Mbytes, locked:    0 /   0

     iteration # 14     ecut=    60.00 Ry     beta= 0.30
     Davidson diagonalization with overlap

---- Real-time Memory Report at c_bands before calling an iterative solver
           772 MiB given to the printing process from OS
             0 MiB allocation reported by mallinfo(arena+hblkhd)
        840758 MiB available memory on the node where the printing process lives
     GPU memory used/free/total (MiB): 1128 / 80022 / 81151
------------------
     ethr =  3.53E-06,  avg # of iterations =  2.0

     total cpu time spent up to now is       22.7 secs

     total energy              =    -569.17783694 Ry
     estimated scf accuracy    <       0.00039305 Ry

     total magnetization       =     0.82 Bohr mag/cell
     absolute magnetization    =     0.90 Bohr mag/cell
[tb_dev] Currently allocated     3.05E-05 Mbytes, locked:    0 /   2
[tb_pin] Currently allocated     0.00E+00 Mbytes, locked:    0 /   0

     iteration # 15     ecut=    60.00 Ry     beta= 0.30
     Davidson diagonalization with overlap

---- Real-time Memory Report at c_bands before calling an iterative solver
           772 MiB given to the printing process from OS
             0 MiB allocation reported by mallinfo(arena+hblkhd)
        840758 MiB available memory on the node where the printing process lives
     GPU memory used/free/total (MiB): 1128 / 80022 / 81151
------------------
     ethr =  1.03E-06,  avg # of iterations =  2.1

     total cpu time spent up to now is       23.9 secs

     total energy              =    -569.17784874 Ry
     estimated scf accuracy    <       0.00016113 Ry

     total magnetization       =     0.81 Bohr mag/cell
     absolute magnetization    =     0.90 Bohr mag/cell
[tb_dev] Currently allocated     3.05E-05 Mbytes, locked:    0 /   2
[tb_pin] Currently allocated     0.00E+00 Mbytes, locked:    0 /   0

     iteration # 16     ecut=    60.00 Ry     beta= 0.30
     Davidson diagonalization with overlap

---- Real-time Memory Report at c_bands before calling an iterative solver
           772 MiB given to the printing process from OS
             0 MiB allocation reported by mallinfo(arena+hblkhd)
        840762 MiB available memory on the node where the printing process lives
     GPU memory used/free/total (MiB): 1128 / 80022 / 81151
------------------
     ethr =  4.24E-07,  avg # of iterations =  3.5

     total cpu time spent up to now is       25.2 secs

     total energy              =    -569.17787483 Ry
     estimated scf accuracy    <       0.00001239 Ry

     total magnetization       =     0.81 Bohr mag/cell
     absolute magnetization    =     0.90 Bohr mag/cell
[tb_dev] Currently allocated     3.05E-05 Mbytes, locked:    0 /   2
[tb_pin] Currently allocated     0.00E+00 Mbytes, locked:    0 /   0

     iteration # 17     ecut=    60.00 Ry     beta= 0.30
     Davidson diagonalization with overlap

---- Real-time Memory Report at c_bands before calling an iterative solver
           772 MiB given to the printing process from OS
             0 MiB allocation reported by mallinfo(arena+hblkhd)
        840765 MiB available memory on the node where the printing process lives
     GPU memory used/free/total (MiB): 1128 / 80022 / 81151
------------------
     ethr =  3.26E-08,  avg # of iterations =  7.8

     total cpu time spent up to now is       27.2 secs

     total energy              =    -569.17788651 Ry
     estimated scf accuracy    <       0.00000989 Ry

     total magnetization       =     0.80 Bohr mag/cell
     absolute magnetization    =     0.90 Bohr mag/cell
[tb_dev] Currently allocated     3.05E-05 Mbytes, locked:    0 /   2
[tb_pin] Currently allocated     0.00E+00 Mbytes, locked:    0 /   0

     iteration # 18     ecut=    60.00 Ry     beta= 0.30
     Davidson diagonalization with overlap

---- Real-time Memory Report at c_bands before calling an iterative solver
           772 MiB given to the printing process from OS
             0 MiB allocation reported by mallinfo(arena+hblkhd)
        840767 MiB available memory on the node where the printing process lives
     GPU memory used/free/total (MiB): 1128 / 80022 / 81151
------------------
     ethr =  2.60E-08,  avg # of iterations =  1.2

     total cpu time spent up to now is       28.3 secs

     total energy              =    -569.17788912 Ry
     estimated scf accuracy    <       0.00000764 Ry

     total magnetization       =     0.80 Bohr mag/cell
     absolute magnetization    =     0.90 Bohr mag/cell
[tb_dev] Currently allocated     3.05E-05 Mbytes, locked:    0 /   2
[tb_pin] Currently allocated     0.00E+00 Mbytes, locked:    0 /   0

     iteration # 19     ecut=    60.00 Ry     beta= 0.30
     Davidson diagonalization with overlap

---- Real-time Memory Report at c_bands before calling an iterative solver
           772 MiB given to the printing process from OS
             0 MiB allocation reported by mallinfo(arena+hblkhd)
        840745 MiB available memory on the node where the printing process lives
     GPU memory used/free/total (MiB): 1128 / 80022 / 81151
------------------
     ethr =  2.01E-08,  avg # of iterations =  1.8

     total cpu time spent up to now is       29.5 secs

     total energy              =    -569.17789130 Ry
     estimated scf accuracy    <       0.00000042 Ry

     total magnetization       =     0.80 Bohr mag/cell
     absolute magnetization    =     0.91 Bohr mag/cell
[tb_dev] Currently allocated     3.05E-05 Mbytes, locked:    0 /   2
[tb_pin] Currently allocated     0.00E+00 Mbytes, locked:    0 /   0

     iteration # 20     ecut=    60.00 Ry     beta= 0.30
     Davidson diagonalization with overlap

---- Real-time Memory Report at c_bands before calling an iterative solver
           772 MiB given to the printing process from OS
             0 MiB allocation reported by mallinfo(arena+hblkhd)
        840733 MiB available memory on the node where the printing process lives
     GPU memory used/free/total (MiB): 1128 / 80022 / 81151
------------------
     ethr =  1.11E-09,  avg # of iterations =  6.5

     total cpu time spent up to now is       31.3 secs

     total energy              =    -569.17789208 Ry
     estimated scf accuracy    <       0.00000025 Ry

     total magnetization       =     0.80 Bohr mag/cell
     absolute magnetization    =     0.91 Bohr mag/cell
[tb_dev] Currently allocated     3.05E-05 Mbytes, locked:    0 /   2
[tb_pin] Currently allocated     0.00E+00 Mbytes, locked:    0 /   0

     iteration # 21     ecut=    60.00 Ry     beta= 0.30
     Davidson diagonalization with overlap

---- Real-time Memory Report at c_bands before calling an iterative solver
           772 MiB given to the printing process from OS
             0 MiB allocation reported by mallinfo(arena+hblkhd)
        840712 MiB available memory on the node where the printing process lives
     GPU memory used/free/total (MiB): 1128 / 80022 / 81151
------------------
     ethr =  6.48E-10,  avg # of iterations =  2.2

     total cpu time spent up to now is       32.6 secs

     total energy              =    -569.17789265 Ry
     estimated scf accuracy    <       0.00000015 Ry

     total magnetization       =     0.79 Bohr mag/cell
     absolute magnetization    =     0.91 Bohr mag/cell
[tb_dev] Currently allocated     3.05E-05 Mbytes, locked:    0 /   2
[tb_pin] Currently allocated     0.00E+00 Mbytes, locked:    0 /   0

     iteration # 22     ecut=    60.00 Ry     beta= 0.30
     Davidson diagonalization with overlap

---- Real-time Memory Report at c_bands before calling an iterative solver
           772 MiB given to the printing process from OS
             0 MiB allocation reported by mallinfo(arena+hblkhd)
        840715 MiB available memory on the node where the printing process lives
     GPU memory used/free/total (MiB): 1128 / 80022 / 81151
------------------
     ethr =  4.05E-10,  avg # of iterations =  4.8
 
     Magnetic moment per site  (integrated on atomic sphere of radius R)
     atom   1 (R=0.275)  charge= 14.0886  magn=  0.6464
     atom   2 (R=0.275)  charge=  5.2095  magn=  0.0716
     atom   3 (R=0.275)  charge=  5.2162  magn=  0.0657
     atom   4 (R=0.413)  charge=  8.2563  magn= -0.0213

     total cpu time spent up to now is       34.1 secs

     End of self-consistent calculation

 ------ SPIN UP ------------


          k = 0.0000 0.0000 0.0000 (  3803 PWs)   bands (ev):

   -92.0830 -55.2966 -55.2859 -55.2859 -49.7749 -21.6601 -21.5724 -21.5724
   -15.4304 -13.5099  -1.6737  -1.2886  -1.2886   1.2218   1.8427   2.1491
     2.1491   2.4623   2.4623   3.4760   5.6820   6.1164   6.1164   9.2197
    12.7906  12.9535  15.7511

     occupation numbers 
     1.0000   1.0000   1.0000   1.0000   1.0000   1.0000   1.0000   1.0000
     1.0000   1.0000   1.0000   1.0000   1.0000   1.0000   1.0000   1.0000
     1.0000   1.0000   1.0000   1.0827   0.0000   0.0000   0.0000   0.0000
     0.0000   0.0000   0.0000

          k = 0.0000 0.0000 0.0972 (  3796 PWs)   bands (ev):

   -92.0830 -55.2965 -55.2859 -55.2859 -49.7749 -21.6599 -21.5724 -21.5724
   -15.4304 -13.5100  -1.6680  -1.2886  -1.2886   1.0863   2.0462   2.1491
     2.1491   2.4623   2.4623   3.4349   5.5571   6.1164   6.1164   9.6603
    11.5785  13.8705  15.8192

     occupation numbers 
     1.0000   1.0000   1.0000   1.0000   1.0000   1.0000   1.0000   1.0000
     1.0000   1.0000   1.0000   1.0000   1.0000   1.0000   1.0000   1.0000
     1.0000   1.0000   1.0000   1.0751   0.0000   0.0000   0.0000   0.0000
     0.0000   0.0000   0.0000

          k = 0.0000 0.1443 0.0000 (  3787 PWs)   bands (ev):

   -92.0823 -55.2953 -55.2939 -55.2878 -49.7697 -21.6527 -21.6169 -21.5820
   -15.2588 -13.5173  -1.4885  -1.4306  -1.1726   1.2066   1.5772   1.6232
     2.1621   2.6427   2.9244   3.5464   5.5759   6.0190   6.0883   9.6976
    13.2297  13.4668  16.2774

     occupation numbers 
     1.0000   1.0000   1.0000   1.0000   1.0000   1.0000   1.0000   1.0000
     1.0000   1.0000   1.0000   1.0000   1.0000   1.0000   1.0000   1.0000
     1.0000   1.0000   1.0001   1.0712   0.0000   0.0000   0.0000   0.0000
     0.0000   0.0000   0.0000

          k = 0.0000 0.1443 0.0972 (  3806 PWs)   bands (ev):

   -92.0823 -55.2954 -55.2939 -55.2878 -49.7697 -21.6530 -21.6171 -21.5821
   -15.2588 -13.5173  -1.4861  -1.4294  -1.1727   1.2111   1.5009   1.5772
     2.3207   2.6631   2.9244   3.5000   5.6609   5.9068   6.0190  10.0659
    12.1154  14.4595  16.1501

     occupation numbers 
     1.0000   1.0000   1.0000   1.0000   1.0000   1.0000   1.0000   1.0000
     1.0000   1.0000   1.0000   1.0000   1.0000   1.0000   1.0000   1.0000
     1.0000   1.0000   1.0001   1.0830   0.0000   0.0000   0.0000   0.0000
     0.0000   0.0000   0.0000

          k = 0.0000 0.2887 0.0000 (  3786 PWs)   bands (ev):

   -92.0805 -55.3134 -55.2925 -55.2925 -49.7570 -21.7231 -21.6355 -21.6050
   -14.8083 -13.5491  -1.6686  -1.0274  -0.8965  -0.0699   1.0400   2.3156
     2.7309   2.8463   3.1001   3.4264   5.0195   5.9037   6.9644  10.8590
    13.5860  14.1244  14.7540

     occupation numbers 
     1.0000   1.0000   1.0000   1.0000   1.0000   1.0000   1.0000   1.0000
     1.0000   1.0000   1.0000   1.0000   1.0000   1.0000   1.0000   1.0000
     1.0000   1.0000   1.0028   1.0728   0.0000   0.0000   0.0000   0.0000
     0.0000   0.0000   0.0000

          k = 0.0000 0.2887 0.0972 (  3778 PWs)   bands (ev):

   -92.0805 -55.3134 -55.2925 -55.2924 -49.7570 -21.7230 -21.6355 -21.6049
   -14.8083 -13.5491  -1.6695  -1.0256  -0.8965  -0.0682   1.0400   2.2897
     2.6576   2.9859   3.1001   3.3703   5.0816   5.9037   6.8680  11.0813
    13.3213  13.6609  15.6405

     occupation numbers 
     1.0000   1.0000   1.0000   1.0000   1.0000   1.0000   1.0000   1.0000
     1.0000   1.0000   1.0000   1.0000   1.0000   1.0000   1.0000   1.0000
     1.0000   1.0004   1.0028   1.0544   0.0000   0.0000   0.0000   0.0000
     0.0000   0.0000   0.0000

          k = 0.0000 0.4330 0.0000 (  3780 PWs)   bands (ev):

   -92.0788 -55.3328 -55.2972 -55.2897 -49.7444 -21.8273 -21.6278 -21.6182
   -14.2638 -13.6346  -2.1130  -1.0195  -0.6801  -0.0133   0.8954   1.8461
     2.6174   2.8107   3.1100   4.6130   5.2188   5.9440   8.5155  10.1458
    12.6191  13.8099  15.3412

     occupation numbers 
     1.0000   1.0000   1.0000   1.0000   1.0000   1.0000   1.0000   1.0000
     1.0000   1.0000   1.0000   1.0000   1.0000   1.0000   1.0000   1.0000
     1.0000   1.0000   1.0033   0.0000   0.0000   0.0000   0.0000   0.0000
     0.0000   0.0000   0.0000

          k = 0.0000 0.4330 0.0972 (  3794 PWs)   bands (ev):

   -92.0788 -55.3329 -55.2972 -55.2897 -49.7444 -21.8274 -21.6279 -21.6183
   -14.2638 -13.6346  -2.1131  -1.0198  -0.6801  -0.0124   0.8954   1.8469
     2.6171   2.8107   3.1114   4.5653   5.2789   5.9439   8.4837  10.1418
    12.7032  13.8851  14.8694

     occupation numbers 
     1.0000   1.0000   1.0000   1.0000   1.0000   1.0000   1.0000   1.0000
     1.0000   1.0000   1.0000   1.0000   1.0000   1.0000   1.0000   1.0000
     1.0000   1.0000   1.0033   0.0000   0.0000   0.0000   0.0000   0.0000
     0.0000   0.0000   0.0000

          k = 0.0000-0.5774 0.0000 (  3798 PWs)   bands (ev):

   -92.0781 -55.3410 -55.2991 -55.2885 -49.7392 -21.8701 -21.6374 -21.6111
   -13.8848 -13.8083  -2.4927  -0.8084  -0.6366   0.1273   0.9897   1.6258
     2.3347   2.5562   3.0252   5.3876   5.9928   6.5090   7.7969  10.4422
    11.2571  14.4630  14.6900

     occupation numbers 
     1.0000   1.0000   1.0000   1.0000   1.0000   1.0000   1.0000   1.0000
     1.0000   1.0000   1.0000   1.0000   1.0000   1.0000   1.0000   1.0000
     1.0000   1.0000   1.0008   0.0000   0.0000   0.0000   0.0000   0.0000
     0.0000   0.0000   0.0000

          k = 0.0000-0.5774 0.0972 (  3790 PWs)   bands (ev):

   -92.0781 -55.3410 -55.2991 -55.2885 -49.7391 -21.8700 -21.6373 -21.6111
   -13.8848 -13.8083  -2.4927  -0.8084  -0.6366   0.1274   0.9898   1.6265
     2.3346   2.5562   3.0249   5.3844   5.9928   6.5148   7.7865  10.4440
    11.3159  14.1239  14.8729

     occupation numbers 
     1.0000   1.0000   1.0000   1.0000   1.0000   1.0000   1.0000   1.0000
     1.0000   1.0000   1.0000   1.0000   1.0000   1.0000   1.0000   1.0000
     1.0000   1.0000   1.0008   0.0000   0.0000   0.0000   0.0000   0.0000
     0.0000   0.0000   0.0000

          k = 0.1250 0.2165 0.0000 (  3789 PWs)   bands (ev):

   -92.0810 -55.3068 -55.2934 -55.2919 -49.7608 -21.6874 -21.6405 -21.6033
   -14.9477 -13.5360  -1.5822  -1.1425  -1.0095   0.3919   0.8926   2.3457
     2.5143   2.6519   3.2250   3.4705   5.2180   5.7679   6.6688  10.5153
    13.8763  14.3509  14.8772

     occupation numbers 
     1.0000   1.0000   1.0000   1.0000   1.0000   1.0000   1.0000   1.0000
     1.0000   1.0000   1.0000   1.0000   1.0000   1.0000   1.0000   1.0000
     1.0000   1.0000   1.0148   1.0821   0.0000   0.0000   0.0000   0.0000
     0.0000   0.0000   0.0000

          k = 0.1250 0.2165 0.0972 (  3785 PWs)   bands (ev):

   -92.0810 -55.3068 -55.2935 -55.2919 -49.7608 -21.6872 -21.6406 -21.6032
   -14.9476 -13.5360  -1.5831  -1.1401  -1.0093   0.3938   0.8926   2.2066
     2.6483   2.6753   3.2484   3.4326   5.2638   5.7397   6.6016  10.7281
    13.0720  14.8676  15.3299

     occupation numbers 
     1.0000   1.0000   1.0000   1.0000   1.0000   1.0000   1.0000   1.0000
     1.0000   1.0000   1.0000   1.0000   1.0000   1.0000   1.0000   1.0000
     1.0000   1.0000   1.0192   1.0745   0.0000   0.0000   0.0000   0.0000
     0.0000   0.0000   0.0000

          k = 0.1250 0.3608 0.0000 (  3780 PWs)   bands (ev):

   -92.0793 -55.3242 -55.2987 -55.2905 -49.7481 -21.7810 -21.6372 -21.6233
   -14.4512 -13.5867  -1.7019  -1.2009  -0.6376  -0.1077   0.4943   2.1409
     2.6852   2.9858   3.3613   3.9312   5.1641   5.6585   7.8922  11.5878
    12.1237  14.6966  15.4981

     occupation numbers 
     1.0000   1.0000   1.0000   1.0000   1.0000   1.0000   1.0000   1.0000
     1.0000   1.0000   1.0000   1.0000   1.0000   1.0000   1.0000   1.0000
     1.0000   1.0004   1.0513   0.2723   0.0000   0.0000   0.0000   0.0000
     0.0000   0.0000   0.0000

          k = 0.1250 0.3608 0.0972 (  3782 PWs)   bands (ev):

   -92.0793 -55.3243 -55.2987 -55.2905 -49.7481 -21.7811 -21.6372 -21.6233
   -14.4512 -13.5867  -1.7022  -1.2010  -0.6373  -0.1064   0.4943   2.1398
     2.6850   2.9908   3.3511   3.9185   5.2122   5.6422   7.8624  11.6216
    12.1708  14.3488  15.8576

     occupation numbers 
     1.0000   1.0000   1.0000   1.0000   1.0000   1.0000   1.0000   1.0000
     1.0000   1.0000   1.0000   1.0000   1.0000   1.0000   1.0000   1.0000
     1.0000   1.0005   1.0478   0.2993   0.0000   0.0000   0.0000   0.0000
     0.0000   0.0000   0.0000

          k = 0.1250 0.5052 0.0000 (  3784 PWs)   bands (ev):

   -92.0781 -55.3365 -55.3035 -55.2885 -49.7391 -21.8459 -21.6618 -21.6111
   -13.9906 -13.7029  -2.2043  -1.1889  -0.3494   0.1422   0.4857   1.5604
     2.4297   2.7199   3.2457   5.3388   5.7182   5.9967   8.8903   9.8020
    12.5854  13.4974  15.1569

     occupation numbers 
     1.0000   1.0000   1.0000   1.0000   1.0000   1.0000   1.0000   1.0000
     1.0000   1.0000   1.0000   1.0000   1.0000   1.0000   1.0000   1.0000
     1.0000   1.0000   1.0186   0.0000   0.0000   0.0000   0.0000   0.0000
     0.0000   0.0000   0.0000

          k = 0.1250 0.5052 0.0972 (  3793 PWs)   bands (ev):

   -92.0781 -55.3366 -55.3035 -55.2885 -49.7392 -21.8460 -21.6618 -21.6112
   -13.9906 -13.7029  -2.2043  -1.1890  -0.3495   0.1425   0.4857   1.5608
     2.4296   2.7201   3.2452   5.3260   5.7344   5.9941   8.8850   9.8022
    12.6264  13.4873  15.2058

     occupation numbers 
     1.0000   1.0000   1.0000   1.0000   1.0000   1.0000   1.0000   1.0000
     1.0000   1.0000   1.0000   1.0000   1.0000   1.0000   1.0000   1.0000
     1.0000   1.0000   1.0185   0.0000   0.0000   0.0000   0.0000   0.0000
     0.0000   0.0000   0.0000

          k = 0.2500 0.4330 0.0000 (  3781 PWs)   bands (ev):

   -92.0781 -55.3304 -55.3095 -55.2885 -49.7391 -21.8124 -21.6956 -21.6112
   -14.0467 -13.6472  -1.6404  -1.5218  -0.5659   0.1468   0.2322   1.5603
     2.4824   2.8431   3.4463   5.3160   5.3978   5.7244   9.4977  10.1200
    12.4786  14.5548  14.8408

     occupation numbers 
     1.0000   1.0000   1.0000   1.0000   1.0000   1.0000   1.0000   1.0000
     1.0000   1.0000   1.0000   1.0000   1.0000   1.0000   1.0000   1.0000
     1.0000   1.0000   1.0779   0.0000   0.0000   0.0000   0.0000   0.0000
     0.0000   0.0000   0.0000

          k = 0.2500 0.4330 0.0972 (  3790 PWs)   bands (ev):

   -92.0781 -55.3304 -55.3095 -55.2885 -49.7392 -21.8125 -21.6957 -21.6112
   -14.0467 -13.6472  -1.6404  -1.5219  -0.5660   0.1467   0.2327   1.5602
     2.4825   2.8434   3.4446   5.3382   5.3896   5.7064   9.5181  10.1172
    12.4507  14.5242  14.9029

     occupation numbers 
     1.0000   1.0000   1.0000   1.0000   1.0000   1.0000   1.0000   1.0000
     1.0000   1.0000   1.0000   1.0000   1.0000   1.0000   1.0000   1.0000
     1.0000   1.0000   1.0775   0.0000   0.0000   0.0000   0.0000   0.0000
     0.0000   0.0000   0.0000

          k = 0.2500 0.5774 0.0000 (  3794 PWs)   bands (ev):

   -92.0776 -55.3310 -55.3161 -55.2877 -49.7355 -21.8138 -21.7316 -21.6061
   -13.8110 -13.7316  -1.7976  -1.4325  -0.7115   0.2844   0.4672   1.1210
     2.1959   3.0514   3.3270   5.3859   5.4194   7.3962   8.4133  11.5347
    12.0073  12.2066  14.6496

     occupation numbers 
     1.0000   1.0000   1.0000   1.0000   1.0000   1.0000   1.0000   1.0000
     1.0000   1.0000   1.0000   1.0000   1.0000   1.0000   1.0000   1.0000
     1.0000   1.0013   1.0399   0.0000   0.0000   0.0000   0.0000   0.0000
     0.0000   0.0000   0.0000

          k = 0.2500 0.5774 0.0972 (  3783 PWs)   bands (ev):

   -92.0775 -55.3309 -55.3161 -55.2877 -49.7354 -21.8137 -21.7315 -21.6061
   -13.8110 -13.7316  -1.7976  -1.4325  -0.7114   0.2844   0.4672   1.1210
     2.1959   3.0514   3.3267   5.3865   5.4216   7.3902   8.4083  11.5561
    12.0052  12.2313  14.6648

     occupation numbers 
     1.0000   1.0000   1.0000   1.0000   1.0000   1.0000   1.0000   1.0000
     1.0000   1.0000   1.0000   1.0000   1.0000   1.0000   1.0000   1.0000
     1.0000   1.0013   1.0398   0.0000   0.0000   0.0000   0.0000   0.0000
     0.0000   0.0000   0.0000

          k = 0.0000-0.1443 0.0972 (  3806 PWs)   bands (ev):

   -92.0823 -55.2954 -55.2939 -55.2878 -49.7697 -21.6530 -21.6171 -21.5821
   -15.2588 -13.5173  -1.4848  -1.4308  -1.1727   1.2026   1.5136   1.5772
     2.3160   2.6623   2.9244   3.5054   5.5791   5.9937   6.0190  10.0337
    12.1519  14.4537  16.1377

     occupation numbers 
     1.0000   1.0000   1.0000   1.0000   1.0000   1.0000   1.0000   1.0000
     1.0000   1.0000   1.0000   1.0000   1.0000   1.0000   1.0000   1.0000
     1.0000   1.0000   1.0001   1.0826   0.0000   0.0000   0.0000   0.0000
     0.0000   0.0000   0.0000

          k = 0.0000-0.2887 0.0972 (  3778 PWs)   bands (ev):

   -92.0805 -55.3134 -55.2925 -55.2925 -49.7570 -21.7230 -21.6355 -21.6049
   -14.8083 -13.5491  -1.6691  -1.0262  -0.8965  -0.0678   1.0401   2.2780
     2.6776   2.9547   3.1001   3.4185   5.0151   5.9037   6.9393  10.9572
    13.4676  13.7092  15.6085

     occupation numbers 
     1.0000   1.0000   1.0000   1.0000   1.0000   1.0000   1.0000   1.0000
     1.0000   1.0000   1.0000   1.0000   1.0000   1.0000   1.0000   1.0000
     1.0000   1.0002   1.0028   1.0705   0.0000   0.0000   0.0000   0.0000
     0.0000   0.0000   0.0000

          k = 0.0000-0.4330 0.0972 (  3794 PWs)   bands (ev):

   -92.0788 -55.3329 -55.2972 -55.2897 -49.7444 -21.8274 -21.6279 -21.6183
   -14.2638 -13.6346  -2.1131  -1.0198  -0.6801  -0.0121   0.8954   1.8455
     2.6181   2.8107   3.1070   4.6211   5.2070   5.9439   8.5439  10.1366
    12.5111  13.9146  15.1143

     occupation numbers 
     1.0000   1.0000   1.0000   1.0000   1.0000   1.0000   1.0000   1.0000
     1.0000   1.0000   1.0000   1.0000   1.0000   1.0000   1.0000   1.0000
     1.0000   1.0000   1.0031   0.0000   0.0000   0.0000   0.0000   0.0000
     0.0000   0.0000   0.0000

          k =-0.1250-0.3608 0.0972 (  3782 PWs)   bands (ev):

   -92.0793 -55.3243 -55.2987 -55.2905 -49.7481 -21.7811 -21.6372 -21.6233
   -14.4512 -13.5867  -1.7022  -1.2010  -0.6375  -0.1059   0.4942   2.1380
     2.6860   2.9922   3.3374   3.9529   5.1646   5.6546   7.8958  11.5695
    12.1381  14.5359  15.8700

     occupation numbers 
     1.0000   1.0000   1.0000   1.0000   1.0000   1.0000   1.0000   1.0000
     1.0000   1.0000   1.0000   1.0000   1.0000   1.0000   1.0000   1.0000
     1.0000   1.0005   1.0433   0.2297   0.0000   0.0000   0.0000   0.0000
     0.0000   0.0000   0.0000

          k =-0.1250-0.5052 0.0972 (  3793 PWs)   bands (ev):

   -92.0781 -55.3366 -55.3035 -55.2885 -49.7392 -21.8460 -21.6618 -21.6112
   -13.9906 -13.7029  -2.2043  -1.1890  -0.3495   0.1425   0.4858   1.5605
     2.4297   2.7200   3.2448   5.3455   5.7226   5.9799   8.8858   9.8366
    12.6143  13.3534  15.2626

     occupation numbers 
     1.0000   1.0000   1.0000   1.0000   1.0000   1.0000   1.0000   1.0000
     1.0000   1.0000   1.0000   1.0000   1.0000   1.0000   1.0000   1.0000
     1.0000   1.0000   1.0184   0.0000   0.0000   0.0000   0.0000   0.0000
     0.0000   0.0000   0.0000

 ------ SPIN DOWN ----------


          k = 0.0000 0.0000 0.0000 (  3803 PWs)   bands (ev):

   -91.2900 -54.5697 -54.5697 -54.4095 -49.7838 -21.6672 -21.5826 -21.5826
   -15.3187 -13.3886  -1.3267  -1.0347  -1.0347   1.1331   2.0085   2.5457
     2.5457   2.8180   2.8180   4.3732   5.6230   6.4566   6.4566   9.2348
    12.8694  13.0416  15.8076

     occupation numbers 
     1.0000   1.0000   1.0000   1.0000   1.0000   1.0000   1.0000   1.0000
     1.0000   1.0000   1.0000   1.0000   1.0000   1.0000   1.0000   1.0000
     1.0000   1.0000   1.0000   0.0008   0.0000   0.0000   0.0000   0.0000
     0.0000   0.0000   0.0000

          k = 0.0000 0.0000 0.0972 (  3796 PWs)   bands (ev):

   -91.2900 -54.5697 -54.5697 -54.4094 -49.7838 -21.6670 -21.5826 -21.5826
   -15.3187 -13.3887  -1.3180  -1.0347  -1.0347   1.0162   2.1917   2.5456
     2.5456   2.8180   2.8180   4.3149   5.5143   6.4566   6.4566   9.6688
    11.6599  13.9564  15.8997

     occupation numbers 
     1.0000   1.0000   1.0000   1.0000   1.0000   1.0000   1.0000   1.0000
     1.0000   1.0000   1.0000   1.0000   1.0000   1.0000   1.0000   1.0000
     1.0000   1.0000   1.0000   0.0023   0.0000   0.0000   0.0000   0.0000
     0.0000   0.0000   0.0000

          k = 0.0000 0.1443 0.0000 (  3787 PWs)   bands (ev):

   -91.2892 -54.5780 -54.5717 -54.4081 -49.7786 -21.6598 -21.6274 -21.5922
   -15.1464 -13.3952  -1.2125  -1.1205  -0.9264   1.4189   1.5768   1.9044
     2.3336   3.1915   3.3715   4.3956   5.7571   6.1957   6.3502   9.7062
    13.3020  13.5582  16.3433

     occupation numbers 
     1.0000   1.0000   1.0000   1.0000   1.0000   1.0000   1.0000   1.0000
     1.0000   1.0000   1.0000   1.0000   1.0000   1.0000   1.0000   1.0000
     1.0000   1.0099   1.0548   0.0005   0.0000   0.0000   0.0000   0.0000
     0.0000   0.0000   0.0000

          k = 0.0000 0.1443 0.0972 (  3806 PWs)   bands (ev):

   -91.2893 -54.5781 -54.5718 -54.4083 -49.7786 -21.6600 -21.6275 -21.5923
   -15.1464 -13.3953  -1.2135  -1.1139  -0.9264   1.4162   1.4785   1.9044
     2.4824   3.1994   3.3715   4.3421   5.8342   6.0307   6.3501  10.0719
    12.1936  14.5463  16.2365

     occupation numbers 
     1.0000   1.0000   1.0000   1.0000   1.0000   1.0000   1.0000   1.0000
     1.0000   1.0000   1.0000   1.0000   1.0000   1.0000   1.0000   1.0000
     1.0000   1.0110   1.0548   0.0014   0.0000   0.0000   0.0000   0.0000
     0.0000   0.0000   0.0000

          k = 0.0000 0.2887 0.0000 (  3786 PWs)   bands (ev):

   -91.2874 -54.5983 -54.5766 -54.4052 -49.7659 -21.7342 -21.6425 -21.6153
   -14.6938 -13.4254  -1.4468  -0.7436  -0.6684   0.1778   1.3091   2.5361
     2.7186   3.3719   3.6565   4.2329   5.3864   6.2150   6.9205  10.8557
    13.4794  14.1695  14.8499

     occupation numbers 
     1.0000   1.0000   1.0000   1.0000   1.0000   1.0000   1.0000   1.0000
     1.0000   1.0000   1.0000   1.0000   1.0000   1.0000   1.0000   1.0000
     1.0000   1.0550   0.9500   0.0089   0.0000   0.0000   0.0000   0.0000
     0.0000   0.0000   0.0000

          k = 0.0000 0.2887 0.0972 (  3778 PWs)   bands (ev):

   -91.2874 -54.5983 -54.5765 -54.4052 -49.7659 -21.7342 -21.6424 -21.6152
   -14.6938 -13.4254  -1.4479  -0.7416  -0.6684   0.1812   1.3091   2.4387
     2.8024   3.3973   3.6565   4.2042   5.4675   6.2151   6.8014  11.0790
    13.3606  13.5698  15.7301

     occupation numbers 
     1.0000   1.0000   1.0000   1.0000   1.0000   1.0000   1.0000   1.0000
     1.0000   1.0000   1.0000   1.0000   1.0000   1.0000   1.0000   1.0000
     1.0000   1.0637   0.9500   0.0136   0.0000   0.0000   0.0000   0.0000
     0.0000   0.0000   0.0000

          k = 0.0000 0.4330 0.0000 (  3780 PWs)   bands (ev):

   -91.2856 -54.6185 -54.5814 -54.4021 -49.7531 -21.8391 -21.6382 -21.6250
   -14.1462 -13.5101  -1.9251  -0.8798  -0.4572   0.3424   1.0650   2.0594
     3.3558   3.4896   3.8655   4.5179   5.6162   6.2515   8.4454  10.0354
    12.6091  13.7526  15.3822

     occupation numbers 
     1.0000   1.0000   1.0000   1.0000   1.0000   1.0000   1.0000   1.0000
     1.0000   1.0000   1.0000   1.0000   1.0000   1.0000   1.0000   1.0000
     1.0494   1.0833   0.4261   0.0000   0.0000   0.0000   0.0000   0.0000
     0.0000   0.0000   0.0000

          k = 0.0000 0.4330 0.0972 (  3794 PWs)   bands (ev):

   -91.2856 -54.6186 -54.5815 -54.4022 -49.7532 -21.8392 -21.6383 -21.6251
   -14.1462 -13.5101  -1.9253  -0.8802  -0.4572   0.3436   1.0650   2.0605
     3.3537   3.4896   3.8699   4.4849   5.6643   6.2515   8.4075  10.0315
    12.6906  13.8293  14.9177

     occupation numbers 
     1.0000   1.0000   1.0000   1.0000   1.0000   1.0000   1.0000   1.0000
     1.0000   1.0000   1.0000   1.0000   1.0000   1.0000   1.0000   1.0000
     1.0487   1.0833   0.4147   0.0001   0.0000   0.0000   0.0000   0.0000
     0.0000   0.0000   0.0000

          k = 0.0000-0.5774 0.0000 (  3798 PWs)   bands (ev):

   -91.2849 -54.6270 -54.5835 -54.4009 -49.7479 -21.8822 -21.6479 -21.6178
   -13.7679 -13.6813  -2.3229  -0.7078  -0.4072   0.4891   1.0711   1.8002
     3.2329   3.3194   3.7171   5.8059   6.3037   6.3807   7.7029  10.3475
    11.2062  14.4354  14.7116

     occupation numbers 
     1.0000   1.0000   1.0000   1.0000   1.0000   1.0000   1.0000   1.0000
     1.0000   1.0000   1.0000   1.0000   1.0000   1.0000   1.0000   1.0000
     1.0162   1.0375   0.8225   0.0000   0.0000   0.0000   0.0000   0.0000
     0.0000   0.0000   0.0000

          k = 0.0000-0.5774 0.0972 (  3790 PWs)   bands (ev):

   -91.2848 -54.6270 -54.5834 -54.4009 -49.7479 -21.8821 -21.6478 -21.6179
   -13.7679 -13.6813  -2.3229  -0.7078  -0.4072   0.4892   1.0713   1.8011
     3.2326   3.3194   3.7169   5.7954   6.3038   6.3953   7.6914  10.3480
    11.2646  14.1135  14.8946

     occupation numbers 
     1.0000   1.0000   1.0000   1.0000   1.0000   1.0000   1.0000   1.0000
     1.0000   1.0000   1.0000   1.0000   1.0000   1.0000   1.0000   1.0000
     1.0161   1.0375   0.8230   0.0000   0.0000   0.0000   0.0000   0.0000
     0.0000   0.0000   0.0000

          k = 0.1250 0.2165 0.0000 (  3789 PWs)   bands (ev):

   -91.2879 -54.5915 -54.5761 -54.4060 -49.7696 -21.6983 -21.6475 -21.6136
   -14.8339 -13.4128  -1.3576  -0.8360  -0.7567   0.6095   1.1698   2.3012
     2.6523   3.3139   3.7163   4.3043   5.5362   6.0936   6.6402  10.5161
    13.9338  14.4484  14.7467

     occupation numbers 
     1.0000   1.0000   1.0000   1.0000   1.0000   1.0000   1.0000   1.0000
     1.0000   1.0000   1.0000   1.0000   1.0000   1.0000   1.0000   1.0000
     1.0000   1.0358   0.8244   0.0028   0.0000   0.0000   0.0000   0.0000
     0.0000   0.0000   0.0000

          k = 0.1250 0.2165 0.0972 (  3785 PWs)   bands (ev):

   -91.2879 -54.5914 -54.5761 -54.4061 -49.7696 -21.6981 -21.6476 -21.6136
   -14.8339 -13.4128  -1.3588  -0.8340  -0.7551   0.6134   1.1698   2.1868
     2.7801   3.3139   3.7328   4.2744   5.6034   6.0419   6.5740  10.7288
    13.1452  14.7375  15.4095

     occupation numbers 
     1.0000   1.0000   1.0000   1.0000   1.0000   1.0000   1.0000   1.0000
     1.0000   1.0000   1.0000   1.0000   1.0000   1.0000   1.0000   1.0000
     1.0000   1.0358   0.7839   0.0046   0.0000   0.0000   0.0000   0.0000
     0.0000   0.0000   0.0000

          k = 0.1250 0.3608 0.0000 (  3780 PWs)   bands (ev):

   -91.2861 -54.6096 -54.5830 -54.4031 -49.7569 -21.7926 -21.6477 -21.6302
   -14.3348 -13.4622  -1.4947  -1.0271  -0.4156   0.2149   0.7108   2.3475
     3.3825   3.7366   3.8406   4.0273   5.5319   5.9768   7.8294  11.5109
    12.0668  14.7203  15.5626

     occupation numbers 
     1.0000   1.0000   1.0000   1.0000   1.0000   1.0000   1.0000   1.0000
     1.0000   1.0000   1.0000   1.0000   1.0000   1.0000   1.0000   1.0000
     1.0586   0.7743   0.4919   0.1173   0.0000   0.0000   0.0000   0.0000
     0.0000   0.0000   0.0000

          k = 0.1250 0.3608 0.0972 (  3782 PWs)   bands (ev):

   -91.2861 -54.6096 -54.5830 -54.4030 -49.7569 -21.7926 -21.6477 -21.6302
   -14.3348 -13.4622  -1.4952  -1.0272  -0.4155   0.2171   0.7109   2.3450
     3.3808   3.7036   3.8806   4.0093   5.5828   5.9578   7.7930  11.5372
    12.1213  14.3976  15.8413

     occupation numbers 
     1.0000   1.0000   1.0000   1.0000   1.0000   1.0000   1.0000   1.0000
     1.0000   1.0000   1.0000   1.0000   1.0000   1.0000   1.0000   1.0000
     1.0581   0.8542   0.3879   0.1397   0.0000   0.0000   0.0000   0.0000
     0.0000   0.0000   0.0000

          k = 0.1250 0.5052 0.0000 (  3784 PWs)   bands (ev):

   -91.2848 -54.6224 -54.5880 -54.4009 -49.7479 -21.8578 -21.6724 -21.6178
   -13.8714 -13.5781  -2.0332  -1.0331  -0.1565   0.4175   0.6876   1.7642
     3.3793   3.4365   3.8619   5.6850   5.8820   6.0855   8.7799   9.7231
    12.5185  13.4650  15.1499

     occupation numbers 
     1.0000   1.0000   1.0000   1.0000   1.0000   1.0000   1.0000   1.0000
     1.0000   1.0000   1.0000   1.0000   1.0000   1.0000   1.0000   1.0000
     1.0575   1.0755   0.4354   0.0000   0.0000   0.0000   0.0000   0.0000
     0.0000   0.0000   0.0000

          k = 0.1250 0.5052 0.0972 (  3793 PWs)   bands (ev):

   -91.2848 -54.6224 -54.5880 -54.4009 -49.7479 -21.8579 -21.6725 -21.6179
   -13.8714 -13.5781  -2.0332  -1.0332  -0.1566   0.4177   0.6877   1.7649
     3.3791   3.4367   3.8612   5.6448   5.9477   6.0615   8.7746   9.7225
    12.5578  13.4528  15.2113

     occupation numbers 
     1.0000   1.0000   1.0000   1.0000   1.0000   1.0000   1.0000   1.0000
     1.0000   1.0000   1.0000   1.0000   1.0000   1.0000   1.0000   1.0000
     1.0575   1.0756   0.4372   0.0000   0.0000   0.0000   0.0000   0.0000
     0.0000   0.0000   0.0000

          k = 0.2500 0.4330 0.0000 (  3781 PWs)   bands (ev):

   -91.2848 -54.6160 -54.5942 -54.4009 -49.7479 -21.8241 -21.7064 -21.6180
   -13.9277 -13.5221  -1.4863  -1.3243  -0.4276   0.3537   0.5662   1.7645
     3.4513   3.5504   4.0341   5.4486   5.7548   5.8192   9.4207   9.9887
    12.4369  14.5373  14.7704

     occupation numbers 
     1.0000   1.0000   1.0000   1.0000   1.0000   1.0000   1.0000   1.0000
     1.0000   1.0000   1.0000   1.0000   1.0000   1.0000   1.0000   1.0000
     1.0789   1.0693   0.1096   0.0000   0.0000   0.0000   0.0000   0.0000
     0.0000   0.0000   0.0000

          k = 0.2500 0.4330 0.0972 (  3790 PWs)   bands (ev):

   -91.2848 -54.6161 -54.5943 -54.4010 -49.7479 -21.8242 -21.7066 -21.6180
   -13.9277 -13.5221  -1.4863  -1.3244  -0.4276   0.3536   0.5670   1.7644
     3.4513   3.5510   4.0310   5.4706   5.7351   5.8140   9.4410   9.9857
    12.4092  14.4968  14.8381

     occupation numbers 
     1.0000   1.0000   1.0000   1.0000   1.0000   1.0000   1.0000   1.0000
     1.0000   1.0000   1.0000   1.0000   1.0000   1.0000   1.0000   1.0000
     1.0789   1.0690   0.1131   0.0000   0.0000   0.0000   0.0000   0.0000
     0.0000   0.0000   0.0000

          k = 0.2500 0.5774 0.0000 (  3794 PWs)   bands (ev):

   -91.2843 -54.6166 -54.6012 -54.4000 -49.7442 -21.8255 -21.7427 -21.6128
   -13.6920 -13.6051  -1.6338  -1.2666  -0.5844   0.5026   0.7775   1.2921
     3.2472   3.7234   3.9550   5.7479   5.7573   7.2683   8.2955  11.4387
    11.9548  12.1489  14.5889

     occupation numbers 
     1.0000   1.0000   1.0000   1.0000   1.0000   1.0000   1.0000   1.0000
     1.0000   1.0000   1.0000   1.0000   1.0000   1.0000   1.0000   1.0000
     1.0189   0.8073   0.2258   0.0000   0.0000   0.0000   0.0000   0.0000
     0.0000   0.0000   0.0000

          k = 0.2500 0.5774 0.0972 (  3783 PWs)   bands (ev):

   -91.2843 -54.6165 -54.6011 -54.4000 -49.7442 -21.8254 -21.7426 -21.6128
   -13.6920 -13.6051  -1.6337  -1.2666  -0.5843   0.5025   0.7775   1.2922
     3.2472   3.7235   3.9546   5.7487   5.7607   7.2610   8.2899  11.4603
    11.9524  12.1738  14.6061

     occupation numbers 
     1.0000   1.0000   1.0000   1.0000   1.0000   1.0000   1.0000   1.0000
     1.0000   1.0000   1.0000   1.0000   1.0000   1.0000   1.0000   1.0000
     1.0189   0.8071   0.2265   0.0000   0.0000   0.0000   0.0000   0.0000
     0.0000   0.0000   0.0000

          k = 0.0000-0.1443 0.0972 (  3806 PWs)   bands (ev):

   -91.2893 -54.5781 -54.5718 -54.4083 -49.7786 -21.6600 -21.6275 -21.5923
   -15.1464 -13.3953  -1.2127  -1.1148  -0.9265   1.3753   1.5260   1.9044
     2.4723   3.2041   3.3715   4.3467   5.7352   6.1340   6.3501  10.0389
    12.2316  14.5379  16.2245

     occupation numbers 
     1.0000   1.0000   1.0000   1.0000   1.0000   1.0000   1.0000   1.0000
     1.0000   1.0000   1.0000   1.0000   1.0000   1.0000   1.0000   1.0000
     1.0000   1.0116   1.0548   0.0013   0.0000   0.0000   0.0000   0.0000
     0.0000   0.0000   0.0000

          k = 0.0000-0.2887 0.0972 (  3778 PWs)   bands (ev):

   -91.2874 -54.5983 -54.5765 -54.4052 -49.7659 -21.7342 -21.6424 -21.6152
   -14.6938 -13.4254  -1.4476  -0.7422  -0.6684   0.1817   1.3091   2.4233
     2.8204   3.4008   3.6565   4.2250   5.3809   6.2151   6.8924  10.9539
    13.4499  13.6832  15.6774

     occupation numbers 
     1.0000   1.0000   1.0000   1.0000   1.0000   1.0000   1.0000   1.0000
     1.0000   1.0000   1.0000   1.0000   1.0000   1.0000   1.0000   1.0000
     1.0000   1.0648   0.9500   0.0100   0.0000   0.0000   0.0000   0.0000
     0.0000   0.0000   0.0000

          k = 0.0000-0.4330 0.0972 (  3794 PWs)   bands (ev):

   -91.2856 -54.6186 -54.5815 -54.4022 -49.7532 -21.8392 -21.6383 -21.6251
   -14.1462 -13.5101  -1.9253  -0.8802  -0.4572   0.3442   1.0650   2.0583
     3.3545   3.4896   3.8604   4.5262   5.6087   6.2515   8.4721  10.0265
    12.5012  13.8504  15.1992

     occupation numbers 
     1.0000   1.0000   1.0000   1.0000   1.0000   1.0000   1.0000   1.0000
     1.0000   1.0000   1.0000   1.0000   1.0000   1.0000   1.0000   1.0000
     1.0490   1.0833   0.4392   0.0000   0.0000   0.0000   0.0000   0.0000
     0.0000   0.0000   0.0000

          k =-0.1250-0.3608 0.0972 (  3782 PWs)   bands (ev):

   -91.2861 -54.6096 -54.5830 -54.4030 -49.7569 -21.7926 -21.6477 -21.6302
   -14.3348 -13.4621  -1.4951  -1.0272  -0.4156   0.2177   0.7108   2.3421
     3.3832   3.7160   3.8289   4.0664   5.5336   5.9722   7.8303  11.4949
    12.0789  14.5940  15.8532

     occupation numbers 
     1.0000   1.0000   1.0000   1.0000   1.0000   1.0000   1.0000   1.0000
     1.0000   1.0000   1.0000   1.0000   1.0000   1.0000   1.0000   1.0000
     1.0589   0.8252   0.5236   0.0780   0.0000   0.0000   0.0000   0.0000
     0.0000   0.0000   0.0000

          k =-0.1250-0.5052 0.0972 (  3793 PWs)   bands (ev):

   -91.2849 -54.6224 -54.5880 -54.4009 -49.7479 -21.8579 -21.6725 -21.6179
   -13.8714 -13.5781  -2.0332  -1.0332  -0.1566   0.4177   0.6879   1.7644
     3.3792   3.4367   3.8605   5.7093   5.8611   6.0767   8.7751   9.7566
    12.5478  13.3254  15.2473

     occupation numbers 
     1.0000   1.0000   1.0000   1.0000   1.0000   1.0000   1.0000   1.0000
     1.0000   1.0000   1.0000   1.0000   1.0000   1.0000   1.0000   1.0000
     1.0575   1.0755   0.4391   0.0000   0.0000   0.0000   0.0000   0.0000
     0.0000   0.0000   0.0000

     the Fermi energy is     3.8755 ev

!    total energy              =    -569.17789405 Ry
     total all-electron energy =     -3412.668449 Ry
     estimated scf accuracy    <       0.00000008 Ry
     smearing contrib. (-TS)   =       0.00231686 Ry
     internal energy E=F+TS    =    -569.18021091 Ry

     The total energy is F=E-TS. E is the sum of the following terms:
     one-electron contribution =    -680.64441252 Ry
     hartree contribution      =     352.77271817 Ry
     xc contribution           =     -59.96330497 Ry
     ewald contribution        =     -59.38664849 Ry
     one-center paw contrib.   =    -121.95856310 Ry
      -> PAW hartree energy AE =     342.19531755 Ry
      -> PAW hartree energy PS =    -342.20126510 Ry
      -> PAW xc energy AE      =    -178.88056323 Ry
      -> PAW xc energy PS      =      56.92794769 Ry
      -> total E_H with PAW    =     352.76677061 Ry
      -> total E_XC with PAW   =    -181.91592052 Ry

     total magnetization       =     0.79 Bohr mag/cell
     absolute magnetization    =     0.91 Bohr mag/cell

     convergence has been achieved in  22 iterations

     Forces acting on atoms (cartesian axes, Ry/au):

     atom    1 type  1   force =     0.00000000    0.00000000    0.00569403
     atom    2 type  2   force =     0.00000000    0.00000000   -0.02621976
     atom    3 type  2   force =     0.00000000    0.00000000    0.01599023
     atom    4 type  3   force =     0.00000000    0.00000000    0.00453550
     The non-local contrib.  to forces
     atom    1 type  1   force =     0.00000000    0.00000000    0.00270489
     atom    2 type  2   force =     0.00000000    0.00000000   -1.19572760
     atom    3 type  2   force =    -0.00000000   -0.00000000    1.11792264
     atom    4 type  3   force =     0.00000000    0.00000000    0.02120953
     The ionic contribution  to forces
     atom    1 type  1   force =    -0.00000000    0.00000000    4.52040477
     atom    2 type  2   force =     0.00000000   -0.00000000   36.61252266
     atom    3 type  2   force =    -0.00000000    0.00000000  -33.42954530
     atom    4 type  3   force =     0.00000000   -0.00000000   -7.70338213
     The local contribution  to forces
     atom    1 type  1   force =    -0.00000000   -0.00000000   -4.51777989
     atom    2 type  2   force =     0.00000001   -0.00000001  -35.45363336
     atom    3 type  2   force =    -0.00000001    0.00000001   32.33723006
     atom    4 type  3   force =    -0.00000000   -0.00000000    7.68673578
     The core correction contribution to forces
     atom    1 type  1   force =     0.00000000   -0.00000000   -0.00001713
     atom    2 type  2   force =    -0.00000000    0.00000000    0.01055235
     atom    3 type  2   force =     0.00000000   -0.00000000   -0.00977561
     atom    4 type  3   force =    -0.00000000    0.00000000   -0.00001821
     The Hubbard contrib.    to forces
     atom    1 type  1   force =     0.00000000    0.00000000    0.00000000
     atom    2 type  2   force =     0.00000000    0.00000000    0.00000000
     atom    3 type  2   force =     0.00000000    0.00000000    0.00000000
     atom    4 type  3   force =     0.00000000    0.00000000    0.00000000
     The SCF correction term to forces
     atom    1 type  1   force =     0.00000000    0.00000000    0.00039061
     atom    2 type  2   force =    -0.00000000    0.00000000    0.00007540
     atom    3 type  2   force =     0.00000000   -0.00000000    0.00016764
     atom    4 type  3   force =     0.00000000   -0.00000000   -0.00000027

     Total force =     0.031562     Total SCF correction =     0.000432

     Writing all to output data dir ./out/pw.save/ :
     XML data file, charge density, pseudopotentials, collected wavefunctions
 
     init_run     :     13.25s CPU      3.05s WALL (       1 calls)
     electrons    :    116.16s CPU     30.66s WALL (       1 calls)
     forces       :      0.58s CPU      0.57s WALL (       1 calls)

     Called by init_run:
     wfcinit      :      0.28s CPU      0.34s WALL (       1 calls)
     wfcinit:atom :      0.04s CPU      0.04s WALL (      50 calls)
     wfcinit:wfcr :      0.17s CPU      0.20s WALL (      50 calls)
     potinit      :     12.43s CPU      2.10s WALL (       1 calls)
     hinit0       :      0.45s CPU      0.44s WALL (       1 calls)

     Called by electrons:
     c_bands      :     14.54s CPU     14.57s WALL (      22 calls)
     sum_band     :      2.60s CPU      2.56s WALL (      22 calls)
     v_of_rho     :      0.40s CPU      0.22s WALL (      23 calls)
     v_h          :      0.27s CPU      0.05s WALL (      23 calls)
     v_xc         :      0.13s CPU      0.18s WALL (      24 calls)
     newd         :      0.53s CPU      0.45s WALL (      23 calls)
                                        0.45s GPU  (      23 calls)
     PAW_pot      :    101.10s CPU     12.59s WALL (      23 calls)
     mix_rho      :      0.78s CPU      0.79s WALL (      22 calls)

     Called by c_bands:
     init_us_2    :      0.94s CPU      0.91s WALL (    2300 calls)
     cegterg      :     12.57s CPU     12.65s WALL (    1100 calls)

     Called by sum_band:
     sum_band:wei :      0.03s CPU      0.03s WALL (      22 calls)
                                        0.03s GPU  (      22 calls)
     sum_band:loo :      1.62s CPU      1.58s WALL (      22 calls)
                                        1.58s GPU  (      22 calls)
     sum_band:buf :      0.23s CPU      0.26s WALL (    1100 calls)
                                        0.24s GPU  (    1100 calls)
     sum_band:ini :      0.44s CPU      0.44s WALL (    1100 calls)
                                        0.43s GPU  (    1100 calls)
     sum_band:cal :      0.04s CPU      0.07s WALL (    1100 calls)
                                        0.05s GPU  (    1100 calls)
     sum_band:bec :      0.24s CPU      0.25s WALL (    1100 calls)
                                        0.24s GPU  (    1100 calls)
     addusdens    :      0.76s CPU      0.76s WALL (      22 calls)
                                        0.76s GPU  (      22 calls)
     addusd:skk   :      0.00s CPU      0.00s WALL (      66 calls)
                                        0.00s GPU  (      66 calls)

     Called by *egterg:
     cdiaghg      :      4.21s CPU      4.34s WALL (    4941 calls)
                                        4.28s GPU  (    4941 calls)
     cegterg:over :      1.13s CPU      1.18s WALL (    3841 calls)
     cegterg:upda :      0.73s CPU      0.73s WALL (    3841 calls)
     cegterg:last :      0.15s CPU      0.14s WALL (    2107 calls)
     h_psi        :      4.61s CPU      4.67s WALL (    4991 calls)
                                        4.61s GPU  (    4991 calls)
     s_psi        :      0.75s CPU      0.80s WALL (    4991 calls)
     g_psi        :      0.02s CPU      0.10s WALL (    3841 calls)
                                        0.05s GPU  (    3841 calls)

     Called by h_psi:
     h_psi:calbec :      0.15s CPU      0.29s WALL (    4991 calls)
                                        0.23s GPU  (    4991 calls)
     vloc_psi     :      3.22s CPU      3.20s WALL (    4991 calls)
                                        3.13s GPU  (    4991 calls)
     add_vuspsi   :      0.69s CPU      0.83s WALL (    4991 calls)
                                        0.76s GPU  (    4991 calls)

     General routines
     calbec       :      0.17s CPU      0.20s WALL (    6291 calls)
     fft          :      3.66s CPU      0.66s WALL (     588 calls)
                                        0.02s GPU  (     542 calls)
     ffts         :      4.64s CPU      0.86s WALL (     939 calls)
                                        0.02s GPU  (     893 calls)
     fftw         :      0.30s CPU      1.17s WALL (   16726 calls)
                                        0.98s GPU  (   16726 calls)
     interpolate  :      8.47s CPU      1.49s WALL (      46 calls)
 
     Parallel routines

     PAW routines
     PAW_pot      :    101.10s CPU     12.59s WALL (      23 calls)
     PAW_symme    :      0.02s CPU      0.00s WALL (      45 calls)
 
     PWSCF        :   2m10.89s CPU     34.80s WALL

 
   This run was terminated on:   3:52:41  12Jul2026            

=------------------------------------------------------------------------------=
   JOB DONE.
=------------------------------------------------------------------------------=
Warning: ieee_divide_by_zero is signaling
Warning: ieee_inexact is signaling
FORTRAN STOP
