
     Program PWSCF v.7.3.1 starts on 12Jul2026 at  4: 2:19 

     This program is part of the open-source Quantum ESPRESSO suite
     for quantum simulation of materials; please cite
         "P. Giannozzi et al., J. Phys.:Condens. Matter 21 395502 (2009);
         "P. Giannozzi et al., J. Phys.:Condens. Matter 29 465901 (2017);
         "P. Giannozzi et al., J. Chem. Phys. 152 154105 (2020);
          URL http://www.quantum-espresso.org", 
     in publications or presentations arising from this work. More details at
     http://www.quantum-espresso.org/quote

     Parallel version (MPI & OpenMP), running on      14 processor cores
     Number of MPI processes:                 1
     Threads/MPI process:                    14

     MPI processes distributed on     1 nodes
     839974 MiB available memory on the printing compute node when the environment starts
 
     Reading input from pw.in

     Current dimensions of program PWSCF are:
     Max number of different atomic species (ntypx) = 10
     Max number of k-points (npk) =  40000
     Max angular momentum in pseudopotentials (lmaxx) =  4
     file Co.pbe-spn-kjpaw_psl.0.3.1.UPF: wavefunction(s)  3P 3D renormalized
     file O.pbe-n-kjpaw_psl.1.0.0.UPF: wavefunction(s)  2S 2P renormalized

     Atomic positions and unit cell read from directory:
     ../Li_1x1_c5.5_d0.15/out/pw.save/
 
 
     Subspace diagonalization in iterative solution of the eigenvalue problem:
     a serial algorithm will be used

 
     G-vector sticks info
     --------------------
     sticks:   dense  smooth     PW     G-vecs:    dense   smooth      PW
     Sum         931     475    151                45403    15993    2735
 
     Using Slab Decomposition
 


     bravais-lattice index     =            4
     lattice parameter (alat)  =       5.3290  a.u.
     unit-cell volume          =     255.6161 (a.u.)^3
     number of atoms/cell      =            4
     number of atomic types    =            3
     number of electrons       =        32.00
     number of Kohn-Sham states=           24
     kinetic-energy cutoff     =      60.0000  Ry
     charge density cutoff     =     480.0000  Ry
     Exchange-correlation= SLA  PW   PBX  PBC
                           (   1   4   3   4   0   0   0)

     GPU acceleration is ACTIVE.  1 visible GPUs per MPI rank
     GPU-aware MPI enabled


     GPU used by master process:

        Device Number: 0
        Device name: NVIDIA A100-SXM4-80GB
        Compute capability : 80
        Ratio of single to double precision performance  : 2
        Memory Clock Rate (KHz): 1593000
        Memory Bus Width (bits): 5120
        Peak Memory Bandwidth (GB/s): ******

     celldm(1)=   5.329028  celldm(2)=   0.000000  celldm(3)=   1.950355
     celldm(4)=   0.000000  celldm(5)=   0.000000  celldm(6)=   0.000000

     crystal axes: (cart. coord. in units of alat)
               a(1) = (   1.000000   0.000000   0.000000 )  
               a(2) = (  -0.500000   0.866025   0.000000 )  
               a(3) = (   0.000000   0.000000   1.950355 )  

     reciprocal axes: (cart. coord. in units 2 pi/alat)
               b(1) = (  1.000000  0.577350 -0.000000 )  
               b(2) = (  0.000000  1.154701  0.000000 )  
               b(3) = (  0.000000 -0.000000  0.512727 )  


     PseudoPot. # 1 for Co read from file:
     ../../pseudo/Co.pbe-spn-kjpaw_psl.0.3.1.UPF
     MD5 check sum: 3c0a43779828c046024e4f3be63f8e67
     Pseudo is Projector augmented-wave + core cor, Zval = 17.0
     Generated using &quot;atomic&quot; code by A. Dal Corso  v.6.2.2
     Shape of augmentation charge: PSQ
     Using radial grid of 1193 points,  6 beta functions with: 
                l(1) =   0
                l(2) =   0
                l(3) =   1
                l(4) =   1
                l(5) =   2
                l(6) =   2
     Q(r) pseudized with 0 coefficients 


     PseudoPot. # 2 for O  read from file:
     ../../pseudo/O.pbe-n-kjpaw_psl.1.0.0.UPF
     MD5 check sum: e99d9cef9b487d1ca56f5b95ecd0fd7a
     Pseudo is Projector augmented-wave + core cor, Zval =  6.0
     Generated using &quot;atomic&quot; code by A. Dal Corso  v.6.3
     Shape of augmentation charge: PSQ
     Using radial grid of 1095 points,  4 beta functions with: 
                l(1) =   0
                l(2) =   0
                l(3) =   1
                l(4) =   1
     Q(r) pseudized with 0 coefficients 


     PseudoPot. # 3 for Li read from file:
     ../../pseudo/Li.pbe-s-kjpaw_psl.1.0.0.UPF
     MD5 check sum: 3974953fb0fea6c4f83fb01d64ffc134
     Pseudo is Projector augmented-wave, Zval =  3.0
     Generated using &quot;atomic&quot; code by A. Dal Corso  v.6.3
     Shape of augmentation charge: PSQ
     Using radial grid of 1017 points,  4 beta functions with: 
                l(1) =   0
                l(2) =   0
                l(3) =   1
                l(4) =   1
     Q(r) pseudized with 0 coefficients 


     atomic species   valence    mass     pseudopotential
     Co               17.00    58.93300     Co( 1.00)
     O                 6.00    15.99900     O ( 1.00)
     Li                3.00     6.94100     Li( 1.00)

     Starting magnetic structure 
     atomic species   magnetization
     Co              0.300
     O               0.000
     Li              0.000

      6 Sym. Ops. (no inversion) found


                                    s                        frac. trans.

      isym =  1     identity                                     

 cryst.   s( 1) = (     1          0          0      )
                  (     0          1          0      )
                  (     0          0          1      )

 cart.    s( 1) = (  1.0000000  0.0000000  0.0000000 )
                  (  0.0000000  1.0000000  0.0000000 )
                  (  0.0000000  0.0000000  1.0000000 )


      isym =  2     120 deg rotation - cryst. axis [0,0,1]       

 cryst.   s( 2) = (     0          1          0      )
                  (    -1         -1          0      )
                  (     0          0          1      )

 cart.    s( 2) = ( -0.5000000 -0.8660254  0.0000000 )
                  (  0.8660254 -0.5000000  0.0000000 )
                  (  0.0000000  0.0000000  1.0000000 )


      isym =  3     120 deg rotation - cryst. axis [0,0,-1]      

 cryst.   s( 3) = (    -1         -1          0      )
                  (     1          0          0      )
                  (     0          0          1      )

 cart.    s( 3) = ( -0.5000000  0.8660254  0.0000000 )
                  ( -0.8660254 -0.5000000  0.0000000 )
                  (  0.0000000  0.0000000  1.0000000 )


      isym =  4     inv. 180 deg rotation - cart. axis [1,0,0]   

 cryst.   s( 4) = (    -1          0          0      )
                  (     1          1          0      )
                  (     0          0          1      )

 cart.    s( 4) = ( -1.0000000  0.0000000  0.0000000 )
                  (  0.0000000  1.0000000  0.0000000 )
                  (  0.0000000  0.0000000  1.0000000 )


      isym =  5     inv. 180 deg rotation - cryst. axis [0,1,0]  

 cryst.   s( 5) = (     1          1          0      )
                  (     0         -1          0      )
                  (     0          0          1      )

 cart.    s( 5) = (  0.5000000  0.8660254  0.0000000 )
                  (  0.8660254 -0.5000000  0.0000000 )
                  (  0.0000000  0.0000000  1.0000000 )


      isym =  6     inv. 180 deg rotation - cryst. axis [1,1,0]  

 cryst.   s( 6) = (     0         -1          0      )
                  (    -1          0          0      )
                  (     0          0          1      )

 cart.    s( 6) = (  0.5000000 -0.8660254  0.0000000 )
                  ( -0.8660254 -0.5000000  0.0000000 )
                  (  0.0000000  0.0000000  1.0000000 )


     point group C_3v (3m)  
     there are  3 classes
     the character table:

       E     2C3   3s_v 
A_1    1.00  1.00  1.00
A_2    1.00  1.00 -1.00
E      2.00 -1.00  0.00

     the symmetry operations in each class and the name of the first element:

     E        1
          identity                                               
     2C3      2    3
          120 deg rotation - cryst. axis [0,0,1]                 
     3s_v     4    5    6
          inv. 180 deg rotation - cart. axis [1,0,0]             

   Cartesian axes

     site n.     atom                  positions (alat units)
         1        Co     tau(   1) = (   0.0000000   0.0000000   0.0000000  )
         2        O      tau(   2) = (  -0.0000000   0.5773503   0.3404255  )
         3        O      tau(   3) = (   0.5000000   0.2886751   1.6099291  )
         4        Li     tau(   4) = (   0.0000000   0.0000000   1.0283688  )

   Crystallographic axes

     site n.     atom                  positions (cryst. coord.)
         1        Co     tau(   1) = (  0.0000000  0.0000000  0.0000000  )
         2        O      tau(   2) = (  0.3333333  0.6666667  0.1745455  )
         3        O      tau(   3) = (  0.6666667  0.3333333  0.8254545  )
         4        Li     tau(   4) = (  0.0000000  0.0000000  0.5272727  )

     number of k points=   449  Marzari-Vanderbilt smearing, width (Ry)=  0.0200
                       cart. coord. in units 2pi/alat
        k(    1) = (   0.0000000   0.0000000   0.0000000), wk =   0.0002170
        k(    2) = (   0.0000000   0.0000000   0.0640909), wk =   0.0004340
        k(    3) = (   0.0000000   0.0000000   0.1281818), wk =   0.0004340
        k(    4) = (   0.0000000   0.0000000   0.1922727), wk =   0.0004340
        k(    5) = (   0.0000000   0.0000000  -0.2563636), wk =   0.0002170
        k(    6) = (   0.0000000   0.0481125   0.0000000), wk =   0.0013021
        k(    7) = (   0.0000000   0.0481125   0.0640909), wk =   0.0013021
        k(    8) = (   0.0000000   0.0481125   0.1281818), wk =   0.0013021
        k(    9) = (   0.0000000   0.0481125   0.1922727), wk =   0.0013021
        k(   10) = (   0.0000000   0.0481125  -0.2563636), wk =   0.0013021
        k(   11) = (   0.0000000   0.0962250   0.0000000), wk =   0.0013021
        k(   12) = (   0.0000000   0.0962250   0.0640909), wk =   0.0013021
        k(   13) = (   0.0000000   0.0962250   0.1281818), wk =   0.0013021
        k(   14) = (   0.0000000   0.0962250   0.1922727), wk =   0.0013021
        k(   15) = (   0.0000000   0.0962250  -0.2563636), wk =   0.0013021
        k(   16) = (   0.0000000   0.1443376   0.0000000), wk =   0.0013021
        k(   17) = (   0.0000000   0.1443376   0.0640909), wk =   0.0013021
        k(   18) = (   0.0000000   0.1443376   0.1281818), wk =   0.0013021
        k(   19) = (   0.0000000   0.1443376   0.1922727), wk =   0.0013021
        k(   20) = (   0.0000000   0.1443376  -0.2563636), wk =   0.0013021
        k(   21) = (   0.0000000   0.1924501   0.0000000), wk =   0.0013021
        k(   22) = (   0.0000000   0.1924501   0.0640909), wk =   0.0013021
        k(   23) = (   0.0000000   0.1924501   0.1281818), wk =   0.0013021
        k(   24) = (   0.0000000   0.1924501   0.1922727), wk =   0.0013021
        k(   25) = (   0.0000000   0.1924501  -0.2563636), wk =   0.0013021
        k(   26) = (   0.0000000   0.2405626   0.0000000), wk =   0.0013021
        k(   27) = (   0.0000000   0.2405626   0.0640909), wk =   0.0013021
        k(   28) = (   0.0000000   0.2405626   0.1281818), wk =   0.0013021
        k(   29) = (   0.0000000   0.2405626   0.1922727), wk =   0.0013021
        k(   30) = (   0.0000000   0.2405626  -0.2563636), wk =   0.0013021
        k(   31) = (   0.0000000   0.2886751   0.0000000), wk =   0.0013021
        k(   32) = (   0.0000000   0.2886751   0.0640909), wk =   0.0013021
        k(   33) = (   0.0000000   0.2886751   0.1281818), wk =   0.0013021
        k(   34) = (   0.0000000   0.2886751   0.1922727), wk =   0.0013021
        k(   35) = (   0.0000000   0.2886751  -0.2563636), wk =   0.0013021
        k(   36) = (   0.0000000   0.3367877   0.0000000), wk =   0.0013021
        k(   37) = (   0.0000000   0.3367877   0.0640909), wk =   0.0013021
        k(   38) = (   0.0000000   0.3367877   0.1281818), wk =   0.0013021
        k(   39) = (   0.0000000   0.3367877   0.1922727), wk =   0.0013021
        k(   40) = (   0.0000000   0.3367877  -0.2563636), wk =   0.0013021
        k(   41) = (   0.0000000   0.3849002   0.0000000), wk =   0.0013021
        k(   42) = (   0.0000000   0.3849002   0.0640909), wk =   0.0013021
        k(   43) = (   0.0000000   0.3849002   0.1281818), wk =   0.0013021
        k(   44) = (   0.0000000   0.3849002   0.1922727), wk =   0.0013021
        k(   45) = (   0.0000000   0.3849002  -0.2563636), wk =   0.0013021
        k(   46) = (   0.0000000   0.4330127   0.0000000), wk =   0.0013021
        k(   47) = (   0.0000000   0.4330127   0.0640909), wk =   0.0013021
        k(   48) = (   0.0000000   0.4330127   0.1281818), wk =   0.0013021
        k(   49) = (   0.0000000   0.4330127   0.1922727), wk =   0.0013021
        k(   50) = (   0.0000000   0.4330127  -0.2563636), wk =   0.0013021
        k(   51) = (   0.0000000   0.4811252   0.0000000), wk =   0.0013021
        k(   52) = (   0.0000000   0.4811252   0.0640909), wk =   0.0013021
        k(   53) = (   0.0000000   0.4811252   0.1281818), wk =   0.0013021
        k(   54) = (   0.0000000   0.4811252   0.1922727), wk =   0.0013021
        k(   55) = (   0.0000000   0.4811252  -0.2563636), wk =   0.0013021
        k(   56) = (   0.0000000   0.5292377   0.0000000), wk =   0.0013021
        k(   57) = (   0.0000000   0.5292377   0.0640909), wk =   0.0013021
        k(   58) = (   0.0000000   0.5292377   0.1281818), wk =   0.0013021
        k(   59) = (   0.0000000   0.5292377   0.1922727), wk =   0.0013021
        k(   60) = (   0.0000000   0.5292377  -0.2563636), wk =   0.0013021
        k(   61) = (   0.0000000  -0.5773503   0.0000000), wk =   0.0006510
        k(   62) = (   0.0000000  -0.5773503   0.0640909), wk =   0.0013021
        k(   63) = (   0.0000000  -0.5773503   0.1281818), wk =   0.0013021
        k(   64) = (   0.0000000  -0.5773503   0.1922727), wk =   0.0013021
        k(   65) = (   0.0000000  -0.5773503  -0.2563636), wk =   0.0006510
        k(   66) = (   0.0416667   0.0721688   0.0000000), wk =   0.0013021
        k(   67) = (   0.0416667   0.0721688   0.0640909), wk =   0.0026042
        k(   68) = (   0.0416667   0.0721688   0.1281818), wk =   0.0026042
        k(   69) = (   0.0416667   0.0721688   0.1922727), wk =   0.0026042
        k(   70) = (   0.0416667   0.0721688  -0.2563636), wk =   0.0013021
        k(   71) = (   0.0416667   0.1202813   0.0000000), wk =   0.0026042
        k(   72) = (   0.0416667   0.1202813   0.0640909), wk =   0.0026042
        k(   73) = (   0.0416667   0.1202813   0.1281818), wk =   0.0026042
        k(   74) = (   0.0416667   0.1202813   0.1922727), wk =   0.0026042
        k(   75) = (   0.0416667   0.1202813  -0.2563636), wk =   0.0026042
        k(   76) = (   0.0416667   0.1683938   0.0000000), wk =   0.0026042
        k(   77) = (   0.0416667   0.1683938   0.0640909), wk =   0.0026042
        k(   78) = (   0.0416667   0.1683938   0.1281818), wk =   0.0026042
        k(   79) = (   0.0416667   0.1683938   0.1922727), wk =   0.0026042
        k(   80) = (   0.0416667   0.1683938  -0.2563636), wk =   0.0026042
        k(   81) = (   0.0416667   0.2165064   0.0000000), wk =   0.0026042
        k(   82) = (   0.0416667   0.2165064   0.0640909), wk =   0.0026042
        k(   83) = (   0.0416667   0.2165064   0.1281818), wk =   0.0026042
        k(   84) = (   0.0416667   0.2165064   0.1922727), wk =   0.0026042
        k(   85) = (   0.0416667   0.2165064  -0.2563636), wk =   0.0026042
        k(   86) = (   0.0416667   0.2646189   0.0000000), wk =   0.0026042
        k(   87) = (   0.0416667   0.2646189   0.0640909), wk =   0.0026042
        k(   88) = (   0.0416667   0.2646189   0.1281818), wk =   0.0026042
        k(   89) = (   0.0416667   0.2646189   0.1922727), wk =   0.0026042
        k(   90) = (   0.0416667   0.2646189  -0.2563636), wk =   0.0026042
        k(   91) = (   0.0416667   0.3127314   0.0000000), wk =   0.0026042
        k(   92) = (   0.0416667   0.3127314   0.0640909), wk =   0.0026042
        k(   93) = (   0.0416667   0.3127314   0.1281818), wk =   0.0026042
        k(   94) = (   0.0416667   0.3127314   0.1922727), wk =   0.0026042
        k(   95) = (   0.0416667   0.3127314  -0.2563636), wk =   0.0026042
        k(   96) = (   0.0416667   0.3608439   0.0000000), wk =   0.0026042
        k(   97) = (   0.0416667   0.3608439   0.0640909), wk =   0.0026042
        k(   98) = (   0.0416667   0.3608439   0.1281818), wk =   0.0026042
        k(   99) = (   0.0416667   0.3608439   0.1922727), wk =   0.0026042
        k(  100) = (   0.0416667   0.3608439  -0.2563636), wk =   0.0026042
        k(  101) = (   0.0416667   0.4089564   0.0000000), wk =   0.0026042
        k(  102) = (   0.0416667   0.4089564   0.0640909), wk =   0.0026042
        k(  103) = (   0.0416667   0.4089564   0.1281818), wk =   0.0026042
        k(  104) = (   0.0416667   0.4089564   0.1922727), wk =   0.0026042
        k(  105) = (   0.0416667   0.4089564  -0.2563636), wk =   0.0026042
        k(  106) = (   0.0416667   0.4570690   0.0000000), wk =   0.0026042
        k(  107) = (   0.0416667   0.4570690   0.0640909), wk =   0.0026042
        k(  108) = (   0.0416667   0.4570690   0.1281818), wk =   0.0026042
        k(  109) = (   0.0416667   0.4570690   0.1922727), wk =   0.0026042
        k(  110) = (   0.0416667   0.4570690  -0.2563636), wk =   0.0026042
        k(  111) = (   0.0416667   0.5051815   0.0000000), wk =   0.0026042
        k(  112) = (   0.0416667   0.5051815   0.0640909), wk =   0.0026042
        k(  113) = (   0.0416667   0.5051815   0.1281818), wk =   0.0026042
        k(  114) = (   0.0416667   0.5051815   0.1922727), wk =   0.0026042
        k(  115) = (   0.0416667   0.5051815  -0.2563636), wk =   0.0026042
        k(  116) = (   0.0416667   0.5532940   0.0000000), wk =   0.0026042
        k(  117) = (   0.0416667   0.5532940   0.0640909), wk =   0.0026042
        k(  118) = (   0.0416667   0.5532940   0.1281818), wk =   0.0026042
        k(  119) = (   0.0416667   0.5532940   0.1922727), wk =   0.0026042
        k(  120) = (   0.0416667   0.5532940  -0.2563636), wk =   0.0026042
        k(  121) = (   0.0833333   0.1443376   0.0000000), wk =   0.0013021
        k(  122) = (   0.0833333   0.1443376   0.0640909), wk =   0.0026042
        k(  123) = (   0.0833333   0.1443376   0.1281818), wk =   0.0026042
        k(  124) = (   0.0833333   0.1443376   0.1922727), wk =   0.0026042
        k(  125) = (   0.0833333   0.1443376  -0.2563636), wk =   0.0013021
        k(  126) = (   0.0833333   0.1924501   0.0000000), wk =   0.0026042
        k(  127) = (   0.0833333   0.1924501   0.0640909), wk =   0.0026042
        k(  128) = (   0.0833333   0.1924501   0.1281818), wk =   0.0026042
        k(  129) = (   0.0833333   0.1924501   0.1922727), wk =   0.0026042
        k(  130) = (   0.0833333   0.1924501  -0.2563636), wk =   0.0026042
        k(  131) = (   0.0833333   0.2405626   0.0000000), wk =   0.0026042
        k(  132) = (   0.0833333   0.2405626   0.0640909), wk =   0.0026042
        k(  133) = (   0.0833333   0.2405626   0.1281818), wk =   0.0026042
        k(  134) = (   0.0833333   0.2405626   0.1922727), wk =   0.0026042
        k(  135) = (   0.0833333   0.2405626  -0.2563636), wk =   0.0026042
        k(  136) = (   0.0833333   0.2886751   0.0000000), wk =   0.0026042
        k(  137) = (   0.0833333   0.2886751   0.0640909), wk =   0.0026042
        k(  138) = (   0.0833333   0.2886751   0.1281818), wk =   0.0026042
        k(  139) = (   0.0833333   0.2886751   0.1922727), wk =   0.0026042
        k(  140) = (   0.0833333   0.2886751  -0.2563636), wk =   0.0026042
        k(  141) = (   0.0833333   0.3367877   0.0000000), wk =   0.0026042
        k(  142) = (   0.0833333   0.3367877   0.0640909), wk =   0.0026042
        k(  143) = (   0.0833333   0.3367877   0.1281818), wk =   0.0026042
        k(  144) = (   0.0833333   0.3367877   0.1922727), wk =   0.0026042
        k(  145) = (   0.0833333   0.3367877  -0.2563636), wk =   0.0026042
        k(  146) = (   0.0833333   0.3849002   0.0000000), wk =   0.0026042
        k(  147) = (   0.0833333   0.3849002   0.0640909), wk =   0.0026042
        k(  148) = (   0.0833333   0.3849002   0.1281818), wk =   0.0026042
        k(  149) = (   0.0833333   0.3849002   0.1922727), wk =   0.0026042
        k(  150) = (   0.0833333   0.3849002  -0.2563636), wk =   0.0026042
        k(  151) = (   0.0833333   0.4330127   0.0000000), wk =   0.0026042
        k(  152) = (   0.0833333   0.4330127   0.0640909), wk =   0.0026042
        k(  153) = (   0.0833333   0.4330127   0.1281818), wk =   0.0026042
        k(  154) = (   0.0833333   0.4330127   0.1922727), wk =   0.0026042
        k(  155) = (   0.0833333   0.4330127  -0.2563636), wk =   0.0026042
        k(  156) = (   0.0833333   0.4811252   0.0000000), wk =   0.0026042
        k(  157) = (   0.0833333   0.4811252   0.0640909), wk =   0.0026042
        k(  158) = (   0.0833333   0.4811252   0.1281818), wk =   0.0026042
        k(  159) = (   0.0833333   0.4811252   0.1922727), wk =   0.0026042
        k(  160) = (   0.0833333   0.4811252  -0.2563636), wk =   0.0026042
        k(  161) = (   0.0833333   0.5292377   0.0000000), wk =   0.0026042
        k(  162) = (   0.0833333   0.5292377   0.0640909), wk =   0.0026042
        k(  163) = (   0.0833333   0.5292377   0.1281818), wk =   0.0026042
        k(  164) = (   0.0833333   0.5292377   0.1922727), wk =   0.0026042
        k(  165) = (   0.0833333   0.5292377  -0.2563636), wk =   0.0026042
        k(  166) = (   0.0833333   0.5773503   0.0000000), wk =   0.0013021
        k(  167) = (   0.0833333   0.5773503   0.0640909), wk =   0.0026042
        k(  168) = (   0.0833333   0.5773503   0.1281818), wk =   0.0026042
        k(  169) = (   0.0833333   0.5773503   0.1922727), wk =   0.0026042
        k(  170) = (   0.0833333   0.5773503  -0.2563636), wk =   0.0013021
        k(  171) = (   0.1250000   0.2165064   0.0000000), wk =   0.0013021
        k(  172) = (   0.1250000   0.2165064   0.0640909), wk =   0.0026042
        k(  173) = (   0.1250000   0.2165064   0.1281818), wk =   0.0026042
        k(  174) = (   0.1250000   0.2165064   0.1922727), wk =   0.0026042
        k(  175) = (   0.1250000   0.2165064  -0.2563636), wk =   0.0013021
        k(  176) = (   0.1250000   0.2646189   0.0000000), wk =   0.0026042
        k(  177) = (   0.1250000   0.2646189   0.0640909), wk =   0.0026042
        k(  178) = (   0.1250000   0.2646189   0.1281818), wk =   0.0026042
        k(  179) = (   0.1250000   0.2646189   0.1922727), wk =   0.0026042
        k(  180) = (   0.1250000   0.2646189  -0.2563636), wk =   0.0026042
        k(  181) = (   0.1250000   0.3127314   0.0000000), wk =   0.0026042
        k(  182) = (   0.1250000   0.3127314   0.0640909), wk =   0.0026042
        k(  183) = (   0.1250000   0.3127314   0.1281818), wk =   0.0026042
        k(  184) = (   0.1250000   0.3127314   0.1922727), wk =   0.0026042
        k(  185) = (   0.1250000   0.3127314  -0.2563636), wk =   0.0026042
        k(  186) = (   0.1250000   0.3608439   0.0000000), wk =   0.0026042
        k(  187) = (   0.1250000   0.3608439   0.0640909), wk =   0.0026042
        k(  188) = (   0.1250000   0.3608439   0.1281818), wk =   0.0026042
        k(  189) = (   0.1250000   0.3608439   0.1922727), wk =   0.0026042
        k(  190) = (   0.1250000   0.3608439  -0.2563636), wk =   0.0026042
        k(  191) = (   0.1250000   0.4089564   0.0000000), wk =   0.0026042
        k(  192) = (   0.1250000   0.4089564   0.0640909), wk =   0.0026042
        k(  193) = (   0.1250000   0.4089564   0.1281818), wk =   0.0026042
        k(  194) = (   0.1250000   0.4089564   0.1922727), wk =   0.0026042
        k(  195) = (   0.1250000   0.4089564  -0.2563636), wk =   0.0026042
        k(  196) = (   0.1250000   0.4570690   0.0000000), wk =   0.0026042
        k(  197) = (   0.1250000   0.4570690   0.0640909), wk =   0.0026042
        k(  198) = (   0.1250000   0.4570690   0.1281818), wk =   0.0026042
        k(  199) = (   0.1250000   0.4570690   0.1922727), wk =   0.0026042
        k(  200) = (   0.1250000   0.4570690  -0.2563636), wk =   0.0026042
        k(  201) = (   0.1250000   0.5051815   0.0000000), wk =   0.0026042
        k(  202) = (   0.1250000   0.5051815   0.0640909), wk =   0.0026042
        k(  203) = (   0.1250000   0.5051815   0.1281818), wk =   0.0026042
        k(  204) = (   0.1250000   0.5051815   0.1922727), wk =   0.0026042
        k(  205) = (   0.1250000   0.5051815  -0.2563636), wk =   0.0026042
        k(  206) = (   0.1250000   0.5532940   0.0000000), wk =   0.0026042
        k(  207) = (   0.1250000   0.5532940   0.0640909), wk =   0.0026042
        k(  208) = (   0.1250000   0.5532940   0.1281818), wk =   0.0026042
        k(  209) = (   0.1250000   0.5532940   0.1922727), wk =   0.0026042
        k(  210) = (   0.1250000   0.5532940  -0.2563636), wk =   0.0026042
        k(  211) = (   0.1666667   0.2886751   0.0000000), wk =   0.0013021
        k(  212) = (   0.1666667   0.2886751   0.0640909), wk =   0.0026042
        k(  213) = (   0.1666667   0.2886751   0.1281818), wk =   0.0026042
        k(  214) = (   0.1666667   0.2886751   0.1922727), wk =   0.0026042
        k(  215) = (   0.1666667   0.2886751  -0.2563636), wk =   0.0013021
        k(  216) = (   0.1666667   0.3367877   0.0000000), wk =   0.0026042
        k(  217) = (   0.1666667   0.3367877   0.0640909), wk =   0.0026042
        k(  218) = (   0.1666667   0.3367877   0.1281818), wk =   0.0026042
        k(  219) = (   0.1666667   0.3367877   0.1922727), wk =   0.0026042
        k(  220) = (   0.1666667   0.3367877  -0.2563636), wk =   0.0026042
        k(  221) = (   0.1666667   0.3849002   0.0000000), wk =   0.0026042
        k(  222) = (   0.1666667   0.3849002   0.0640909), wk =   0.0026042
        k(  223) = (   0.1666667   0.3849002   0.1281818), wk =   0.0026042
        k(  224) = (   0.1666667   0.3849002   0.1922727), wk =   0.0026042
        k(  225) = (   0.1666667   0.3849002  -0.2563636), wk =   0.0026042
        k(  226) = (   0.1666667   0.4330127   0.0000000), wk =   0.0026042
        k(  227) = (   0.1666667   0.4330127   0.0640909), wk =   0.0026042
        k(  228) = (   0.1666667   0.4330127   0.1281818), wk =   0.0026042
        k(  229) = (   0.1666667   0.4330127   0.1922727), wk =   0.0026042
        k(  230) = (   0.1666667   0.4330127  -0.2563636), wk =   0.0026042
        k(  231) = (   0.1666667   0.4811252   0.0000000), wk =   0.0026042
        k(  232) = (   0.1666667   0.4811252   0.0640909), wk =   0.0026042
        k(  233) = (   0.1666667   0.4811252   0.1281818), wk =   0.0026042
        k(  234) = (   0.1666667   0.4811252   0.1922727), wk =   0.0026042
        k(  235) = (   0.1666667   0.4811252  -0.2563636), wk =   0.0026042
        k(  236) = (   0.1666667   0.5292377   0.0000000), wk =   0.0026042
        k(  237) = (   0.1666667   0.5292377   0.0640909), wk =   0.0026042
        k(  238) = (   0.1666667   0.5292377   0.1281818), wk =   0.0026042
        k(  239) = (   0.1666667   0.5292377   0.1922727), wk =   0.0026042
        k(  240) = (   0.1666667   0.5292377  -0.2563636), wk =   0.0026042
        k(  241) = (   0.1666667   0.5773503   0.0000000), wk =   0.0013021
        k(  242) = (   0.1666667   0.5773503   0.0640909), wk =   0.0026042
        k(  243) = (   0.1666667   0.5773503   0.1281818), wk =   0.0026042
        k(  244) = (   0.1666667   0.5773503   0.1922727), wk =   0.0026042
        k(  245) = (   0.1666667   0.5773503  -0.2563636), wk =   0.0013021
        k(  246) = (   0.2083333   0.3608439   0.0000000), wk =   0.0013021
        k(  247) = (   0.2083333   0.3608439   0.0640909), wk =   0.0026042
        k(  248) = (   0.2083333   0.3608439   0.1281818), wk =   0.0026042
        k(  249) = (   0.2083333   0.3608439   0.1922727), wk =   0.0026042
        k(  250) = (   0.2083333   0.3608439  -0.2563636), wk =   0.0013021
        k(  251) = (   0.2083333   0.4089564   0.0000000), wk =   0.0026042
        k(  252) = (   0.2083333   0.4089564   0.0640909), wk =   0.0026042
        k(  253) = (   0.2083333   0.4089564   0.1281818), wk =   0.0026042
        k(  254) = (   0.2083333   0.4089564   0.1922727), wk =   0.0026042
        k(  255) = (   0.2083333   0.4089564  -0.2563636), wk =   0.0026042
        k(  256) = (   0.2083333   0.4570690   0.0000000), wk =   0.0026042
        k(  257) = (   0.2083333   0.4570690   0.0640909), wk =   0.0026042
        k(  258) = (   0.2083333   0.4570690   0.1281818), wk =   0.0026042
        k(  259) = (   0.2083333   0.4570690   0.1922727), wk =   0.0026042
        k(  260) = (   0.2083333   0.4570690  -0.2563636), wk =   0.0026042
        k(  261) = (   0.2083333   0.5051815   0.0000000), wk =   0.0026042
        k(  262) = (   0.2083333   0.5051815   0.0640909), wk =   0.0026042
        k(  263) = (   0.2083333   0.5051815   0.1281818), wk =   0.0026042
        k(  264) = (   0.2083333   0.5051815   0.1922727), wk =   0.0026042
        k(  265) = (   0.2083333   0.5051815  -0.2563636), wk =   0.0026042
        k(  266) = (   0.2083333   0.5532940   0.0000000), wk =   0.0026042
        k(  267) = (   0.2083333   0.5532940   0.0640909), wk =   0.0026042
        k(  268) = (   0.2083333   0.5532940   0.1281818), wk =   0.0026042
        k(  269) = (   0.2083333   0.5532940   0.1922727), wk =   0.0026042
        k(  270) = (   0.2083333   0.5532940  -0.2563636), wk =   0.0026042
        k(  271) = (   0.2500000   0.4330127   0.0000000), wk =   0.0013021
        k(  272) = (   0.2500000   0.4330127   0.0640909), wk =   0.0026042
        k(  273) = (   0.2500000   0.4330127   0.1281818), wk =   0.0026042
        k(  274) = (   0.2500000   0.4330127   0.1922727), wk =   0.0026042
        k(  275) = (   0.2500000   0.4330127  -0.2563636), wk =   0.0013021
        k(  276) = (   0.2500000   0.4811252   0.0000000), wk =   0.0026042
        k(  277) = (   0.2500000   0.4811252   0.0640909), wk =   0.0026042
        k(  278) = (   0.2500000   0.4811252   0.1281818), wk =   0.0026042
        k(  279) = (   0.2500000   0.4811252   0.1922727), wk =   0.0026042
        k(  280) = (   0.2500000   0.4811252  -0.2563636), wk =   0.0026042
        k(  281) = (   0.2500000   0.5292377   0.0000000), wk =   0.0026042
        k(  282) = (   0.2500000   0.5292377   0.0640909), wk =   0.0026042
        k(  283) = (   0.2500000   0.5292377   0.1281818), wk =   0.0026042
        k(  284) = (   0.2500000   0.5292377   0.1922727), wk =   0.0026042
        k(  285) = (   0.2500000   0.5292377  -0.2563636), wk =   0.0026042
        k(  286) = (   0.2500000   0.5773503   0.0000000), wk =   0.0013021
        k(  287) = (   0.2500000   0.5773503   0.0640909), wk =   0.0026042
        k(  288) = (   0.2500000   0.5773503   0.1281818), wk =   0.0026042
        k(  289) = (   0.2500000   0.5773503   0.1922727), wk =   0.0026042
        k(  290) = (   0.2500000   0.5773503  -0.2563636), wk =   0.0013021
        k(  291) = (   0.2916667   0.5051815   0.0000000), wk =   0.0013021
        k(  292) = (   0.2916667   0.5051815   0.0640909), wk =   0.0026042
        k(  293) = (   0.2916667   0.5051815   0.1281818), wk =   0.0026042
        k(  294) = (   0.2916667   0.5051815   0.1922727), wk =   0.0026042
        k(  295) = (   0.2916667   0.5051815  -0.2563636), wk =   0.0013021
        k(  296) = (   0.2916667   0.5532940   0.0000000), wk =   0.0026042
        k(  297) = (   0.2916667   0.5532940   0.0640909), wk =   0.0026042
        k(  298) = (   0.2916667   0.5532940   0.1281818), wk =   0.0026042
        k(  299) = (   0.2916667   0.5532940   0.1922727), wk =   0.0026042
        k(  300) = (   0.2916667   0.5532940  -0.2563636), wk =   0.0026042
        k(  301) = (   0.3333333   0.5773503   0.0000000), wk =   0.0004340
        k(  302) = (   0.3333333   0.5773503   0.0640909), wk =   0.0008681
        k(  303) = (   0.3333333   0.5773503   0.1281818), wk =   0.0008681
        k(  304) = (   0.3333333   0.5773503   0.1922727), wk =   0.0008681
        k(  305) = (   0.3333333   0.5773503  -0.2563636), wk =   0.0004340
        k(  306) = (   0.0000000  -0.0481125   0.0640909), wk =   0.0013021
        k(  307) = (   0.0000000  -0.0481125   0.1281818), wk =   0.0013021
        k(  308) = (   0.0000000  -0.0481125   0.1922727), wk =   0.0013021
        k(  309) = (   0.0000000  -0.0962250   0.0640909), wk =   0.0013021
        k(  310) = (   0.0000000  -0.0962250   0.1281818), wk =   0.0013021
        k(  311) = (   0.0000000  -0.0962250   0.1922727), wk =   0.0013021
        k(  312) = (   0.0000000  -0.1443376   0.0640909), wk =   0.0013021
        k(  313) = (   0.0000000  -0.1443376   0.1281818), wk =   0.0013021
        k(  314) = (   0.0000000  -0.1443376   0.1922727), wk =   0.0013021
        k(  315) = (   0.0000000  -0.1924501   0.0640909), wk =   0.0013021
        k(  316) = (   0.0000000  -0.1924501   0.1281818), wk =   0.0013021
        k(  317) = (   0.0000000  -0.1924501   0.1922727), wk =   0.0013021
        k(  318) = (   0.0000000  -0.2405626   0.0640909), wk =   0.0013021
        k(  319) = (   0.0000000  -0.2405626   0.1281818), wk =   0.0013021
        k(  320) = (   0.0000000  -0.2405626   0.1922727), wk =   0.0013021
        k(  321) = (   0.0000000  -0.2886751   0.0640909), wk =   0.0013021
        k(  322) = (   0.0000000  -0.2886751   0.1281818), wk =   0.0013021
        k(  323) = (   0.0000000  -0.2886751   0.1922727), wk =   0.0013021
        k(  324) = (   0.0000000  -0.3367877   0.0640909), wk =   0.0013021
        k(  325) = (   0.0000000  -0.3367877   0.1281818), wk =   0.0013021
        k(  326) = (   0.0000000  -0.3367877   0.1922727), wk =   0.0013021
        k(  327) = (   0.0000000  -0.3849002   0.0640909), wk =   0.0013021
        k(  328) = (   0.0000000  -0.3849002   0.1281818), wk =   0.0013021
        k(  329) = (   0.0000000  -0.3849002   0.1922727), wk =   0.0013021
        k(  330) = (   0.0000000  -0.4330127   0.0640909), wk =   0.0013021
        k(  331) = (   0.0000000  -0.4330127   0.1281818), wk =   0.0013021
        k(  332) = (   0.0000000  -0.4330127   0.1922727), wk =   0.0013021
        k(  333) = (   0.0000000  -0.4811252   0.0640909), wk =   0.0013021
        k(  334) = (   0.0000000  -0.4811252   0.1281818), wk =   0.0013021
        k(  335) = (   0.0000000  -0.4811252   0.1922727), wk =   0.0013021
        k(  336) = (   0.0000000  -0.5292377   0.0640909), wk =   0.0013021
        k(  337) = (   0.0000000  -0.5292377   0.1281818), wk =   0.0013021
        k(  338) = (   0.0000000  -0.5292377   0.1922727), wk =   0.0013021
        k(  339) = (  -0.0416667  -0.1202813   0.0640909), wk =   0.0026042
        k(  340) = (  -0.0416667  -0.1202813   0.1281818), wk =   0.0026042
        k(  341) = (  -0.0416667  -0.1202813   0.1922727), wk =   0.0026042
        k(  342) = (  -0.0416667  -0.1683938   0.0640909), wk =   0.0026042
        k(  343) = (  -0.0416667  -0.1683938   0.1281818), wk =   0.0026042
        k(  344) = (  -0.0416667  -0.1683938   0.1922727), wk =   0.0026042
        k(  345) = (  -0.0416667  -0.2165064   0.0640909), wk =   0.0026042
        k(  346) = (  -0.0416667  -0.2165064   0.1281818), wk =   0.0026042
        k(  347) = (  -0.0416667  -0.2165064   0.1922727), wk =   0.0026042
        k(  348) = (  -0.0416667  -0.2646189   0.0640909), wk =   0.0026042
        k(  349) = (  -0.0416667  -0.2646189   0.1281818), wk =   0.0026042
        k(  350) = (  -0.0416667  -0.2646189   0.1922727), wk =   0.0026042
        k(  351) = (  -0.0416667  -0.3127314   0.0640909), wk =   0.0026042
        k(  352) = (  -0.0416667  -0.3127314   0.1281818), wk =   0.0026042
        k(  353) = (  -0.0416667  -0.3127314   0.1922727), wk =   0.0026042
        k(  354) = (  -0.0416667  -0.3608439   0.0640909), wk =   0.0026042
        k(  355) = (  -0.0416667  -0.3608439   0.1281818), wk =   0.0026042
        k(  356) = (  -0.0416667  -0.3608439   0.1922727), wk =   0.0026042
        k(  357) = (  -0.0416667  -0.4089564   0.0640909), wk =   0.0026042
        k(  358) = (  -0.0416667  -0.4089564   0.1281818), wk =   0.0026042
        k(  359) = (  -0.0416667  -0.4089564   0.1922727), wk =   0.0026042
        k(  360) = (  -0.0416667  -0.4570690   0.0640909), wk =   0.0026042
        k(  361) = (  -0.0416667  -0.4570690   0.1281818), wk =   0.0026042
        k(  362) = (  -0.0416667  -0.4570690   0.1922727), wk =   0.0026042
        k(  363) = (  -0.0416667  -0.5051815   0.0640909), wk =   0.0026042
        k(  364) = (  -0.0416667  -0.5051815   0.1281818), wk =   0.0026042
        k(  365) = (  -0.0416667  -0.5051815   0.1922727), wk =   0.0026042
        k(  366) = (  -0.0416667  -0.5532940   0.0640909), wk =   0.0026042
        k(  367) = (  -0.0416667  -0.5532940   0.1281818), wk =   0.0026042
        k(  368) = (  -0.0416667  -0.5532940   0.1922727), wk =   0.0026042
        k(  369) = (  -0.0833333  -0.1924501   0.0640909), wk =   0.0026042
        k(  370) = (  -0.0833333  -0.1924501   0.1281818), wk =   0.0026042
        k(  371) = (  -0.0833333  -0.1924501   0.1922727), wk =   0.0026042
        k(  372) = (  -0.0833333  -0.2405626   0.0640909), wk =   0.0026042
        k(  373) = (  -0.0833333  -0.2405626   0.1281818), wk =   0.0026042
        k(  374) = (  -0.0833333  -0.2405626   0.1922727), wk =   0.0026042
        k(  375) = (  -0.0833333  -0.2886751   0.0640909), wk =   0.0026042
        k(  376) = (  -0.0833333  -0.2886751   0.1281818), wk =   0.0026042
        k(  377) = (  -0.0833333  -0.2886751   0.1922727), wk =   0.0026042
        k(  378) = (  -0.0833333  -0.3367877   0.0640909), wk =   0.0026042
        k(  379) = (  -0.0833333  -0.3367877   0.1281818), wk =   0.0026042
        k(  380) = (  -0.0833333  -0.3367877   0.1922727), wk =   0.0026042
        k(  381) = (  -0.0833333  -0.3849002   0.0640909), wk =   0.0026042
        k(  382) = (  -0.0833333  -0.3849002   0.1281818), wk =   0.0026042
        k(  383) = (  -0.0833333  -0.3849002   0.1922727), wk =   0.0026042
        k(  384) = (  -0.0833333  -0.4330127   0.0640909), wk =   0.0026042
        k(  385) = (  -0.0833333  -0.4330127   0.1281818), wk =   0.0026042
        k(  386) = (  -0.0833333  -0.4330127   0.1922727), wk =   0.0026042
        k(  387) = (  -0.0833333  -0.4811252   0.0640909), wk =   0.0026042
        k(  388) = (  -0.0833333  -0.4811252   0.1281818), wk =   0.0026042
        k(  389) = (  -0.0833333  -0.4811252   0.1922727), wk =   0.0026042
        k(  390) = (  -0.0833333  -0.5292377   0.0640909), wk =   0.0026042
        k(  391) = (  -0.0833333  -0.5292377   0.1281818), wk =   0.0026042
        k(  392) = (  -0.0833333  -0.5292377   0.1922727), wk =   0.0026042
        k(  393) = (  -0.1250000  -0.2646189   0.0640909), wk =   0.0026042
        k(  394) = (  -0.1250000  -0.2646189   0.1281818), wk =   0.0026042
        k(  395) = (  -0.1250000  -0.2646189   0.1922727), wk =   0.0026042
        k(  396) = (  -0.1250000  -0.3127314   0.0640909), wk =   0.0026042
        k(  397) = (  -0.1250000  -0.3127314   0.1281818), wk =   0.0026042
        k(  398) = (  -0.1250000  -0.3127314   0.1922727), wk =   0.0026042
        k(  399) = (  -0.1250000  -0.3608439   0.0640909), wk =   0.0026042
        k(  400) = (  -0.1250000  -0.3608439   0.1281818), wk =   0.0026042
        k(  401) = (  -0.1250000  -0.3608439   0.1922727), wk =   0.0026042
        k(  402) = (  -0.1250000  -0.4089564   0.0640909), wk =   0.0026042
        k(  403) = (  -0.1250000  -0.4089564   0.1281818), wk =   0.0026042
        k(  404) = (  -0.1250000  -0.4089564   0.1922727), wk =   0.0026042
        k(  405) = (  -0.1250000  -0.4570690   0.0640909), wk =   0.0026042
        k(  406) = (  -0.1250000  -0.4570690   0.1281818), wk =   0.0026042
        k(  407) = (  -0.1250000  -0.4570690   0.1922727), wk =   0.0026042
        k(  408) = (  -0.1250000  -0.5051815   0.0640909), wk =   0.0026042
        k(  409) = (  -0.1250000  -0.5051815   0.1281818), wk =   0.0026042
        k(  410) = (  -0.1250000  -0.5051815   0.1922727), wk =   0.0026042
        k(  411) = (  -0.1250000  -0.5532940   0.0640909), wk =   0.0026042
        k(  412) = (  -0.1250000  -0.5532940   0.1281818), wk =   0.0026042
        k(  413) = (  -0.1250000  -0.5532940   0.1922727), wk =   0.0026042
        k(  414) = (  -0.1666667  -0.3367877   0.0640909), wk =   0.0026042
        k(  415) = (  -0.1666667  -0.3367877   0.1281818), wk =   0.0026042
        k(  416) = (  -0.1666667  -0.3367877   0.1922727), wk =   0.0026042
        k(  417) = (  -0.1666667  -0.3849002   0.0640909), wk =   0.0026042
        k(  418) = (  -0.1666667  -0.3849002   0.1281818), wk =   0.0026042
        k(  419) = (  -0.1666667  -0.3849002   0.1922727), wk =   0.0026042
        k(  420) = (  -0.1666667  -0.4330127   0.0640909), wk =   0.0026042
        k(  421) = (  -0.1666667  -0.4330127   0.1281818), wk =   0.0026042
        k(  422) = (  -0.1666667  -0.4330127   0.1922727), wk =   0.0026042
        k(  423) = (  -0.1666667  -0.4811252   0.0640909), wk =   0.0026042
        k(  424) = (  -0.1666667  -0.4811252   0.1281818), wk =   0.0026042
        k(  425) = (  -0.1666667  -0.4811252   0.1922727), wk =   0.0026042
        k(  426) = (  -0.1666667  -0.5292377   0.0640909), wk =   0.0026042
        k(  427) = (  -0.1666667  -0.5292377   0.1281818), wk =   0.0026042
        k(  428) = (  -0.1666667  -0.5292377   0.1922727), wk =   0.0026042
        k(  429) = (  -0.2083333  -0.4089564   0.0640909), wk =   0.0026042
        k(  430) = (  -0.2083333  -0.4089564   0.1281818), wk =   0.0026042
        k(  431) = (  -0.2083333  -0.4089564   0.1922727), wk =   0.0026042
        k(  432) = (  -0.2083333  -0.4570690   0.0640909), wk =   0.0026042
        k(  433) = (  -0.2083333  -0.4570690   0.1281818), wk =   0.0026042
        k(  434) = (  -0.2083333  -0.4570690   0.1922727), wk =   0.0026042
        k(  435) = (  -0.2083333  -0.5051815   0.0640909), wk =   0.0026042
        k(  436) = (  -0.2083333  -0.5051815   0.1281818), wk =   0.0026042
        k(  437) = (  -0.2083333  -0.5051815   0.1922727), wk =   0.0026042
        k(  438) = (  -0.2083333  -0.5532940   0.0640909), wk =   0.0026042
        k(  439) = (  -0.2083333  -0.5532940   0.1281818), wk =   0.0026042
        k(  440) = (  -0.2083333  -0.5532940   0.1922727), wk =   0.0026042
        k(  441) = (  -0.2500000  -0.4811252   0.0640909), wk =   0.0026042
        k(  442) = (  -0.2500000  -0.4811252   0.1281818), wk =   0.0026042
        k(  443) = (  -0.2500000  -0.4811252   0.1922727), wk =   0.0026042
        k(  444) = (  -0.2500000  -0.5292377   0.0640909), wk =   0.0026042
        k(  445) = (  -0.2500000  -0.5292377   0.1281818), wk =   0.0026042
        k(  446) = (  -0.2500000  -0.5292377   0.1922727), wk =   0.0026042
        k(  447) = (  -0.2916667  -0.5532940   0.0640909), wk =   0.0026042
        k(  448) = (  -0.2916667  -0.5532940   0.1281818), wk =   0.0026042
        k(  449) = (  -0.2916667  -0.5532940   0.1922727), wk =   0.0026042

                       cryst. coord.
        k(    1) = (   0.0000000   0.0000000   0.0000000), wk =   0.0002170
        k(    2) = (   0.0000000   0.0000000   0.1250000), wk =   0.0004340
        k(    3) = (   0.0000000   0.0000000   0.2500000), wk =   0.0004340
        k(    4) = (   0.0000000   0.0000000   0.3750000), wk =   0.0004340
        k(    5) = (   0.0000000   0.0000000  -0.5000000), wk =   0.0002170
        k(    6) = (   0.0000000   0.0416667   0.0000000), wk =   0.0013021
        k(    7) = (   0.0000000   0.0416667   0.1250000), wk =   0.0013021
        k(    8) = (   0.0000000   0.0416667   0.2500000), wk =   0.0013021
        k(    9) = (   0.0000000   0.0416667   0.3750000), wk =   0.0013021
        k(   10) = (   0.0000000   0.0416667  -0.5000000), wk =   0.0013021
        k(   11) = (   0.0000000   0.0833333   0.0000000), wk =   0.0013021
        k(   12) = (   0.0000000   0.0833333   0.1250000), wk =   0.0013021
        k(   13) = (   0.0000000   0.0833333   0.2500000), wk =   0.0013021
        k(   14) = (   0.0000000   0.0833333   0.3750000), wk =   0.0013021
        k(   15) = (   0.0000000   0.0833333  -0.5000000), wk =   0.0013021
        k(   16) = (   0.0000000   0.1250000   0.0000000), wk =   0.0013021
        k(   17) = (   0.0000000   0.1250000   0.1250000), wk =   0.0013021
        k(   18) = (   0.0000000   0.1250000   0.2500000), wk =   0.0013021
        k(   19) = (   0.0000000   0.1250000   0.3750000), wk =   0.0013021
        k(   20) = (   0.0000000   0.1250000  -0.5000000), wk =   0.0013021
        k(   21) = (   0.0000000   0.1666667   0.0000000), wk =   0.0013021
        k(   22) = (   0.0000000   0.1666667   0.1250000), wk =   0.0013021
        k(   23) = (   0.0000000   0.1666667   0.2500000), wk =   0.0013021
        k(   24) = (   0.0000000   0.1666667   0.3750000), wk =   0.0013021
        k(   25) = (   0.0000000   0.1666667  -0.5000000), wk =   0.0013021
        k(   26) = (   0.0000000   0.2083333   0.0000000), wk =   0.0013021
        k(   27) = (   0.0000000   0.2083333   0.1250000), wk =   0.0013021
        k(   28) = (   0.0000000   0.2083333   0.2500000), wk =   0.0013021
        k(   29) = (   0.0000000   0.2083333   0.3750000), wk =   0.0013021
        k(   30) = (   0.0000000   0.2083333  -0.5000000), wk =   0.0013021
        k(   31) = (   0.0000000   0.2500000   0.0000000), wk =   0.0013021
        k(   32) = (   0.0000000   0.2500000   0.1250000), wk =   0.0013021
        k(   33) = (   0.0000000   0.2500000   0.2500000), wk =   0.0013021
        k(   34) = (   0.0000000   0.2500000   0.3750000), wk =   0.0013021
        k(   35) = (   0.0000000   0.2500000  -0.5000000), wk =   0.0013021
        k(   36) = (   0.0000000   0.2916667   0.0000000), wk =   0.0013021
        k(   37) = (   0.0000000   0.2916667   0.1250000), wk =   0.0013021
        k(   38) = (   0.0000000   0.2916667   0.2500000), wk =   0.0013021
        k(   39) = (   0.0000000   0.2916667   0.3750000), wk =   0.0013021
        k(   40) = (   0.0000000   0.2916667  -0.5000000), wk =   0.0013021
        k(   41) = (   0.0000000   0.3333333   0.0000000), wk =   0.0013021
        k(   42) = (   0.0000000   0.3333333   0.1250000), wk =   0.0013021
        k(   43) = (   0.0000000   0.3333333   0.2500000), wk =   0.0013021
        k(   44) = (   0.0000000   0.3333333   0.3750000), wk =   0.0013021
        k(   45) = (   0.0000000   0.3333333  -0.5000000), wk =   0.0013021
        k(   46) = (   0.0000000   0.3750000   0.0000000), wk =   0.0013021
        k(   47) = (   0.0000000   0.3750000   0.1250000), wk =   0.0013021
        k(   48) = (   0.0000000   0.3750000   0.2500000), wk =   0.0013021
        k(   49) = (   0.0000000   0.3750000   0.3750000), wk =   0.0013021
        k(   50) = (   0.0000000   0.3750000  -0.5000000), wk =   0.0013021
        k(   51) = (   0.0000000   0.4166667   0.0000000), wk =   0.0013021
        k(   52) = (   0.0000000   0.4166667   0.1250000), wk =   0.0013021
        k(   53) = (   0.0000000   0.4166667   0.2500000), wk =   0.0013021
        k(   54) = (   0.0000000   0.4166667   0.3750000), wk =   0.0013021
        k(   55) = (   0.0000000   0.4166667  -0.5000000), wk =   0.0013021
        k(   56) = (   0.0000000   0.4583333   0.0000000), wk =   0.0013021
        k(   57) = (   0.0000000   0.4583333   0.1250000), wk =   0.0013021
        k(   58) = (   0.0000000   0.4583333   0.2500000), wk =   0.0013021
        k(   59) = (   0.0000000   0.4583333   0.3750000), wk =   0.0013021
        k(   60) = (   0.0000000   0.4583333  -0.5000000), wk =   0.0013021
        k(   61) = (   0.0000000  -0.5000000   0.0000000), wk =   0.0006510
        k(   62) = (   0.0000000  -0.5000000   0.1250000), wk =   0.0013021
        k(   63) = (   0.0000000  -0.5000000   0.2500000), wk =   0.0013021
        k(   64) = (   0.0000000  -0.5000000   0.3750000), wk =   0.0013021
        k(   65) = (   0.0000000  -0.5000000  -0.5000000), wk =   0.0006510
        k(   66) = (   0.0416667   0.0416667   0.0000000), wk =   0.0013021
        k(   67) = (   0.0416667   0.0416667   0.1250000), wk =   0.0026042
        k(   68) = (   0.0416667   0.0416667   0.2500000), wk =   0.0026042
        k(   69) = (   0.0416667   0.0416667   0.3750000), wk =   0.0026042
        k(   70) = (   0.0416667   0.0416667  -0.5000000), wk =   0.0013021
        k(   71) = (   0.0416667   0.0833333   0.0000000), wk =   0.0026042
        k(   72) = (   0.0416667   0.0833333   0.1250000), wk =   0.0026042
        k(   73) = (   0.0416667   0.0833333   0.2500000), wk =   0.0026042
        k(   74) = (   0.0416667   0.0833333   0.3750000), wk =   0.0026042
        k(   75) = (   0.0416667   0.0833333  -0.5000000), wk =   0.0026042
        k(   76) = (   0.0416667   0.1250000   0.0000000), wk =   0.0026042
        k(   77) = (   0.0416667   0.1250000   0.1250000), wk =   0.0026042
        k(   78) = (   0.0416667   0.1250000   0.2500000), wk =   0.0026042
        k(   79) = (   0.0416667   0.1250000   0.3750000), wk =   0.0026042
        k(   80) = (   0.0416667   0.1250000  -0.5000000), wk =   0.0026042
        k(   81) = (   0.0416667   0.1666667   0.0000000), wk =   0.0026042
        k(   82) = (   0.0416667   0.1666667   0.1250000), wk =   0.0026042
        k(   83) = (   0.0416667   0.1666667   0.2500000), wk =   0.0026042
        k(   84) = (   0.0416667   0.1666667   0.3750000), wk =   0.0026042
        k(   85) = (   0.0416667   0.1666667  -0.5000000), wk =   0.0026042
        k(   86) = (   0.0416667   0.2083333   0.0000000), wk =   0.0026042
        k(   87) = (   0.0416667   0.2083333   0.1250000), wk =   0.0026042
        k(   88) = (   0.0416667   0.2083333   0.2500000), wk =   0.0026042
        k(   89) = (   0.0416667   0.2083333   0.3750000), wk =   0.0026042
        k(   90) = (   0.0416667   0.2083333  -0.5000000), wk =   0.0026042
        k(   91) = (   0.0416667   0.2500000   0.0000000), wk =   0.0026042
        k(   92) = (   0.0416667   0.2500000   0.1250000), wk =   0.0026042
        k(   93) = (   0.0416667   0.2500000   0.2500000), wk =   0.0026042
        k(   94) = (   0.0416667   0.2500000   0.3750000), wk =   0.0026042
        k(   95) = (   0.0416667   0.2500000  -0.5000000), wk =   0.0026042
        k(   96) = (   0.0416667   0.2916667   0.0000000), wk =   0.0026042
        k(   97) = (   0.0416667   0.2916667   0.1250000), wk =   0.0026042
        k(   98) = (   0.0416667   0.2916667   0.2500000), wk =   0.0026042
        k(   99) = (   0.0416667   0.2916667   0.3750000), wk =   0.0026042
        k(  100) = (   0.0416667   0.2916667  -0.5000000), wk =   0.0026042
        k(  101) = (   0.0416667   0.3333333   0.0000000), wk =   0.0026042
        k(  102) = (   0.0416667   0.3333333   0.1250000), wk =   0.0026042
        k(  103) = (   0.0416667   0.3333333   0.2500000), wk =   0.0026042
        k(  104) = (   0.0416667   0.3333333   0.3750000), wk =   0.0026042
        k(  105) = (   0.0416667   0.3333333  -0.5000000), wk =   0.0026042
        k(  106) = (   0.0416667   0.3750000   0.0000000), wk =   0.0026042
        k(  107) = (   0.0416667   0.3750000   0.1250000), wk =   0.0026042
        k(  108) = (   0.0416667   0.3750000   0.2500000), wk =   0.0026042
        k(  109) = (   0.0416667   0.3750000   0.3750000), wk =   0.0026042
        k(  110) = (   0.0416667   0.3750000  -0.5000000), wk =   0.0026042
        k(  111) = (   0.0416667   0.4166667   0.0000000), wk =   0.0026042
        k(  112) = (   0.0416667   0.4166667   0.1250000), wk =   0.0026042
        k(  113) = (   0.0416667   0.4166667   0.2500000), wk =   0.0026042
        k(  114) = (   0.0416667   0.4166667   0.3750000), wk =   0.0026042
        k(  115) = (   0.0416667   0.4166667  -0.5000000), wk =   0.0026042
        k(  116) = (   0.0416667   0.4583333   0.0000000), wk =   0.0026042
        k(  117) = (   0.0416667   0.4583333   0.1250000), wk =   0.0026042
        k(  118) = (   0.0416667   0.4583333   0.2500000), wk =   0.0026042
        k(  119) = (   0.0416667   0.4583333   0.3750000), wk =   0.0026042
        k(  120) = (   0.0416667   0.4583333  -0.5000000), wk =   0.0026042
        k(  121) = (   0.0833333   0.0833333   0.0000000), wk =   0.0013021
        k(  122) = (   0.0833333   0.0833333   0.1250000), wk =   0.0026042
        k(  123) = (   0.0833333   0.0833333   0.2500000), wk =   0.0026042
        k(  124) = (   0.0833333   0.0833333   0.3750000), wk =   0.0026042
        k(  125) = (   0.0833333   0.0833333  -0.5000000), wk =   0.0013021
        k(  126) = (   0.0833333   0.1250000   0.0000000), wk =   0.0026042
        k(  127) = (   0.0833333   0.1250000   0.1250000), wk =   0.0026042
        k(  128) = (   0.0833333   0.1250000   0.2500000), wk =   0.0026042
        k(  129) = (   0.0833333   0.1250000   0.3750000), wk =   0.0026042
        k(  130) = (   0.0833333   0.1250000  -0.5000000), wk =   0.0026042
        k(  131) = (   0.0833333   0.1666667   0.0000000), wk =   0.0026042
        k(  132) = (   0.0833333   0.1666667   0.1250000), wk =   0.0026042
        k(  133) = (   0.0833333   0.1666667   0.2500000), wk =   0.0026042
        k(  134) = (   0.0833333   0.1666667   0.3750000), wk =   0.0026042
        k(  135) = (   0.0833333   0.1666667  -0.5000000), wk =   0.0026042
        k(  136) = (   0.0833333   0.2083333   0.0000000), wk =   0.0026042
        k(  137) = (   0.0833333   0.2083333   0.1250000), wk =   0.0026042
        k(  138) = (   0.0833333   0.2083333   0.2500000), wk =   0.0026042
        k(  139) = (   0.0833333   0.2083333   0.3750000), wk =   0.0026042
        k(  140) = (   0.0833333   0.2083333  -0.5000000), wk =   0.0026042
        k(  141) = (   0.0833333   0.2500000   0.0000000), wk =   0.0026042
        k(  142) = (   0.0833333   0.2500000   0.1250000), wk =   0.0026042
        k(  143) = (   0.0833333   0.2500000   0.2500000), wk =   0.0026042
        k(  144) = (   0.0833333   0.2500000   0.3750000), wk =   0.0026042
        k(  145) = (   0.0833333   0.2500000  -0.5000000), wk =   0.0026042
        k(  146) = (   0.0833333   0.2916667   0.0000000), wk =   0.0026042
        k(  147) = (   0.0833333   0.2916667   0.1250000), wk =   0.0026042
        k(  148) = (   0.0833333   0.2916667   0.2500000), wk =   0.0026042
        k(  149) = (   0.0833333   0.2916667   0.3750000), wk =   0.0026042
        k(  150) = (   0.0833333   0.2916667  -0.5000000), wk =   0.0026042
        k(  151) = (   0.0833333   0.3333333   0.0000000), wk =   0.0026042
        k(  152) = (   0.0833333   0.3333333   0.1250000), wk =   0.0026042
        k(  153) = (   0.0833333   0.3333333   0.2500000), wk =   0.0026042
        k(  154) = (   0.0833333   0.3333333   0.3750000), wk =   0.0026042
        k(  155) = (   0.0833333   0.3333333  -0.5000000), wk =   0.0026042
        k(  156) = (   0.0833333   0.3750000   0.0000000), wk =   0.0026042
        k(  157) = (   0.0833333   0.3750000   0.1250000), wk =   0.0026042
        k(  158) = (   0.0833333   0.3750000   0.2500000), wk =   0.0026042
        k(  159) = (   0.0833333   0.3750000   0.3750000), wk =   0.0026042
        k(  160) = (   0.0833333   0.3750000  -0.5000000), wk =   0.0026042
        k(  161) = (   0.0833333   0.4166667   0.0000000), wk =   0.0026042
        k(  162) = (   0.0833333   0.4166667   0.1250000), wk =   0.0026042
        k(  163) = (   0.0833333   0.4166667   0.2500000), wk =   0.0026042
        k(  164) = (   0.0833333   0.4166667   0.3750000), wk =   0.0026042
        k(  165) = (   0.0833333   0.4166667  -0.5000000), wk =   0.0026042
        k(  166) = (   0.0833333   0.4583333   0.0000000), wk =   0.0013021
        k(  167) = (   0.0833333   0.4583333   0.1250000), wk =   0.0026042
        k(  168) = (   0.0833333   0.4583333   0.2500000), wk =   0.0026042
        k(  169) = (   0.0833333   0.4583333   0.3750000), wk =   0.0026042
        k(  170) = (   0.0833333   0.4583333  -0.5000000), wk =   0.0013021
        k(  171) = (   0.1250000   0.1250000   0.0000000), wk =   0.0013021
        k(  172) = (   0.1250000   0.1250000   0.1250000), wk =   0.0026042
        k(  173) = (   0.1250000   0.1250000   0.2500000), wk =   0.0026042
        k(  174) = (   0.1250000   0.1250000   0.3750000), wk =   0.0026042
        k(  175) = (   0.1250000   0.1250000  -0.5000000), wk =   0.0013021
        k(  176) = (   0.1250000   0.1666667   0.0000000), wk =   0.0026042
        k(  177) = (   0.1250000   0.1666667   0.1250000), wk =   0.0026042
        k(  178) = (   0.1250000   0.1666667   0.2500000), wk =   0.0026042
        k(  179) = (   0.1250000   0.1666667   0.3750000), wk =   0.0026042
        k(  180) = (   0.1250000   0.1666667  -0.5000000), wk =   0.0026042
        k(  181) = (   0.1250000   0.2083333   0.0000000), wk =   0.0026042
        k(  182) = (   0.1250000   0.2083333   0.1250000), wk =   0.0026042
        k(  183) = (   0.1250000   0.2083333   0.2500000), wk =   0.0026042
        k(  184) = (   0.1250000   0.2083333   0.3750000), wk =   0.0026042
        k(  185) = (   0.1250000   0.2083333  -0.5000000), wk =   0.0026042
        k(  186) = (   0.1250000   0.2500000   0.0000000), wk =   0.0026042
        k(  187) = (   0.1250000   0.2500000   0.1250000), wk =   0.0026042
        k(  188) = (   0.1250000   0.2500000   0.2500000), wk =   0.0026042
        k(  189) = (   0.1250000   0.2500000   0.3750000), wk =   0.0026042
        k(  190) = (   0.1250000   0.2500000  -0.5000000), wk =   0.0026042
        k(  191) = (   0.1250000   0.2916667   0.0000000), wk =   0.0026042
        k(  192) = (   0.1250000   0.2916667   0.1250000), wk =   0.0026042
        k(  193) = (   0.1250000   0.2916667   0.2500000), wk =   0.0026042
        k(  194) = (   0.1250000   0.2916667   0.3750000), wk =   0.0026042
        k(  195) = (   0.1250000   0.2916667  -0.5000000), wk =   0.0026042
        k(  196) = (   0.1250000   0.3333333   0.0000000), wk =   0.0026042
        k(  197) = (   0.1250000   0.3333333   0.1250000), wk =   0.0026042
        k(  198) = (   0.1250000   0.3333333   0.2500000), wk =   0.0026042
        k(  199) = (   0.1250000   0.3333333   0.3750000), wk =   0.0026042
        k(  200) = (   0.1250000   0.3333333  -0.5000000), wk =   0.0026042
        k(  201) = (   0.1250000   0.3750000   0.0000000), wk =   0.0026042
        k(  202) = (   0.1250000   0.3750000   0.1250000), wk =   0.0026042
        k(  203) = (   0.1250000   0.3750000   0.2500000), wk =   0.0026042
        k(  204) = (   0.1250000   0.3750000   0.3750000), wk =   0.0026042
        k(  205) = (   0.1250000   0.3750000  -0.5000000), wk =   0.0026042
        k(  206) = (   0.1250000   0.4166667   0.0000000), wk =   0.0026042
        k(  207) = (   0.1250000   0.4166667   0.1250000), wk =   0.0026042
        k(  208) = (   0.1250000   0.4166667   0.2500000), wk =   0.0026042
        k(  209) = (   0.1250000   0.4166667   0.3750000), wk =   0.0026042
        k(  210) = (   0.1250000   0.4166667  -0.5000000), wk =   0.0026042
        k(  211) = (   0.1666667   0.1666667   0.0000000), wk =   0.0013021
        k(  212) = (   0.1666667   0.1666667   0.1250000), wk =   0.0026042
        k(  213) = (   0.1666667   0.1666667   0.2500000), wk =   0.0026042
        k(  214) = (   0.1666667   0.1666667   0.3750000), wk =   0.0026042
        k(  215) = (   0.1666667   0.1666667  -0.5000000), wk =   0.0013021
        k(  216) = (   0.1666667   0.2083333   0.0000000), wk =   0.0026042
        k(  217) = (   0.1666667   0.2083333   0.1250000), wk =   0.0026042
        k(  218) = (   0.1666667   0.2083333   0.2500000), wk =   0.0026042
        k(  219) = (   0.1666667   0.2083333   0.3750000), wk =   0.0026042
        k(  220) = (   0.1666667   0.2083333  -0.5000000), wk =   0.0026042
        k(  221) = (   0.1666667   0.2500000   0.0000000), wk =   0.0026042
        k(  222) = (   0.1666667   0.2500000   0.1250000), wk =   0.0026042
        k(  223) = (   0.1666667   0.2500000   0.2500000), wk =   0.0026042
        k(  224) = (   0.1666667   0.2500000   0.3750000), wk =   0.0026042
        k(  225) = (   0.1666667   0.2500000  -0.5000000), wk =   0.0026042
        k(  226) = (   0.1666667   0.2916667   0.0000000), wk =   0.0026042
        k(  227) = (   0.1666667   0.2916667   0.1250000), wk =   0.0026042
        k(  228) = (   0.1666667   0.2916667   0.2500000), wk =   0.0026042
        k(  229) = (   0.1666667   0.2916667   0.3750000), wk =   0.0026042
        k(  230) = (   0.1666667   0.2916667  -0.5000000), wk =   0.0026042
        k(  231) = (   0.1666667   0.3333333   0.0000000), wk =   0.0026042
        k(  232) = (   0.1666667   0.3333333   0.1250000), wk =   0.0026042
        k(  233) = (   0.1666667   0.3333333   0.2500000), wk =   0.0026042
        k(  234) = (   0.1666667   0.3333333   0.3750000), wk =   0.0026042
        k(  235) = (   0.1666667   0.3333333  -0.5000000), wk =   0.0026042
        k(  236) = (   0.1666667   0.3750000   0.0000000), wk =   0.0026042
        k(  237) = (   0.1666667   0.3750000   0.1250000), wk =   0.0026042
        k(  238) = (   0.1666667   0.3750000   0.2500000), wk =   0.0026042
        k(  239) = (   0.1666667   0.3750000   0.3750000), wk =   0.0026042
        k(  240) = (   0.1666667   0.3750000  -0.5000000), wk =   0.0026042
        k(  241) = (   0.1666667   0.4166667   0.0000000), wk =   0.0013021
        k(  242) = (   0.1666667   0.4166667   0.1250000), wk =   0.0026042
        k(  243) = (   0.1666667   0.4166667   0.2500000), wk =   0.0026042
        k(  244) = (   0.1666667   0.4166667   0.3750000), wk =   0.0026042
        k(  245) = (   0.1666667   0.4166667  -0.5000000), wk =   0.0013021
        k(  246) = (   0.2083333   0.2083333   0.0000000), wk =   0.0013021
        k(  247) = (   0.2083333   0.2083333   0.1250000), wk =   0.0026042
        k(  248) = (   0.2083333   0.2083333   0.2500000), wk =   0.0026042
        k(  249) = (   0.2083333   0.2083333   0.3750000), wk =   0.0026042
        k(  250) = (   0.2083333   0.2083333  -0.5000000), wk =   0.0013021
        k(  251) = (   0.2083333   0.2500000   0.0000000), wk =   0.0026042
        k(  252) = (   0.2083333   0.2500000   0.1250000), wk =   0.0026042
        k(  253) = (   0.2083333   0.2500000   0.2500000), wk =   0.0026042
        k(  254) = (   0.2083333   0.2500000   0.3750000), wk =   0.0026042
        k(  255) = (   0.2083333   0.2500000  -0.5000000), wk =   0.0026042
        k(  256) = (   0.2083333   0.2916667   0.0000000), wk =   0.0026042
        k(  257) = (   0.2083333   0.2916667   0.1250000), wk =   0.0026042
        k(  258) = (   0.2083333   0.2916667   0.2500000), wk =   0.0026042
        k(  259) = (   0.2083333   0.2916667   0.3750000), wk =   0.0026042
        k(  260) = (   0.2083333   0.2916667  -0.5000000), wk =   0.0026042
        k(  261) = (   0.2083333   0.3333333   0.0000000), wk =   0.0026042
        k(  262) = (   0.2083333   0.3333333   0.1250000), wk =   0.0026042
        k(  263) = (   0.2083333   0.3333333   0.2500000), wk =   0.0026042
        k(  264) = (   0.2083333   0.3333333   0.3750000), wk =   0.0026042
        k(  265) = (   0.2083333   0.3333333  -0.5000000), wk =   0.0026042
        k(  266) = (   0.2083333   0.3750000   0.0000000), wk =   0.0026042
        k(  267) = (   0.2083333   0.3750000   0.1250000), wk =   0.0026042
        k(  268) = (   0.2083333   0.3750000   0.2500000), wk =   0.0026042
        k(  269) = (   0.2083333   0.3750000   0.3750000), wk =   0.0026042
        k(  270) = (   0.2083333   0.3750000  -0.5000000), wk =   0.0026042
        k(  271) = (   0.2500000   0.2500000   0.0000000), wk =   0.0013021
        k(  272) = (   0.2500000   0.2500000   0.1250000), wk =   0.0026042
        k(  273) = (   0.2500000   0.2500000   0.2500000), wk =   0.0026042
        k(  274) = (   0.2500000   0.2500000   0.3750000), wk =   0.0026042
        k(  275) = (   0.2500000   0.2500000  -0.5000000), wk =   0.0013021
        k(  276) = (   0.2500000   0.2916667   0.0000000), wk =   0.0026042
        k(  277) = (   0.2500000   0.2916667   0.1250000), wk =   0.0026042
        k(  278) = (   0.2500000   0.2916667   0.2500000), wk =   0.0026042
        k(  279) = (   0.2500000   0.2916667   0.3750000), wk =   0.0026042
        k(  280) = (   0.2500000   0.2916667  -0.5000000), wk =   0.0026042
        k(  281) = (   0.2500000   0.3333333   0.0000000), wk =   0.0026042
        k(  282) = (   0.2500000   0.3333333   0.1250000), wk =   0.0026042
        k(  283) = (   0.2500000   0.3333333   0.2500000), wk =   0.0026042
        k(  284) = (   0.2500000   0.3333333   0.3750000), wk =   0.0026042
        k(  285) = (   0.2500000   0.3333333  -0.5000000), wk =   0.0026042
        k(  286) = (   0.2500000   0.3750000   0.0000000), wk =   0.0013021
        k(  287) = (   0.2500000   0.3750000   0.1250000), wk =   0.0026042
        k(  288) = (   0.2500000   0.3750000   0.2500000), wk =   0.0026042
        k(  289) = (   0.2500000   0.3750000   0.3750000), wk =   0.0026042
        k(  290) = (   0.2500000   0.3750000  -0.5000000), wk =   0.0013021
        k(  291) = (   0.2916667   0.2916667   0.0000000), wk =   0.0013021
        k(  292) = (   0.2916667   0.2916667   0.1250000), wk =   0.0026042
        k(  293) = (   0.2916667   0.2916667   0.2500000), wk =   0.0026042
        k(  294) = (   0.2916667   0.2916667   0.3750000), wk =   0.0026042
        k(  295) = (   0.2916667   0.2916667  -0.5000000), wk =   0.0013021
        k(  296) = (   0.2916667   0.3333333   0.0000000), wk =   0.0026042
        k(  297) = (   0.2916667   0.3333333   0.1250000), wk =   0.0026042
        k(  298) = (   0.2916667   0.3333333   0.2500000), wk =   0.0026042
        k(  299) = (   0.2916667   0.3333333   0.3750000), wk =   0.0026042
        k(  300) = (   0.2916667   0.3333333  -0.5000000), wk =   0.0026042
        k(  301) = (   0.3333333   0.3333333   0.0000000), wk =   0.0004340
        k(  302) = (   0.3333333   0.3333333   0.1250000), wk =   0.0008681
        k(  303) = (   0.3333333   0.3333333   0.2500000), wk =   0.0008681
        k(  304) = (   0.3333333   0.3333333   0.3750000), wk =   0.0008681
        k(  305) = (   0.3333333   0.3333333  -0.5000000), wk =   0.0004340
        k(  306) = (   0.0000000  -0.0416667   0.1250000), wk =   0.0013021
        k(  307) = (   0.0000000  -0.0416667   0.2500000), wk =   0.0013021
        k(  308) = (   0.0000000  -0.0416667   0.3750000), wk =   0.0013021
        k(  309) = (   0.0000000  -0.0833333   0.1250000), wk =   0.0013021
        k(  310) = (   0.0000000  -0.0833333   0.2500000), wk =   0.0013021
        k(  311) = (   0.0000000  -0.0833333   0.3750000), wk =   0.0013021
        k(  312) = (   0.0000000  -0.1250000   0.1250000), wk =   0.0013021
        k(  313) = (   0.0000000  -0.1250000   0.2500000), wk =   0.0013021
        k(  314) = (   0.0000000  -0.1250000   0.3750000), wk =   0.0013021
        k(  315) = (   0.0000000  -0.1666667   0.1250000), wk =   0.0013021
        k(  316) = (   0.0000000  -0.1666667   0.2500000), wk =   0.0013021
        k(  317) = (   0.0000000  -0.1666667   0.3750000), wk =   0.0013021
        k(  318) = (   0.0000000  -0.2083333   0.1250000), wk =   0.0013021
        k(  319) = (   0.0000000  -0.2083333   0.2500000), wk =   0.0013021
        k(  320) = (   0.0000000  -0.2083333   0.3750000), wk =   0.0013021
        k(  321) = (   0.0000000  -0.2500000   0.1250000), wk =   0.0013021
        k(  322) = (   0.0000000  -0.2500000   0.2500000), wk =   0.0013021
        k(  323) = (   0.0000000  -0.2500000   0.3750000), wk =   0.0013021
        k(  324) = (   0.0000000  -0.2916667   0.1250000), wk =   0.0013021
        k(  325) = (   0.0000000  -0.2916667   0.2500000), wk =   0.0013021
        k(  326) = (   0.0000000  -0.2916667   0.3750000), wk =   0.0013021
        k(  327) = (   0.0000000  -0.3333333   0.1250000), wk =   0.0013021
        k(  328) = (   0.0000000  -0.3333333   0.2500000), wk =   0.0013021
        k(  329) = (   0.0000000  -0.3333333   0.3750000), wk =   0.0013021
        k(  330) = (   0.0000000  -0.3750000   0.1250000), wk =   0.0013021
        k(  331) = (   0.0000000  -0.3750000   0.2500000), wk =   0.0013021
        k(  332) = (   0.0000000  -0.3750000   0.3750000), wk =   0.0013021
        k(  333) = (   0.0000000  -0.4166667   0.1250000), wk =   0.0013021
        k(  334) = (   0.0000000  -0.4166667   0.2500000), wk =   0.0013021
        k(  335) = (   0.0000000  -0.4166667   0.3750000), wk =   0.0013021
        k(  336) = (   0.0000000  -0.4583333   0.1250000), wk =   0.0013021
        k(  337) = (   0.0000000  -0.4583333   0.2500000), wk =   0.0013021
        k(  338) = (   0.0000000  -0.4583333   0.3750000), wk =   0.0013021
        k(  339) = (  -0.0416667  -0.0833333   0.1250000), wk =   0.0026042
        k(  340) = (  -0.0416667  -0.0833333   0.2500000), wk =   0.0026042
        k(  341) = (  -0.0416667  -0.0833333   0.3750000), wk =   0.0026042
        k(  342) = (  -0.0416667  -0.1250000   0.1250000), wk =   0.0026042
        k(  343) = (  -0.0416667  -0.1250000   0.2500000), wk =   0.0026042
        k(  344) = (  -0.0416667  -0.1250000   0.3750000), wk =   0.0026042
        k(  345) = (  -0.0416667  -0.1666667   0.1250000), wk =   0.0026042
        k(  346) = (  -0.0416667  -0.1666667   0.2500000), wk =   0.0026042
        k(  347) = (  -0.0416667  -0.1666667   0.3750000), wk =   0.0026042
        k(  348) = (  -0.0416667  -0.2083333   0.1250000), wk =   0.0026042
        k(  349) = (  -0.0416667  -0.2083333   0.2500000), wk =   0.0026042
        k(  350) = (  -0.0416667  -0.2083333   0.3750000), wk =   0.0026042
        k(  351) = (  -0.0416667  -0.2500000   0.1250000), wk =   0.0026042
        k(  352) = (  -0.0416667  -0.2500000   0.2500000), wk =   0.0026042
        k(  353) = (  -0.0416667  -0.2500000   0.3750000), wk =   0.0026042
        k(  354) = (  -0.0416667  -0.2916667   0.1250000), wk =   0.0026042
        k(  355) = (  -0.0416667  -0.2916667   0.2500000), wk =   0.0026042
        k(  356) = (  -0.0416667  -0.2916667   0.3750000), wk =   0.0026042
        k(  357) = (  -0.0416667  -0.3333333   0.1250000), wk =   0.0026042
        k(  358) = (  -0.0416667  -0.3333333   0.2500000), wk =   0.0026042
        k(  359) = (  -0.0416667  -0.3333333   0.3750000), wk =   0.0026042
        k(  360) = (  -0.0416667  -0.3750000   0.1250000), wk =   0.0026042
        k(  361) = (  -0.0416667  -0.3750000   0.2500000), wk =   0.0026042
        k(  362) = (  -0.0416667  -0.3750000   0.3750000), wk =   0.0026042
        k(  363) = (  -0.0416667  -0.4166667   0.1250000), wk =   0.0026042
        k(  364) = (  -0.0416667  -0.4166667   0.2500000), wk =   0.0026042
        k(  365) = (  -0.0416667  -0.4166667   0.3750000), wk =   0.0026042
        k(  366) = (  -0.0416667  -0.4583333   0.1250000), wk =   0.0026042
        k(  367) = (  -0.0416667  -0.4583333   0.2500000), wk =   0.0026042
        k(  368) = (  -0.0416667  -0.4583333   0.3750000), wk =   0.0026042
        k(  369) = (  -0.0833333  -0.1250000   0.1250000), wk =   0.0026042
        k(  370) = (  -0.0833333  -0.1250000   0.2500000), wk =   0.0026042
        k(  371) = (  -0.0833333  -0.1250000   0.3750000), wk =   0.0026042
        k(  372) = (  -0.0833333  -0.1666667   0.1250000), wk =   0.0026042
        k(  373) = (  -0.0833333  -0.1666667   0.2500000), wk =   0.0026042
        k(  374) = (  -0.0833333  -0.1666667   0.3750000), wk =   0.0026042
        k(  375) = (  -0.0833333  -0.2083333   0.1250000), wk =   0.0026042
        k(  376) = (  -0.0833333  -0.2083333   0.2500000), wk =   0.0026042
        k(  377) = (  -0.0833333  -0.2083333   0.3750000), wk =   0.0026042
        k(  378) = (  -0.0833333  -0.2500000   0.1250000), wk =   0.0026042
        k(  379) = (  -0.0833333  -0.2500000   0.2500000), wk =   0.0026042
        k(  380) = (  -0.0833333  -0.2500000   0.3750000), wk =   0.0026042
        k(  381) = (  -0.0833333  -0.2916667   0.1250000), wk =   0.0026042
        k(  382) = (  -0.0833333  -0.2916667   0.2500000), wk =   0.0026042
        k(  383) = (  -0.0833333  -0.2916667   0.3750000), wk =   0.0026042
        k(  384) = (  -0.0833333  -0.3333333   0.1250000), wk =   0.0026042
        k(  385) = (  -0.0833333  -0.3333333   0.2500000), wk =   0.0026042
        k(  386) = (  -0.0833333  -0.3333333   0.3750000), wk =   0.0026042
        k(  387) = (  -0.0833333  -0.3750000   0.1250000), wk =   0.0026042
        k(  388) = (  -0.0833333  -0.3750000   0.2500000), wk =   0.0026042
        k(  389) = (  -0.0833333  -0.3750000   0.3750000), wk =   0.0026042
        k(  390) = (  -0.0833333  -0.4166667   0.1250000), wk =   0.0026042
        k(  391) = (  -0.0833333  -0.4166667   0.2500000), wk =   0.0026042
        k(  392) = (  -0.0833333  -0.4166667   0.3750000), wk =   0.0026042
        k(  393) = (  -0.1250000  -0.1666667   0.1250000), wk =   0.0026042
        k(  394) = (  -0.1250000  -0.1666667   0.2500000), wk =   0.0026042
        k(  395) = (  -0.1250000  -0.1666667   0.3750000), wk =   0.0026042
        k(  396) = (  -0.1250000  -0.2083333   0.1250000), wk =   0.0026042
        k(  397) = (  -0.1250000  -0.2083333   0.2500000), wk =   0.0026042
        k(  398) = (  -0.1250000  -0.2083333   0.3750000), wk =   0.0026042
        k(  399) = (  -0.1250000  -0.2500000   0.1250000), wk =   0.0026042
        k(  400) = (  -0.1250000  -0.2500000   0.2500000), wk =   0.0026042
        k(  401) = (  -0.1250000  -0.2500000   0.3750000), wk =   0.0026042
        k(  402) = (  -0.1250000  -0.2916667   0.1250000), wk =   0.0026042
        k(  403) = (  -0.1250000  -0.2916667   0.2500000), wk =   0.0026042
        k(  404) = (  -0.1250000  -0.2916667   0.3750000), wk =   0.0026042
        k(  405) = (  -0.1250000  -0.3333333   0.1250000), wk =   0.0026042
        k(  406) = (  -0.1250000  -0.3333333   0.2500000), wk =   0.0026042
        k(  407) = (  -0.1250000  -0.3333333   0.3750000), wk =   0.0026042
        k(  408) = (  -0.1250000  -0.3750000   0.1250000), wk =   0.0026042
        k(  409) = (  -0.1250000  -0.3750000   0.2500000), wk =   0.0026042
        k(  410) = (  -0.1250000  -0.3750000   0.3750000), wk =   0.0026042
        k(  411) = (  -0.1250000  -0.4166667   0.1250000), wk =   0.0026042
        k(  412) = (  -0.1250000  -0.4166667   0.2500000), wk =   0.0026042
        k(  413) = (  -0.1250000  -0.4166667   0.3750000), wk =   0.0026042
        k(  414) = (  -0.1666667  -0.2083333   0.1250000), wk =   0.0026042
        k(  415) = (  -0.1666667  -0.2083333   0.2500000), wk =   0.0026042
        k(  416) = (  -0.1666667  -0.2083333   0.3750000), wk =   0.0026042
        k(  417) = (  -0.1666667  -0.2500000   0.1250000), wk =   0.0026042
        k(  418) = (  -0.1666667  -0.2500000   0.2500000), wk =   0.0026042
        k(  419) = (  -0.1666667  -0.2500000   0.3750000), wk =   0.0026042
        k(  420) = (  -0.1666667  -0.2916667   0.1250000), wk =   0.0026042
        k(  421) = (  -0.1666667  -0.2916667   0.2500000), wk =   0.0026042
        k(  422) = (  -0.1666667  -0.2916667   0.3750000), wk =   0.0026042
        k(  423) = (  -0.1666667  -0.3333333   0.1250000), wk =   0.0026042
        k(  424) = (  -0.1666667  -0.3333333   0.2500000), wk =   0.0026042
        k(  425) = (  -0.1666667  -0.3333333   0.3750000), wk =   0.0026042
        k(  426) = (  -0.1666667  -0.3750000   0.1250000), wk =   0.0026042
        k(  427) = (  -0.1666667  -0.3750000   0.2500000), wk =   0.0026042
        k(  428) = (  -0.1666667  -0.3750000   0.3750000), wk =   0.0026042
        k(  429) = (  -0.2083333  -0.2500000   0.1250000), wk =   0.0026042
        k(  430) = (  -0.2083333  -0.2500000   0.2500000), wk =   0.0026042
        k(  431) = (  -0.2083333  -0.2500000   0.3750000), wk =   0.0026042
        k(  432) = (  -0.2083333  -0.2916667   0.1250000), wk =   0.0026042
        k(  433) = (  -0.2083333  -0.2916667   0.2500000), wk =   0.0026042
        k(  434) = (  -0.2083333  -0.2916667   0.3750000), wk =   0.0026042
        k(  435) = (  -0.2083333  -0.3333333   0.1250000), wk =   0.0026042
        k(  436) = (  -0.2083333  -0.3333333   0.2500000), wk =   0.0026042
        k(  437) = (  -0.2083333  -0.3333333   0.3750000), wk =   0.0026042
        k(  438) = (  -0.2083333  -0.3750000   0.1250000), wk =   0.0026042
        k(  439) = (  -0.2083333  -0.3750000   0.2500000), wk =   0.0026042
        k(  440) = (  -0.2083333  -0.3750000   0.3750000), wk =   0.0026042
        k(  441) = (  -0.2500000  -0.2916667   0.1250000), wk =   0.0026042
        k(  442) = (  -0.2500000  -0.2916667   0.2500000), wk =   0.0026042
        k(  443) = (  -0.2500000  -0.2916667   0.3750000), wk =   0.0026042
        k(  444) = (  -0.2500000  -0.3333333   0.1250000), wk =   0.0026042
        k(  445) = (  -0.2500000  -0.3333333   0.2500000), wk =   0.0026042
        k(  446) = (  -0.2500000  -0.3333333   0.3750000), wk =   0.0026042
        k(  447) = (  -0.2916667  -0.3333333   0.1250000), wk =   0.0026042
        k(  448) = (  -0.2916667  -0.3333333   0.2500000), wk =   0.0026042
        k(  449) = (  -0.2916667  -0.3333333   0.3750000), wk =   0.0026042

     Dense  grid:    45403 G-vectors     FFT dimensions: (  40,  40,  75)

     Smooth grid:    15993 G-vectors     FFT dimensions: (  27,  27,  54)

     Dynamical RAM for                 wfc:       0.73 MB

     Dynamical RAM for     wfc (w. buffer):       0.73 MB

     Dynamical RAM for           str. fact:       2.08 MB

     Dynamical RAM for           local pot:       0.00 MB

     Dynamical RAM for          nlocal pot:       1.29 MB

     Dynamical RAM for                qrad:       5.27 MB

     Dynamical RAM for          rho,v,vnew:       9.65 MB

     Dynamical RAM for           G-vectors:       2.72 MB

     Dynamical RAM for          h,s,v(r/c):       0.11 MB

     Dynamical RAM for          <psi|beta>:       0.02 MB

     Dynamical RAM for                 psi:       1.47 MB

     Dynamical RAM for                hpsi:       1.47 MB

     Dynamical RAM for                spsi:       1.47 MB

     Dynamical RAM for      wfcinit/wfcrot:       1.48 MB

     Dynamical RAM for           addusdens:     130.94 MB

     Estimated static dynamical RAM per process >      30.01 MB

     Estimated max dynamical RAM per process >     160.94 MB

     Check: negative core charge=   -0.000009
     Generating pointlists ...
     new r_m :   0.2765 (alat units)  1.4733 (a.u.) for type    1
     new r_m :   0.2765 (alat units)  1.4733 (a.u.) for type    2
     new r_m :   0.3380 (alat units)  1.8014 (a.u.) for type    3

     The potential is recalculated from file :
     ../Li_1x1_c5.5_d0.15/out/pw.save/charge-density

     Starting wfcs are   23 randomized atomic wfcs +    1 random wfcs
     Checking if some PAW data can be deallocated... 

     Band Structure Calculation
     Davidson diagonalization with overlap

     Computing kpt #:     1  of   898
     total cpu time spent up to now is        2.9 secs

     Computing kpt #:     2  of   898
     total cpu time spent up to now is        3.1 secs

     Computing kpt #:     3  of   898
     total cpu time spent up to now is        3.2 secs

     Computing kpt #:     4  of   898
     total cpu time spent up to now is        3.3 secs

     Computing kpt #:     5  of   898
     total cpu time spent up to now is        3.4 secs

     Computing kpt #:     6  of   898
     total cpu time spent up to now is        3.5 secs

     Computing kpt #:     7  of   898
     total cpu time spent up to now is        3.6 secs

     Computing kpt #:     8  of   898
[...]
     1.0000   1.0000   1.0000   1.0000   1.0000   1.0000   1.0000   1.0000
     0.0000   0.0000   0.0000   0.0000   0.0000   0.0000   0.0000   0.0000

          k =-0.1667-0.4330 0.0641 (  2003 PWs)   bands (ev):

   -85.8379 -49.1896 -49.1517 -49.0361 -37.6085  -9.7080  -9.1433   2.5451
     3.0626   4.1175   4.3013   4.9070   5.9500   8.4963   8.8038   9.0731
    10.8485  11.0892  14.0218  17.5412  19.1845  20.6384  22.1577  23.8714

     occupation numbers 
     1.0000   1.0000   1.0000   1.0000   1.0000   1.0000   1.0000   1.0000
     1.0000   1.0000   1.0000   1.0000   1.0000   1.0000   1.0000   1.0001
     0.0000   0.0000   0.0000   0.0000   0.0000   0.0000   0.0000   0.0000

          k =-0.1667-0.4330 0.1282 (  1998 PWs)   bands (ev):

   -85.8379 -49.1895 -49.1516 -49.0361 -37.6085  -9.7027  -9.1493   2.5057
     3.0264   4.1275   4.4031   4.9175   5.9310   8.5119   8.8013   9.0150
    10.9711  11.0593  13.9041  17.5786  19.3300  20.4696  22.0746  23.8920

     occupation numbers 
     1.0000   1.0000   1.0000   1.0000   1.0000   1.0000   1.0000   1.0000
     1.0000   1.0000   1.0000   1.0000   1.0000   1.0000   1.0000   1.0000
     0.0000   0.0000   0.0000   0.0000   0.0000   0.0000   0.0000   0.0000

          k =-0.1667-0.4330 0.1923 (  1995 PWs)   bands (ev):

   -85.8379 -49.1895 -49.1516 -49.0361 -37.6084  -9.6989  -9.1534   2.4580
     2.9973   4.1320   4.4882   4.9280   5.9608   8.5068   8.8003   8.9777
    11.0057  11.0670  13.8316  17.5970  19.3597  20.3472  22.1204  23.8755

     occupation numbers 
     1.0000   1.0000   1.0000   1.0000   1.0000   1.0000   1.0000   1.0000
     1.0000   1.0000   1.0000   1.0000   1.0000   1.0000   1.0000   1.0000
     0.0000   0.0000   0.0000   0.0000   0.0000   0.0000   0.0000   0.0000

          k =-0.1667-0.4811 0.0641 (  2000 PWs)   bands (ev):

   -85.8374 -49.1937 -49.1542 -49.0352 -37.6065  -9.5708  -9.1564   2.3552
     3.0885   4.1312   4.4748   4.8670   5.6783   8.4384   8.7733   9.0770
    10.9262  11.1111  14.1850  17.1934  19.1136  20.5901  22.1925  23.7049

     occupation numbers 
     1.0000   1.0000   1.0000   1.0000   1.0000   1.0000   1.0000   1.0000
     1.0000   1.0000   1.0000   1.0000   1.0000   1.0000   1.0000   1.0001
     0.0000   0.0000   0.0000   0.0000   0.0000   0.0000   0.0000   0.0000

          k =-0.1667-0.4811 0.1282 (  2004 PWs)   bands (ev):

   -85.8374 -49.1937 -49.1542 -49.0353 -37.6065  -9.5665  -9.1608   2.3175
     3.0540   4.1231   4.5574   4.8931   5.6914   8.4370   8.7764   9.0276
    11.0312  11.1075  14.0385  17.1526  19.3761  20.4251  22.0276  23.7541

     occupation numbers 
     1.0000   1.0000   1.0000   1.0000   1.0000   1.0000   1.0000   1.0000
     1.0000   1.0000   1.0000   1.0000   1.0000   1.0000   1.0000   1.0000
     0.0000   0.0000   0.0000   0.0000   0.0000   0.0000   0.0000   0.0000

          k =-0.1667-0.4811 0.1923 (  2000 PWs)   bands (ev):

   -85.8374 -49.1937 -49.1542 -49.0353 -37.6065  -9.5641  -9.1630   2.2744
     3.0230   4.1198   4.6021   4.9188   5.7633   8.4161   8.7845   8.9919
    11.0840  11.1159  13.9302  17.1035  19.5551  20.2658  22.0171  23.7634

     occupation numbers 
     1.0000   1.0000   1.0000   1.0000   1.0000   1.0000   1.0000   1.0000
     1.0000   1.0000   1.0000   1.0000   1.0000   1.0000   1.0000   1.0000
     0.0000   0.0000   0.0000   0.0000   0.0000   0.0000   0.0000   0.0000

          k =-0.1667-0.5292 0.0641 (  1994 PWs)   bands (ev):

   -85.8371 -49.1962 -49.1558 -49.0346 -37.6053  -9.4747  -9.1726   2.2207
     3.1205   4.1649   4.5360   4.9136   5.4713   8.3702   8.7826   9.0736
    11.0027  11.0922  14.3101  16.9470  19.0343  20.5716  22.2786  23.5723

     occupation numbers 
     1.0000   1.0000   1.0000   1.0000   1.0000   1.0000   1.0000   1.0000
     1.0000   1.0000   1.0000   1.0000   1.0000   1.0000   1.0000   1.0001
     0.0000   0.0000   0.0000   0.0000   0.0000   0.0000   0.0000   0.0000

          k =-0.1667-0.5292 0.1282 (  2005 PWs)   bands (ev):

   -85.8371 -49.1963 -49.1558 -49.0348 -37.6053  -9.4721  -9.1750   2.1823
     3.0898   4.1494   4.5695   4.9553   5.5344   8.3551   8.7893   9.0323
    11.0523  11.1437  14.1562  16.8559  19.3196  20.4408  22.0750  23.6433

     occupation numbers 
     1.0000   1.0000   1.0000   1.0000   1.0000   1.0000   1.0000   1.0000
     1.0000   1.0000   1.0000   1.0000   1.0000   1.0000   1.0000   1.0000
     0.0000   0.0000   0.0000   0.0000   0.0000   0.0000   0.0000   0.0000

          k =-0.1667-0.5292 0.1923 (  2003 PWs)   bands (ev):

   -85.8371 -49.1963 -49.1558 -49.0348 -37.6053  -9.4710  -9.1755   2.1420
     3.0606   4.1405   4.5791   4.9829   5.6447   8.3279   8.8000   8.9969
    11.1038  11.1714  14.0276  16.7615  19.5975  20.2651  22.0009  23.6741

     occupation numbers 
     1.0000   1.0000   1.0000   1.0000   1.0000   1.0000   1.0000   1.0000
     1.0000   1.0000   1.0000   1.0000   1.0000   1.0000   1.0000   1.0000
     0.0000   0.0000   0.0000   0.0000   0.0000   0.0000   0.0000   0.0000

          k =-0.2083-0.4090 0.0641 (  2006 PWs)   bands (ev):

   -85.8380 -49.1871 -49.1538 -49.0361 -37.6086  -9.7250  -9.1345   2.7309
     2.9725   4.0789   4.2403   4.8154   6.0585   8.5141   8.8201   9.1139
    10.7048  11.0685  14.0998  17.5636  19.1120  20.6304  22.3881  23.9144

     occupation numbers 
     1.0000   1.0000   1.0000   1.0000   1.0000   1.0000   1.0000   1.0000
     1.0000   1.0000   1.0000   1.0000   1.0000   1.0000   1.0000   1.0002
     0.0000   0.0000   0.0000   0.0000   0.0000   0.0000   0.0000   0.0000

          k =-0.2083-0.4090 0.1282 (  2008 PWs)   bands (ev):

   -85.8380 -49.1871 -49.1538 -49.0362 -37.6086  -9.7201  -9.1401   2.6888
     2.9325   4.0859   4.3482   4.8255   6.0414   8.5327   8.8197   9.0469
    10.8076  11.0683  13.9812  17.6183  19.1627  20.4875  22.3378  23.8794

     occupation numbers 
     1.0000   1.0000   1.0000   1.0000   1.0000   1.0000   1.0000   1.0000
     1.0000   1.0000   1.0000   1.0000   1.0000   1.0000   1.0000   1.0001
     0.0000   0.0000   0.0000   0.0000   0.0000   0.0000   0.0000   0.0000

          k =-0.2083-0.4090 0.1923 (  2003 PWs)   bands (ev):

   -85.8379 -49.1871 -49.1538 -49.0362 -37.6086  -9.7155  -9.1451   2.6428
     2.9009   4.0870   4.4536   4.8348   6.0385   8.5479   8.8194   8.9870
    10.9200  11.0364  13.8855  17.6446  19.2100  20.3366  22.3274  23.9785

     occupation numbers 
     1.0000   1.0000   1.0000   1.0000   1.0000   1.0000   1.0000   1.0000
     1.0000   1.0000   1.0000   1.0000   1.0000   1.0000   1.0000   1.0000
     0.0000   0.0000   0.0000   0.0000   0.0000   0.0000   0.0000   0.0000

          k =-0.2083-0.4571 0.0641 (  2003 PWs)   bands (ev):

   -85.8374 -49.1903 -49.1576 -49.0352 -37.6065  -9.5877  -9.1403   2.5785
     2.9948   4.0142   4.4254   4.7670   5.7870   8.4727   8.7931   9.1214
    10.7570  11.0861  14.2995  17.1541  19.1116  20.5629  22.4585  23.8303

     occupation numbers 
     1.0000   1.0000   1.0000   1.0000   1.0000   1.0000   1.0000   1.0000
     1.0000   1.0000   1.0000   1.0000   1.0000   1.0000   1.0000   1.0003
     0.0000   0.0000   0.0000   0.0000   0.0000   0.0000   0.0000   0.0000

          k =-0.2083-0.4571 0.1282 (  2007 PWs)   bands (ev):

   -85.8374 -49.1903 -49.1576 -49.0353 -37.6065  -9.5834  -9.1447   2.5426
     2.9521   4.0050   4.5264   4.7883   5.7852   8.4791   8.7966   9.0611
    10.8681  11.1021  14.1390  17.1281  19.2757  20.4343  22.2989  23.8278

     occupation numbers 
     1.0000   1.0000   1.0000   1.0000   1.0000   1.0000   1.0000   1.0000
     1.0000   1.0000   1.0000   1.0000   1.0000   1.0000   1.0000   1.0001
     0.0000   0.0000   0.0000   0.0000   0.0000   0.0000   0.0000   0.0000

          k =-0.2083-0.4571 0.1923 (  2002 PWs)   bands (ev):

   -85.8374 -49.1903 -49.1576 -49.0353 -37.6065  -9.5801  -9.1480   2.5020
     2.9153   3.9996   4.6070   4.8089   5.8130   8.4746   8.8043   9.0104
    10.9801  11.0931  14.0034  17.0859  19.4088  20.2909  22.2493  23.8922

     occupation numbers 
     1.0000   1.0000   1.0000   1.0000   1.0000   1.0000   1.0000   1.0000
     1.0000   1.0000   1.0000   1.0000   1.0000   1.0000   1.0000   1.0000
     0.0000   0.0000   0.0000   0.0000   0.0000   0.0000   0.0000   0.0000

          k =-0.2083-0.5052 0.0641 (  2000 PWs)   bands (ev):

   -85.8370 -49.1925 -49.1605 -49.0345 -37.6051  -9.4833  -9.1494   2.4401
     3.0434   3.9732   4.5324   4.8148   5.5398   8.3992   8.8202   9.1150
    10.8272  11.0642  14.4820  16.8014  19.1108  20.5226  22.5513  23.7487

     occupation numbers 
     1.0000   1.0000   1.0000   1.0000   1.0000   1.0000   1.0000   1.0000
     1.0000   1.0000   1.0000   1.0000   1.0000   1.0000   1.0000   1.0002
     0.0000   0.0000   0.0000   0.0000   0.0000   0.0000   0.0000   0.0000

          k =-0.2083-0.5052 0.1282 (  2006 PWs)   bands (ev):

   -85.8370 -49.1925 -49.1605 -49.0347 -37.6051  -9.4803  -9.1522   2.4039
     3.0063   3.9546   4.5920   4.8628   5.5634   8.3937   8.8265   9.0643
    10.9260  11.1056  14.3038  16.7194  19.3153  20.4225  22.3290  23.7741

     occupation numbers 
     1.0000   1.0000   1.0000   1.0000   1.0000   1.0000   1.0000   1.0000
     1.0000   1.0000   1.0000   1.0000   1.0000   1.0000   1.0000   1.0001
     0.0000   0.0000   0.0000   0.0000   0.0000   0.0000   0.0000   0.0000

          k =-0.2083-0.5052 0.1923 (  2010 PWs)   bands (ev):

   -85.8370 -49.1925 -49.1605 -49.0347 -37.6051  -9.4785  -9.1536   2.3651
     2.9717   3.9424   4.6321   4.8982   5.6247   8.3788   8.8368   9.0202
    11.0269  11.1287  14.1441  16.6295  19.4956  20.2973  22.2402  23.8171

     occupation numbers 
     1.0000   1.0000   1.0000   1.0000   1.0000   1.0000   1.0000   1.0000
     1.0000   1.0000   1.0000   1.0000   1.0000   1.0000   1.0000   1.0000
     0.0000   0.0000   0.0000   0.0000   0.0000   0.0000   0.0000   0.0000

          k =-0.2083-0.5533 0.0641 (  1991 PWs)   bands (ev):

   -85.8368 -49.1934 -49.1620 -49.0342 -37.6043  -9.4255  -9.1570   2.3623
     3.0729   3.9655   4.5380   4.9163   5.3812   8.3455   8.8521   9.1071
    10.8737  11.0344  14.6005  16.6014  19.0760  20.5088  22.6887  23.6575

     occupation numbers 
     1.0000   1.0000   1.0000   1.0000   1.0000   1.0000   1.0000   1.0000
     1.0000   1.0000   1.0000   1.0000   1.0000   1.0000   1.0000   1.0002
     0.0000   0.0000   0.0000   0.0000   0.0000   0.0000   0.0000   0.0000

          k =-0.2083-0.5533 0.1282 (  2006 PWs)   bands (ev):

   -85.8368 -49.1935 -49.1621 -49.0344 -37.6043  -9.4241  -9.1580   2.3247
     3.0406   3.9407   4.5792   4.9497   5.4468   8.3326   8.8575   9.0648
    10.9438  11.1065  14.4217  16.4864  19.2760  20.4317  22.4365  23.7281

     occupation numbers 
     1.0000   1.0000   1.0000   1.0000   1.0000   1.0000   1.0000   1.0000
     1.0000   1.0000   1.0000   1.0000   1.0000   1.0000   1.0000   1.0001
     0.0000   0.0000   0.0000   0.0000   0.0000   0.0000   0.0000   0.0000

          k =-0.2083-0.5533 0.1923 (  2007 PWs)   bands (ev):

   -85.8368 -49.1935 -49.1620 -49.0344 -37.6043  -9.4233  -9.1583   2.2873
     3.0095   3.9214   4.6106   4.9715   5.5327   8.3154   8.8667   9.0231
    11.0408  11.1488  14.2537  16.3646  19.4854  20.3246  22.2934  23.7809

     occupation numbers 
     1.0000   1.0000   1.0000   1.0000   1.0000   1.0000   1.0000   1.0000
     1.0000   1.0000   1.0000   1.0000   1.0000   1.0000   1.0000   1.0000
     0.0000   0.0000   0.0000   0.0000   0.0000   0.0000   0.0000   0.0000

          k =-0.2500-0.4811 0.0641 (  2002 PWs)   bands (ev):

   -85.8370 -49.1897 -49.1638 -49.0345 -37.6049  -9.4894  -9.1357   2.6396
     2.9533   3.8106   4.5517   4.7526   5.5995   8.4081   8.8421   9.1484
    10.7096  11.0539  14.5883  16.7163  19.1137  20.5088  22.8536  23.7712

     occupation numbers 
     1.0000   1.0000   1.0000   1.0000   1.0000   1.0000   1.0000   1.0000
     1.0000   1.0000   1.0000   1.0000   1.0000   1.0000   1.0000   1.0005
     0.0000   0.0000   0.0000   0.0000   0.0000   0.0000   0.0000   0.0000

          k =-0.2500-0.4811 0.1282 (  2005 PWs)   bands (ev):

   -85.8370 -49.1896 -49.1638 -49.0346 -37.6049  -9.4865  -9.1383   2.6080
     2.9059   3.7978   4.6250   4.7928   5.6117   8.4058   8.8474   9.0942
    10.8183  11.1028  14.3999  16.6409  19.2542  20.4272  22.6300  23.7694

     occupation numbers 
     1.0000   1.0000   1.0000   1.0000   1.0000   1.0000   1.0000   1.0000
     1.0000   1.0000   1.0000   1.0000   1.0000   1.0000   1.0000   1.0002
     0.0000   0.0000   0.0000   0.0000   0.0000   0.0000   0.0000   0.0000

          k =-0.2500-0.4811 0.1923 (  2008 PWs)   bands (ev):

   -85.8370 -49.1896 -49.1638 -49.0346 -37.6049  -9.4841  -9.1405   2.5749
     2.8631   3.7873   4.6796   4.8389   5.6356   8.4002   8.8562   9.0427
    10.9405  11.1336  14.2226  16.5506  19.4011  20.3216  22.4815  23.8872

     occupation numbers 
     1.0000   1.0000   1.0000   1.0000   1.0000   1.0000   1.0000   1.0000
     1.0000   1.0000   1.0000   1.0000   1.0000   1.0000   1.0000   1.0001
     0.0000   0.0000   0.0000   0.0000   0.0000   0.0000   0.0000   0.0000

          k =-0.2500-0.5292 0.0641 (  1998 PWs)   bands (ev):

   -85.8367 -49.1896 -49.1672 -49.0341 -37.6039  -9.4213  -9.1379   2.5776
     3.0082   3.7044   4.6092   4.8686   5.3798   8.3455   8.9017   9.1322
    10.7693  10.9951  14.7982  16.3817  19.1454  20.4834  22.9900  23.7934

     occupation numbers 
     1.0000   1.0000   1.0000   1.0000   1.0000   1.0000   1.0000   1.0000
     1.0000   1.0000   1.0000   1.0000   1.0000   1.0000   1.0000   1.0003
     0.0000   0.0000   0.0000   0.0000   0.0000   0.0000   0.0000   0.0000

          k =-0.2500-0.5292 0.1282 (  2002 PWs)   bands (ev):

   -85.8367 -49.1896 -49.1672 -49.0341 -37.6039  -9.4197  -9.1390   2.5429
     2.9696   3.6848   4.6581   4.9186   5.4086   8.3390   8.9036   9.0870
    10.8708  11.0661  14.6042  16.2639  19.2881  20.4251  22.7319  23.8027

     occupation numbers 
     1.0000   1.0000   1.0000   1.0000   1.0000   1.0000   1.0000   1.0000
     1.0000   1.0000   1.0000   1.0000   1.0000   1.0000   1.0000   1.0001
     0.0000   0.0000   0.0000   0.0000   0.0000   0.0000   0.0000   0.0000

          k =-0.2500-0.5292 0.1923 (  2010 PWs)   bands (ev):

   -85.8367 -49.1897 -49.1672 -49.0342 -37.6039  -9.4186  -9.1396   2.5078
     2.9329   3.6687   4.6998   4.9550   5.4567   8.3295   8.9084   9.0439
    10.9835  11.1265  14.4164  16.1375  19.4301  20.3477  22.5756  23.8462

     occupation numbers 
     1.0000   1.0000   1.0000   1.0000   1.0000   1.0000   1.0000   1.0000
     1.0000   1.0000   1.0000   1.0000   1.0000   1.0000   1.0000   1.0001
     0.0000   0.0000   0.0000   0.0000   0.0000   0.0000   0.0000   0.0000

          k =-0.2917-0.5533 0.0641 (  1992 PWs)   bands (ev):

   -85.8365 -49.1853 -49.1738 -49.0337 -37.6032  -9.3863  -9.1262   2.7449
     3.0009   3.4162   4.7131   4.9372   5.2102   8.3045   8.9906   9.1187
    10.7642  10.9130  15.1303  15.9737  19.1845  20.4694  23.4493  23.8177

     occupation numbers 
     1.0000   1.0000   1.0000   1.0000   1.0000   1.0000   1.0000   1.0000
     1.0000   1.0000   1.0000   1.0000   1.0000   1.0000   1.0000   1.0003
     0.0000   0.0000   0.0000   0.0000   0.0000   0.0000   0.0000   0.0000

          k =-0.2917-0.5533 0.1282 (  2001 PWs)   bands (ev):

   -85.8365 -49.1854 -49.1738 -49.0338 -37.6032  -9.3857  -9.1262   2.7107
     2.9614   3.3978   4.7640   4.9789   5.2394   8.2989   8.9818   9.0837
    10.8688  11.0031  14.9376  15.8229  19.2853  20.4295  23.1635  23.8158

     occupation numbers 
     1.0000   1.0000   1.0000   1.0000   1.0000   1.0000   1.0000   1.0000
     1.0000   1.0000   1.0000   1.0000   1.0000   1.0000   1.0000   1.0001
     0.0000   0.0000   0.0000   0.0000   0.0000   0.0000   0.0000   0.0000

          k =-0.2917-0.5533 0.1923 (  2003 PWs)   bands (ev):

   -85.8365 -49.1854 -49.1738 -49.0339 -37.6032  -9.3852  -9.1261   2.6774
     2.9237   3.3812   4.8111   5.0138   5.2755   8.2929   8.9751   9.0492
    10.9851  11.0905  14.7443  15.6646  19.3948  20.3787  22.9594  23.7003

     occupation numbers 
     1.0000   1.0000   1.0000   1.0000   1.0000   1.0000   1.0000   1.0000
     1.0000   1.0000   1.0000   1.0000   1.0000   1.0000   1.0000   1.0001
     0.0000   0.0000   0.0000   0.0000   0.0000   0.0000   0.0000   0.0000

     the Fermi energy is    10.0337 ev
     (compare with:    10.0202 eV, computed in scf)

     Writing all to output data dir ../Li_1x1_c5.5_d0.15/out/pw.save/ :
     XML data file, pseudopotentials, collected wavefunctions
 
     init_run     :     10.47s CPU      2.25s WALL (       1 calls)
     electrons    :    137.02s CPU    137.69s WALL (       1 calls)

     Called by init_run:
     wfcinit      :      0.00s CPU      0.00s WALL (       1 calls)
     wfcinit:atom :      0.68s CPU      0.72s WALL (     898 calls)
     wfcinit:wfcr :      2.04s CPU      2.07s WALL (     898 calls)
     potinit      :      9.83s CPU      1.56s WALL (       1 calls)
     hinit0       :      0.42s CPU      0.41s WALL (       1 calls)

     Called by electrons:
     c_bands      :    136.99s CPU    137.66s WALL (       1 calls)
     v_of_rho     :      0.02s CPU      0.05s WALL (       1 calls)
     v_h          :      0.01s CPU      0.00s WALL (       1 calls)
     v_xc         :      0.01s CPU      0.04s WALL (       1 calls)
     newd         :      0.06s CPU      0.07s WALL (       1 calls)
                                        0.07s GPU  (       1 calls)
     PAW_pot      :      4.82s CPU      0.60s WALL (       1 calls)

     Called by c_bands:
     init_us_2    :      0.31s CPU      0.36s WALL (     898 calls)
     cegterg      :    133.18s CPU    133.71s WALL (    2955 calls)

     Called by sum_band:

     Called by *egterg:
     cdiaghg      :     46.91s CPU     48.32s WALL (   52154 calls)
                                       47.69s GPU  (   52154 calls)
     cegterg:over :      8.48s CPU      8.77s WALL (   51256 calls)
     cegterg:upda :     10.46s CPU     10.57s WALL (   51256 calls)
     cegterg:last :      2.29s CPU      2.28s WALL (   27442 calls)
     h_psi        :     46.15s CPU     46.50s WALL (   55109 calls)
                                       45.83s GPU  (   55109 calls)
     s_psi        :      8.39s CPU      8.72s WALL (   55109 calls)
     g_psi        :      0.25s CPU      1.19s WALL (   51256 calls)
                                        0.55s GPU  (   51256 calls)

     Called by h_psi:
     h_psi:calbec :      1.07s CPU      4.43s WALL (   55109 calls)
                                        3.74s GPU  (   55109 calls)
     vloc_psi     :     29.83s CPU     29.50s WALL (   55109 calls)
                                       28.83s GPU  (   55109 calls)
     add_vuspsi   :      7.46s CPU      8.78s WALL (   55109 calls)
                                        8.09s GPU  (   55109 calls)

     General routines
     calbec       :      0.94s CPU      1.02s WALL (   55109 calls)
     fft          :      2.97s CPU      0.58s WALL (      23 calls)
                                        0.00s GPU  (      21 calls)
     ffts         :      2.01s CPU      0.34s WALL (       2 calls)
     fftw         :      2.66s CPU      8.06s WALL (  161894 calls)
                                        6.23s GPU  (  161894 calls)
     interpolate  :      4.99s CPU      0.92s WALL (       2 calls)
     davcio       :      0.90s CPU      0.19s WALL (    1796 calls)
 
     Parallel routines

     PAW routines
     PAW_pot      :      4.82s CPU      0.60s WALL (       1 calls)
 
     PWSCF        :   2m34.18s CPU   2m21.06s WALL

 
   This run was terminated on:   4: 4:40  12Jul2026            

=------------------------------------------------------------------------------=
   JOB DONE.
=------------------------------------------------------------------------------=
Warning: ieee_divide_by_zero is signaling
Warning: ieee_inexact is signaling
FORTRAN STOP
