
     Program PWSCF v.7.3.1 starts on 12Jul2026 at  3:18:23 

     This program is part of the open-source Quantum ESPRESSO suite
     for quantum simulation of materials; please cite
         "P. Giannozzi et al., J. Phys.:Condens. Matter 21 395502 (2009);
         "P. Giannozzi et al., J. Phys.:Condens. Matter 29 465901 (2017);
         "P. Giannozzi et al., J. Chem. Phys. 152 154105 (2020);
          URL http://www.quantum-espresso.org", 
     in publications or presentations arising from this work. More details at
     http://www.quantum-espresso.org/quote

     Parallel version (MPI & OpenMP), running on      14 processor cores
     Number of MPI processes:                 1
     Threads/MPI process:                    14

     MPI processes distributed on     1 nodes
     848510 MiB available memory on the printing compute node when the environment starts
 
     Reading input from pw.in

     Current dimensions of program PWSCF are:
     Max number of different atomic species (ntypx) = 10
     Max number of k-points (npk) =  40000
     Max angular momentum in pseudopotentials (lmaxx) =  4
     file Co.pbe-spn-kjpaw_psl.0.3.1.UPF: wavefunction(s)  3P 3D renormalized
     file O.pbe-n-kjpaw_psl.1.0.0.UPF: wavefunction(s)  2S 2P renormalized
     file Na.pbe-spn-kjpaw_psl.1.0.0.UPF: wavefunction(s)  2P renormalized
 
     Subspace diagonalization in iterative solution of the eigenvalue problem:
     a serial algorithm will be used

 
     G-vector sticks info
     --------------------
     sticks:   dense  smooth     PW     G-vecs:    dense   smooth      PW
     Sum         979     499    151                85601    30351    5001
 
     Using Slab Decomposition
 


     bravais-lattice index     =            4
     lattice parameter (alat)  =       5.4575  a.u.
     unit-cell volume          =     482.5661 (a.u.)^3
     number of atoms/cell      =            4
     number of atomic types    =            3
     number of electrons       =        38.00
     number of Kohn-Sham states=           27
     kinetic-energy cutoff     =      60.0000  Ry
     charge density cutoff     =     480.0000  Ry
     scf convergence threshold =      1.0E-07
     mixing beta               =       0.3000
     number of iterations used =            8  local-TF  mixing
     Exchange-correlation= SLA  PW   PBX  PBC
                           (   1   4   3   4   0   0   0)

     GPU acceleration is ACTIVE.  1 visible GPUs per MPI rank
     GPU-aware MPI enabled


     GPU used by master process:

        Device Number: 0
        Device name: NVIDIA A100-SXM4-80GB
        Compute capability : 80
        Ratio of single to double precision performance  : 2
        Memory Clock Rate (KHz): 1593000
        Memory Bus Width (bits): 5120
        Peak Memory Bandwidth (GB/s): ******

     celldm(1)=   5.457529  celldm(2)=   0.000000  celldm(3)=   3.427978
     celldm(4)=   0.000000  celldm(5)=   0.000000  celldm(6)=   0.000000

     crystal axes: (cart. coord. in units of alat)
               a(1) = (   1.000000   0.000000   0.000000 )  
               a(2) = (  -0.500000   0.866025   0.000000 )  
               a(3) = (   0.000000   0.000000   3.427978 )  

     reciprocal axes: (cart. coord. in units 2 pi/alat)
               b(1) = (  1.000000  0.577350 -0.000000 )  
               b(2) = (  0.000000  1.154701  0.000000 )  
               b(3) = (  0.000000 -0.000000  0.291717 )  


     PseudoPot. # 1 for Co read from file:
     ../../pseudo/Co.pbe-spn-kjpaw_psl.0.3.1.UPF
     MD5 check sum: 3c0a43779828c046024e4f3be63f8e67
     Pseudo is Projector augmented-wave + core cor, Zval = 17.0
     Generated using &quot;atomic&quot; code by A. Dal Corso  v.6.2.2
     Shape of augmentation charge: PSQ
     Using radial grid of 1193 points,  6 beta functions with: 
                l(1) =   0
                l(2) =   0
                l(3) =   1
                l(4) =   1
                l(5) =   2
                l(6) =   2
     Q(r) pseudized with 0 coefficients 


     PseudoPot. # 2 for O  read from file:
     ../../pseudo/O.pbe-n-kjpaw_psl.1.0.0.UPF
     MD5 check sum: e99d9cef9b487d1ca56f5b95ecd0fd7a
     Pseudo is Projector augmented-wave + core cor, Zval =  6.0
     Generated using &quot;atomic&quot; code by A. Dal Corso  v.6.3
     Shape of augmentation charge: PSQ
     Using radial grid of 1095 points,  4 beta functions with: 
                l(1) =   0
                l(2) =   0
                l(3) =   1
                l(4) =   1
     Q(r) pseudized with 0 coefficients 


     PseudoPot. # 3 for Na read from file:
     ../../pseudo/Na.pbe-spn-kjpaw_psl.1.0.0.UPF
     MD5 check sum: 05b4deb74e3932c23ab016979dc8b5d4
     Pseudo is Projector augmented-wave + core cor, Zval =  9.0
     Generated using &quot;atomic&quot; code by A. Dal Corso  v.6.3
     Shape of augmentation charge: PSQ
     Using radial grid of 1121 points,  4 beta functions with: 
                l(1) =   0
                l(2) =   0
                l(3) =   1
                l(4) =   1
     Q(r) pseudized with 0 coefficients 


     atomic species   valence    mass     pseudopotential
     Co               17.00    58.93300     Co( 1.00)
     O                 6.00    15.99900     O ( 1.00)
     Na                9.00    22.98977     Na( 1.00)

     Starting magnetic structure 
     atomic species   magnetization
     Co              0.300
     O               0.000
     Na              0.000

      6 Sym. Ops. (no inversion) found


                                    s                        frac. trans.

      isym =  1     identity                                     

 cryst.   s( 1) = (     1          0          0      )
                  (     0          1          0      )
                  (     0          0          1      )

 cart.    s( 1) = (  1.0000000  0.0000000  0.0000000 )
                  (  0.0000000  1.0000000  0.0000000 )
                  (  0.0000000  0.0000000  1.0000000 )


      isym =  2     120 deg rotation - cryst. axis [0,0,1]       

 cryst.   s( 2) = (     0          1          0      )
                  (    -1         -1          0      )
                  (     0          0          1      )

 cart.    s( 2) = ( -0.5000000 -0.8660254  0.0000000 )
                  (  0.8660254 -0.5000000  0.0000000 )
                  (  0.0000000  0.0000000  1.0000000 )


      isym =  3     120 deg rotation - cryst. axis [0,0,-1]      

 cryst.   s( 3) = (    -1         -1          0      )
                  (     1          0          0      )
                  (     0          0          1      )

 cart.    s( 3) = ( -0.5000000  0.8660254  0.0000000 )
                  ( -0.8660254 -0.5000000  0.0000000 )
                  (  0.0000000  0.0000000  1.0000000 )


      isym =  4     inv. 180 deg rotation - cart. axis [1,0,0]   

 cryst.   s( 4) = (    -1          0          0      )
                  (     1          1          0      )
                  (     0          0          1      )

 cart.    s( 4) = ( -1.0000000  0.0000000  0.0000000 )
                  (  0.0000000  1.0000000  0.0000000 )
                  (  0.0000000  0.0000000  1.0000000 )


      isym =  5     inv. 180 deg rotation - cryst. axis [0,1,0]  

 cryst.   s( 5) = (     1          1          0      )
                  (     0         -1          0      )
                  (     0          0          1      )

 cart.    s( 5) = (  0.5000000  0.8660254  0.0000000 )
                  (  0.8660254 -0.5000000  0.0000000 )
                  (  0.0000000  0.0000000  1.0000000 )


      isym =  6     inv. 180 deg rotation - cryst. axis [1,1,0]  

 cryst.   s( 6) = (     0         -1          0      )
                  (    -1          0          0      )
                  (     0          0          1      )

 cart.    s( 6) = (  0.5000000 -0.8660254  0.0000000 )
                  ( -0.8660254 -0.5000000  0.0000000 )
                  (  0.0000000  0.0000000  1.0000000 )


     point group C_3v (3m)  
     there are  3 classes
     the character table:

       E     2C3   3s_v 
A_1    1.00  1.00  1.00
A_2    1.00  1.00 -1.00
E      2.00 -1.00  0.00

     the symmetry operations in each class and the name of the first element:

     E        1
          identity                                               
     2C3      2    3
          120 deg rotation - cryst. axis [0,0,1]                 
     3s_v     4    5    6
          inv. 180 deg rotation - cart. axis [1,0,0]             

   Cartesian axes

     site n.     atom                  positions (alat units)
         1        Co     tau(   1) = (   0.0000000   0.0000000   0.0000000  )
         2        O      tau(   2) = (  -0.0000000   0.5773503   0.3324100  )
         3        O      tau(   3) = (   0.5000000   0.2886751   3.0955679  )
         4        Na     tau(   4) = (   0.0000000   0.0000000   1.8871191  )

   Crystallographic axes

     site n.     atom                  positions (cryst. coord.)
         1        Co     tau(   1) = (  0.0000000  0.0000000  0.0000000  )
         2        O      tau(   2) = (  0.3333333  0.6666667  0.0969697  )
         3        O      tau(   3) = (  0.6666667  0.3333333  0.9030303  )
         4        Na     tau(   4) = (  0.0000000  0.0000000  0.5505051  )

     number of k points=    25  Marzari-Vanderbilt smearing, width (Ry)=  0.0200
                       cart. coord. in units 2pi/alat
        k(    1) = (   0.0000000   0.0000000   0.0000000), wk =   0.0052083
        k(    2) = (   0.0000000   0.0000000   0.0972391), wk =   0.0104167
        k(    3) = (   0.0000000   0.1443376   0.0000000), wk =   0.0312500
        k(    4) = (   0.0000000   0.1443376   0.0972391), wk =   0.0312500
        k(    5) = (   0.0000000   0.2886751   0.0000000), wk =   0.0312500
        k(    6) = (   0.0000000   0.2886751   0.0972391), wk =   0.0312500
        k(    7) = (   0.0000000   0.4330127   0.0000000), wk =   0.0312500
        k(    8) = (   0.0000000   0.4330127   0.0972391), wk =   0.0312500
        k(    9) = (   0.0000000  -0.5773503   0.0000000), wk =   0.0156250
        k(   10) = (   0.0000000  -0.5773503   0.0972391), wk =   0.0312500
        k(   11) = (   0.1250000   0.2165064   0.0000000), wk =   0.0312500
        k(   12) = (   0.1250000   0.2165064   0.0972391), wk =   0.0625000
        k(   13) = (   0.1250000   0.3608439   0.0000000), wk =   0.0625000
        k(   14) = (   0.1250000   0.3608439   0.0972391), wk =   0.0625000
        k(   15) = (   0.1250000   0.5051815   0.0000000), wk =   0.0625000
        k(   16) = (   0.1250000   0.5051815   0.0972391), wk =   0.0625000
        k(   17) = (   0.2500000   0.4330127   0.0000000), wk =   0.0312500
        k(   18) = (   0.2500000   0.4330127   0.0972391), wk =   0.0625000
        k(   19) = (   0.2500000   0.5773503   0.0000000), wk =   0.0312500
        k(   20) = (   0.2500000   0.5773503   0.0972391), wk =   0.0625000
        k(   21) = (   0.0000000  -0.1443376   0.0972391), wk =   0.0312500
        k(   22) = (   0.0000000  -0.2886751   0.0972391), wk =   0.0312500
        k(   23) = (   0.0000000  -0.4330127   0.0972391), wk =   0.0312500
        k(   24) = (  -0.1250000  -0.3608439   0.0972391), wk =   0.0625000
        k(   25) = (  -0.1250000  -0.5051815   0.0972391), wk =   0.0625000

                       cryst. coord.
        k(    1) = (   0.0000000   0.0000000   0.0000000), wk =   0.0052083
        k(    2) = (   0.0000000   0.0000000   0.3333333), wk =   0.0104167
        k(    3) = (   0.0000000   0.1250000   0.0000000), wk =   0.0312500
        k(    4) = (   0.0000000   0.1250000   0.3333333), wk =   0.0312500
        k(    5) = (   0.0000000   0.2500000   0.0000000), wk =   0.0312500
        k(    6) = (   0.0000000   0.2500000   0.3333333), wk =   0.0312500
        k(    7) = (   0.0000000   0.3750000   0.0000000), wk =   0.0312500
        k(    8) = (   0.0000000   0.3750000   0.3333333), wk =   0.0312500
        k(    9) = (   0.0000000  -0.5000000   0.0000000), wk =   0.0156250
        k(   10) = (   0.0000000  -0.5000000   0.3333333), wk =   0.0312500
        k(   11) = (   0.1250000   0.1250000   0.0000000), wk =   0.0312500
        k(   12) = (   0.1250000   0.1250000   0.3333333), wk =   0.0625000
        k(   13) = (   0.1250000   0.2500000   0.0000000), wk =   0.0625000
        k(   14) = (   0.1250000   0.2500000   0.3333333), wk =   0.0625000
        k(   15) = (   0.1250000   0.3750000   0.0000000), wk =   0.0625000
        k(   16) = (   0.1250000   0.3750000   0.3333333), wk =   0.0625000
        k(   17) = (   0.2500000   0.2500000   0.0000000), wk =   0.0312500
        k(   18) = (   0.2500000   0.2500000   0.3333333), wk =   0.0625000
        k(   19) = (   0.2500000   0.3750000   0.0000000), wk =   0.0312500
        k(   20) = (   0.2500000   0.3750000   0.3333333), wk =   0.0625000
        k(   21) = (   0.0000000  -0.1250000   0.3333333), wk =   0.0312500
        k(   22) = (   0.0000000  -0.2500000   0.3333333), wk =   0.0312500
        k(   23) = (   0.0000000  -0.3750000   0.3333333), wk =   0.0312500
        k(   24) = (  -0.1250000  -0.2500000   0.3333333), wk =   0.0625000
        k(   25) = (  -0.1250000  -0.3750000   0.3333333), wk =   0.0625000

     Dense  grid:    85601 G-vectors     FFT dimensions: (  40,  40, 135)

     Smooth grid:    30351 G-vectors     FFT dimensions: (  27,  27,  96)

     Dynamical RAM for                 wfc:       1.56 MB

     Dynamical RAM for     wfc (w. buffer):      79.57 MB

     Dynamical RAM for           str. fact:       3.92 MB

     Dynamical RAM for           local pot:       0.00 MB

     Dynamical RAM for          nlocal pot:       2.43 MB

     Dynamical RAM for                qrad:       5.27 MB

     Dynamical RAM for          rho,v,vnew:      17.72 MB

     Dynamical RAM for               rhoin:       5.91 MB

     Dynamical RAM for            rho*nmix:      41.80 MB

     Dynamical RAM for           G-vectors:       5.13 MB

     Dynamical RAM for          h,s,v(r/c):       0.13 MB

     Dynamical RAM for          <psi|beta>:       0.02 MB

     Dynamical RAM for                 psi:       3.12 MB

     Dynamical RAM for                hpsi:       3.12 MB

     Dynamical RAM for                spsi:       3.12 MB

     Dynamical RAM for      wfcinit/wfcrot:       3.14 MB

     Dynamical RAM for           addusdens:     246.87 MB

     Dynamical RAM for          addusforce:     249.49 MB

     Estimated static dynamical RAM per process >     135.06 MB

     Estimated max dynamical RAM per process >     426.35 MB

     Check: negative core charge=   -0.000006
     Generating pointlists ...
     new r_m :   0.2748 (alat units)  1.4998 (a.u.) for type    1
     new r_m :   0.2748 (alat units)  1.4998 (a.u.) for type    2
     new r_m :   0.4125 (alat units)  2.2512 (a.u.) for type    3

     Initial potential from superposition of free atoms

     starting charge      37.9934, renormalised to      38.0000
     Starting wfcs are   23 randomized atomic wfcs +    4 random wfcs
     Checking if some PAW data can be deallocated... 

     total cpu time spent up to now is        3.7 secs

     Self-consistent Calculation
[tb_dev] Currently allocated     6.54E-01 Mbytes, locked:    0 /   6
[tb_pin] Currently allocated     0.00E+00 Mbytes, locked:    0 /   0

     iteration #  1     ecut=    60.00 Ry     beta= 0.30
     Davidson diagonalization with overlap

---- Real-time Memory Report at c_bands before calling an iterative solver
           709 MiB given to the printing process from OS
             0 MiB allocation reported by mallinfo(arena+hblkhd)
        848783 MiB available memory on the node where the printing process lives
     GPU memory used/free/total (MiB): 1108 / 80042 / 81151
------------------
     ethr =  1.00E-02,  avg # of iterations =  9.8

     total cpu time spent up to now is        6.0 secs

     total energy              =    -568.96356874 Ry
     estimated scf accuracy    <       2.01034962 Ry

     total magnetization       =     4.24 Bohr mag/cell
     absolute magnetization    =     4.24 Bohr mag/cell
[tb_dev] Currently allocated     3.05E-05 Mbytes, locked:    0 /   2
[tb_pin] Currently allocated     0.00E+00 Mbytes, locked:    0 /   0

     iteration #  2     ecut=    60.00 Ry     beta= 0.30
     Davidson diagonalization with overlap

---- Real-time Memory Report at c_bands before calling an iterative solver
           751 MiB given to the printing process from OS
             0 MiB allocation reported by mallinfo(arena+hblkhd)
        848457 MiB available memory on the node where the printing process lives
     GPU memory used/free/total (MiB): 1128 / 80022 / 81151
------------------
     ethr =  5.29E-03,  avg # of iterations =  1.8

     total cpu time spent up to now is        7.1 secs

     total energy              =    -569.00516392 Ry
     estimated scf accuracy    <       1.08886800 Ry

     total magnetization       =     3.65 Bohr mag/cell
     absolute magnetization    =     3.66 Bohr mag/cell
[tb_dev] Currently allocated     3.05E-05 Mbytes, locked:    0 /   2
[tb_pin] Currently allocated     0.00E+00 Mbytes, locked:    0 /   0

     iteration #  3     ecut=    60.00 Ry     beta= 0.30
     Davidson diagonalization with overlap

---- Real-time Memory Report at c_bands before calling an iterative solver
           757 MiB given to the printing process from OS
             0 MiB allocation reported by mallinfo(arena+hblkhd)
        848047 MiB available memory on the node where the printing process lives
     GPU memory used/free/total (MiB): 1128 / 80022 / 81151
------------------
     ethr =  2.87E-03,  avg # of iterations =  1.9

     total cpu time spent up to now is        8.3 secs

     total energy              =    -569.07823784 Ry
     estimated scf accuracy    <       0.81006070 Ry

     total magnetization       =     2.04 Bohr mag/cell
     absolute magnetization    =     2.07 Bohr mag/cell
[tb_dev] Currently allocated     3.05E-05 Mbytes, locked:    0 /   2
[tb_pin] Currently allocated     0.00E+00 Mbytes, locked:    0 /   0

     iteration #  4     ecut=    60.00 Ry     beta= 0.30
     Davidson diagonalization with overlap

---- Real-time Memory Report at c_bands before calling an iterative solver
           760 MiB given to the printing process from OS
             0 MiB allocation reported by mallinfo(arena+hblkhd)
        848021 MiB available memory on the node where the printing process lives
     GPU memory used/free/total (MiB): 1128 / 80022 / 81151
------------------
     ethr =  2.13E-03,  avg # of iterations =  1.2

     total cpu time spent up to now is        9.4 secs

     total energy              =    -569.05834130 Ry
     estimated scf accuracy    <       0.62084503 Ry

     total magnetization       =     3.15 Bohr mag/cell
     absolute magnetization    =     3.16 Bohr mag/cell
[tb_dev] Currently allocated     3.05E-05 Mbytes, locked:    0 /   2
[tb_pin] Currently allocated     0.00E+00 Mbytes, locked:    0 /   0

     iteration #  5     ecut=    60.00 Ry     beta= 0.30
     Davidson diagonalization with overlap

---- Real-time Memory Report at c_bands before calling an iterative solver
           761 MiB given to the printing process from OS
             0 MiB allocation reported by mallinfo(arena+hblkhd)
        847991 MiB available memory on the node where the printing process lives
     GPU memory used/free/total (MiB): 1128 / 80022 / 81151
------------------
     ethr =  1.63E-03,  avg # of iterations =  1.8

     total cpu time spent up to now is       10.6 secs

     total energy              =    -569.16317977 Ry
     estimated scf accuracy    <       0.13771788 Ry

     total magnetization       =     0.71 Bohr mag/cell
     absolute magnetization    =     1.19 Bohr mag/cell
[tb_dev] Currently allocated     3.05E-05 Mbytes, locked:    0 /   2
[tb_pin] Currently allocated     0.00E+00 Mbytes, locked:    0 /   0

     iteration #  6     ecut=    60.00 Ry     beta= 0.30
     Davidson diagonalization with overlap

---- Real-time Memory Report at c_bands before calling an iterative solver
           763 MiB given to the printing process from OS
             0 MiB allocation reported by mallinfo(arena+hblkhd)
        847997 MiB available memory on the node where the printing process lives
     GPU memory used/free/total (MiB): 1128 / 80022 / 81151
------------------
     ethr =  3.62E-04,  avg # of iterations =  6.0

     total cpu time spent up to now is       12.2 secs

     total energy              =    -569.16955215 Ry
     estimated scf accuracy    <       0.05369146 Ry

     total magnetization       =     0.71 Bohr mag/cell
     absolute magnetization    =     0.87 Bohr mag/cell
[tb_dev] Currently allocated     3.05E-05 Mbytes, locked:    0 /   2
[tb_pin] Currently allocated     0.00E+00 Mbytes, locked:    0 /   0

     iteration #  7     ecut=    60.00 Ry     beta= 0.30
     Davidson diagonalization with overlap

---- Real-time Memory Report at c_bands before calling an iterative solver
           765 MiB given to the printing process from OS
             0 MiB allocation reported by mallinfo(arena+hblkhd)
        847986 MiB available memory on the node where the printing process lives
     GPU memory used/free/total (MiB): 1128 / 80022 / 81151
------------------
     ethr =  1.41E-04,  avg # of iterations =  5.1

     total cpu time spent up to now is       13.8 secs

     total energy              =    -569.16738126 Ry
     estimated scf accuracy    <       0.08130202 Ry

     total magnetization       =     0.82 Bohr mag/cell
     absolute magnetization    =     0.94 Bohr mag/cell
[tb_dev] Currently allocated     3.05E-05 Mbytes, locked:    0 /   2
[tb_pin] Currently allocated     0.00E+00 Mbytes, locked:    0 /   0

     iteration #  8     ecut=    60.00 Ry     beta= 0.30
     Davidson diagonalization with overlap

---- Real-time Memory Report at c_bands before calling an iterative solver
           767 MiB given to the printing process from OS
             0 MiB allocation reported by mallinfo(arena+hblkhd)
        847978 MiB available memory on the node where the printing process lives
     GPU memory used/free/total (MiB): 1128 / 80022 / 81151
------------------
     ethr =  1.41E-04,  avg # of iterations =  1.8

     total cpu time spent up to now is       15.0 secs

     total energy              =    -569.17715703 Ry
     estimated scf accuracy    <       0.00534182 Ry

     total magnetization       =     0.66 Bohr mag/cell
     absolute magnetization    =     0.70 Bohr mag/cell
[tb_dev] Currently allocated     3.05E-05 Mbytes, locked:    0 /   2
[tb_pin] Currently allocated     0.00E+00 Mbytes, locked:    0 /   0

     iteration #  9     ecut=    60.00 Ry     beta= 0.30
     Davidson diagonalization with overlap

---- Real-time Memory Report at c_bands before calling an iterative solver
           768 MiB given to the printing process from OS
             0 MiB allocation reported by mallinfo(arena+hblkhd)
        848001 MiB available memory on the node where the printing process lives
     GPU memory used/free/total (MiB): 1128 / 80022 / 81151
------------------
     c_bands:  1 eigenvalues not converged
     c_bands:  1 eigenvalues not converged
     c_bands:  1 eigenvalues not converged
     ethr =  1.41E-05,  avg # of iterations =  8.4

     total cpu time spent up to now is       17.1 secs

     total energy              =    -569.17936741 Ry
     estimated scf accuracy    <       0.00498202 Ry

     total magnetization       =     0.78 Bohr mag/cell
     absolute magnetization    =     0.81 Bohr mag/cell
[tb_dev] Currently allocated     3.05E-05 Mbytes, locked:    0 /   2
[tb_pin] Currently allocated     0.00E+00 Mbytes, locked:    0 /   0

     iteration # 10     ecut=    60.00 Ry     beta= 0.30
     Davidson diagonalization with overlap

---- Real-time Memory Report at c_bands before calling an iterative solver
           772 MiB given to the printing process from OS
             0 MiB allocation reported by mallinfo(arena+hblkhd)
        847969 MiB available memory on the node where the printing process lives
     GPU memory used/free/total (MiB): 1128 / 80022 / 81151
------------------
     ethr =  1.31E-05,  avg # of iterations =  1.4

     total cpu time spent up to now is       18.2 secs

     total energy              =    -569.17980563 Ry
     estimated scf accuracy    <       0.00683744 Ry

     total magnetization       =     0.85 Bohr mag/cell
     absolute magnetization    =     0.89 Bohr mag/cell
[tb_dev] Currently allocated     3.05E-05 Mbytes, locked:    0 /   2
[tb_pin] Currently allocated     0.00E+00 Mbytes, locked:    0 /   0

     iteration # 11     ecut=    60.00 Ry     beta= 0.30
     Davidson diagonalization with overlap

---- Real-time Memory Report at c_bands before calling an iterative solver
           772 MiB given to the printing process from OS
             0 MiB allocation reported by mallinfo(arena+hblkhd)
        847956 MiB available memory on the node where the printing process lives
     GPU memory used/free/total (MiB): 1128 / 80022 / 81151
------------------
     ethr =  1.31E-05,  avg # of iterations =  1.2

     total cpu time spent up to now is       19.3 secs

     total energy              =    -569.17981805 Ry
     estimated scf accuracy    <       0.00118357 Ry

     total magnetization       =     0.83 Bohr mag/cell
     absolute magnetization    =     0.88 Bohr mag/cell
[tb_dev] Currently allocated     3.05E-05 Mbytes, locked:    0 /   2
[tb_pin] Currently allocated     0.00E+00 Mbytes, locked:    0 /   0

     iteration # 12     ecut=    60.00 Ry     beta= 0.30
     Davidson diagonalization with overlap

---- Real-time Memory Report at c_bands before calling an iterative solver
           772 MiB given to the printing process from OS
             0 MiB allocation reported by mallinfo(arena+hblkhd)
        847940 MiB available memory on the node where the printing process lives
     GPU memory used/free/total (MiB): 1128 / 80022 / 81151
------------------
     ethr =  3.11E-06,  avg # of iterations =  3.0

     total cpu time spent up to now is       20.7 secs

     total energy              =    -569.18007495 Ry
     estimated scf accuracy    <       0.00593134 Ry

     total magnetization       =     0.87 Bohr mag/cell
     absolute magnetization    =     0.93 Bohr mag/cell
[tb_dev] Currently allocated     3.05E-05 Mbytes, locked:    0 /   2
[tb_pin] Currently allocated     0.00E+00 Mbytes, locked:    0 /   0

     iteration # 13     ecut=    60.00 Ry     beta= 0.30
     Davidson diagonalization with overlap

---- Real-time Memory Report at c_bands before calling an iterative solver
           773 MiB given to the printing process from OS
             0 MiB allocation reported by mallinfo(arena+hblkhd)
        847900 MiB available memory on the node where the printing process lives
     GPU memory used/free/total (MiB): 1128 / 80022 / 81151
------------------
     ethr =  3.11E-06,  avg # of iterations =  1.5

     total cpu time spent up to now is       21.8 secs

     total energy              =    -569.18016570 Ry
     estimated scf accuracy    <       0.00046681 Ry

     total magnetization       =     0.81 Bohr mag/cell
     absolute magnetization    =     0.89 Bohr mag/cell
[tb_dev] Currently allocated     3.05E-05 Mbytes, locked:    0 /   2
[tb_pin] Currently allocated     0.00E+00 Mbytes, locked:    0 /   0

     iteration # 14     ecut=    60.00 Ry     beta= 0.30
     Davidson diagonalization with overlap

---- Real-time Memory Report at c_bands before calling an iterative solver
           773 MiB given to the printing process from OS
             0 MiB allocation reported by mallinfo(arena+hblkhd)
        847871 MiB available memory on the node where the printing process lives
     GPU memory used/free/total (MiB): 1128 / 80022 / 81151
------------------
     ethr =  1.23E-06,  avg # of iterations =  2.2

     total cpu time spent up to now is       23.0 secs

     total energy              =    -569.18018871 Ry
     estimated scf accuracy    <       0.00020968 Ry

     total magnetization       =     0.81 Bohr mag/cell
     absolute magnetization    =     0.89 Bohr mag/cell
[tb_dev] Currently allocated     3.05E-05 Mbytes, locked:    0 /   2
[tb_pin] Currently allocated     0.00E+00 Mbytes, locked:    0 /   0

     iteration # 15     ecut=    60.00 Ry     beta= 0.30
     Davidson diagonalization with overlap

---- Real-time Memory Report at c_bands before calling an iterative solver
           773 MiB given to the printing process from OS
             0 MiB allocation reported by mallinfo(arena+hblkhd)
        847856 MiB available memory on the node where the printing process lives
     GPU memory used/free/total (MiB): 1128 / 80022 / 81151
------------------
     ethr =  5.52E-07,  avg # of iterations =  2.8

     total cpu time spent up to now is       24.3 secs

     total energy              =    -569.18020812 Ry
     estimated scf accuracy    <       0.00003520 Ry

     total magnetization       =     0.80 Bohr mag/cell
     absolute magnetization    =     0.89 Bohr mag/cell
[tb_dev] Currently allocated     3.05E-05 Mbytes, locked:    0 /   2
[tb_pin] Currently allocated     0.00E+00 Mbytes, locked:    0 /   0

     iteration # 16     ecut=    60.00 Ry     beta= 0.30
     Davidson diagonalization with overlap

---- Real-time Memory Report at c_bands before calling an iterative solver
           773 MiB given to the printing process from OS
             0 MiB allocation reported by mallinfo(arena+hblkhd)
        847834 MiB available memory on the node where the printing process lives
     GPU memory used/free/total (MiB): 1128 / 80022 / 81151
------------------
     ethr =  9.26E-08,  avg # of iterations =  5.7

     total cpu time spent up to now is       26.0 secs

     total energy              =    -569.18022331 Ry
     estimated scf accuracy    <       0.00000259 Ry

     total magnetization       =     0.79 Bohr mag/cell
     absolute magnetization    =     0.89 Bohr mag/cell
[tb_dev] Currently allocated     3.05E-05 Mbytes, locked:    0 /   2
[tb_pin] Currently allocated     0.00E+00 Mbytes, locked:    0 /   0

     iteration # 17     ecut=    60.00 Ry     beta= 0.30
     Davidson diagonalization with overlap

---- Real-time Memory Report at c_bands before calling an iterative solver
           774 MiB given to the printing process from OS
             0 MiB allocation reported by mallinfo(arena+hblkhd)
        847837 MiB available memory on the node where the printing process lives
     GPU memory used/free/total (MiB): 1128 / 80022 / 81151
------------------
     ethr =  6.82E-09,  avg # of iterations =  6.7

     total cpu time spent up to now is       27.8 secs

     total energy              =    -569.18022618 Ry
     estimated scf accuracy    <       0.00000108 Ry

     total magnetization       =     0.79 Bohr mag/cell
     absolute magnetization    =     0.89 Bohr mag/cell
[tb_dev] Currently allocated     3.05E-05 Mbytes, locked:    0 /   2
[tb_pin] Currently allocated     0.00E+00 Mbytes, locked:    0 /   0

     iteration # 18     ecut=    60.00 Ry     beta= 0.30
     Davidson diagonalization with overlap

---- Real-time Memory Report at c_bands before calling an iterative solver
           774 MiB given to the printing process from OS
             0 MiB allocation reported by mallinfo(arena+hblkhd)
        847844 MiB available memory on the node where the printing process lives
     GPU memory used/free/total (MiB): 1128 / 80022 / 81151
------------------
     ethr =  2.84E-09,  avg # of iterations =  2.3

     total cpu time spent up to now is       29.0 secs

     total energy              =    -569.18022765 Ry
     estimated scf accuracy    <       0.00000039 Ry

     total magnetization       =     0.78 Bohr mag/cell
     absolute magnetization    =     0.90 Bohr mag/cell
[tb_dev] Currently allocated     3.05E-05 Mbytes, locked:    0 /   2
[tb_pin] Currently allocated     0.00E+00 Mbytes, locked:    0 /   0

     iteration # 19     ecut=    60.00 Ry     beta= 0.30
     Davidson diagonalization with overlap

---- Real-time Memory Report at c_bands before calling an iterative solver
           774 MiB given to the printing process from OS
             0 MiB allocation reported by mallinfo(arena+hblkhd)
        847737 MiB available memory on the node where the printing process lives
     GPU memory used/free/total (MiB): 1128 / 80022 / 81151
------------------
     ethr =  1.04E-09,  avg # of iterations =  4.3

     total cpu time spent up to now is       30.6 secs

     total energy              =    -569.18022846 Ry
     estimated scf accuracy    <       0.00000012 Ry

     total magnetization       =     0.78 Bohr mag/cell
     absolute magnetization    =     0.90 Bohr mag/cell
[tb_dev] Currently allocated     3.05E-05 Mbytes, locked:    0 /   2
[tb_pin] Currently allocated     0.00E+00 Mbytes, locked:    0 /   0

     iteration # 20     ecut=    60.00 Ry     beta= 0.30
     Davidson diagonalization with overlap

---- Real-time Memory Report at c_bands before calling an iterative solver
           774 MiB given to the printing process from OS
             0 MiB allocation reported by mallinfo(arena+hblkhd)
        848122 MiB available memory on the node where the printing process lives
     GPU memory used/free/total (MiB): 1128 / 80022 / 81151
------------------
     ethr =  3.15E-10,  avg # of iterations =  4.6
 
     Magnetic moment per site  (integrated on atomic sphere of radius R)
     atom   1 (R=0.275)  charge= 14.0896  magn=  0.6377
     atom   2 (R=0.275)  charge=  5.2076  magn=  0.0723
     atom   3 (R=0.275)  charge=  5.2191  magn=  0.0627
     atom   4 (R=0.413)  charge=  8.2534  magn= -0.0208

     total cpu time spent up to now is       32.1 secs

     End of self-consistent calculation

 ------ SPIN UP ------------


          k = 0.0000 0.0000 0.0000 (  3803 PWs)   bands (ev):

   -92.0732 -55.2896 -55.2754 -55.2754 -49.7906 -21.6723 -21.5890 -21.5890
   -15.4413 -13.5220  -1.6941  -1.2912  -1.2912   1.1948   1.8611   2.1567
     2.1567   2.4511   2.4511   3.4753   5.7392   6.1148   6.1148   9.2342
    12.7493  12.9959  15.6565

     occupation numbers 
     1.0000   1.0000   1.0000   1.0000   1.0000   1.0000   1.0000   1.0000
     1.0000   1.0000   1.0000   1.0000   1.0000   1.0000   1.0000   1.0000
     1.0000   1.0000   1.0000   1.0828   0.0000   0.0000   0.0000   0.0000
     0.0000   0.0000   0.0000

          k = 0.0000 0.0000 0.0972 (  3796 PWs)   bands (ev):

   -92.0732 -55.2895 -55.2754 -55.2754 -49.7905 -21.6721 -21.5890 -21.5890
   -15.4413 -13.5220  -1.6887  -1.2912  -1.2912   1.0701   2.0513   2.1567
     2.1567   2.4510   2.4510   3.4360   5.6144   6.1148   6.1148   9.6790
    11.5717  13.8811  15.7053

     occupation numbers 
     1.0000   1.0000   1.0000   1.0000   1.0000   1.0000   1.0000   1.0000
     1.0000   1.0000   1.0000   1.0000   1.0000   1.0000   1.0000   1.0000
     1.0000   1.0000   1.0000   1.0760   0.0000   0.0000   0.0000   0.0000
     0.0000   0.0000   0.0000

          k = 0.0000 0.1443 0.0000 (  3787 PWs)   bands (ev):

   -92.0724 -55.2884 -55.2834 -55.2774 -49.7853 -21.6650 -21.6334 -21.5986
   -15.2699 -13.5290  -1.5141  -1.4299  -1.1756   1.1997   1.5760   1.6011
     2.1770   2.6450   2.9224   3.5456   5.5805   6.0173   6.1402   9.7121
    13.1842  13.5051  16.1872

     occupation numbers 
     1.0000   1.0000   1.0000   1.0000   1.0000   1.0000   1.0000   1.0000
     1.0000   1.0000   1.0000   1.0000   1.0000   1.0000   1.0000   1.0000
     1.0000   1.0000   1.0001   1.0704   0.0000   0.0000   0.0000   0.0000
     0.0000   0.0000   0.0000

          k = 0.0000 0.1443 0.0972 (  3806 PWs)   bands (ev):

   -92.0725 -55.2885 -55.2835 -55.2774 -49.7853 -21.6652 -21.6336 -21.5986
   -15.2699 -13.5291  -1.5117  -1.4290  -1.1756   1.2038   1.4885   1.5760
     2.3243   2.6651   2.9224   3.5010   5.6531   5.9710   6.0173  10.0842
    12.1045  14.4687  16.0462

     occupation numbers 
     1.0000   1.0000   1.0000   1.0000   1.0000   1.0000   1.0000   1.0000
     1.0000   1.0000   1.0000   1.0000   1.0000   1.0000   1.0000   1.0000
     1.0000   1.0000   1.0001   1.0827   0.0000   0.0000   0.0000   0.0000
     0.0000   0.0000   0.0000

          k = 0.0000 0.2887 0.0000 (  3786 PWs)   bands (ev):

   -92.0707 -55.3030 -55.2856 -55.2820 -49.7727 -21.7395 -21.6478 -21.6215
   -14.8196 -13.5599  -1.6795  -1.0419  -0.9003  -0.0798   1.0364   2.2934
     2.7076   2.8811   3.1019   3.4323   5.0186   5.9016   7.0208  10.8735
    13.5527  14.1256  14.7698

     occupation numbers 
     1.0000   1.0000   1.0000   1.0000   1.0000   1.0000   1.0000   1.0000
     1.0000   1.0000   1.0000   1.0000   1.0000   1.0000   1.0000   1.0000
     1.0000   1.0001   1.0030   1.0751   0.0000   0.0000   0.0000   0.0000
     0.0000   0.0000   0.0000

          k = 0.0000 0.2887 0.0972 (  3778 PWs)   bands (ev):

   -92.0707 -55.3029 -55.2855 -55.2820 -49.7727 -21.7394 -21.6478 -21.6214
   -14.8196 -13.5599  -1.6804  -1.0402  -0.9003  -0.0781   1.0364   2.2684
     2.6540   2.9985   3.1019   3.3781   5.0780   5.9017   6.9266  11.0978
    13.2772  13.6872  15.6509

     occupation numbers 
     1.0000   1.0000   1.0000   1.0000   1.0000   1.0000   1.0000   1.0000
     1.0000   1.0000   1.0000   1.0000   1.0000   1.0000   1.0000   1.0000
     1.0000   1.0005   1.0030   1.0580   0.0000   0.0000   0.0000   0.0000
     0.0000   0.0000   0.0000

          k = 0.0000 0.4330 0.0000 (  3780 PWs)   bands (ev):

   -92.0689 -55.3224 -55.2867 -55.2827 -49.7600 -21.8436 -21.6443 -21.6306
   -14.2760 -13.6440  -2.1233  -1.0337  -0.6845  -0.0250   0.8884   1.8307
     2.6181   2.8170   3.1111   4.6144   5.2267   5.9417   8.5610  10.1495
    12.6228  13.8338  15.2774

     occupation numbers 
     1.0000   1.0000   1.0000   1.0000   1.0000   1.0000   1.0000   1.0000
     1.0000   1.0000   1.0000   1.0000   1.0000   1.0000   1.0000   1.0000
     1.0000   1.0000   1.0035   0.0000   0.0000   0.0000   0.0000   0.0000
     0.0000   0.0000   0.0000

          k = 0.0000 0.4330 0.0972 (  3794 PWs)   bands (ev):

   -92.0689 -55.3225 -55.2867 -55.2828 -49.7600 -21.8437 -21.6444 -21.6306
   -14.2760 -13.6440  -2.1235  -1.0340  -0.6845  -0.0242   0.8883   1.8315
     2.6177   2.8169   3.1123   4.5686   5.2844   5.9417   8.5299  10.1452
    12.7062  13.9127  14.8392

     occupation numbers 
     1.0000   1.0000   1.0000   1.0000   1.0000   1.0000   1.0000   1.0000
     1.0000   1.0000   1.0000   1.0000   1.0000   1.0000   1.0000   1.0000
     1.0000   1.0000   1.0035   0.0000   0.0000   0.0000   0.0000   0.0000
     0.0000   0.0000   0.0000

          k = 0.0000-0.5774 0.0000 (  3798 PWs)   bands (ev):

   -92.0682 -55.3306 -55.2887 -55.2815 -49.7548 -21.8864 -21.6540 -21.6234
   -13.9073 -13.8071  -2.5030  -0.8253  -0.6410   0.1193   0.9793   1.6059
     2.3385   2.5660   3.0297   5.3825   5.9905   6.5187   7.8014  10.4770
    11.2832  14.4881  14.6913

     occupation numbers 
     1.0000   1.0000   1.0000   1.0000   1.0000   1.0000   1.0000   1.0000
     1.0000   1.0000   1.0000   1.0000   1.0000   1.0000   1.0000   1.0000
     1.0000   1.0000   1.0009   0.0000   0.0000   0.0000   0.0000   0.0000
     0.0000   0.0000   0.0000

          k = 0.0000-0.5774 0.0972 (  3790 PWs)   bands (ev):

   -92.0682 -55.3306 -55.2886 -55.2816 -49.7548 -21.8863 -21.6538 -21.6234
   -13.9073 -13.8071  -2.5030  -0.8254  -0.6410   0.1193   0.9794   1.6066
     2.3384   2.5660   3.0294   5.3794   5.9905   6.5243   7.7914  10.4787
    11.3417  14.1415  14.8682

     occupation numbers 
     1.0000   1.0000   1.0000   1.0000   1.0000   1.0000   1.0000   1.0000
     1.0000   1.0000   1.0000   1.0000   1.0000   1.0000   1.0000   1.0000
     1.0000   1.0000   1.0009   0.0000   0.0000   0.0000   0.0000   0.0000
     0.0000   0.0000   0.0000

          k = 0.1250 0.2165 0.0000 (  3789 PWs)   bands (ev):

   -92.0712 -55.2964 -55.2864 -55.2815 -49.7764 -21.7038 -21.6528 -21.6198
   -14.9588 -13.5472  -1.5933  -1.1571  -1.0133   0.3826   0.8895   2.2909
     2.5569   2.6570   3.2273   3.4724   5.2170   5.7645   6.7273  10.5296
    13.8237  14.3850  14.8781

     occupation numbers 
     1.0000   1.0000   1.0000   1.0000   1.0000   1.0000   1.0000   1.0000
     1.0000   1.0000   1.0000   1.0000   1.0000   1.0000   1.0000   1.0000
     1.0000   1.0000   1.0157   1.0826   0.0000   0.0000   0.0000   0.0000
     0.0000   0.0000   0.0000

          k = 0.1250 0.2165 0.0972 (  3785 PWs)   bands (ev):

   -92.0712 -55.2963 -55.2865 -55.2815 -49.7764 -21.7036 -21.6529 -21.6198
   -14.9588 -13.5472  -1.5942  -1.1548  -1.0132   0.3845   0.8896   2.1819
     2.6529   2.6872   3.2503   3.4357   5.2603   5.7384   6.6604  10.7443
    13.0547  14.8654  15.3369

     occupation numbers 
     1.0000   1.0000   1.0000   1.0000   1.0000   1.0000   1.0000   1.0000
     1.0000   1.0000   1.0000   1.0000   1.0000   1.0000   1.0000   1.0000
     1.0000   1.0000   1.0201   1.0760   0.0000   0.0000   0.0000   0.0000
     0.0000   0.0000   0.0000

          k = 0.1250 0.3608 0.0000 (  3780 PWs)   bands (ev):

   -92.0695 -55.3138 -55.2882 -55.2835 -49.7637 -21.7974 -21.6538 -21.6356
   -14.4629 -13.5967  -1.7131  -1.2105  -0.6454  -0.1207   0.4891   2.1259
     2.6905   2.9850   3.3565   3.9452   5.1655   5.6561   7.9435  11.6014
    12.1235  14.6320  15.5355

     occupation numbers 
     1.0000   1.0000   1.0000   1.0000   1.0000   1.0000   1.0000   1.0000
     1.0000   1.0000   1.0000   1.0000   1.0000   1.0000   1.0000   1.0000
     1.0000   1.0004   1.0506   0.2391   0.0000   0.0000   0.0000   0.0000
     0.0000   0.0000   0.0000

          k = 0.1250 0.3608 0.0972 (  3782 PWs)   bands (ev):

   -92.0695 -55.3138 -55.2882 -55.2835 -49.7637 -21.7974 -21.6537 -21.6356
   -14.4629 -13.5967  -1.7135  -1.2106  -0.6452  -0.1194   0.4891   2.1247
     2.6903   2.9897   3.3469   3.9327   5.2120   5.6404   7.9143  11.6339
    12.1718  14.3161  15.8818

     occupation numbers 
     1.0000   1.0000   1.0000   1.0000   1.0000   1.0000   1.0000   1.0000
     1.0000   1.0000   1.0000   1.0000   1.0000   1.0000   1.0000   1.0000
     1.0000   1.0005   1.0473   0.2639   0.0000   0.0000   0.0000   0.0000
     0.0000   0.0000   0.0000

          k = 0.1250 0.5052 0.0000 (  3784 PWs)   bands (ev):

   -92.0682 -55.3261 -55.2930 -55.2815 -49.7548 -21.8622 -21.6783 -21.6234
   -14.0047 -13.7101  -2.2148  -1.1989  -0.3616   0.1336   0.4770   1.5458
     2.4330   2.7264   3.2478   5.3314   5.7139   6.0119   8.8931   9.8413
    12.6037  13.5219  15.0853

     occupation numbers 
     1.0000   1.0000   1.0000   1.0000   1.0000   1.0000   1.0000   1.0000
     1.0000   1.0000   1.0000   1.0000   1.0000   1.0000   1.0000   1.0000
     1.0000   1.0000   1.0196   0.0000   0.0000   0.0000   0.0000   0.0000
     0.0000   0.0000   0.0000

          k = 0.1250 0.5052 0.0972 (  3793 PWs)   bands (ev):

   -92.0682 -55.3262 -55.2930 -55.2816 -49.7548 -21.8623 -21.6783 -21.6235
   -14.0047 -13.7101  -2.2148  -1.1990  -0.3616   0.1339   0.4770   1.5462
     2.4329   2.7266   3.2473   5.3194   5.7285   6.0099   8.8881   9.8413
    12.6439  13.5108  15.1387

     occupation numbers 
     1.0000   1.0000   1.0000   1.0000   1.0000   1.0000   1.0000   1.0000
     1.0000   1.0000   1.0000   1.0000   1.0000   1.0000   1.0000   1.0000
     1.0000   1.0000   1.0195   0.0000   0.0000   0.0000   0.0000   0.0000
     0.0000   0.0000   0.0000

          k = 0.2500 0.4330 0.0000 (  3781 PWs)   bands (ev):

   -92.0682 -55.3200 -55.2990 -55.2816 -49.7548 -21.8288 -21.7120 -21.6235
   -14.0597 -13.6554  -1.6546  -1.5274  -0.5763   0.1276   0.2315   1.5482
     2.4865   2.8475   3.4466   5.3032   5.3949   5.7441   9.5373  10.1241
    12.4933  14.4779  14.8450

     occupation numbers 
     1.0000   1.0000   1.0000   1.0000   1.0000   1.0000   1.0000   1.0000
     1.0000   1.0000   1.0000   1.0000   1.0000   1.0000   1.0000   1.0000
     1.0000   1.0000   1.0785   0.0000   0.0000   0.0000   0.0000   0.0000
     0.0000   0.0000   0.0000

          k = 0.2500 0.4330 0.0972 (  3790 PWs)   bands (ev):

   -92.0682 -55.3200 -55.2991 -55.2816 -49.7548 -21.8288 -21.7122 -21.6236
   -14.0597 -13.6554  -1.6546  -1.5275  -0.5763   0.1275   0.2320   1.5482
     2.4865   2.8479   3.4450   5.3221   5.3884   5.7277   9.5580  10.1211
    12.4654  14.4595  14.9017

     occupation numbers 
     1.0000   1.0000   1.0000   1.0000   1.0000   1.0000   1.0000   1.0000
     1.0000   1.0000   1.0000   1.0000   1.0000   1.0000   1.0000   1.0000
     1.0000   1.0000   1.0782   0.0000   0.0000   0.0000   0.0000   0.0000
     0.0000   0.0000   0.0000

          k = 0.2500 0.5774 0.0000 (  3794 PWs)   bands (ev):

   -92.0677 -55.3206 -55.3057 -55.2807 -49.7511 -21.8302 -21.7480 -21.6184
   -13.8329 -13.7308  -1.8091  -1.4399  -0.7240   0.2691   0.4631   1.1086
     2.2007   3.0551   3.3300   5.3825   5.4157   7.4040   8.4184  11.5649
    11.9845  12.2542  14.6590

     occupation numbers 
     1.0000   1.0000   1.0000   1.0000   1.0000   1.0000   1.0000   1.0000
     1.0000   1.0000   1.0000   1.0000   1.0000   1.0000   1.0000   1.0000
     1.0000   1.0015   1.0417   0.0000   0.0000   0.0000   0.0000   0.0000
     0.0000   0.0000   0.0000

          k = 0.2500 0.5774 0.0972 (  3783 PWs)   bands (ev):

   -92.0677 -55.3205 -55.3057 -55.2807 -49.7511 -21.8300 -21.7479 -21.6184
   -13.8329 -13.7308  -1.8091  -1.4399  -0.7239   0.2691   0.4631   1.1086
     2.2007   3.0551   3.3298   5.3832   5.4178   7.3981   8.4134  11.5860
    11.9846  12.2767  14.6735

     occupation numbers 
     1.0000   1.0000   1.0000   1.0000   1.0000   1.0000   1.0000   1.0000
     1.0000   1.0000   1.0000   1.0000   1.0000   1.0000   1.0000   1.0000
     1.0000   1.0015   1.0416   0.0000   0.0000   0.0000   0.0000   0.0000
     0.0000   0.0000   0.0000

          k = 0.0000-0.1443 0.0972 (  3806 PWs)   bands (ev):

   -92.0725 -55.2885 -55.2835 -55.2774 -49.7853 -21.6652 -21.6336 -21.5986
   -15.2699 -13.5291  -1.5108  -1.4299  -1.1756   1.1954   1.5008   1.5760
     2.3198   2.6644   2.9223   3.5063   5.5848   6.0173   6.0447  10.0517
    12.1415  14.4627  16.0315

     occupation numbers 
     1.0000   1.0000   1.0000   1.0000   1.0000   1.0000   1.0000   1.0000
     1.0000   1.0000   1.0000   1.0000   1.0000   1.0000   1.0000   1.0000
     1.0000   1.0000   1.0001   1.0822   0.0000   0.0000   0.0000   0.0000
     0.0000   0.0000   0.0000

          k = 0.0000-0.2887 0.0972 (  3778 PWs)   bands (ev):

   -92.0707 -55.3029 -55.2855 -55.2820 -49.7727 -21.7394 -21.6478 -21.6214
   -14.8196 -13.5599  -1.6800  -1.0408  -0.9003  -0.0777   1.0364   2.2578
     2.6718   2.9688   3.1019   3.4251   5.0144   5.9017   6.9958  10.9722
    13.4305  13.7286  15.6010

     occupation numbers 
     1.0000   1.0000   1.0000   1.0000   1.0000   1.0000   1.0000   1.0000
     1.0000   1.0000   1.0000   1.0000   1.0000   1.0000   1.0000   1.0000
     1.0000   1.0003   1.0030   1.0731   0.0000   0.0000   0.0000   0.0000
     0.0000   0.0000   0.0000

          k = 0.0000-0.4330 0.0972 (  3794 PWs)   bands (ev):

   -92.0689 -55.3225 -55.2867 -55.2828 -49.7600 -21.8437 -21.6444 -21.6306
   -14.2760 -13.6440  -2.1234  -1.0340  -0.6845  -0.0239   0.8884   1.8302
     2.6187   2.8169   3.1082   4.6222   5.2153   5.9417   8.5894  10.1403
    12.5169  13.9321  15.0943

     occupation numbers 
     1.0000   1.0000   1.0000   1.0000   1.0000   1.0000   1.0000   1.0000
     1.0000   1.0000   1.0000   1.0000   1.0000   1.0000   1.0000   1.0000
     1.0000   1.0000   1.0033   0.0000   0.0000   0.0000   0.0000   0.0000
     0.0000   0.0000   0.0000

          k =-0.1250-0.3608 0.0972 (  3782 PWs)   bands (ev):

   -92.0695 -55.3138 -55.2882 -55.2835 -49.7637 -21.7974 -21.6537 -21.6356
   -14.4629 -13.5967  -1.7134  -1.2106  -0.6454  -0.1190   0.4890   2.1230
     2.6913   2.9910   3.3343   3.9655   5.1659   5.6524   7.9473  11.5813
    12.1401  14.4973  15.8383

     occupation numbers 
     1.0000   1.0000   1.0000   1.0000   1.0000   1.0000   1.0000   1.0000
     1.0000   1.0000   1.0000   1.0000   1.0000   1.0000   1.0000   1.0000
     1.0000   1.0005   1.0431   0.2024   0.0000   0.0000   0.0000   0.0000
     0.0000   0.0000   0.0000

          k =-0.1250-0.5052 0.0972 (  3793 PWs)   bands (ev):

   -92.0682 -55.3262 -55.2930 -55.2816 -49.7548 -21.8623 -21.6783 -21.6235
   -14.0047 -13.7101  -2.2148  -1.1989  -0.3616   0.1339   0.4771   1.5459
     2.4330   2.7265   3.2469   5.3377   5.7176   5.9961   8.8887   9.8757
    12.6326  13.3744  15.1931

     occupation numbers 
     1.0000   1.0000   1.0000   1.0000   1.0000   1.0000   1.0000   1.0000
     1.0000   1.0000   1.0000   1.0000   1.0000   1.0000   1.0000   1.0000
     1.0000   1.0000   1.0194   0.0000   0.0000   0.0000   0.0000   0.0000
     0.0000   0.0000   0.0000

 ------ SPIN DOWN ----------


          k = 0.0000 0.0000 0.0000 (  3803 PWs)   bands (ev):

   -91.2909 -54.5702 -54.5702 -54.4119 -49.7993 -21.6792 -21.5990 -21.5990
   -15.3316 -13.4025  -1.3542  -1.0416  -1.0416   1.1222   2.0133   2.5325
     2.5325   2.8145   2.8145   4.3646   5.6831   6.4503   6.4503   9.2492
    12.8232  13.0855  15.7113

     occupation numbers 
     1.0000   1.0000   1.0000   1.0000   1.0000   1.0000   1.0000   1.0000
     1.0000   1.0000   1.0000   1.0000   1.0000   1.0000   1.0000   1.0000
     1.0000   1.0000   1.0000   0.0009   0.0000   0.0000   0.0000   0.0000
     0.0000   0.0000   0.0000

          k = 0.0000 0.0000 0.0972 (  3796 PWs)   bands (ev):

   -91.2908 -54.5702 -54.5702 -54.4119 -49.7993 -21.6791 -21.5990 -21.5990
   -15.3316 -13.4025  -1.3461  -1.0416  -1.0416   1.0108   2.1883   2.5325
     2.5325   2.8145   2.8145   4.3105   5.5723   6.4503   6.4503   9.6881
    11.6498  13.9669  15.7814

     occupation numbers 
     1.0000   1.0000   1.0000   1.0000   1.0000   1.0000   1.0000   1.0000
     1.0000   1.0000   1.0000   1.0000   1.0000   1.0000   1.0000   1.0000
     1.0000   1.0000   1.0000   0.0024   0.0000   0.0000   0.0000   0.0000
     0.0000   0.0000   0.0000

          k = 0.0000 0.1443 0.0000 (  3787 PWs)   bands (ev):

   -91.2901 -54.5785 -54.5722 -54.4106 -49.7940 -21.6718 -21.6437 -21.6086
   -15.1595 -13.4087  -1.2355  -1.1333  -0.9335   1.4028   1.5737   1.8946
     2.3358   3.1857   3.3648   4.3872   5.7831   6.2242   6.3438   9.7208
    13.2510  13.5983  16.2513

     occupation numbers 
     1.0000   1.0000   1.0000   1.0000   1.0000   1.0000   1.0000   1.0000
     1.0000   1.0000   1.0000   1.0000   1.0000   1.0000   1.0000   1.0000
     1.0000   1.0096   1.0534   0.0006   0.0000   0.0000   0.0000   0.0000
     0.0000   0.0000   0.0000

          k = 0.0000 0.1443 0.0972 (  3806 PWs)   bands (ev):

   -91.2901 -54.5786 -54.5722 -54.4107 -49.7941 -21.6721 -21.6439 -21.6087
   -15.1595 -13.4088  -1.2357  -1.1279  -0.9336   1.3961   1.4837   1.8946
     2.4783   3.1933   3.3648   4.3370   5.8703   6.0477   6.3438  10.0907
    12.1793  14.5556  16.1281

     occupation numbers 
     1.0000   1.0000   1.0000   1.0000   1.0000   1.0000   1.0000   1.0000
     1.0000   1.0000   1.0000   1.0000   1.0000   1.0000   1.0000   1.0000
     1.0000   1.0105   1.0534   0.0015   0.0000   0.0000   0.0000   0.0000
     0.0000   0.0000   0.0000

          k = 0.0000 0.2887 0.0000 (  3786 PWs)   bands (ev):

   -91.2882 -54.5988 -54.5771 -54.4076 -49.7814 -21.7505 -21.6546 -21.6317
   -14.7073 -13.4380  -1.4622  -0.7623  -0.6761   0.1624   1.2991   2.4921
     2.7529   3.3683   3.6508   4.2272   5.3804   6.2086   6.9789  10.8704
    13.4552  14.1575  14.8681

     occupation numbers 
     1.0000   1.0000   1.0000   1.0000   1.0000   1.0000   1.0000   1.0000
     1.0000   1.0000   1.0000   1.0000   1.0000   1.0000   1.0000   1.0000
     1.0000   1.0547   0.9554   0.0093   0.0000   0.0000   0.0000   0.0000
     0.0000   0.0000   0.0000

          k = 0.0000 0.2887 0.0972 (  3778 PWs)   bands (ev):

   -91.2882 -54.5988 -54.5770 -54.4076 -49.7813 -21.7505 -21.6545 -21.6316
   -14.7073 -13.4380  -1.4632  -0.7603  -0.6761   0.1656   1.2991   2.4146
     2.8167   3.3934   3.6508   4.1995   5.4567   6.2086   6.8640  11.0959
    13.3022  13.6086  15.7412

     occupation numbers 
     1.0000   1.0000   1.0000   1.0000   1.0000   1.0000   1.0000   1.0000
     1.0000   1.0000   1.0000   1.0000   1.0000   1.0000   1.0000   1.0000
     1.0000   1.0632   0.9554   0.0140   0.0000   0.0000   0.0000   0.0000
     0.0000   0.0000   0.0000

          k = 0.0000 0.4330 0.0000 (  3780 PWs)   bands (ev):

   -91.2864 -54.6190 -54.5819 -54.4046 -49.7686 -21.8552 -21.6546 -21.6372
   -14.1610 -13.5208  -1.9391  -0.8965  -0.4656   0.3244   1.0540   2.0407
     3.3488   3.4859   3.8579   4.5276   5.6137   6.2447   8.4933  10.0409
    12.6125  13.7798  15.3111

     occupation numbers 
     1.0000   1.0000   1.0000   1.0000   1.0000   1.0000   1.0000   1.0000
     1.0000   1.0000   1.0000   1.0000   1.0000   1.0000   1.0000   1.0000
     1.0479   1.0833   0.4388   0.0000   0.0000   0.0000   0.0000   0.0000
     0.0000   0.0000   0.0000

          k = 0.0000 0.4330 0.0972 (  3794 PWs)   bands (ev):

   -91.2865 -54.6191 -54.5819 -54.4046 -49.7687 -21.8554 -21.6547 -21.6373
   -14.1610 -13.5208  -1.9392  -0.8968  -0.4656   0.3256   1.0540   2.0418
     3.3468   3.4859   3.8620   4.4957   5.6604   6.2447   8.4565  10.0367
    12.6934  13.8603  14.8824

     occupation numbers 
     1.0000   1.0000   1.0000   1.0000   1.0000   1.0000   1.0000   1.0000
     1.0000   1.0000   1.0000   1.0000   1.0000   1.0000   1.0000   1.0000
     1.0473   1.0833   0.4282   0.0001   0.0000   0.0000   0.0000   0.0000
     0.0000   0.0000   0.0000

          k = 0.0000-0.5774 0.0000 (  3798 PWs)   bands (ev):

   -91.2857 -54.6275 -54.5840 -54.4033 -49.7634 -21.8983 -21.6643 -21.6300
   -13.7951 -13.6794  -2.3365  -0.7261  -0.4158   0.4746   1.0592   1.7790
     3.2275   3.3170   3.7126   5.7935   6.2968   6.3946   7.7093  10.3853
    11.2342  14.4621  14.7103

     occupation numbers 
     1.0000   1.0000   1.0000   1.0000   1.0000   1.0000   1.0000   1.0000
     1.0000   1.0000   1.0000   1.0000   1.0000   1.0000   1.0000   1.0000
     1.0157   1.0376   0.8269   0.0000   0.0000   0.0000   0.0000   0.0000
     0.0000   0.0000   0.0000

          k = 0.0000-0.5774 0.0972 (  3790 PWs)   bands (ev):

   -91.2857 -54.6275 -54.5839 -54.4034 -49.7634 -21.8982 -21.6641 -21.6300
   -13.7951 -13.6794  -2.3365  -0.7262  -0.4157   0.4747   1.0594   1.7799
     3.2272   3.3170   3.7124   5.7840   6.2968   6.4080   7.6983  10.3858
    11.2923  14.1318  14.8877

     occupation numbers 
     1.0000   1.0000   1.0000   1.0000   1.0000   1.0000   1.0000   1.0000
     1.0000   1.0000   1.0000   1.0000   1.0000   1.0000   1.0000   1.0000
     1.0157   1.0376   0.8275   0.0000   0.0000   0.0000   0.0000   0.0000
     0.0000   0.0000   0.0000

          k = 0.1250 0.2165 0.0000 (  3789 PWs)   bands (ev):

   -91.2888 -54.5920 -54.5766 -54.4085 -49.7851 -21.7146 -21.6596 -21.6300
   -14.8472 -13.4256  -1.3732  -0.8523  -0.7683   0.5951   1.1606   2.2818
     2.6652   3.3091   3.7098   4.2977   5.5321   6.0848   6.7001  10.5305
    13.8756  14.4843  14.7495

     occupation numbers 
     1.0000   1.0000   1.0000   1.0000   1.0000   1.0000   1.0000   1.0000
     1.0000   1.0000   1.0000   1.0000   1.0000   1.0000   1.0000   1.0000
     1.0000   1.0352   0.8335   0.0030   0.0000   0.0000   0.0000   0.0000
     0.0000   0.0000   0.0000

          k = 0.1250 0.2165 0.0972 (  3785 PWs)   bands (ev):

   -91.2888 -54.5919 -54.5765 -54.4085 -49.7851 -21.7144 -21.6597 -21.6300
   -14.8472 -13.4257  -1.3743  -0.8501  -0.7670   0.5988   1.1605   2.1771
     2.7826   3.3091   3.7258   4.2690   5.5943   6.0396   6.6322  10.7453
    13.1239  14.7378  15.4166

     occupation numbers 
     1.0000   1.0000   1.0000   1.0000   1.0000   1.0000   1.0000   1.0000
     1.0000   1.0000   1.0000   1.0000   1.0000   1.0000   1.0000   1.0000
     1.0000   1.0352   0.7948   0.0048   0.0000   0.0000   0.0000   0.0000
     0.0000   0.0000   0.0000

          k = 0.1250 0.3608 0.0000 (  3780 PWs)   bands (ev):

   -91.2870 -54.6101 -54.5834 -54.4055 -49.7724 -21.8088 -21.6641 -21.6423
   -14.3489 -13.4737  -1.5101  -1.0398  -0.4270   0.1957   0.7014   2.3289
     3.3775   3.7236   3.8461   4.0331   5.5271   5.9697   7.8832  11.5238
    12.0695  14.6524  15.5982

     occupation numbers 
     1.0000   1.0000   1.0000   1.0000   1.0000   1.0000   1.0000   1.0000
     1.0000   1.0000   1.0000   1.0000   1.0000   1.0000   1.0000   1.0000
     1.0578   0.8003   0.4699   0.1078   0.0000   0.0000   0.0000   0.0000
     0.0000   0.0000   0.0000

          k = 0.1250 0.3608 0.0972 (  3782 PWs)   bands (ev):

   -91.2870 -54.6101 -54.5834 -54.4055 -49.7724 -21.8088 -21.6641 -21.6423
   -14.3489 -13.4737  -1.5106  -1.0399  -0.4268   0.1978   0.7015   2.3265
     3.3759   3.6956   3.8799   4.0164   5.5760   5.9515   7.8478  11.5488
    12.1253  14.3601  15.8597

     occupation numbers 
     1.0000   1.0000   1.0000   1.0000   1.0000   1.0000   1.0000   1.0000
     1.0000   1.0000   1.0000   1.0000   1.0000   1.0000   1.0000   1.0000
     1.0573   0.8662   0.3829   0.1272   0.0000   0.0000   0.0000   0.0000
     0.0000   0.0000   0.0000

          k = 0.1250 0.5052 0.0000 (  3784 PWs)   bands (ev):

   -91.2857 -54.6229 -54.5884 -54.4033 -49.7634 -21.8740 -21.6888 -21.6300
   -13.8889 -13.5859  -2.0470  -1.0462  -0.1718   0.4052   0.6742   1.7466
     3.3737   3.4330   3.8553   5.6678   5.8954   6.0850   8.7845   9.7650
    12.5387  13.4908  15.0781

     occupation numbers 
     1.0000   1.0000   1.0000   1.0000   1.0000   1.0000   1.0000   1.0000
     1.0000   1.0000   1.0000   1.0000   1.0000   1.0000   1.0000   1.0000
     1.0565   1.0753   0.4456   0.0000   0.0000   0.0000   0.0000   0.0000
     0.0000   0.0000   0.0000

          k = 0.1250 0.5052 0.0972 (  3793 PWs)   bands (ev):

   -91.2857 -54.6229 -54.5885 -54.4034 -49.7634 -21.8740 -21.6888 -21.6301
   -13.8889 -13.5859  -2.0470  -1.0464  -0.1719   0.4054   0.6742   1.7473
     3.3735   3.4331   3.8547   5.6335   5.9544   6.0619   8.7795   9.7643
    12.5774  13.4777  15.1430

     occupation numbers 
     1.0000   1.0000   1.0000   1.0000   1.0000   1.0000   1.0000   1.0000
     1.0000   1.0000   1.0000   1.0000   1.0000   1.0000   1.0000   1.0000
     1.0565   1.0753   0.4473   0.0000   0.0000   0.0000   0.0000   0.0000
     0.0000   0.0000   0.0000

          k = 0.2500 0.4330 0.0000 (  3781 PWs)   bands (ev):

   -91.2857 -54.6165 -54.5947 -54.4034 -49.7634 -21.8403 -21.7227 -21.6301
   -13.9438 -13.5313  -1.5024  -1.3350  -0.4404   0.3361   0.5544   1.7496
     3.4479   3.5438   4.0256   5.4416   5.7483   5.8296   9.4626   9.9948
    12.4527  14.4689  14.7692

     occupation numbers 
     1.0000   1.0000   1.0000   1.0000   1.0000   1.0000   1.0000   1.0000
     1.0000   1.0000   1.0000   1.0000   1.0000   1.0000   1.0000   1.0000
     1.0788   1.0712   0.1162   0.0000   0.0000   0.0000   0.0000   0.0000
     0.0000   0.0000   0.0000

          k = 0.2500 0.4330 0.0972 (  3790 PWs)   bands (ev):

   -91.2857 -54.6165 -54.5947 -54.4034 -49.7634 -21.8403 -21.7229 -21.6301
   -13.9438 -13.5314  -1.5024  -1.3352  -0.4404   0.3360   0.5552   1.7495
     3.4479   3.5444   4.0226   5.4619   5.7329   5.8218   9.4833   9.9915
    12.4248  14.4412  14.8322

     occupation numbers 
     1.0000   1.0000   1.0000   1.0000   1.0000   1.0000   1.0000   1.0000
     1.0000   1.0000   1.0000   1.0000   1.0000   1.0000   1.0000   1.0000
     1.0788   1.0709   0.1197   0.0000   0.0000   0.0000   0.0000   0.0000
     0.0000   0.0000   0.0000

          k = 0.2500 0.5774 0.0000 (  3794 PWs)   bands (ev):

   -91.2852 -54.6171 -54.6016 -54.4025 -49.7597 -21.8417 -21.7590 -21.6250
   -13.7190 -13.6033  -1.6485  -1.2772  -0.5989   0.4833   0.7669   1.2782
     3.2431   3.7170   3.9487   5.7398   5.7481   7.2785   8.3026  11.4718
    11.9311  12.2019  14.6012

     occupation numbers 
     1.0000   1.0000   1.0000   1.0000   1.0000   1.0000   1.0000   1.0000
     1.0000   1.0000   1.0000   1.0000   1.0000   1.0000   1.0000   1.0000
     1.0186   0.8163   0.2325   0.0000   0.0000   0.0000   0.0000   0.0000
     0.0000   0.0000   0.0000

          k = 0.2500 0.5774 0.0972 (  3783 PWs)   bands (ev):

   -91.2852 -54.6170 -54.6016 -54.4025 -49.7597 -21.8416 -21.7589 -21.6250
   -13.7190 -13.6033  -1.6485  -1.2772  -0.5989   0.4833   0.7669   1.2783
     3.2431   3.7171   3.9483   5.7406   5.7514   7.2714   8.2971  11.4932
    11.9310  12.2245  14.6178

     occupation numbers 
     1.0000   1.0000   1.0000   1.0000   1.0000   1.0000   1.0000   1.0000
     1.0000   1.0000   1.0000   1.0000   1.0000   1.0000   1.0000   1.0000
     1.0186   0.8161   0.2332   0.0000   0.0000   0.0000   0.0000   0.0000
     0.0000   0.0000   0.0000

          k = 0.0000-0.1443 0.0972 (  3806 PWs)   bands (ev):

   -91.2901 -54.5786 -54.5722 -54.4107 -49.7941 -21.6721 -21.6439 -21.6087
   -15.1595 -13.4088  -1.2350  -1.1286  -0.9336   1.3629   1.5233   1.8946
     2.4686   3.1978   3.3648   4.3413   5.7673   6.1552   6.3438  10.0573
    12.2178  14.5470  16.1135

     occupation numbers 
     1.0000   1.0000   1.0000   1.0000   1.0000   1.0000   1.0000   1.0000
     1.0000   1.0000   1.0000   1.0000   1.0000   1.0000   1.0000   1.0000
     1.0000   1.0111   1.0534   0.0014   0.0000   0.0000   0.0000   0.0000
     0.0000   0.0000   0.0000

          k = 0.0000-0.2887 0.0972 (  3778 PWs)   bands (ev):

   -91.2882 -54.5988 -54.5770 -54.4076 -49.7813 -21.7505 -21.6545 -21.6316
   -14.7073 -13.4380  -1.4629  -0.7610  -0.6761   0.1661   1.2991   2.4012
     2.8325   3.3968   3.6508   4.2196   5.3753   6.2086   6.9508  10.9692
    13.4145  13.6991  15.6698

     occupation numbers 
     1.0000   1.0000   1.0000   1.0000   1.0000   1.0000   1.0000   1.0000
     1.0000   1.0000   1.0000   1.0000   1.0000   1.0000   1.0000   1.0000
     1.0000   1.0644   0.9554   0.0104   0.0000   0.0000   0.0000   0.0000
     0.0000   0.0000   0.0000

          k = 0.0000-0.4330 0.0972 (  3794 PWs)   bands (ev):

   -91.2864 -54.6191 -54.5819 -54.4046 -49.7687 -21.8554 -21.6547 -21.6373
   -14.1610 -13.5208  -1.9392  -0.8968  -0.4656   0.3262   1.0540   2.0396
     3.3475   3.4859   3.8532   4.5356   5.6064   6.2447   8.5201  10.0320
    12.5068  13.8714  15.1730

     occupation numbers 
     1.0000   1.0000   1.0000   1.0000   1.0000   1.0000   1.0000   1.0000
     1.0000   1.0000   1.0000   1.0000   1.0000   1.0000   1.0000   1.0000
     1.0475   1.0833   0.4512   0.0000   0.0000   0.0000   0.0000   0.0000
     0.0000   0.0000   0.0000

          k =-0.1250-0.3608 0.0972 (  3782 PWs)   bands (ev):

   -91.2870 -54.6101 -54.5834 -54.4055 -49.7724 -21.8088 -21.6641 -21.6423
   -14.3489 -13.4737  -1.5105  -1.0400  -0.4270   0.1984   0.7014   2.3238
     3.3781   3.7059   3.8330   4.0704   5.5286   5.9652   7.8844  11.5062
    12.0836  14.5495  15.8235

     occupation numbers 
     1.0000   1.0000   1.0000   1.0000   1.0000   1.0000   1.0000   1.0000
     1.0000   1.0000   1.0000   1.0000   1.0000   1.0000   1.0000   1.0000
     1.0580   0.8428   0.5053   0.0725   0.0000   0.0000   0.0000   0.0000
     0.0000   0.0000   0.0000

          k =-0.1250-0.5052 0.0972 (  3793 PWs)   bands (ev):

   -91.2857 -54.6229 -54.5885 -54.4034 -49.7634 -21.8740 -21.6888 -21.6301
   -13.8889 -13.5859  -2.0471  -1.0463  -0.1719   0.4054   0.6744   1.7468
     3.3737   3.4331   3.8540   5.6871   5.8805   6.0755   8.7798   9.7984
    12.5680  13.3477  15.1788

     occupation numbers 
     1.0000   1.0000   1.0000   1.0000   1.0000   1.0000   1.0000   1.0000
     1.0000   1.0000   1.0000   1.0000   1.0000   1.0000   1.0000   1.0000
     1.0565   1.0753   0.4491   0.0000   0.0000   0.0000   0.0000   0.0000
     0.0000   0.0000   0.0000

     the Fermi energy is     3.8728 ev

!    total energy              =    -569.18022887 Ry
     total all-electron energy =     -3412.670784 Ry
     estimated scf accuracy    <       0.00000007 Ry
     smearing contrib. (-TS)   =       0.00242569 Ry
     internal energy E=F+TS    =    -569.18265456 Ry

     The total energy is F=E-TS. E is the sum of the following terms:
     one-electron contribution =    -688.39398181 Ry
     hartree contribution      =     356.64105507 Ry
     xc contribution           =     -59.96687897 Ry
     ewald contribution        =     -55.50482685 Ry
     one-center paw contrib.   =    -121.95802199 Ry
      -> PAW hartree energy AE =     342.23576892 Ry
      -> PAW hartree energy PS =    -342.24122375 Ry
      -> PAW xc energy AE      =    -178.88406900 Ry
      -> PAW xc energy PS      =      56.93150184 Ry
      -> total E_H with PAW    =     356.63560023 Ry
      -> total E_XC with PAW   =    -181.91944613 Ry

     total magnetization       =     0.78 Bohr mag/cell
     absolute magnetization    =     0.90 Bohr mag/cell

     convergence has been achieved in  20 iterations

     Forces acting on atoms (cartesian axes, Ry/au):

     atom    1 type  1   force =     0.00000000    0.00000000    0.00973750
     atom    2 type  2   force =     0.00000000    0.00000000   -0.02885625
     atom    3 type  2   force =    -0.00000000   -0.00000000    0.01136124
     atom    4 type  3   force =     0.00000000    0.00000000    0.00775751
     The non-local contrib.  to forces
     atom    1 type  1   force =     0.00000000    0.00000000    0.00508388
     atom    2 type  2   force =    -0.00000000   -0.00000000   -1.21382857
     atom    3 type  2   force =     0.00000000    0.00000000    1.07990664
     atom    4 type  3   force =    -0.00000000   -0.00000000    0.03368328
     The ionic contribution  to forces
     atom    1 type  1   force =    -0.00000000    0.00000000    7.53484435
     atom    2 type  2   force =     0.00000000   -0.00000000   37.67476636
     atom    3 type  2   force =    -0.00000000    0.00000000  -32.37144940
     atom    4 type  3   force =     0.00000000   -0.00000000  -12.83816131
     The local contribution  to forces
     atom    1 type  1   force =    -0.00000000   -0.00000000   -7.53079720
     atom    2 type  2   force =     0.00000001   -0.00000001  -36.50070293
     atom    3 type  2   force =    -0.00000001    0.00000001   31.31208869
     atom    4 type  3   force =     0.00000000   -0.00000000   12.81241558
     The core correction contribution to forces
     atom    1 type  1   force =     0.00000000   -0.00000000   -0.00004306
     atom    2 type  2   force =    -0.00000000    0.00000000    0.01073412
     atom    3 type  2   force =     0.00000000   -0.00000000   -0.00940012
     atom    4 type  3   force =     0.00000000   -0.00000000   -0.00003011
     The Hubbard contrib.    to forces
     atom    1 type  1   force =     0.00000000    0.00000000    0.00000000
     atom    2 type  2   force =     0.00000000    0.00000000    0.00000000
     atom    3 type  2   force =     0.00000000    0.00000000    0.00000000
     atom    4 type  3   force =     0.00000000    0.00000000    0.00000000
     The SCF correction term to forces
     atom    1 type  1   force =    -0.00000000    0.00000000    0.00065870
     atom    2 type  2   force =     0.00000000   -0.00000000    0.00018393
     atom    3 type  2   force =    -0.00000000    0.00000000    0.00022459
     atom    4 type  3   force =     0.00000000   -0.00000000   -0.00014076

     Total force =     0.033418     Total SCF correction =     0.000733

     Writing all to output data dir ./out/pw.save/ :
     XML data file, charge density, pseudopotentials, collected wavefunctions
 
     init_run     :     13.27s CPU      3.26s WALL (       1 calls)
     electrons    :    105.30s CPU     28.40s WALL (       1 calls)
     forces       :      0.61s CPU      0.58s WALL (       1 calls)

     Called by init_run:
     wfcinit      :      0.29s CPU      0.53s WALL (       1 calls)
     wfcinit:atom :      0.04s CPU      0.04s WALL (      50 calls)
     wfcinit:wfcr :      0.17s CPU      0.37s WALL (      50 calls)
     potinit      :     12.44s CPU      2.12s WALL (       1 calls)
     hinit0       :      0.44s CPU      0.44s WALL (       1 calls)

     Called by electrons:
     c_bands      :     13.61s CPU     13.79s WALL (      20 calls)
     sum_band     :      2.31s CPU      2.32s WALL (      20 calls)
     v_of_rho     :      0.35s CPU      0.21s WALL (      21 calls)
     v_h          :      0.24s CPU      0.04s WALL (      21 calls)
     v_xc         :      0.11s CPU      0.17s WALL (      22 calls)
     newd         :      0.49s CPU      0.42s WALL (      21 calls)
                                        0.42s GPU  (      21 calls)
     PAW_pot      :     91.80s CPU     11.53s WALL (      21 calls)
     mix_rho      :      0.67s CPU      0.68s WALL (      20 calls)

     Called by c_bands:
     init_us_2    :      0.85s CPU      0.84s WALL (    2100 calls)
     cegterg      :     11.82s CPU     12.01s WALL (    1000 calls)

     Called by sum_band:
     sum_band:wei :      0.02s CPU      0.02s WALL (      20 calls)
                                        0.02s GPU  (      20 calls)
     sum_band:loo :      1.43s CPU      1.44s WALL (      20 calls)
                                        1.44s GPU  (      20 calls)
     sum_band:buf :      0.21s CPU      0.23s WALL (    1000 calls)
                                        0.22s GPU  (    1000 calls)
     sum_band:ini :      0.39s CPU      0.41s WALL (    1000 calls)
                                        0.40s GPU  (    1000 calls)
     sum_band:cal :      0.04s CPU      0.06s WALL (    1000 calls)
                                        0.05s GPU  (    1000 calls)
     sum_band:bec :      0.21s CPU      0.23s WALL (    1000 calls)
                                        0.22s GPU  (    1000 calls)
     addusdens    :      0.69s CPU      0.70s WALL (      20 calls)
                                        0.70s GPU  (      20 calls)
     addusd:skk   :      0.00s CPU      0.00s WALL (      60 calls)
                                        0.00s GPU  (      60 calls)

     Called by *egterg:
     cdiaghg      :      4.01s CPU      4.19s WALL (    4674 calls)
                                        4.14s GPU  (    4674 calls)
     cegterg:over :      1.10s CPU      1.13s WALL (    3674 calls)
     cegterg:upda :      0.68s CPU      0.69s WALL (    3674 calls)
     cegterg:last :      0.13s CPU      0.13s WALL (    1922 calls)
     h_psi        :      4.27s CPU      4.53s WALL (    4724 calls)
                                        4.47s GPU  (    4724 calls)
     s_psi        :      0.72s CPU      0.76s WALL (    4724 calls)
     g_psi        :      0.02s CPU      0.09s WALL (    3674 calls)
                                        0.05s GPU  (    3674 calls)

     Called by h_psi:
     h_psi:calbec :      0.15s CPU      0.28s WALL (    4724 calls)
                                        0.22s GPU  (    4724 calls)
     vloc_psi     :      2.95s CPU      3.12s WALL (    4724 calls)
                                        3.07s GPU  (    4724 calls)
     add_vuspsi   :      0.66s CPU      0.79s WALL (    4724 calls)
                                        0.73s GPU  (    4724 calls)

     General routines
     calbec       :      0.16s CPU      0.20s WALL (    5924 calls)
     fft          :      3.44s CPU      0.63s WALL (     538 calls)
                                        0.02s GPU  (     496 calls)
     ffts         :      4.77s CPU      0.87s WALL (     871 calls)
                                        0.02s GPU  (     829 calls)
     fftw         :      0.27s CPU      1.07s WALL (   15590 calls)
                                        0.90s GPU  (   15590 calls)
     interpolate  :      8.37s CPU      1.48s WALL (      42 calls)
 
     Parallel routines

     PAW routines
     PAW_pot      :     91.80s CPU     11.53s WALL (      21 calls)
     PAW_symme    :      0.02s CPU      0.00s WALL (      41 calls)
 
     PWSCF        :   2m 0.05s CPU     32.77s WALL

 
   This run was terminated on:   3:18:56  12Jul2026            

=------------------------------------------------------------------------------=
   JOB DONE.
=------------------------------------------------------------------------------=
Warning: ieee_divide_by_zero is signaling
Warning: ieee_inexact is signaling
FORTRAN STOP
