
     Program PWSCF v.7.3.1 starts on 12Jul2026 at  3:49:29 

     This program is part of the open-source Quantum ESPRESSO suite
     for quantum simulation of materials; please cite
         "P. Giannozzi et al., J. Phys.:Condens. Matter 21 395502 (2009);
         "P. Giannozzi et al., J. Phys.:Condens. Matter 29 465901 (2017);
         "P. Giannozzi et al., J. Chem. Phys. 152 154105 (2020);
          URL http://www.quantum-espresso.org", 
     in publications or presentations arising from this work. More details at
     http://www.quantum-espresso.org/quote

     Parallel version (MPI & OpenMP), running on      14 processor cores
     Number of MPI processes:                 1
     Threads/MPI process:                    14

     MPI processes distributed on     1 nodes
     843888 MiB available memory on the printing compute node when the environment starts
 
     Reading input from pw.in

     Current dimensions of program PWSCF are:
     Max number of different atomic species (ntypx) = 10
     Max number of k-points (npk) =  40000
     Max angular momentum in pseudopotentials (lmaxx) =  4
     file Co.pbe-spn-kjpaw_psl.0.3.1.UPF: wavefunction(s)  3P 3D renormalized
     file O.pbe-n-kjpaw_psl.1.0.0.UPF: wavefunction(s)  2S 2P renormalized
     file Na.pbe-spn-kjpaw_psl.1.0.0.UPF: wavefunction(s)  2P renormalized
 
     Subspace diagonalization in iterative solution of the eigenvalue problem:
     a serial algorithm will be used

 
     G-vector sticks info
     --------------------
     sticks:   dense  smooth     PW     G-vecs:    dense   smooth      PW
     Sum         979     499    151                47419    16845    2747
 
     Using Slab Decomposition
 


     bravais-lattice index     =            4
     lattice parameter (alat)  =       5.4575  a.u.
     unit-cell volume          =     268.0923 (a.u.)^3
     number of atoms/cell      =            4
     number of atomic types    =            3
     number of electrons       =        38.00
     number of Kohn-Sham states=           27
     kinetic-energy cutoff     =      60.0000  Ry
     charge density cutoff     =     480.0000  Ry
     scf convergence threshold =      1.0E-07
     mixing beta               =       0.3000
     number of iterations used =            8  local-TF  mixing
     Exchange-correlation= SLA  PW   PBX  PBC
                           (   1   4   3   4   0   0   0)

     GPU acceleration is ACTIVE.  1 visible GPUs per MPI rank
     GPU-aware MPI enabled


     GPU used by master process:

        Device Number: 0
        Device name: NVIDIA A100-SXM4-80GB
        Compute capability : 80
        Ratio of single to double precision performance  : 2
        Memory Clock Rate (KHz): 1593000
        Memory Bus Width (bits): 5120
        Peak Memory Bandwidth (GB/s): ******

     celldm(1)=   5.457529  celldm(2)=   0.000000  celldm(3)=   1.904432
     celldm(4)=   0.000000  celldm(5)=   0.000000  celldm(6)=   0.000000

     crystal axes: (cart. coord. in units of alat)
               a(1) = (   1.000000   0.000000   0.000000 )  
               a(2) = (  -0.500000   0.866025   0.000000 )  
               a(3) = (   0.000000   0.000000   1.904432 )  

     reciprocal axes: (cart. coord. in units 2 pi/alat)
               b(1) = (  1.000000  0.577350 -0.000000 )  
               b(2) = (  0.000000  1.154701  0.000000 )  
               b(3) = (  0.000000 -0.000000  0.525091 )  


     PseudoPot. # 1 for Co read from file:
     ../../pseudo/Co.pbe-spn-kjpaw_psl.0.3.1.UPF
     MD5 check sum: 3c0a43779828c046024e4f3be63f8e67
     Pseudo is Projector augmented-wave + core cor, Zval = 17.0
     Generated using &quot;atomic&quot; code by A. Dal Corso  v.6.2.2
     Shape of augmentation charge: PSQ
     Using radial grid of 1193 points,  6 beta functions with: 
                l(1) =   0
                l(2) =   0
                l(3) =   1
                l(4) =   1
                l(5) =   2
                l(6) =   2
     Q(r) pseudized with 0 coefficients 


     PseudoPot. # 2 for O  read from file:
     ../../pseudo/O.pbe-n-kjpaw_psl.1.0.0.UPF
     MD5 check sum: e99d9cef9b487d1ca56f5b95ecd0fd7a
     Pseudo is Projector augmented-wave + core cor, Zval =  6.0
     Generated using &quot;atomic&quot; code by A. Dal Corso  v.6.3
     Shape of augmentation charge: PSQ
     Using radial grid of 1095 points,  4 beta functions with: 
                l(1) =   0
                l(2) =   0
                l(3) =   1
                l(4) =   1
     Q(r) pseudized with 0 coefficients 


     PseudoPot. # 3 for Na read from file:
     ../../pseudo/Na.pbe-spn-kjpaw_psl.1.0.0.UPF
     MD5 check sum: 05b4deb74e3932c23ab016979dc8b5d4
     Pseudo is Projector augmented-wave + core cor, Zval =  9.0
     Generated using &quot;atomic&quot; code by A. Dal Corso  v.6.3
     Shape of augmentation charge: PSQ
     Using radial grid of 1121 points,  4 beta functions with: 
                l(1) =   0
                l(2) =   0
                l(3) =   1
                l(4) =   1
     Q(r) pseudized with 0 coefficients 


     atomic species   valence    mass     pseudopotential
     Co               17.00    58.93300     Co( 1.00)
     O                 6.00    15.99900     O ( 1.00)
     Na                9.00    22.98977     Na( 1.00)

     Starting magnetic structure 
     atomic species   magnetization
     Co              0.300
     O               0.000
     Na              0.000

      6 Sym. Ops. (no inversion) found


                                    s                        frac. trans.

      isym =  1     identity                                     

 cryst.   s( 1) = (     1          0          0      )
                  (     0          1          0      )
                  (     0          0          1      )

 cart.    s( 1) = (  1.0000000  0.0000000  0.0000000 )
                  (  0.0000000  1.0000000  0.0000000 )
                  (  0.0000000  0.0000000  1.0000000 )


      isym =  2     120 deg rotation - cryst. axis [0,0,1]       

 cryst.   s( 2) = (     0          1          0      )
                  (    -1         -1          0      )
                  (     0          0          1      )

 cart.    s( 2) = ( -0.5000000 -0.8660254  0.0000000 )
                  (  0.8660254 -0.5000000  0.0000000 )
                  (  0.0000000  0.0000000  1.0000000 )


      isym =  3     120 deg rotation - cryst. axis [0,0,-1]      

 cryst.   s( 3) = (    -1         -1          0      )
                  (     1          0          0      )
                  (     0          0          1      )

 cart.    s( 3) = ( -0.5000000  0.8660254  0.0000000 )
                  ( -0.8660254 -0.5000000  0.0000000 )
                  (  0.0000000  0.0000000  1.0000000 )


      isym =  4     inv. 180 deg rotation - cart. axis [1,0,0]   

 cryst.   s( 4) = (    -1          0          0      )
                  (     1          1          0      )
                  (     0          0          1      )

 cart.    s( 4) = ( -1.0000000  0.0000000  0.0000000 )
                  (  0.0000000  1.0000000  0.0000000 )
                  (  0.0000000  0.0000000  1.0000000 )


      isym =  5     inv. 180 deg rotation - cryst. axis [0,1,0]  

 cryst.   s( 5) = (     1          1          0      )
                  (     0         -1          0      )
                  (     0          0          1      )

 cart.    s( 5) = (  0.5000000  0.8660254  0.0000000 )
                  (  0.8660254 -0.5000000  0.0000000 )
                  (  0.0000000  0.0000000  1.0000000 )


      isym =  6     inv. 180 deg rotation - cryst. axis [1,1,0]  

 cryst.   s( 6) = (     0         -1          0      )
                  (    -1          0          0      )
                  (     0          0          1      )

 cart.    s( 6) = (  0.5000000 -0.8660254  0.0000000 )
                  ( -0.8660254 -0.5000000  0.0000000 )
                  (  0.0000000  0.0000000  1.0000000 )


     point group C_3v (3m)  
     there are  3 classes
     the character table:

       E     2C3   3s_v 
A_1    1.00  1.00  1.00
A_2    1.00  1.00 -1.00
E      2.00 -1.00  0.00

     the symmetry operations in each class and the name of the first element:

     E        1
          identity                                               
     2C3      2    3
          120 deg rotation - cryst. axis [0,0,1]                 
     3s_v     4    5    6
          inv. 180 deg rotation - cart. axis [1,0,0]             

   Cartesian axes

     site n.     atom                  positions (alat units)
         1        Co     tau(   1) = (   0.0000000   0.0000000   0.0000000  )
         2        O      tau(   2) = (  -0.0000000   0.5773503   0.3324100  )
         3        O      tau(   3) = (   0.5000000   0.2886751   1.5720222  )
         4        Na     tau(   4) = (   0.0000000   0.0000000   1.1253463  )

   Crystallographic axes

     site n.     atom                  positions (cryst. coord.)
         1        Co     tau(   1) = (  0.0000000  0.0000000  0.0000000  )
         2        O      tau(   2) = (  0.3333333  0.6666667  0.1745455  )
         3        O      tau(   3) = (  0.6666667  0.3333333  0.8254545  )
         4        Na     tau(   4) = (  0.0000000  0.0000000  0.5909091  )

     number of k points=    25  Marzari-Vanderbilt smearing, width (Ry)=  0.0200
                       cart. coord. in units 2pi/alat
        k(    1) = (   0.0000000   0.0000000   0.0000000), wk =   0.0052083
        k(    2) = (   0.0000000   0.0000000   0.1750303), wk =   0.0104167
        k(    3) = (   0.0000000   0.1443376   0.0000000), wk =   0.0312500
        k(    4) = (   0.0000000   0.1443376   0.1750303), wk =   0.0312500
        k(    5) = (   0.0000000   0.2886751   0.0000000), wk =   0.0312500
        k(    6) = (   0.0000000   0.2886751   0.1750303), wk =   0.0312500
        k(    7) = (   0.0000000   0.4330127   0.0000000), wk =   0.0312500
        k(    8) = (   0.0000000   0.4330127   0.1750303), wk =   0.0312500
        k(    9) = (   0.0000000  -0.5773503   0.0000000), wk =   0.0156250
        k(   10) = (   0.0000000  -0.5773503   0.1750303), wk =   0.0312500
        k(   11) = (   0.1250000   0.2165064   0.0000000), wk =   0.0312500
        k(   12) = (   0.1250000   0.2165064   0.1750303), wk =   0.0625000
        k(   13) = (   0.1250000   0.3608439   0.0000000), wk =   0.0625000
        k(   14) = (   0.1250000   0.3608439   0.1750303), wk =   0.0625000
        k(   15) = (   0.1250000   0.5051815   0.0000000), wk =   0.0625000
        k(   16) = (   0.1250000   0.5051815   0.1750303), wk =   0.0625000
        k(   17) = (   0.2500000   0.4330127   0.0000000), wk =   0.0312500
        k(   18) = (   0.2500000   0.4330127   0.1750303), wk =   0.0625000
        k(   19) = (   0.2500000   0.5773503   0.0000000), wk =   0.0312500
        k(   20) = (   0.2500000   0.5773503   0.1750303), wk =   0.0625000
        k(   21) = (   0.0000000  -0.1443376   0.1750303), wk =   0.0312500
        k(   22) = (   0.0000000  -0.2886751   0.1750303), wk =   0.0312500
        k(   23) = (   0.0000000  -0.4330127   0.1750303), wk =   0.0312500
        k(   24) = (  -0.1250000  -0.3608439   0.1750303), wk =   0.0625000
        k(   25) = (  -0.1250000  -0.5051815   0.1750303), wk =   0.0625000

                       cryst. coord.
        k(    1) = (   0.0000000   0.0000000   0.0000000), wk =   0.0052083
        k(    2) = (   0.0000000   0.0000000   0.3333333), wk =   0.0104167
        k(    3) = (   0.0000000   0.1250000   0.0000000), wk =   0.0312500
        k(    4) = (   0.0000000   0.1250000   0.3333333), wk =   0.0312500
        k(    5) = (   0.0000000   0.2500000   0.0000000), wk =   0.0312500
        k(    6) = (   0.0000000   0.2500000   0.3333333), wk =   0.0312500
        k(    7) = (   0.0000000   0.3750000   0.0000000), wk =   0.0312500
        k(    8) = (   0.0000000   0.3750000   0.3333333), wk =   0.0312500
        k(    9) = (   0.0000000  -0.5000000   0.0000000), wk =   0.0156250
        k(   10) = (   0.0000000  -0.5000000   0.3333333), wk =   0.0312500
        k(   11) = (   0.1250000   0.1250000   0.0000000), wk =   0.0312500
        k(   12) = (   0.1250000   0.1250000   0.3333333), wk =   0.0625000
        k(   13) = (   0.1250000   0.2500000   0.0000000), wk =   0.0625000
        k(   14) = (   0.1250000   0.2500000   0.3333333), wk =   0.0625000
        k(   15) = (   0.1250000   0.3750000   0.0000000), wk =   0.0625000
        k(   16) = (   0.1250000   0.3750000   0.3333333), wk =   0.0625000
        k(   17) = (   0.2500000   0.2500000   0.0000000), wk =   0.0312500
        k(   18) = (   0.2500000   0.2500000   0.3333333), wk =   0.0625000
        k(   19) = (   0.2500000   0.3750000   0.0000000), wk =   0.0312500
        k(   20) = (   0.2500000   0.3750000   0.3333333), wk =   0.0625000
        k(   21) = (   0.0000000  -0.1250000   0.3333333), wk =   0.0312500
        k(   22) = (   0.0000000  -0.2500000   0.3333333), wk =   0.0312500
        k(   23) = (   0.0000000  -0.3750000   0.3333333), wk =   0.0312500
        k(   24) = (  -0.1250000  -0.2500000   0.3333333), wk =   0.0625000
        k(   25) = (  -0.1250000  -0.3750000   0.3333333), wk =   0.0625000

     Dense  grid:    47419 G-vectors     FFT dimensions: (  40,  40,  75)

     Smooth grid:    16845 G-vectors     FFT dimensions: (  27,  27,  54)

     Dynamical RAM for                 wfc:       0.87 MB

     Dynamical RAM for     wfc (w. buffer):      44.21 MB

     Dynamical RAM for           str. fact:       2.17 MB

     Dynamical RAM for           local pot:       0.00 MB

     Dynamical RAM for          nlocal pot:       1.35 MB

     Dynamical RAM for                qrad:       5.27 MB

     Dynamical RAM for          rho,v,vnew:       9.83 MB

     Dynamical RAM for               rhoin:       3.28 MB

     Dynamical RAM for            rho*nmix:      23.15 MB

     Dynamical RAM for           G-vectors:       2.84 MB

     Dynamical RAM for          h,s,v(r/c):       0.13 MB

     Dynamical RAM for          <psi|beta>:       0.02 MB

     Dynamical RAM for                 psi:       1.73 MB

     Dynamical RAM for                hpsi:       1.73 MB

     Dynamical RAM for                spsi:       1.73 MB

     Dynamical RAM for      wfcinit/wfcrot:       1.75 MB

     Dynamical RAM for           addusdens:     136.75 MB

     Dynamical RAM for          addusforce:     138.21 MB

     Estimated static dynamical RAM per process >      77.34 MB

     Estimated max dynamical RAM per process >     238.71 MB

     Check: negative core charge=   -0.000009
     Generating pointlists ...
     new r_m :   0.2748 (alat units)  1.4998 (a.u.) for type    1
     new r_m :   0.2748 (alat units)  1.4998 (a.u.) for type    2
     new r_m :   0.3011 (alat units)  1.6433 (a.u.) for type    3

     Initial potential from superposition of free atoms

     starting charge      37.9934, renormalised to      38.0000
     Starting wfcs are   23 randomized atomic wfcs +    4 random wfcs
     Checking if some PAW data can be deallocated... 

     total cpu time spent up to now is        2.8 secs

     Self-consistent Calculation
[tb_dev] Currently allocated     6.54E-01 Mbytes, locked:    0 /   6
[tb_pin] Currently allocated     0.00E+00 Mbytes, locked:    0 /   0

     iteration #  1     ecut=    60.00 Ry     beta= 0.30
     Davidson diagonalization with overlap

---- Real-time Memory Report at c_bands before calling an iterative solver
           648 MiB given to the printing process from OS
             0 MiB allocation reported by mallinfo(arena+hblkhd)
        842700 MiB available memory on the node where the printing process lives
     GPU memory used/free/total (MiB): 924 / 80226 / 81151
------------------
     ethr =  1.00E-02,  avg # of iterations = 10.3

     total cpu time spent up to now is        4.9 secs

     total energy              =    -569.10187658 Ry
     estimated scf accuracy    <       1.37979241 Ry

     total magnetization       =     4.00 Bohr mag/cell
     absolute magnetization    =     4.00 Bohr mag/cell
[tb_dev] Currently allocated     3.05E-05 Mbytes, locked:    0 /   2
[tb_pin] Currently allocated     0.00E+00 Mbytes, locked:    0 /   0

     iteration #  2     ecut=    60.00 Ry     beta= 0.30
     Davidson diagonalization with overlap

---- Real-time Memory Report at c_bands before calling an iterative solver
           689 MiB given to the printing process from OS
             0 MiB allocation reported by mallinfo(arena+hblkhd)
        842550 MiB available memory on the node where the printing process lives
     GPU memory used/free/total (MiB): 936 / 80214 / 81151
------------------
     ethr =  3.63E-03,  avg # of iterations =  1.9

     total cpu time spent up to now is        6.1 secs

     total energy              =    -569.06785200 Ry
     estimated scf accuracy    <       0.43570937 Ry

     total magnetization       =     4.00 Bohr mag/cell
     absolute magnetization    =     4.00 Bohr mag/cell
[tb_dev] Currently allocated     3.05E-05 Mbytes, locked:    0 /   2
[tb_pin] Currently allocated     0.00E+00 Mbytes, locked:    0 /   0

     iteration #  3     ecut=    60.00 Ry     beta= 0.30
     Davidson diagonalization with overlap

---- Real-time Memory Report at c_bands before calling an iterative solver
           690 MiB given to the printing process from OS
             0 MiB allocation reported by mallinfo(arena+hblkhd)
        842555 MiB available memory on the node where the printing process lives
     GPU memory used/free/total (MiB): 936 / 80214 / 81151
------------------
     ethr =  1.15E-03,  avg # of iterations =  3.1

     total cpu time spent up to now is        7.3 secs

     total energy              =    -569.26931852 Ry
     estimated scf accuracy    <       0.89817857 Ry

     total magnetization       =     1.58 Bohr mag/cell
     absolute magnetization    =     1.75 Bohr mag/cell
[tb_dev] Currently allocated     3.05E-05 Mbytes, locked:    0 /   2
[tb_pin] Currently allocated     0.00E+00 Mbytes, locked:    0 /   0

     iteration #  4     ecut=    60.00 Ry     beta= 0.30
     Davidson diagonalization with overlap

---- Real-time Memory Report at c_bands before calling an iterative solver
           692 MiB given to the printing process from OS
             0 MiB allocation reported by mallinfo(arena+hblkhd)
        842545 MiB available memory on the node where the printing process lives
     GPU memory used/free/total (MiB): 936 / 80214 / 81151
------------------
     ethr =  1.15E-03,  avg # of iterations =  1.5

     total cpu time spent up to now is        8.4 secs

     total energy              =    -569.29693144 Ry
     estimated scf accuracy    <       1.57950369 Ry

     total magnetization       =     1.18 Bohr mag/cell
     absolute magnetization    =     1.45 Bohr mag/cell
[tb_dev] Currently allocated     3.05E-05 Mbytes, locked:    0 /   2
[tb_pin] Currently allocated     0.00E+00 Mbytes, locked:    0 /   0

     iteration #  5     ecut=    60.00 Ry     beta= 0.30
     Davidson diagonalization with overlap

---- Real-time Memory Report at c_bands before calling an iterative solver
           694 MiB given to the printing process from OS
             0 MiB allocation reported by mallinfo(arena+hblkhd)
        842513 MiB available memory on the node where the printing process lives
     GPU memory used/free/total (MiB): 936 / 80214 / 81151
------------------
     ethr =  1.15E-03,  avg # of iterations =  1.3

     total cpu time spent up to now is        9.5 secs

     total energy              =    -569.26349072 Ry
     estimated scf accuracy    <       1.33332361 Ry

     total magnetization       =     0.86 Bohr mag/cell
     absolute magnetization    =     1.23 Bohr mag/cell
[tb_dev] Currently allocated     3.05E-05 Mbytes, locked:    0 /   2
[tb_pin] Currently allocated     0.00E+00 Mbytes, locked:    0 /   0

     iteration #  6     ecut=    60.00 Ry     beta= 0.30
     Davidson diagonalization with overlap

---- Real-time Memory Report at c_bands before calling an iterative solver
           695 MiB given to the printing process from OS
             0 MiB allocation reported by mallinfo(arena+hblkhd)
        842472 MiB available memory on the node where the printing process lives
     GPU memory used/free/total (MiB): 936 / 80214 / 81151
------------------
     ethr =  1.15E-03,  avg # of iterations =  1.1

     total cpu time spent up to now is       10.6 secs

     total energy              =    -569.26040221 Ry
     estimated scf accuracy    <       0.68661030 Ry

     total magnetization       =     0.73 Bohr mag/cell
     absolute magnetization    =     1.13 Bohr mag/cell
[tb_dev] Currently allocated     3.05E-05 Mbytes, locked:    0 /   2
[tb_pin] Currently allocated     0.00E+00 Mbytes, locked:    0 /   0

     iteration #  7     ecut=    60.00 Ry     beta= 0.30
     Davidson diagonalization with overlap

---- Real-time Memory Report at c_bands before calling an iterative solver
           698 MiB given to the printing process from OS
             0 MiB allocation reported by mallinfo(arena+hblkhd)
        842459 MiB available memory on the node where the printing process lives
     GPU memory used/free/total (MiB): 936 / 80214 / 81151
------------------
     ethr =  1.15E-03,  avg # of iterations =  1.1

     total cpu time spent up to now is       11.6 secs

     total energy              =    -569.30652273 Ry
     estimated scf accuracy    <       0.26277791 Ry

     total magnetization       =     0.13 Bohr mag/cell
     absolute magnetization    =     0.71 Bohr mag/cell
[tb_dev] Currently allocated     3.05E-05 Mbytes, locked:    0 /   2
[tb_pin] Currently allocated     0.00E+00 Mbytes, locked:    0 /   0

     iteration #  8     ecut=    60.00 Ry     beta= 0.30
     Davidson diagonalization with overlap

---- Real-time Memory Report at c_bands before calling an iterative solver
           699 MiB given to the printing process from OS
             0 MiB allocation reported by mallinfo(arena+hblkhd)
        842486 MiB available memory on the node where the printing process lives
     GPU memory used/free/total (MiB): 936 / 80214 / 81151
------------------
     ethr =  6.92E-04,  avg # of iterations =  1.3

     total cpu time spent up to now is       12.6 secs

     total energy              =    -569.28064426 Ry
     estimated scf accuracy    <       0.26305096 Ry

     total magnetization       =     0.01 Bohr mag/cell
     absolute magnetization    =     0.54 Bohr mag/cell
[tb_dev] Currently allocated     3.05E-05 Mbytes, locked:    0 /   2
[tb_pin] Currently allocated     0.00E+00 Mbytes, locked:    0 /   0

     iteration #  9     ecut=    60.00 Ry     beta= 0.30
     Davidson diagonalization with overlap

---- Real-time Memory Report at c_bands before calling an iterative solver
           699 MiB given to the printing process from OS
             0 MiB allocation reported by mallinfo(arena+hblkhd)
        842478 MiB available memory on the node where the printing process lives
     GPU memory used/free/total (MiB): 936 / 80214 / 81151
------------------
     ethr =  6.92E-04,  avg # of iterations =  1.4

     total cpu time spent up to now is       13.7 secs

     total energy              =    -569.30313394 Ry
     estimated scf accuracy    <       0.00625701 Ry

     total magnetization       =     0.00 Bohr mag/cell
     absolute magnetization    =     0.18 Bohr mag/cell
[tb_dev] Currently allocated     3.05E-05 Mbytes, locked:    0 /   2
[tb_pin] Currently allocated     0.00E+00 Mbytes, locked:    0 /   0

     iteration # 10     ecut=    60.00 Ry     beta= 0.30
     Davidson diagonalization with overlap

---- Real-time Memory Report at c_bands before calling an iterative solver
           702 MiB given to the printing process from OS
             0 MiB allocation reported by mallinfo(arena+hblkhd)
        842483 MiB available memory on the node where the printing process lives
     GPU memory used/free/total (MiB): 936 / 80214 / 81151
------------------
     c_bands:  1 eigenvalues not converged
     c_bands:  1 eigenvalues not converged
     ethr =  1.65E-05,  avg # of iterations = 11.2

     total cpu time spent up to now is       16.0 secs

     total energy              =    -569.30695352 Ry
     estimated scf accuracy    <       0.00263031 Ry

     total magnetization       =     0.00 Bohr mag/cell
     absolute magnetization    =     0.12 Bohr mag/cell
[tb_dev] Currently allocated     3.05E-05 Mbytes, locked:    0 /   2
[tb_pin] Currently allocated     0.00E+00 Mbytes, locked:    0 /   0

     iteration # 11     ecut=    60.00 Ry     beta= 0.30
     Davidson diagonalization with overlap

---- Real-time Memory Report at c_bands before calling an iterative solver
           702 MiB given to the printing process from OS
             0 MiB allocation reported by mallinfo(arena+hblkhd)
        842556 MiB available memory on the node where the printing process lives
     GPU memory used/free/total (MiB): 936 / 80214 / 81151
------------------
     ethr =  6.92E-06,  avg # of iterations =  2.2

     total cpu time spent up to now is       17.1 secs

     total energy              =    -569.30777848 Ry
     estimated scf accuracy    <       0.00119973 Ry

     total magnetization       =     0.00 Bohr mag/cell
     absolute magnetization    =     0.06 Bohr mag/cell
[tb_dev] Currently allocated     3.05E-05 Mbytes, locked:    0 /   2
[tb_pin] Currently allocated     0.00E+00 Mbytes, locked:    0 /   0

     iteration # 12     ecut=    60.00 Ry     beta= 0.30
     Davidson diagonalization with overlap

---- Real-time Memory Report at c_bands before calling an iterative solver
           702 MiB given to the printing process from OS
             0 MiB allocation reported by mallinfo(arena+hblkhd)
        842547 MiB available memory on the node where the printing process lives
     GPU memory used/free/total (MiB): 936 / 80214 / 81151
------------------
     ethr =  3.16E-06,  avg # of iterations =  4.8

     total cpu time spent up to now is       18.5 secs

     total energy              =    -569.30760637 Ry
     estimated scf accuracy    <       0.00121404 Ry

     total magnetization       =     0.00 Bohr mag/cell
     absolute magnetization    =     0.02 Bohr mag/cell
[tb_dev] Currently allocated     3.05E-05 Mbytes, locked:    0 /   2
[tb_pin] Currently allocated     0.00E+00 Mbytes, locked:    0 /   0

     iteration # 13     ecut=    60.00 Ry     beta= 0.30
     Davidson diagonalization with overlap

---- Real-time Memory Report at c_bands before calling an iterative solver
           702 MiB given to the printing process from OS
             0 MiB allocation reported by mallinfo(arena+hblkhd)
        842539 MiB available memory on the node where the printing process lives
     GPU memory used/free/total (MiB): 936 / 80214 / 81151
------------------
     ethr =  3.16E-06,  avg # of iterations =  1.8

     total cpu time spent up to now is       19.6 secs

     total energy              =    -569.30798328 Ry
     estimated scf accuracy    <       0.00017993 Ry

     total magnetization       =     0.00 Bohr mag/cell
     absolute magnetization    =     0.02 Bohr mag/cell
[tb_dev] Currently allocated     3.05E-05 Mbytes, locked:    0 /   2
[tb_pin] Currently allocated     0.00E+00 Mbytes, locked:    0 /   0

     iteration # 14     ecut=    60.00 Ry     beta= 0.30
     Davidson diagonalization with overlap

---- Real-time Memory Report at c_bands before calling an iterative solver
           702 MiB given to the printing process from OS
             0 MiB allocation reported by mallinfo(arena+hblkhd)
        842545 MiB available memory on the node where the printing process lives
     GPU memory used/free/total (MiB): 936 / 80214 / 81151
------------------
     ethr =  4.73E-07,  avg # of iterations =  3.6

     total cpu time spent up to now is       20.9 secs

     total energy              =    -569.30815591 Ry
     estimated scf accuracy    <       0.00006659 Ry

     total magnetization       =     0.00 Bohr mag/cell
     absolute magnetization    =     0.01 Bohr mag/cell
[tb_dev] Currently allocated     3.05E-05 Mbytes, locked:    0 /   2
[tb_pin] Currently allocated     0.00E+00 Mbytes, locked:    0 /   0

     iteration # 15     ecut=    60.00 Ry     beta= 0.30
     Davidson diagonalization with overlap

---- Real-time Memory Report at c_bands before calling an iterative solver
           702 MiB given to the printing process from OS
             0 MiB allocation reported by mallinfo(arena+hblkhd)
        842534 MiB available memory on the node where the printing process lives
     GPU memory used/free/total (MiB): 936 / 80214 / 81151
------------------
     ethr =  1.75E-07,  avg # of iterations =  4.3

     total cpu time spent up to now is       22.3 secs

     total energy              =    -569.30815822 Ry
     estimated scf accuracy    <       0.00001952 Ry

     total magnetization       =     0.00 Bohr mag/cell
     absolute magnetization    =     0.01 Bohr mag/cell
[tb_dev] Currently allocated     3.05E-05 Mbytes, locked:    0 /   2
[tb_pin] Currently allocated     0.00E+00 Mbytes, locked:    0 /   0

     iteration # 16     ecut=    60.00 Ry     beta= 0.30
     Davidson diagonalization with overlap

---- Real-time Memory Report at c_bands before calling an iterative solver
           702 MiB given to the printing process from OS
             0 MiB allocation reported by mallinfo(arena+hblkhd)
        842564 MiB available memory on the node where the printing process lives
     GPU memory used/free/total (MiB): 936 / 80214 / 81151
------------------
     ethr =  5.14E-08,  avg # of iterations =  4.7

     total cpu time spent up to now is       23.8 secs

     total energy              =    -569.30816091 Ry
     estimated scf accuracy    <       0.00000258 Ry

     total magnetization       =    -0.00 Bohr mag/cell
     absolute magnetization    =     0.00 Bohr mag/cell
[tb_dev] Currently allocated     3.05E-05 Mbytes, locked:    0 /   2
[tb_pin] Currently allocated     0.00E+00 Mbytes, locked:    0 /   0

     iteration # 17     ecut=    60.00 Ry     beta= 0.30
     Davidson diagonalization with overlap

---- Real-time Memory Report at c_bands before calling an iterative solver
           702 MiB given to the printing process from OS
             0 MiB allocation reported by mallinfo(arena+hblkhd)
        842575 MiB available memory on the node where the printing process lives
     GPU memory used/free/total (MiB): 936 / 80214 / 81151
------------------
     ethr =  6.80E-09,  avg # of iterations =  5.3

     total cpu time spent up to now is       25.4 secs

     total energy              =    -569.30815598 Ry
     estimated scf accuracy    <       0.00000117 Ry

     total magnetization       =    -0.00 Bohr mag/cell
     absolute magnetization    =     0.00 Bohr mag/cell
[tb_dev] Currently allocated     3.05E-05 Mbytes, locked:    0 /   2
[tb_pin] Currently allocated     0.00E+00 Mbytes, locked:    0 /   0

     iteration # 18     ecut=    60.00 Ry     beta= 0.30
     Davidson diagonalization with overlap

---- Real-time Memory Report at c_bands before calling an iterative solver
           702 MiB given to the printing process from OS
             0 MiB allocation reported by mallinfo(arena+hblkhd)
        842573 MiB available memory on the node where the printing process lives
     GPU memory used/free/total (MiB): 936 / 80214 / 81151
------------------
     ethr =  3.09E-09,  avg # of iterations =  2.2

     total cpu time spent up to now is       26.5 secs

     total energy              =    -569.30815610 Ry
     estimated scf accuracy    <       0.00000011 Ry

     total magnetization       =    -0.00 Bohr mag/cell
     absolute magnetization    =     0.00 Bohr mag/cell
[tb_dev] Currently allocated     3.05E-05 Mbytes, locked:    0 /   2
[tb_pin] Currently allocated     0.00E+00 Mbytes, locked:    0 /   0

     iteration # 19     ecut=    60.00 Ry     beta= 0.30
     Davidson diagonalization with overlap

---- Real-time Memory Report at c_bands before calling an iterative solver
           702 MiB given to the printing process from OS
             0 MiB allocation reported by mallinfo(arena+hblkhd)
        842577 MiB available memory on the node where the printing process lives
     GPU memory used/free/total (MiB): 936 / 80214 / 81151
------------------
     ethr =  2.82E-10,  avg # of iterations =  6.7
 
     Magnetic moment per site  (integrated on atomic sphere of radius R)
     atom   1 (R=0.275)  charge= 14.1862  magn= -0.0001
     atom   2 (R=0.275)  charge=  5.2594  magn=  0.0001
     atom   3 (R=0.275)  charge=  5.3779  magn=  0.0000
     atom   4 (R=0.301)  charge=  7.8802  magn=  0.0000

     total cpu time spent up to now is       28.3 secs

     End of self-consistent calculation

 ------ SPIN UP ------------


          k = 0.0000 0.0000 0.0000 (  2113 PWs)   bands (ev):

   -84.9313 -48.2333 -48.2333 -48.1038 -41.9034 -14.0155 -13.6932 -13.6932
    -9.8408  -7.9003   3.5161   4.7017   4.7017   7.5035   7.9183   7.9183
     8.9641   8.9641   9.8239  12.3531  12.3531  12.8944  18.3034  19.6568
    24.8373  27.2462  27.2462

     occupation numbers 
     1.0000   1.0000   1.0000   1.0000   1.0000   1.0000   1.0000   1.0000
     1.0000   1.0000   1.0000   1.0000   1.0000   1.0000   1.0000   1.0000
     1.0000   1.0000   1.0000   0.0000   0.0000   0.0000   0.0000   0.0000
     0.0000   0.0000   0.0000

          k = 0.0000 0.0000 0.1750 (  2114 PWs)   bands (ev):

   -84.9313 -48.2334 -48.2334 -48.1036 -41.9033 -14.0249 -13.6935 -13.6935
    -9.7651  -7.9912   3.8846   4.7078   4.7078   6.7326   7.9009   7.9009
     8.9654   8.9654   9.9822  12.3685  12.3685  13.7841  17.4591  19.4514
    25.0282  26.8744  26.8744

     occupation numbers 
     1.0000   1.0000   1.0000   1.0000   1.0000   1.0000   1.0000   1.0000
     1.0000   1.0000   1.0000   1.0000   1.0000   1.0000   1.0000   1.0000
     1.0000   1.0000   1.0008   0.0000   0.0000   0.0000   0.0000   0.0000
     0.0000   0.0000   0.0000

          k = 0.0000 0.1443 0.0000 (  2123 PWs)   bands (ev):

   -84.9305 -48.2420 -48.2355 -48.1025 -41.8978 -13.9979 -13.7477 -13.7041
    -9.6731  -7.9003   3.7411   4.4757   4.7909   6.8847   7.4677   7.7816
     9.1976   9.3386   9.8738  11.9265  12.2608  13.4481  18.9105  20.0519
    24.7521  26.1235  26.9368

     occupation numbers 
     1.0000   1.0000   1.0000   1.0000   1.0000   1.0000   1.0000   1.0000
     1.0000   1.0000   1.0000   1.0000   1.0000   1.0000   1.0000   1.0000
     1.0000   1.0000   1.0001   0.0000   0.0000   0.0000   0.0000   0.0000
     0.0000   0.0000   0.0000

          k = 0.0000 0.1443 0.1750 (  2102 PWs)   bands (ev):

   -84.9305 -48.2419 -48.2354 -48.1023 -41.8977 -14.0054 -13.7475 -13.7040
    -9.6094  -7.9747   4.0264   4.4326   4.7967   6.8684   7.2725   7.4574
     9.1737   9.3379  10.0558  11.7980  12.2663  14.2660  18.0254  20.0980
    24.1571  26.1752  27.2569

     occupation numbers 
     1.0000   1.0000   1.0000   1.0000   1.0000   1.0000   1.0000   1.0000
     1.0000   1.0000   1.0000   1.0000   1.0000   1.0000   1.0000   1.0000
     1.0000   1.0000   1.0027   0.0000   0.0000   0.0000   0.0000   0.0000
     0.0000   0.0000   0.0000

          k = 0.0000 0.2887 0.0000 (  2112 PWs)   bands (ev):

   -84.9286 -48.2628 -48.2405 -48.0992 -41.8841 -13.9806 -13.8480 -13.7296
    -9.2450  -7.9045   4.0484   4.3056   4.9952   5.4927   6.8843   7.7958
     9.2929   9.6559   9.9289  11.4359  12.1539  14.5881  19.8016  20.9331
    23.2344  24.5749  25.8201

     occupation numbers 
     1.0000   1.0000   1.0000   1.0000   1.0000   1.0000   1.0000   1.0000
     1.0000   1.0000   1.0000   1.0000   1.0000   1.0000   1.0000   1.0000
     1.0000   1.0000   1.0003   0.0001   0.0000   0.0000   0.0000   0.0000
     0.0000   0.0000   0.0000

          k = 0.0000 0.2887 0.1750 (  2100 PWs)   bands (ev):

   -84.9286 -48.2628 -48.2404 -48.0991 -41.8840 -13.9836 -13.8495 -13.7295
    -9.2078  -7.9445   3.8891   4.4859   4.9997   5.6288   6.8798   7.6553
     9.2454   9.6564  10.0548  11.1454  12.1480  15.1492  19.2008  21.1517
    22.3312  24.3873  26.5167

     occupation numbers 
     1.0000   1.0000   1.0000   1.0000   1.0000   1.0000   1.0000   1.0000
     1.0000   1.0000   1.0000   1.0000   1.0000   1.0000   1.0000   1.0000
     1.0000   1.0000   1.0026   0.0177   0.0000   0.0000   0.0000   0.0000
     0.0000   0.0000   0.0000

          k = 0.0000 0.4330 0.0000 (  2098 PWs)   bands (ev):

   -84.9268 -48.2836 -48.2453 -48.0958 -41.8704 -14.0551 -13.8503 -13.7548
    -8.7740  -7.9156   3.3991   4.4597   5.1469   5.4658   6.5952   7.1715
     9.2036   9.5977   9.8558  11.5996  12.2061  15.9036  19.2958  21.3857
    21.8446  24.1242  25.5858

     occupation numbers 
     1.0000   1.0000   1.0000   1.0000   1.0000   1.0000   1.0000   1.0000
     1.0000   1.0000   1.0000   1.0000   1.0000   1.0000   1.0000   1.0000
     1.0000   1.0000   1.0001   0.0000   0.0000   0.0000   0.0000   0.0000
     0.0000   0.0000   0.0000

          k = 0.0000 0.4330 0.1750 (  2109 PWs)   bands (ev):

   -84.9268 -48.2837 -48.2454 -48.0960 -41.8704 -14.0554 -13.8529 -13.7549
    -8.7602  -7.9282   3.3759   4.3391   5.1501   5.6427   6.5936   7.2707
     9.1831   9.5983   9.8691  11.4241  12.1967  16.1612  19.2297  20.4064
    22.1579  24.1836  25.9599

     occupation numbers 
     1.0000   1.0000   1.0000   1.0000   1.0000   1.0000   1.0000   1.0000
     1.0000   1.0000   1.0000   1.0000   1.0000   1.0000   1.0000   1.0000
     1.0000   1.0000   1.0001   0.0001   0.0000   0.0000   0.0000   0.0000
     0.0000   0.0000   0.0000

          k = 0.0000-0.5774 0.0000 (  2102 PWs)   bands (ev):

   -84.9260 -48.2923 -48.2473 -48.0944 -41.8648 -14.1009 -13.8350 -13.7652
    -8.5620  -7.9227   2.9788   4.5519   5.1767   5.7987   6.5553   6.7465
     9.1002   9.4986   9.7879  11.7898  12.2624  17.0391  18.0822  21.0204
    21.9455  24.1133  25.6791

     occupation numbers 
     1.0000   1.0000   1.0000   1.0000   1.0000   1.0000   1.0000   1.0000
     1.0000   1.0000   1.0000   1.0000   1.0000   1.0000   1.0000   1.0000
     1.0000   1.0000   1.0000   0.0000   0.0000   0.0000   0.0000   0.0000
     0.0000   0.0000   0.0000

          k = 0.0000-0.5774 0.1750 (  2116 PWs)   bands (ev):

   -84.9260 -48.2923 -48.2476 -48.0947 -41.8648 -14.1007 -13.8371 -13.7657
    -8.5634  -7.9192   2.9837   4.4163   5.1794   5.8756   6.5536   6.8981
     9.0916   9.4988   9.7756  11.8027  12.2549  16.9658  18.0072  20.3644
    22.6207  24.1306  25.3232

     occupation numbers 
     1.0000   1.0000   1.0000   1.0000   1.0000   1.0000   1.0000   1.0000
     1.0000   1.0000   1.0000   1.0000   1.0000   1.0000   1.0000   1.0000
     1.0000   1.0000   1.0000   0.0000   0.0000   0.0000   0.0000   0.0000
     0.0000   0.0000   0.0000

          k = 0.1250 0.2165 0.0000 (  2101 PWs)   bands (ev):

   -84.9292 -48.2557 -48.2398 -48.1001 -41.8881 -13.9772 -13.8215 -13.7282
    -9.3750  -7.9018   4.1067   4.2470   4.8922   5.9304   6.8089   7.9058
     9.3323   9.6577   9.9093  11.6667  11.9234  14.3026  19.6895  20.7027
    24.1324  24.6303  25.9515

     occupation numbers 
     1.0000   1.0000   1.0000   1.0000   1.0000   1.0000   1.0000   1.0000
     1.0000   1.0000   1.0000   1.0000   1.0000   1.0000   1.0000   1.0000
     1.0000   1.0000   1.0002   0.0000   0.0000   0.0000   0.0000   0.0000
     0.0000   0.0000   0.0000

          k = 0.1250 0.2165 0.1750 (  2101 PWs)   bands (ev):

   -84.9292 -48.2557 -48.2399 -48.1000 -41.8880 -13.9817 -13.8222 -13.7283
    -9.3324  -7.9486   4.0240   4.4090   4.9009   6.0340   6.8030   7.6403
     9.3357   9.5955  10.0343  11.4485  12.0160  14.7784  19.0062  21.0408
    22.9828  25.0140  26.1819

     occupation numbers 
     1.0000   1.0000   1.0000   1.0000   1.0000   1.0000   1.0000   1.0000
     1.0000   1.0000   1.0000   1.0000   1.0000   1.0000   1.0000   1.0000
     1.0000   1.0000   1.0019   0.0001   0.0000   0.0000   0.0000   0.0000
     0.0000   0.0000   0.0000

          k = 0.1250 0.3608 0.0000 (  2106 PWs)   bands (ev):

   -84.9273 -48.2744 -48.2470 -48.0969 -41.8745 -14.0086 -13.8556 -13.7678
    -8.9251  -7.9038   3.8586   4.3725   5.0648   5.3205   6.3373   7.5205
     9.3524   9.7271   9.9063  11.5383  11.8959  15.5058  19.9289  21.6019
    22.4256  23.9459  25.3048

     occupation numbers 
     1.0000   1.0000   1.0000   1.0000   1.0000   1.0000   1.0000   1.0000
     1.0000   1.0000   1.0000   1.0000   1.0000   1.0000   1.0000   1.0000
     1.0000   1.0000   1.0002   0.0000   0.0000   0.0000   0.0000   0.0000
     0.0000   0.0000   0.0000

          k = 0.1250 0.3608 0.1750 (  2102 PWs)   bands (ev):

   -84.9273 -48.2744 -48.2469 -48.0969 -41.8744 -14.0090 -13.8581 -13.7677
    -8.9069  -7.9213   3.7653   4.3250   5.0936   5.5301   6.3389   7.5245
     9.3486   9.7112   9.9088  11.3540  11.9348  15.7156  19.9069  21.0542
    22.1578  24.0075  25.2499

     occupation numbers 
     1.0000   1.0000   1.0000   1.0000   1.0000   1.0000   1.0000   1.0000
     1.0000   1.0000   1.0000   1.0000   1.0000   1.0000   1.0000   1.0000
     1.0000   1.0000   1.0002   0.0005   0.0000   0.0000   0.0000   0.0000
     0.0000   0.0000   0.0000

          k = 0.1250 0.5052 0.0000 (  2104 PWs)   bands (ev):

   -84.9260 -48.2876 -48.2522 -48.0945 -41.8648 -14.0709 -13.8361 -13.7959
    -8.5870  -7.8978   3.2537   4.3716   5.1872   5.7757   6.1422   6.8964
     9.2349   9.5696   9.8761  11.7069  12.0012  16.8755  18.7649  21.3193
    22.3394  23.8651  25.3111

     occupation numbers 
     1.0000   1.0000   1.0000   1.0000   1.0000   1.0000   1.0000   1.0000
     1.0000   1.0000   1.0000   1.0000   1.0000   1.0000   1.0000   1.0000
     1.0000   1.0000   1.0001   0.0000   0.0000   0.0000   0.0000   0.0000
     0.0000   0.0000   0.0000

          k = 0.1250 0.5052 0.1750 (  2107 PWs)   bands (ev):

   -84.9260 -48.2876 -48.2521 -48.0947 -41.8647 -14.0708 -13.8380 -13.7959
    -8.5839  -7.8999   3.2575   4.2796   5.1761   5.8561   6.1517   6.9985
     9.2255   9.5737   9.8556  11.6817  12.0273  16.8900  18.6062  20.7651
    22.5557  23.9004  25.0391

     occupation numbers 
     1.0000   1.0000   1.0000   1.0000   1.0000   1.0000   1.0000   1.0000
     1.0000   1.0000   1.0000   1.0000   1.0000   1.0000   1.0000   1.0000
     1.0000   1.0000   1.0001   0.0000   0.0000   0.0000   0.0000   0.0000
     0.0000   0.0000   0.0000

          k = 0.2500 0.4330 0.0000 (  2095 PWs)   bands (ev):

   -84.9260 -48.2810 -48.2585 -48.0945 -41.8648 -14.0316 -13.8449 -13.8275
    -8.6103  -7.8746   3.6826   4.2150   4.9163   5.6348   6.0259   7.0209
     9.3333   9.6163   9.9995  11.5534  11.8011  16.7921  19.5096  21.5391
    22.6437  23.9524  24.4765

     occupation numbers 
     1.0000   1.0000   1.0000   1.0000   1.0000   1.0000   1.0000   1.0000
     1.0000   1.0000   1.0000   1.0000   1.0000   1.0000   1.0000   1.0000
     1.0000   1.0000   1.0011   0.0000   0.0000   0.0000   0.0000   0.0000
     0.0000   0.0000   0.0000

          k = 0.2500 0.4330 0.1750 (  2101 PWs)   bands (ev):

   -84.9260 -48.2810 -48.2585 -48.0947 -41.8647 -14.0313 -13.8457 -13.8289
    -8.6094  -7.8744   3.6582   4.1558   4.9334   5.7574   6.0191   7.0277
     9.3453   9.6211   9.9420  11.6374  11.8015  16.6298  19.5682  21.3263
    22.2236  23.6125  24.6958

     occupation numbers 
     1.0000   1.0000   1.0000   1.0000   1.0000   1.0000   1.0000   1.0000
     1.0000   1.0000   1.0000   1.0000   1.0000   1.0000   1.0000   1.0000
     1.0000   1.0000   1.0004   0.0000   0.0000   0.0000   0.0000   0.0000
     0.0000   0.0000   0.0000

          k = 0.2500 0.5774 0.0000 (  2102 PWs)   bands (ev):

   -84.9255 -48.2816 -48.2656 -48.0936 -41.8608 -14.0305 -13.8825 -13.8209
    -8.4925  -7.8416   3.5676   4.2076   4.7273   5.8107   6.1883   6.6150
     9.1726   9.7544   9.9523  11.6226  11.7282  17.9339  18.7098  20.9569
    23.1593  23.9742  24.8390

     occupation numbers 
     1.0000   1.0000   1.0000   1.0000   1.0000   1.0000   1.0000   1.0000
     1.0000   1.0000   1.0000   1.0000   1.0000   1.0000   1.0000   1.0000
     1.0000   1.0000   1.0005   0.0000   0.0000   0.0000   0.0000   0.0000
     0.0000   0.0000   0.0000

          k = 0.2500 0.5774 0.1750 (  2105 PWs)   bands (ev):

   -84.9255 -48.2815 -48.2657 -48.0937 -41.8607 -14.0304 -13.8826 -13.8225
    -8.4932  -7.8410   3.5637   4.1903   4.7429   5.8486   6.1677   6.6180
     9.1854   9.7521   9.9222  11.6985  11.8009  17.7480  18.5687  20.7975
    23.0228  23.3226  24.5409

     occupation numbers 
     1.0000   1.0000   1.0000   1.0000   1.0000   1.0000   1.0000   1.0000
     1.0000   1.0000   1.0000   1.0000   1.0000   1.0000   1.0000   1.0000
     1.0000   1.0000   1.0003   0.0000   0.0000   0.0000   0.0000   0.0000
     0.0000   0.0000   0.0000

          k = 0.0000-0.1443 0.1750 (  2102 PWs)   bands (ev):

   -84.9305 -48.2419 -48.2354 -48.1023 -41.8977 -14.0054 -13.7475 -13.7040
    -9.6103  -7.9736   4.0381   4.4201   4.7967   6.8073   7.3416   7.4564
     9.1700   9.3345  10.0350  11.8778  12.2765  14.1505  18.0771  20.1036
    24.2223  26.1240  27.3049

     occupation numbers 
     1.0000   1.0000   1.0000   1.0000   1.0000   1.0000   1.0000   1.0000
     1.0000   1.0000   1.0000   1.0000   1.0000   1.0000   1.0000   1.0000
     1.0000   1.0000   1.0019   0.0000   0.0000   0.0000   0.0000   0.0000
     0.0000   0.0000   0.0000

          k = 0.0000-0.2887 0.1750 (  2100 PWs)   bands (ev):

   -84.9286 -48.2628 -48.2403 -48.0991 -41.8840 -13.9832 -13.8496 -13.7295
    -9.2138  -7.9371   3.9193   4.4133   4.9998   5.6840   6.8779   7.6053
     9.2556   9.6528   9.9663  11.4184  12.1607  14.8018  19.3881  21.2821
    22.5238  24.8816  25.6040

     occupation numbers 
     1.0000   1.0000   1.0000   1.0000   1.0000   1.0000   1.0000   1.0000
     1.0000   1.0000   1.0000   1.0000   1.0000   1.0000   1.0000   1.0000
     1.0000   1.0000   1.0006   0.0001   0.0000   0.0000   0.0000   0.0000
     0.0000   0.0000   0.0000

          k = 0.0000-0.4330 0.1750 (  2109 PWs)   bands (ev):

   -84.9268 -48.2837 -48.2454 -48.0960 -41.8704 -14.0549 -13.8531 -13.7549
    -8.7727  -7.9138   3.3486   4.3467   5.1502   5.7192   6.5922   7.1552
     9.1970   9.5971   9.8255  11.6572  12.2038  15.7196  19.5783  20.5505
    22.6092  24.2334  24.6708

     occupation numbers 
     1.0000   1.0000   1.0000   1.0000   1.0000   1.0000   1.0000   1.0000
     1.0000   1.0000   1.0000   1.0000   1.0000   1.0000   1.0000   1.0000
     1.0000   1.0000   1.0000   0.0000   0.0000   0.0000   0.0000   0.0000
     0.0000   0.0000   0.0000

          k =-0.1250-0.3608 0.1750 (  2102 PWs)   bands (ev):

   -84.9273 -48.2744 -48.2469 -48.0969 -41.8744 -14.0086 -13.8583 -13.7676
    -8.9129  -7.9143   3.7544   4.3171   5.0767   5.5996   6.3263   7.4654
     9.3696   9.7295   9.8379  11.5612  11.8844  15.4935  20.0641  21.1231
    22.5537  23.9945  24.6228

     occupation numbers 
     1.0000   1.0000   1.0000   1.0000   1.0000   1.0000   1.0000   1.0000
     1.0000   1.0000   1.0000   1.0000   1.0000   1.0000   1.0000   1.0000
     1.0000   1.0000   1.0000   0.0000   0.0000   0.0000   0.0000   0.0000
     0.0000   0.0000   0.0000

          k =-0.1250-0.5052 0.1750 (  2107 PWs)   bands (ev):

   -84.9260 -48.2876 -48.2521 -48.0947 -41.8647 -14.0706 -13.8381 -13.7958
    -8.5905  -7.8923   3.2407   4.2915   5.1867   5.8840   6.1528   6.9379
     9.2396   9.5713   9.8375  11.7900  12.0043  16.6193  18.8485  20.8825
    22.7755  23.6168  24.9022

     occupation numbers 
     1.0000   1.0000   1.0000   1.0000   1.0000   1.0000   1.0000   1.0000
     1.0000   1.0000   1.0000   1.0000   1.0000   1.0000   1.0000   1.0000
     1.0000   1.0000   1.0000   0.0000   0.0000   0.0000   0.0000   0.0000
     0.0000   0.0000   0.0000

 ------ SPIN DOWN ----------


          k = 0.0000 0.0000 0.0000 (  2113 PWs)   bands (ev):

   -84.9317 -48.2335 -48.2335 -48.1045 -41.9034 -14.0155 -13.6932 -13.6932
    -9.8407  -7.9002   3.5161   4.7015   4.7015   7.5036   7.9185   7.9185
     8.9637   8.9637   9.8236  12.3529  12.3529  12.8943  18.3033  19.6566
    24.8372  27.2460  27.2460

     occupation numbers 
     1.0000   1.0000   1.0000   1.0000   1.0000   1.0000   1.0000   1.0000
     1.0000   1.0000   1.0000   1.0000   1.0000   1.0000   1.0000   1.0000
     1.0000   1.0000   1.0000   0.0000   0.0000   0.0000   0.0000   0.0000
     0.0000   0.0000   0.0000

          k = 0.0000 0.0000 0.1750 (  2114 PWs)   bands (ev):

   -84.9317 -48.2336 -48.2336 -48.1044 -41.9033 -14.0249 -13.6935 -13.6935
    -9.7651  -7.9910   3.8845   4.7077   4.7077   6.7327   7.9010   7.9010
     8.9649   8.9649   9.9820  12.3683  12.3683  13.7841  17.4590  19.4511
    25.0281  26.8742  26.8742

     occupation numbers 
     1.0000   1.0000   1.0000   1.0000   1.0000   1.0000   1.0000   1.0000
     1.0000   1.0000   1.0000   1.0000   1.0000   1.0000   1.0000   1.0000
     1.0000   1.0000   1.0008   0.0000   0.0000   0.0000   0.0000   0.0000
     0.0000   0.0000   0.0000

          k = 0.0000 0.1443 0.0000 (  2123 PWs)   bands (ev):

   -84.9309 -48.2422 -48.2357 -48.1032 -41.8978 -13.9979 -13.7477 -13.7041
    -9.6730  -7.9001   3.7411   4.4756   4.7908   6.8847   7.4677   7.7817
     9.1973   9.3383   9.8736  11.9263  12.2606  13.4481  18.9104  20.0518
    24.7519  26.1233  26.9363

     occupation numbers 
     1.0000   1.0000   1.0000   1.0000   1.0000   1.0000   1.0000   1.0000
     1.0000   1.0000   1.0000   1.0000   1.0000   1.0000   1.0000   1.0000
     1.0000   1.0000   1.0001   0.0000   0.0000   0.0000   0.0000   0.0000
     0.0000   0.0000   0.0000

          k = 0.0000 0.1443 0.1750 (  2102 PWs)   bands (ev):

   -84.9309 -48.2422 -48.2356 -48.1030 -41.8977 -14.0054 -13.7475 -13.7040
    -9.6094  -7.9745   4.0263   4.4326   4.7965   6.8684   7.2726   7.4575
     9.1733   9.3376  10.0556  11.7977  12.2660  14.2660  18.0253  20.0978
    24.1570  26.1750  27.2547

     occupation numbers 
     1.0000   1.0000   1.0000   1.0000   1.0000   1.0000   1.0000   1.0000
     1.0000   1.0000   1.0000   1.0000   1.0000   1.0000   1.0000   1.0000
     1.0000   1.0000   1.0026   0.0000   0.0000   0.0000   0.0000   0.0000
     0.0000   0.0000   0.0000

          k = 0.0000 0.2887 0.0000 (  2112 PWs)   bands (ev):

   -84.9290 -48.2630 -48.2407 -48.0999 -41.8841 -13.9806 -13.8480 -13.7296
    -9.2450  -7.9044   4.0483   4.3056   4.9950   5.4927   6.8843   7.7959
     9.2926   9.6557   9.9287  11.4356  12.1536  14.5881  19.8015  20.9330
    23.2342  24.5747  25.8200

     occupation numbers 
     1.0000   1.0000   1.0000   1.0000   1.0000   1.0000   1.0000   1.0000
     1.0000   1.0000   1.0000   1.0000   1.0000   1.0000   1.0000   1.0000
     1.0000   1.0000   1.0003   0.0001   0.0000   0.0000   0.0000   0.0000
     0.0000   0.0000   0.0000

          k = 0.0000 0.2887 0.1750 (  2100 PWs)   bands (ev):

   -84.9290 -48.2630 -48.2406 -48.0998 -41.8840 -13.9836 -13.8494 -13.7295
    -9.2077  -7.9443   3.8890   4.4859   4.9995   5.6288   6.8798   7.6554
     9.2451   9.6562  10.0546  11.1450  12.1477  15.1492  19.2007  21.1516
    22.3311  24.3872  26.5166

     occupation numbers 
     1.0000   1.0000   1.0000   1.0000   1.0000   1.0000   1.0000   1.0000
     1.0000   1.0000   1.0000   1.0000   1.0000   1.0000   1.0000   1.0000
     1.0000   1.0000   1.0026   0.0178   0.0000   0.0000   0.0000   0.0000
     0.0000   0.0000   0.0000

          k = 0.0000 0.4330 0.0000 (  2098 PWs)   bands (ev):

   -84.9272 -48.2838 -48.2456 -48.0965 -41.8704 -14.0551 -13.8503 -13.7548
    -8.7740  -7.9153   3.3990   4.4596   5.1467   5.4657   6.5953   7.1716
     9.2033   9.5976   9.8556  11.5992  12.2058  15.9036  19.2957  21.3855
    21.8445  24.1241  25.5857

     occupation numbers 
     1.0000   1.0000   1.0000   1.0000   1.0000   1.0000   1.0000   1.0000
     1.0000   1.0000   1.0000   1.0000   1.0000   1.0000   1.0000   1.0000
     1.0000   1.0000   1.0001   0.0000   0.0000   0.0000   0.0000   0.0000
     0.0000   0.0000   0.0000

          k = 0.0000 0.4330 0.1750 (  2109 PWs)   bands (ev):

   -84.9272 -48.2839 -48.2456 -48.0967 -41.8704 -14.0554 -13.8529 -13.7549
    -8.7603  -7.9280   3.3758   4.3391   5.1499   5.6427   6.5937   7.2708
     9.1828   9.5982   9.8689  11.4237  12.1963  16.1612  19.2296  20.4062
    22.1578  24.1835  25.9601

     occupation numbers 
     1.0000   1.0000   1.0000   1.0000   1.0000   1.0000   1.0000   1.0000
     1.0000   1.0000   1.0000   1.0000   1.0000   1.0000   1.0000   1.0000
     1.0000   1.0000   1.0001   0.0001   0.0000   0.0000   0.0000   0.0000
     0.0000   0.0000   0.0000

          k = 0.0000-0.5774 0.0000 (  2102 PWs)   bands (ev):

   -84.9264 -48.2925 -48.2476 -48.0952 -41.8648 -14.1009 -13.8350 -13.7652
    -8.5620  -7.9224   2.9787   4.5519   5.1764   5.7987   6.5554   6.7466
     9.0998   9.4985   9.7877  11.7894  12.2620  17.0391  18.0822  21.0202
    21.9453  24.1132  25.6790

     occupation numbers 
     1.0000   1.0000   1.0000   1.0000   1.0000   1.0000   1.0000   1.0000
     1.0000   1.0000   1.0000   1.0000   1.0000   1.0000   1.0000   1.0000
     1.0000   1.0000   1.0000   0.0000   0.0000   0.0000   0.0000   0.0000
     0.0000   0.0000   0.0000

          k = 0.0000-0.5774 0.1750 (  2116 PWs)   bands (ev):

   -84.9264 -48.2925 -48.2478 -48.0954 -41.8647 -14.1007 -13.8371 -13.7657
    -8.5635  -7.9190   2.9837   4.4164   5.1791   5.8756   6.5537   6.8982
     9.0912   9.4986   9.7753  11.8023  12.2545  16.9658  18.0072  20.3642
    22.6205  24.1305  25.3232

     occupation numbers 
     1.0000   1.0000   1.0000   1.0000   1.0000   1.0000   1.0000   1.0000
     1.0000   1.0000   1.0000   1.0000   1.0000   1.0000   1.0000   1.0000
     1.0000   1.0000   1.0000   0.0000   0.0000   0.0000   0.0000   0.0000
     0.0000   0.0000   0.0000

          k = 0.1250 0.2165 0.0000 (  2101 PWs)   bands (ev):

   -84.9296 -48.2559 -48.2400 -48.1008 -41.8881 -13.9772 -13.8215 -13.7282
    -9.3750  -7.9016   4.1066   4.2469   4.8921   5.9304   6.8088   7.9059
     9.3320   9.6575   9.9091  11.6664  11.9231  14.3026  19.6893  20.7025
    24.1322  24.6302  25.9513

     occupation numbers 
     1.0000   1.0000   1.0000   1.0000   1.0000   1.0000   1.0000   1.0000
     1.0000   1.0000   1.0000   1.0000   1.0000   1.0000   1.0000   1.0000
     1.0000   1.0000   1.0002   0.0000   0.0000   0.0000   0.0000   0.0000
     0.0000   0.0000   0.0000

          k = 0.1250 0.2165 0.1750 (  2101 PWs)   bands (ev):

   -84.9296 -48.2560 -48.2401 -48.1008 -41.8880 -13.9817 -13.8222 -13.7283
    -9.3324  -7.9484   4.0240   4.4090   4.9008   6.0340   6.8029   7.6404
     9.3354   9.5953  10.0341  11.4482  12.0157  14.7784  19.0061  21.0406
    22.9827  25.0138  26.1816

     occupation numbers 
     1.0000   1.0000   1.0000   1.0000   1.0000   1.0000   1.0000   1.0000
     1.0000   1.0000   1.0000   1.0000   1.0000   1.0000   1.0000   1.0000
     1.0000   1.0000   1.0019   0.0001   0.0000   0.0000   0.0000   0.0000
     0.0000   0.0000   0.0000

          k = 0.1250 0.3608 0.0000 (  2106 PWs)   bands (ev):

   -84.9277 -48.2746 -48.2472 -48.0976 -41.8745 -14.0086 -13.8556 -13.7678
    -8.9251  -7.9036   3.8585   4.3725   5.0646   5.3205   6.3373   7.5206
     9.3521   9.7269   9.9061  11.5379  11.8955  15.5058  19.9288  21.6018
    22.4255  23.9457  25.3045

     occupation numbers 
     1.0000   1.0000   1.0000   1.0000   1.0000   1.0000   1.0000   1.0000
     1.0000   1.0000   1.0000   1.0000   1.0000   1.0000   1.0000   1.0000
     1.0000   1.0000   1.0002   0.0000   0.0000   0.0000   0.0000   0.0000
     0.0000   0.0000   0.0000

          k = 0.1250 0.3608 0.1750 (  2102 PWs)   bands (ev):

   -84.9277 -48.2747 -48.2472 -48.0976 -41.8744 -14.0090 -13.8581 -13.7676
    -8.9069  -7.9211   3.7652   4.3250   5.0934   5.5301   6.3389   7.5247
     9.3483   9.7110   9.9087  11.3536  11.9344  15.7156  19.9068  21.0541
    22.1576  24.0073  25.2498

     occupation numbers 
     1.0000   1.0000   1.0000   1.0000   1.0000   1.0000   1.0000   1.0000
     1.0000   1.0000   1.0000   1.0000   1.0000   1.0000   1.0000   1.0000
     1.0000   1.0000   1.0002   0.0005   0.0000   0.0000   0.0000   0.0000
     0.0000   0.0000   0.0000

          k = 0.1250 0.5052 0.0000 (  2104 PWs)   bands (ev):

   -84.9264 -48.2878 -48.2524 -48.0952 -41.8648 -14.0709 -13.8361 -13.7959
    -8.5870  -7.8975   3.2536   4.3716   5.1871   5.7757   6.1422   6.8965
     9.2346   9.5694   9.8759  11.7065  12.0008  16.8755  18.7649  21.3191
    22.3392  23.8649  25.3110

     occupation numbers 
     1.0000   1.0000   1.0000   1.0000   1.0000   1.0000   1.0000   1.0000
     1.0000   1.0000   1.0000   1.0000   1.0000   1.0000   1.0000   1.0000
     1.0000   1.0000   1.0001   0.0000   0.0000   0.0000   0.0000   0.0000
     0.0000   0.0000   0.0000

          k = 0.1250 0.5052 0.1750 (  2107 PWs)   bands (ev):

   -84.9264 -48.2878 -48.2523 -48.0954 -41.8647 -14.0708 -13.8380 -13.7959
    -8.5839  -7.8996   3.2575   4.2796   5.1760   5.8561   6.1517   6.9986
     9.2251   9.5736   9.8554  11.6813  12.0269  16.8900  18.6062  20.7649
    22.5555  23.9003  25.0389

     occupation numbers 
     1.0000   1.0000   1.0000   1.0000   1.0000   1.0000   1.0000   1.0000
     1.0000   1.0000   1.0000   1.0000   1.0000   1.0000   1.0000   1.0000
     1.0000   1.0000   1.0001   0.0000   0.0000   0.0000   0.0000   0.0000
     0.0000   0.0000   0.0000

          k = 0.2500 0.4330 0.0000 (  2095 PWs)   bands (ev):

   -84.9264 -48.2812 -48.2588 -48.0952 -41.8648 -14.0316 -13.8449 -13.8275
    -8.6104  -7.8743   3.6824   4.2150   4.9162   5.6347   6.0259   7.0209
     9.3330   9.6161   9.9994  11.5529  11.8007  16.7921  19.5095  21.5390
    22.6435  23.9522  24.4764

     occupation numbers 
     1.0000   1.0000   1.0000   1.0000   1.0000   1.0000   1.0000   1.0000
     1.0000   1.0000   1.0000   1.0000   1.0000   1.0000   1.0000   1.0000
     1.0000   1.0000   1.0011   0.0000   0.0000   0.0000   0.0000   0.0000
     0.0000   0.0000   0.0000

          k = 0.2500 0.4330 0.1750 (  2101 PWs)   bands (ev):

   -84.9264 -48.2812 -48.2587 -48.0954 -41.8647 -14.0313 -13.8457 -13.8288
    -8.6095  -7.8742   3.6580   4.1558   4.9333   5.7573   6.0191   7.0277
     9.3450   9.6209   9.9419  11.6369  11.8010  16.6297  19.5681  21.3263
    22.2234  23.6124  24.6957

     occupation numbers 
     1.0000   1.0000   1.0000   1.0000   1.0000   1.0000   1.0000   1.0000
     1.0000   1.0000   1.0000   1.0000   1.0000   1.0000   1.0000   1.0000
     1.0000   1.0000   1.0004   0.0000   0.0000   0.0000   0.0000   0.0000
     0.0000   0.0000   0.0000

          k = 0.2500 0.5774 0.0000 (  2102 PWs)   bands (ev):

   -84.9258 -48.2818 -48.2658 -48.0943 -41.8608 -14.0305 -13.8825 -13.8208
    -8.4925  -7.8413   3.5675   4.2075   4.7273   5.8107   6.1883   6.6151
     9.1722   9.7543   9.9521  11.6221  11.7277  17.9339  18.7098  20.9568
    23.1591  23.9740  24.8384

     occupation numbers 
     1.0000   1.0000   1.0000   1.0000   1.0000   1.0000   1.0000   1.0000
     1.0000   1.0000   1.0000   1.0000   1.0000   1.0000   1.0000   1.0000
     1.0000   1.0000   1.0005   0.0000   0.0000   0.0000   0.0000   0.0000
     0.0000   0.0000   0.0000

          k = 0.2500 0.5774 0.1750 (  2105 PWs)   bands (ev):

   -84.9259 -48.2817 -48.2659 -48.0944 -41.8607 -14.0303 -13.8826 -13.8225
    -8.4933  -7.8408   3.5636   4.1903   4.7429   5.8485   6.1677   6.6181
     9.1851   9.7520   9.9220  11.6980  11.8005  17.7479  18.5686  20.7974
    23.0227  23.3225  24.5407

     occupation numbers 
     1.0000   1.0000   1.0000   1.0000   1.0000   1.0000   1.0000   1.0000
     1.0000   1.0000   1.0000   1.0000   1.0000   1.0000   1.0000   1.0000
     1.0000   1.0000   1.0003   0.0000   0.0000   0.0000   0.0000   0.0000
     0.0000   0.0000   0.0000

          k = 0.0000-0.1443 0.1750 (  2102 PWs)   bands (ev):

   -84.9309 -48.2422 -48.2356 -48.1030 -41.8977 -14.0054 -13.7475 -13.7039
    -9.6102  -7.9734   4.0381   4.4200   4.7966   6.8073   7.3417   7.4564
     9.1696   9.3343  10.0347  11.8776  12.2763  14.1505  18.0769  20.1034
    24.2222  26.1239  27.3047

     occupation numbers 
     1.0000   1.0000   1.0000   1.0000   1.0000   1.0000   1.0000   1.0000
     1.0000   1.0000   1.0000   1.0000   1.0000   1.0000   1.0000   1.0000
     1.0000   1.0000   1.0019   0.0000   0.0000   0.0000   0.0000   0.0000
     0.0000   0.0000   0.0000

          k = 0.0000-0.2887 0.1750 (  2100 PWs)   bands (ev):

   -84.9290 -48.2630 -48.2406 -48.0998 -41.8840 -13.9832 -13.8496 -13.7295
    -9.2137  -7.9369   3.9192   4.4133   4.9996   5.6840   6.8780   7.6054
     9.2553   9.6526   9.9660  11.4181  12.1603  14.8018  19.3879  21.2819
    22.5236  24.8815  25.6038

     occupation numbers 
     1.0000   1.0000   1.0000   1.0000   1.0000   1.0000   1.0000   1.0000
     1.0000   1.0000   1.0000   1.0000   1.0000   1.0000   1.0000   1.0000
     1.0000   1.0000   1.0006   0.0001   0.0000   0.0000   0.0000   0.0000
     0.0000   0.0000   0.0000

          k = 0.0000-0.4330 0.1750 (  2109 PWs)   bands (ev):

   -84.9272 -48.2839 -48.2456 -48.0967 -41.8704 -14.0549 -13.8531 -13.7549
    -8.7727  -7.9135   3.3486   4.3467   5.1499   5.7192   6.5923   7.1553
     9.1966   9.5970   9.8253  11.6569  12.2034  15.7195  19.5783  20.5504
    22.6089  24.2333  24.6707

     occupation numbers 
     1.0000   1.0000   1.0000   1.0000   1.0000   1.0000   1.0000   1.0000
     1.0000   1.0000   1.0000   1.0000   1.0000   1.0000   1.0000   1.0000
     1.0000   1.0000   1.0000   0.0000   0.0000   0.0000   0.0000   0.0000
     0.0000   0.0000   0.0000

          k =-0.1250-0.3608 0.1750 (  2102 PWs)   bands (ev):

   -84.9277 -48.2747 -48.2472 -48.0976 -41.8744 -14.0086 -13.8583 -13.7676
    -8.9128  -7.9141   3.7543   4.3171   5.0766   5.5996   6.3263   7.4655
     9.3693   9.7293   9.8377  11.5608  11.8840  15.4935  20.0640  21.1230
    22.5535  23.9944  24.6227

     occupation numbers 
     1.0000   1.0000   1.0000   1.0000   1.0000   1.0000   1.0000   1.0000
     1.0000   1.0000   1.0000   1.0000   1.0000   1.0000   1.0000   1.0000
     1.0000   1.0000   1.0000   0.0000   0.0000   0.0000   0.0000   0.0000
     0.0000   0.0000   0.0000

          k =-0.1250-0.5052 0.1750 (  2107 PWs)   bands (ev):

   -84.9264 -48.2878 -48.2523 -48.0954 -41.8647 -14.0706 -13.8381 -13.7958
    -8.5906  -7.8920   3.2406   4.2915   5.1865   5.8840   6.1528   6.9380
     9.2392   9.5712   9.8373  11.7896  12.0039  16.6192  18.8484  20.8823
    22.7753  23.6167  24.9021

     occupation numbers 
     1.0000   1.0000   1.0000   1.0000   1.0000   1.0000   1.0000   1.0000
     1.0000   1.0000   1.0000   1.0000   1.0000   1.0000   1.0000   1.0000
     1.0000   1.0000   1.0000   0.0000   0.0000   0.0000   0.0000   0.0000
     0.0000   0.0000   0.0000

     the Fermi energy is    10.8354 ev

     WARNING: integrated charge=    38.00227222, expected=    38.00000000

!    total energy              =    -569.30815432 Ry
     total all-electron energy =     -3412.798710 Ry
     estimated scf accuracy    <       0.00000003 Ry
     smearing contrib. (-TS)   =       0.00003372 Ry
     internal energy E=F+TS    =    -569.30818803 Ry

     The total energy is F=E-TS. E is the sum of the following terms:
     one-electron contribution =    -330.08219702 Ry
     hartree contribution      =     186.76611061 Ry
     xc contribution           =     -60.51048531 Ry
     ewald contribution        =    -243.55911867 Ry
     one-center paw contrib.   =    -121.92249764 Ry
      -> PAW hartree energy AE =     347.57461261 Ry
      -> PAW hartree energy PS =    -347.55104151 Ry
      -> PAW xc energy AE      =    -179.45281250 Ry
      -> PAW xc energy PS      =      57.50674377 Ry
      -> total E_H with PAW    =     186.78968171 Ry
      -> total E_XC with PAW   =    -182.45655405 Ry

     total magnetization       =    -0.00 Bohr mag/cell
     absolute magnetization    =     0.00 Bohr mag/cell

     convergence has been achieved in  19 iterations

     Forces acting on atoms (cartesian axes, Ry/au):

     atom    1 type  1   force =    -0.00000000   -0.00000000    0.11682210
     atom    2 type  2   force =     0.00000000    0.00000000    0.02275538
     atom    3 type  2   force =     0.00000000    0.00000000    0.00776403
     atom    4 type  3   force =     0.00000000    0.00000000   -0.14734151
     The non-local contrib.  to forces
     atom    1 type  1   force =     0.00000000    0.00000000   -0.24864054
     atom    2 type  2   force =     0.00000000    0.00000000   -0.78273528
     atom    3 type  2   force =     0.00000000    0.00000000    0.52343160
     atom    4 type  3   force =     0.00000000    0.00000000   -0.43999223
     The ionic contribution  to forces
     atom    1 type  1   force =    -0.00000000   -0.00000000   15.02495966
     atom    2 type  2   force =     0.00000000   -0.00000000   22.79338106
     atom    3 type  2   force =    -0.00000000    0.00000000  -15.65907185
     atom    4 type  3   force =     0.00000000   -0.00000000  -22.15926887
     The local contribution  to forces
     atom    1 type  1   force =    -0.00000000   -0.00000000  -14.65888499
     atom    2 type  2   force =     0.00000001   -0.00000001  -21.99435775
     atom    3 type  2   force =    -0.00000001    0.00000001   15.14872359
     atom    4 type  3   force =    -0.00000000    0.00000000   22.45109507
     The core correction contribution to forces
     atom    1 type  1   force =     0.00000000   -0.00000000    0.00029573
     atom    2 type  2   force =    -0.00000000    0.00000000    0.00665274
     atom    3 type  2   force =     0.00000000   -0.00000000   -0.00511037
     atom    4 type  3   force =     0.00000000   -0.00000000    0.00030312
     The Hubbard contrib.    to forces
     atom    1 type  1   force =     0.00000000    0.00000000    0.00000000
     atom    2 type  2   force =     0.00000000    0.00000000    0.00000000
     atom    3 type  2   force =     0.00000000    0.00000000    0.00000000
     atom    4 type  3   force =     0.00000000    0.00000000    0.00000000
     The SCF correction term to forces
     atom    1 type  1   force =     0.00000000   -0.00000000   -0.00090253
     atom    2 type  2   force =    -0.00000000    0.00000000   -0.00018016
     atom    3 type  2   force =     0.00000000   -0.00000000   -0.00020370
     atom    4 type  3   force =     0.00000000   -0.00000000    0.00052664

     Total force =     0.189565     Total SCF correction =     0.001080

     Writing all to output data dir ./out/pw.save/ :
     XML data file, charge density, pseudopotentials, collected wavefunctions
 
     init_run     :      9.89s CPU      2.39s WALL (       1 calls)
     electrons    :     95.99s CPU     25.45s WALL (       1 calls)
     forces       :      0.75s CPU      0.56s WALL (       1 calls)

     Called by init_run:
     wfcinit      :      0.26s CPU      0.30s WALL (       1 calls)
     wfcinit:atom :      0.04s CPU      0.04s WALL (      50 calls)
     wfcinit:wfcr :      0.16s CPU      0.19s WALL (      50 calls)
     potinit      :      9.10s CPU      1.54s WALL (       1 calls)
     hinit0       :      0.44s CPU      0.44s WALL (       1 calls)

     Called by electrons:
     c_bands      :     12.46s CPU     12.22s WALL (      19 calls)
     sum_band     :      2.10s CPU      2.07s WALL (      19 calls)
     v_of_rho     :      0.31s CPU      0.15s WALL (      20 calls)
     v_h          :      0.21s CPU      0.03s WALL (      20 calls)
     v_xc         :      0.10s CPU      0.12s WALL (      21 calls)
     newd         :      0.47s CPU      0.35s WALL (      20 calls)
                                        0.35s GPU  (      20 calls)
     PAW_pot      :     83.98s CPU     10.71s WALL (      20 calls)
     mix_rho      :      0.52s CPU      0.49s WALL (      19 calls)

     Called by c_bands:
     init_us_2    :      0.84s CPU      0.79s WALL (    2000 calls)
     cegterg      :     11.02s CPU     10.83s WALL (     950 calls)

     Called by sum_band:
     sum_band:wei :      0.03s CPU      0.03s WALL (      19 calls)
                                        0.03s GPU  (      19 calls)
     sum_band:loo :      1.33s CPU      1.29s WALL (      19 calls)
                                        1.29s GPU  (      19 calls)
     sum_band:buf :      0.14s CPU      0.17s WALL (     950 calls)
                                        0.16s GPU  (     950 calls)
     sum_band:ini :      0.39s CPU      0.39s WALL (     950 calls)
                                        0.38s GPU  (     950 calls)
     sum_band:cal :      0.04s CPU      0.06s WALL (     950 calls)
                                        0.04s GPU  (     950 calls)
     sum_band:bec :      0.21s CPU      0.23s WALL (     950 calls)
                                        0.21s GPU  (     950 calls)
     addusdens    :      0.63s CPU      0.64s WALL (      19 calls)
                                        0.64s GPU  (      19 calls)
     addusd:skk   :      0.00s CPU      0.00s WALL (      57 calls)
                                        0.00s GPU  (      57 calls)

     Called by *egterg:
     cdiaghg      :      3.89s CPU      4.03s WALL (    4450 calls)
                                        3.97s GPU  (    4450 calls)
     cegterg:over :      0.68s CPU      0.70s WALL (    3500 calls)
     cegterg:upda :      0.68s CPU      0.68s WALL (    3500 calls)
     cegterg:last :      0.12s CPU      0.11s WALL (    1829 calls)
     h_psi        :      3.94s CPU      3.77s WALL (    4500 calls)
                                        3.72s GPU  (    4500 calls)
     s_psi        :      0.70s CPU      0.72s WALL (    4500 calls)
     g_psi        :      0.02s CPU      0.08s WALL (    3500 calls)
                                        0.04s GPU  (    3500 calls)

     Called by h_psi:
     h_psi:calbec :      0.13s CPU      0.24s WALL (    4500 calls)
                                        0.18s GPU  (    4500 calls)
     vloc_psi     :      2.71s CPU      2.49s WALL (    4500 calls)
                                        2.43s GPU  (    4500 calls)
     add_vuspsi   :      0.63s CPU      0.73s WALL (    4500 calls)
                                        0.67s GPU  (    4500 calls)

     General routines
     calbec       :      0.14s CPU      0.17s WALL (    5650 calls)
     fft          :      3.07s CPU      0.61s WALL (     513 calls)
                                        0.02s GPU  (     473 calls)
     ffts         :      2.00s CPU      0.36s WALL (     654 calls)
                                        0.01s GPU  (     614 calls)
     fftw         :      0.26s CPU      0.80s WALL (   14816 calls)
                                        0.63s GPU  (   14816 calls)
     interpolate  :      5.17s CPU      0.94s WALL (      40 calls)
 
     Parallel routines

     PAW routines
     PAW_pot      :     83.98s CPU     10.71s WALL (      20 calls)
     PAW_symme    :      0.02s CPU      0.00s WALL (      39 calls)
 
     PWSCF        :   1m47.45s CPU     28.91s WALL

 
   This run was terminated on:   3:49:58  12Jul2026            

=------------------------------------------------------------------------------=
   JOB DONE.
=------------------------------------------------------------------------------=
Warning: ieee_divide_by_zero is signaling
Warning: ieee_inexact is signaling
FORTRAN STOP
