
     Program PWSCF v.7.3.1 starts on 12Jul2026 at  3:53:18 

     This program is part of the open-source Quantum ESPRESSO suite
     for quantum simulation of materials; please cite
         "P. Giannozzi et al., J. Phys.:Condens. Matter 21 395502 (2009);
         "P. Giannozzi et al., J. Phys.:Condens. Matter 29 465901 (2017);
         "P. Giannozzi et al., J. Chem. Phys. 152 154105 (2020);
          URL http://www.quantum-espresso.org", 
     in publications or presentations arising from this work. More details at
     http://www.quantum-espresso.org/quote

     Parallel version (MPI & OpenMP), running on      14 processor cores
     Number of MPI processes:                 1
     Threads/MPI process:                    14

     MPI processes distributed on     1 nodes
     841303 MiB available memory on the printing compute node when the environment starts
 
     Reading input from pw.in

     Current dimensions of program PWSCF are:
     Max number of different atomic species (ntypx) = 10
     Max number of k-points (npk) =  40000
     Max angular momentum in pseudopotentials (lmaxx) =  4
     file Co.pbe-spn-kjpaw_psl.0.3.1.UPF: wavefunction(s)  3P 3D renormalized
     file O.pbe-n-kjpaw_psl.1.0.0.UPF: wavefunction(s)  2S 2P renormalized
 
     Subspace diagonalization in iterative solution of the eigenvalue problem:
     a serial algorithm will be used

 
     G-vector sticks info
     --------------------
     sticks:   dense  smooth     PW     G-vecs:    dense   smooth      PW
     Sum         931     475    151                56785    20183    3305
 
     Using Slab Decomposition
 


     bravais-lattice index     =            4
     lattice parameter (alat)  =       5.3290  a.u.
     unit-cell volume          =     320.6820 (a.u.)^3
     number of atoms/cell      =            4
     number of atomic types    =            3
     number of electrons       =        32.00
     number of Kohn-Sham states=           24
     kinetic-energy cutoff     =      60.0000  Ry
     charge density cutoff     =     480.0000  Ry
     scf convergence threshold =      1.0E-07
     mixing beta               =       0.3000
     number of iterations used =            8  local-TF  mixing
     Exchange-correlation= SLA  PW   PBX  PBC
                           (   1   4   3   4   0   0   0)

     GPU acceleration is ACTIVE.  1 visible GPUs per MPI rank
     GPU-aware MPI enabled


     GPU used by master process:

        Device Number: 0
        Device name: NVIDIA A100-SXM4-80GB
        Compute capability : 80
        Ratio of single to double precision performance  : 2
        Memory Clock Rate (KHz): 1593000
        Memory Bus Width (bits): 5120
        Peak Memory Bandwidth (GB/s): ******

     celldm(1)=   5.329028  celldm(2)=   0.000000  celldm(3)=   2.446809
     celldm(4)=   0.000000  celldm(5)=   0.000000  celldm(6)=   0.000000

     crystal axes: (cart. coord. in units of alat)
               a(1) = (   1.000000   0.000000   0.000000 )  
               a(2) = (  -0.500000   0.866025   0.000000 )  
               a(3) = (   0.000000   0.000000   2.446809 )  

     reciprocal axes: (cart. coord. in units 2 pi/alat)
               b(1) = (  1.000000  0.577350 -0.000000 )  
               b(2) = (  0.000000  1.154701  0.000000 )  
               b(3) = (  0.000000 -0.000000  0.408696 )  


     PseudoPot. # 1 for Co read from file:
     ../../pseudo/Co.pbe-spn-kjpaw_psl.0.3.1.UPF
     MD5 check sum: 3c0a43779828c046024e4f3be63f8e67
     Pseudo is Projector augmented-wave + core cor, Zval = 17.0
     Generated using &quot;atomic&quot; code by A. Dal Corso  v.6.2.2
     Shape of augmentation charge: PSQ
     Using radial grid of 1193 points,  6 beta functions with: 
                l(1) =   0
                l(2) =   0
                l(3) =   1
                l(4) =   1
                l(5) =   2
                l(6) =   2
     Q(r) pseudized with 0 coefficients 


     PseudoPot. # 2 for O  read from file:
     ../../pseudo/O.pbe-n-kjpaw_psl.1.0.0.UPF
     MD5 check sum: e99d9cef9b487d1ca56f5b95ecd0fd7a
     Pseudo is Projector augmented-wave + core cor, Zval =  6.0
     Generated using &quot;atomic&quot; code by A. Dal Corso  v.6.3
     Shape of augmentation charge: PSQ
     Using radial grid of 1095 points,  4 beta functions with: 
                l(1) =   0
                l(2) =   0
                l(3) =   1
                l(4) =   1
     Q(r) pseudized with 0 coefficients 


     PseudoPot. # 3 for Li read from file:
     ../../pseudo/Li.pbe-s-kjpaw_psl.1.0.0.UPF
     MD5 check sum: 3974953fb0fea6c4f83fb01d64ffc134
     Pseudo is Projector augmented-wave, Zval =  3.0
     Generated using &quot;atomic&quot; code by A. Dal Corso  v.6.3
     Shape of augmentation charge: PSQ
     Using radial grid of 1017 points,  4 beta functions with: 
                l(1) =   0
                l(2) =   0
                l(3) =   1
                l(4) =   1
     Q(r) pseudized with 0 coefficients 


     atomic species   valence    mass     pseudopotential
     Co               17.00    58.93300     Co( 1.00)
     O                 6.00    15.99900     O ( 1.00)
     Li                3.00     6.94100     Li( 1.00)

     Starting magnetic structure 
     atomic species   magnetization
     Co              0.300
     O               0.000
     Li              0.000

      6 Sym. Ops. (no inversion) found


                                    s                        frac. trans.

      isym =  1     identity                                     

 cryst.   s( 1) = (     1          0          0      )
                  (     0          1          0      )
                  (     0          0          1      )

 cart.    s( 1) = (  1.0000000  0.0000000  0.0000000 )
                  (  0.0000000  1.0000000  0.0000000 )
                  (  0.0000000  0.0000000  1.0000000 )


      isym =  2     120 deg rotation - cryst. axis [0,0,1]       

 cryst.   s( 2) = (     0          1          0      )
                  (    -1         -1          0      )
                  (     0          0          1      )

 cart.    s( 2) = ( -0.5000000 -0.8660254  0.0000000 )
                  (  0.8660254 -0.5000000  0.0000000 )
                  (  0.0000000  0.0000000  1.0000000 )


      isym =  3     120 deg rotation - cryst. axis [0,0,-1]      

 cryst.   s( 3) = (    -1         -1          0      )
                  (     1          0          0      )
                  (     0          0          1      )

 cart.    s( 3) = ( -0.5000000  0.8660254  0.0000000 )
                  ( -0.8660254 -0.5000000  0.0000000 )
                  (  0.0000000  0.0000000  1.0000000 )


      isym =  4     inv. 180 deg rotation - cart. axis [1,0,0]   

 cryst.   s( 4) = (    -1          0          0      )
                  (     1          1          0      )
                  (     0          0          1      )

 cart.    s( 4) = ( -1.0000000  0.0000000  0.0000000 )
                  (  0.0000000  1.0000000  0.0000000 )
                  (  0.0000000  0.0000000  1.0000000 )


      isym =  5     inv. 180 deg rotation - cryst. axis [0,1,0]  

 cryst.   s( 5) = (     1          1          0      )
                  (     0         -1          0      )
                  (     0          0          1      )

 cart.    s( 5) = (  0.5000000  0.8660254  0.0000000 )
                  (  0.8660254 -0.5000000  0.0000000 )
                  (  0.0000000  0.0000000  1.0000000 )


      isym =  6     inv. 180 deg rotation - cryst. axis [1,1,0]  

 cryst.   s( 6) = (     0         -1          0      )
                  (    -1          0          0      )
                  (     0          0          1      )

 cart.    s( 6) = (  0.5000000 -0.8660254  0.0000000 )
                  ( -0.8660254 -0.5000000  0.0000000 )
                  (  0.0000000  0.0000000  1.0000000 )


     point group C_3v (3m)  
     there are  3 classes
     the character table:

       E     2C3   3s_v 
A_1    1.00  1.00  1.00
A_2    1.00  1.00 -1.00
E      2.00 -1.00  0.00

     the symmetry operations in each class and the name of the first element:

     E        1
          identity                                               
     2C3      2    3
          120 deg rotation - cryst. axis [0,0,1]                 
     3s_v     4    5    6
          inv. 180 deg rotation - cart. axis [1,0,0]             

   Cartesian axes

     site n.     atom                  positions (alat units)
         1        Co     tau(   1) = (   0.0000000   0.0000000   0.0000000  )
         2        O      tau(   2) = (  -0.0000000   0.5773503   0.3404255  )
         3        O      tau(   3) = (   0.5000000   0.2886751   2.1063830  )
         4        Li     tau(   4) = (   0.0000000   0.0000000   1.2765957  )

   Crystallographic axes

     site n.     atom                  positions (cryst. coord.)
         1        Co     tau(   1) = (  0.0000000  0.0000000  0.0000000  )
         2        O      tau(   2) = (  0.3333333  0.6666667  0.1391304  )
         3        O      tau(   3) = (  0.6666667  0.3333333  0.8608696  )
         4        Li     tau(   4) = (  0.0000000  0.0000000  0.5217391  )

     number of k points=    25  Marzari-Vanderbilt smearing, width (Ry)=  0.0200
                       cart. coord. in units 2pi/alat
        k(    1) = (   0.0000000   0.0000000   0.0000000), wk =   0.0052083
        k(    2) = (   0.0000000   0.0000000   0.1362319), wk =   0.0104167
        k(    3) = (   0.0000000   0.1443376   0.0000000), wk =   0.0312500
        k(    4) = (   0.0000000   0.1443376   0.1362319), wk =   0.0312500
        k(    5) = (   0.0000000   0.2886751   0.0000000), wk =   0.0312500
        k(    6) = (   0.0000000   0.2886751   0.1362319), wk =   0.0312500
        k(    7) = (   0.0000000   0.4330127   0.0000000), wk =   0.0312500
        k(    8) = (   0.0000000   0.4330127   0.1362319), wk =   0.0312500
        k(    9) = (   0.0000000  -0.5773503   0.0000000), wk =   0.0156250
        k(   10) = (   0.0000000  -0.5773503   0.1362319), wk =   0.0312500
        k(   11) = (   0.1250000   0.2165064   0.0000000), wk =   0.0312500
        k(   12) = (   0.1250000   0.2165064   0.1362319), wk =   0.0625000
        k(   13) = (   0.1250000   0.3608439   0.0000000), wk =   0.0625000
        k(   14) = (   0.1250000   0.3608439   0.1362319), wk =   0.0625000
        k(   15) = (   0.1250000   0.5051815   0.0000000), wk =   0.0625000
        k(   16) = (   0.1250000   0.5051815   0.1362319), wk =   0.0625000
        k(   17) = (   0.2500000   0.4330127   0.0000000), wk =   0.0312500
        k(   18) = (   0.2500000   0.4330127   0.1362319), wk =   0.0625000
        k(   19) = (   0.2500000   0.5773503   0.0000000), wk =   0.0312500
        k(   20) = (   0.2500000   0.5773503   0.1362319), wk =   0.0625000
        k(   21) = (   0.0000000  -0.1443376   0.1362319), wk =   0.0312500
        k(   22) = (   0.0000000  -0.2886751   0.1362319), wk =   0.0312500
        k(   23) = (   0.0000000  -0.4330127   0.1362319), wk =   0.0312500
        k(   24) = (  -0.1250000  -0.3608439   0.1362319), wk =   0.0625000
        k(   25) = (  -0.1250000  -0.5051815   0.1362319), wk =   0.0625000

                       cryst. coord.
        k(    1) = (   0.0000000   0.0000000   0.0000000), wk =   0.0052083
        k(    2) = (   0.0000000   0.0000000   0.3333333), wk =   0.0104167
        k(    3) = (   0.0000000   0.1250000   0.0000000), wk =   0.0312500
        k(    4) = (   0.0000000   0.1250000   0.3333333), wk =   0.0312500
        k(    5) = (   0.0000000   0.2500000   0.0000000), wk =   0.0312500
        k(    6) = (   0.0000000   0.2500000   0.3333333), wk =   0.0312500
        k(    7) = (   0.0000000   0.3750000   0.0000000), wk =   0.0312500
        k(    8) = (   0.0000000   0.3750000   0.3333333), wk =   0.0312500
        k(    9) = (   0.0000000  -0.5000000   0.0000000), wk =   0.0156250
        k(   10) = (   0.0000000  -0.5000000   0.3333333), wk =   0.0312500
        k(   11) = (   0.1250000   0.1250000   0.0000000), wk =   0.0312500
        k(   12) = (   0.1250000   0.1250000   0.3333333), wk =   0.0625000
        k(   13) = (   0.1250000   0.2500000   0.0000000), wk =   0.0625000
        k(   14) = (   0.1250000   0.2500000   0.3333333), wk =   0.0625000
        k(   15) = (   0.1250000   0.3750000   0.0000000), wk =   0.0625000
        k(   16) = (   0.1250000   0.3750000   0.3333333), wk =   0.0625000
        k(   17) = (   0.2500000   0.2500000   0.0000000), wk =   0.0312500
        k(   18) = (   0.2500000   0.2500000   0.3333333), wk =   0.0625000
        k(   19) = (   0.2500000   0.3750000   0.0000000), wk =   0.0312500
        k(   20) = (   0.2500000   0.3750000   0.3333333), wk =   0.0625000
        k(   21) = (   0.0000000  -0.1250000   0.3333333), wk =   0.0312500
        k(   22) = (   0.0000000  -0.2500000   0.3333333), wk =   0.0312500
        k(   23) = (   0.0000000  -0.3750000   0.3333333), wk =   0.0312500
        k(   24) = (  -0.1250000  -0.2500000   0.3333333), wk =   0.0625000
        k(   25) = (  -0.1250000  -0.3750000   0.3333333), wk =   0.0625000

     Dense  grid:    56785 G-vectors     FFT dimensions: (  40,  40,  96)

     Smooth grid:    20183 G-vectors     FFT dimensions: (  27,  27,  72)

     Dynamical RAM for                 wfc:       0.92 MB

     Dynamical RAM for     wfc (w. buffer):      47.01 MB

     Dynamical RAM for           str. fact:       2.60 MB

     Dynamical RAM for           local pot:       0.00 MB

     Dynamical RAM for          nlocal pot:       1.61 MB

     Dynamical RAM for                qrad:       5.27 MB

     Dynamical RAM for          rho,v,vnew:      12.23 MB

     Dynamical RAM for               rhoin:       4.08 MB

     Dynamical RAM for            rho*nmix:      27.73 MB

     Dynamical RAM for           G-vectors:       3.40 MB

     Dynamical RAM for          h,s,v(r/c):       0.11 MB

     Dynamical RAM for          <psi|beta>:       0.02 MB

     Dynamical RAM for                 psi:       1.84 MB

     Dynamical RAM for                hpsi:       1.84 MB

     Dynamical RAM for                spsi:       1.84 MB

     Dynamical RAM for      wfcinit/wfcrot:       1.86 MB

     Dynamical RAM for           addusdens:     163.76 MB

     Dynamical RAM for          addusforce:     165.51 MB

     Estimated static dynamical RAM per process >      86.70 MB

     Estimated max dynamical RAM per process >     279.94 MB

     Check: negative core charge=   -0.000008
     Generating pointlists ...
     new r_m :   0.2765 (alat units)  1.4733 (a.u.) for type    1
     new r_m :   0.2765 (alat units)  1.4733 (a.u.) for type    2
     new r_m :   0.4125 (alat units)  2.1982 (a.u.) for type    3

     Initial potential from superposition of free atoms

     starting charge      31.9951, renormalised to      32.0000
     Starting wfcs are   23 randomized atomic wfcs +    1 random wfcs
     Checking if some PAW data can be deallocated... 

     total cpu time spent up to now is        3.6 secs

     Self-consistent Calculation
[tb_dev] Currently allocated     6.36E-01 Mbytes, locked:    0 /   6
[tb_pin] Currently allocated     0.00E+00 Mbytes, locked:    0 /   0

     iteration #  1     ecut=    60.00 Ry     beta= 0.30
     Davidson diagonalization with overlap

---- Real-time Memory Report at c_bands before calling an iterative solver
           664 MiB given to the printing process from OS
             0 MiB allocation reported by mallinfo(arena+hblkhd)
        840574 MiB available memory on the node where the printing process lives
     GPU memory used/free/total (MiB): 990 / 80160 / 81151
------------------
     ethr =  1.00E-02,  avg # of iterations =  7.3

     total cpu time spent up to now is        5.4 secs

     total energy              =    -474.80440102 Ry
     estimated scf accuracy    <       1.48365180 Ry

     total magnetization       =     4.07 Bohr mag/cell
     absolute magnetization    =     4.09 Bohr mag/cell
[tb_dev] Currently allocated     3.05E-05 Mbytes, locked:    0 /   2
[tb_pin] Currently allocated     0.00E+00 Mbytes, locked:    0 /   0

     iteration #  2     ecut=    60.00 Ry     beta= 0.30
     Davidson diagonalization with overlap

---- Real-time Memory Report at c_bands before calling an iterative solver
           710 MiB given to the printing process from OS
             0 MiB allocation reported by mallinfo(arena+hblkhd)
        840526 MiB available memory on the node where the printing process lives
     GPU memory used/free/total (MiB): 1004 / 80146 / 81151
------------------
     ethr =  4.64E-03,  avg # of iterations =  1.9

     total cpu time spent up to now is        6.5 secs

     total energy              =    -474.83271524 Ry
     estimated scf accuracy    <       0.48472769 Ry

     total magnetization       =     3.69 Bohr mag/cell
     absolute magnetization    =     3.69 Bohr mag/cell
[tb_dev] Currently allocated     3.05E-05 Mbytes, locked:    0 /   2
[tb_pin] Currently allocated     0.00E+00 Mbytes, locked:    0 /   0

     iteration #  3     ecut=    60.00 Ry     beta= 0.30
     Davidson diagonalization with overlap

---- Real-time Memory Report at c_bands before calling an iterative solver
           713 MiB given to the printing process from OS
             0 MiB allocation reported by mallinfo(arena+hblkhd)
        840525 MiB available memory on the node where the printing process lives
     GPU memory used/free/total (MiB): 1004 / 80146 / 81151
------------------
     ethr =  1.51E-03,  avg # of iterations =  2.0

     total cpu time spent up to now is        7.6 secs

     total energy              =    -474.92401256 Ry
     estimated scf accuracy    <       0.53435064 Ry

     total magnetization       =     1.80 Bohr mag/cell
     absolute magnetization    =     1.86 Bohr mag/cell
[tb_dev] Currently allocated     3.05E-05 Mbytes, locked:    0 /   2
[tb_pin] Currently allocated     0.00E+00 Mbytes, locked:    0 /   0

     iteration #  4     ecut=    60.00 Ry     beta= 0.30
     Davidson diagonalization with overlap

---- Real-time Memory Report at c_bands before calling an iterative solver
           714 MiB given to the printing process from OS
             0 MiB allocation reported by mallinfo(arena+hblkhd)
        840519 MiB available memory on the node where the printing process lives
     GPU memory used/free/total (MiB): 1004 / 80146 / 81151
------------------
     ethr =  1.51E-03,  avg # of iterations =  1.0

     total cpu time spent up to now is        8.6 secs

     total energy              =    -474.95979533 Ry
     estimated scf accuracy    <       0.20677144 Ry

     total magnetization       =     2.31 Bohr mag/cell
     absolute magnetization    =     2.33 Bohr mag/cell
[tb_dev] Currently allocated     3.05E-05 Mbytes, locked:    0 /   2
[tb_pin] Currently allocated     0.00E+00 Mbytes, locked:    0 /   0

     iteration #  5     ecut=    60.00 Ry     beta= 0.30
     Davidson diagonalization with overlap

---- Real-time Memory Report at c_bands before calling an iterative solver
           716 MiB given to the printing process from OS
             0 MiB allocation reported by mallinfo(arena+hblkhd)
        840510 MiB available memory on the node where the printing process lives
     GPU memory used/free/total (MiB): 1004 / 80146 / 81151
------------------
     ethr =  6.46E-04,  avg # of iterations =  1.6

     total cpu time spent up to now is        9.7 secs

     total energy              =    -475.00691522 Ry
     estimated scf accuracy    <       0.07624255 Ry

     total magnetization       =     1.12 Bohr mag/cell
     absolute magnetization    =     1.35 Bohr mag/cell
[tb_dev] Currently allocated     3.05E-05 Mbytes, locked:    0 /   2
[tb_pin] Currently allocated     0.00E+00 Mbytes, locked:    0 /   0

     iteration #  6     ecut=    60.00 Ry     beta= 0.30
     Davidson diagonalization with overlap

---- Real-time Memory Report at c_bands before calling an iterative solver
           717 MiB given to the printing process from OS
             0 MiB allocation reported by mallinfo(arena+hblkhd)
        840483 MiB available memory on the node where the printing process lives
     GPU memory used/free/total (MiB): 1004 / 80146 / 81151
------------------
     ethr =  2.38E-04,  avg # of iterations =  3.1

     total cpu time spent up to now is       10.9 secs

     total energy              =    -474.97999882 Ry
     estimated scf accuracy    <       0.69593672 Ry

     total magnetization       =     0.24 Bohr mag/cell
     absolute magnetization    =     0.88 Bohr mag/cell
[tb_dev] Currently allocated     3.05E-05 Mbytes, locked:    0 /   2
[tb_pin] Currently allocated     0.00E+00 Mbytes, locked:    0 /   0

     iteration #  7     ecut=    60.00 Ry     beta= 0.30
     Davidson diagonalization with overlap

---- Real-time Memory Report at c_bands before calling an iterative solver
           718 MiB given to the printing process from OS
             0 MiB allocation reported by mallinfo(arena+hblkhd)
        840477 MiB available memory on the node where the printing process lives
     GPU memory used/free/total (MiB): 1004 / 80146 / 81151
------------------
     ethr =  2.38E-04,  avg # of iterations =  2.6

     total cpu time spent up to now is       12.1 secs

     total energy              =    -475.04772522 Ry
     estimated scf accuracy    <       0.02110189 Ry

     total magnetization       =     0.24 Bohr mag/cell
     absolute magnetization    =     0.64 Bohr mag/cell
[tb_dev] Currently allocated     3.05E-05 Mbytes, locked:    0 /   2
[tb_pin] Currently allocated     0.00E+00 Mbytes, locked:    0 /   0

     iteration #  8     ecut=    60.00 Ry     beta= 0.30
     Davidson diagonalization with overlap

---- Real-time Memory Report at c_bands before calling an iterative solver
           721 MiB given to the printing process from OS
             0 MiB allocation reported by mallinfo(arena+hblkhd)
        840468 MiB available memory on the node where the printing process lives
     GPU memory used/free/total (MiB): 1004 / 80146 / 81151
------------------
     ethr =  6.59E-05,  avg # of iterations =  5.9

     total cpu time spent up to now is       13.7 secs

     total energy              =    -475.04979313 Ry
     estimated scf accuracy    <       0.00829100 Ry

     total magnetization       =     0.19 Bohr mag/cell
     absolute magnetization    =     0.45 Bohr mag/cell
[tb_dev] Currently allocated     3.05E-05 Mbytes, locked:    0 /   2
[tb_pin] Currently allocated     0.00E+00 Mbytes, locked:    0 /   0

     iteration #  9     ecut=    60.00 Ry     beta= 0.30
     Davidson diagonalization with overlap

---- Real-time Memory Report at c_bands before calling an iterative solver
           722 MiB given to the printing process from OS
             0 MiB allocation reported by mallinfo(arena+hblkhd)
        840472 MiB available memory on the node where the printing process lives
     GPU memory used/free/total (MiB): 1004 / 80146 / 81151
------------------
     c_bands:  1 eigenvalues not converged
     ethr =  2.59E-05,  avg # of iterations =  3.1

     total cpu time spent up to now is       14.9 secs

     total energy              =    -475.05401249 Ry
     estimated scf accuracy    <       0.03626928 Ry

     total magnetization       =     0.06 Bohr mag/cell
     absolute magnetization    =     0.42 Bohr mag/cell
[tb_dev] Currently allocated     3.05E-05 Mbytes, locked:    0 /   2
[tb_pin] Currently allocated     0.00E+00 Mbytes, locked:    0 /   0

     iteration # 10     ecut=    60.00 Ry     beta= 0.30
     Davidson diagonalization with overlap

---- Real-time Memory Report at c_bands before calling an iterative solver
           723 MiB given to the printing process from OS
             0 MiB allocation reported by mallinfo(arena+hblkhd)
        840494 MiB available memory on the node where the printing process lives
     GPU memory used/free/total (MiB): 1004 / 80146 / 81151
------------------
     ethr =  2.59E-05,  avg # of iterations =  1.5

     total cpu time spent up to now is       16.0 secs

     total energy              =    -475.05483614 Ry
     estimated scf accuracy    <       0.00208805 Ry

     total magnetization       =     0.16 Bohr mag/cell
     absolute magnetization    =     0.36 Bohr mag/cell
[tb_dev] Currently allocated     3.05E-05 Mbytes, locked:    0 /   2
[tb_pin] Currently allocated     0.00E+00 Mbytes, locked:    0 /   0

     iteration # 11     ecut=    60.00 Ry     beta= 0.30
     Davidson diagonalization with overlap

---- Real-time Memory Report at c_bands before calling an iterative solver
           723 MiB given to the printing process from OS
             0 MiB allocation reported by mallinfo(arena+hblkhd)
        840513 MiB available memory on the node where the printing process lives
     GPU memory used/free/total (MiB): 1004 / 80146 / 81151
------------------
     c_bands:  1 eigenvalues not converged
     c_bands:  1 eigenvalues not converged
     ethr =  6.53E-06,  avg # of iterations =  3.8

     total cpu time spent up to now is       17.2 secs

     total energy              =    -475.05563058 Ry
     estimated scf accuracy    <       0.00134859 Ry

     total magnetization       =     0.14 Bohr mag/cell
     absolute magnetization    =     0.40 Bohr mag/cell
[tb_dev] Currently allocated     3.05E-05 Mbytes, locked:    0 /   2
[tb_pin] Currently allocated     0.00E+00 Mbytes, locked:    0 /   0

     iteration # 12     ecut=    60.00 Ry     beta= 0.30
     Davidson diagonalization with overlap

---- Real-time Memory Report at c_bands before calling an iterative solver
           723 MiB given to the printing process from OS
             0 MiB allocation reported by mallinfo(arena+hblkhd)
        840487 MiB available memory on the node where the printing process lives
     GPU memory used/free/total (MiB): 1004 / 80146 / 81151
------------------
     ethr =  4.21E-06,  avg # of iterations =  2.1

     total cpu time spent up to now is       18.3 secs

     total energy              =    -475.05582395 Ry
     estimated scf accuracy    <       0.00066175 Ry

     total magnetization       =     0.17 Bohr mag/cell
     absolute magnetization    =     0.40 Bohr mag/cell
[tb_dev] Currently allocated     3.05E-05 Mbytes, locked:    0 /   2
[tb_pin] Currently allocated     0.00E+00 Mbytes, locked:    0 /   0

     iteration # 13     ecut=    60.00 Ry     beta= 0.30
     Davidson diagonalization with overlap

---- Real-time Memory Report at c_bands before calling an iterative solver
           723 MiB given to the printing process from OS
             0 MiB allocation reported by mallinfo(arena+hblkhd)
        840496 MiB available memory on the node where the printing process lives
     GPU memory used/free/total (MiB): 1004 / 80146 / 81151
------------------
     ethr =  2.07E-06,  avg # of iterations =  3.3

     total cpu time spent up to now is       19.6 secs

     total energy              =    -475.05596516 Ry
     estimated scf accuracy    <       0.00001295 Ry

     total magnetization       =     0.17 Bohr mag/cell
     absolute magnetization    =     0.40 Bohr mag/cell
[tb_dev] Currently allocated     3.05E-05 Mbytes, locked:    0 /   2
[tb_pin] Currently allocated     0.00E+00 Mbytes, locked:    0 /   0

     iteration # 14     ecut=    60.00 Ry     beta= 0.30
     Davidson diagonalization with overlap

---- Real-time Memory Report at c_bands before calling an iterative solver
           723 MiB given to the printing process from OS
             0 MiB allocation reported by mallinfo(arena+hblkhd)
        840477 MiB available memory on the node where the printing process lives
     GPU memory used/free/total (MiB): 1004 / 80146 / 81151
------------------
     c_bands:  1 eigenvalues not converged
     ethr =  4.05E-08,  avg # of iterations = 10.9

     total cpu time spent up to now is       21.8 secs

     total energy              =    -475.05601344 Ry
     estimated scf accuracy    <       0.00001181 Ry

     total magnetization       =     0.17 Bohr mag/cell
     absolute magnetization    =     0.40 Bohr mag/cell
[tb_dev] Currently allocated     3.05E-05 Mbytes, locked:    0 /   2
[tb_pin] Currently allocated     0.00E+00 Mbytes, locked:    0 /   0

     iteration # 15     ecut=    60.00 Ry     beta= 0.30
     Davidson diagonalization with overlap

---- Real-time Memory Report at c_bands before calling an iterative solver
           723 MiB given to the printing process from OS
             0 MiB allocation reported by mallinfo(arena+hblkhd)
        840434 MiB available memory on the node where the printing process lives
     GPU memory used/free/total (MiB): 1004 / 80146 / 81151
------------------
     ethr =  3.69E-08,  avg # of iterations =  1.8

     total cpu time spent up to now is       22.9 secs

     total energy              =    -475.05601714 Ry
     estimated scf accuracy    <       0.00000356 Ry

     total magnetization       =     0.17 Bohr mag/cell
     absolute magnetization    =     0.40 Bohr mag/cell
[tb_dev] Currently allocated     3.05E-05 Mbytes, locked:    0 /   2
[tb_pin] Currently allocated     0.00E+00 Mbytes, locked:    0 /   0

     iteration # 16     ecut=    60.00 Ry     beta= 0.30
     Davidson diagonalization with overlap

---- Real-time Memory Report at c_bands before calling an iterative solver
           723 MiB given to the printing process from OS
             0 MiB allocation reported by mallinfo(arena+hblkhd)
        840899 MiB available memory on the node where the printing process lives
     GPU memory used/free/total (MiB): 1004 / 80146 / 81151
------------------
     ethr =  1.11E-08,  avg # of iterations =  4.4

     total cpu time spent up to now is       24.3 secs

     total energy              =    -475.05601844 Ry
     estimated scf accuracy    <       0.00000082 Ry

     total magnetization       =     0.17 Bohr mag/cell
     absolute magnetization    =     0.41 Bohr mag/cell
[tb_dev] Currently allocated     3.05E-05 Mbytes, locked:    0 /   2
[tb_pin] Currently allocated     0.00E+00 Mbytes, locked:    0 /   0

     iteration # 17     ecut=    60.00 Ry     beta= 0.30
     Davidson diagonalization with overlap

---- Real-time Memory Report at c_bands before calling an iterative solver
           723 MiB given to the printing process from OS
             0 MiB allocation reported by mallinfo(arena+hblkhd)
        840700 MiB available memory on the node where the printing process lives
     GPU memory used/free/total (MiB): 1004 / 80146 / 81151
------------------
     ethr =  2.56E-09,  avg # of iterations =  4.4

     total cpu time spent up to now is       25.7 secs

     total energy              =    -475.05601868 Ry
     estimated scf accuracy    <       0.00000052 Ry

     total magnetization       =     0.17 Bohr mag/cell
     absolute magnetization    =     0.41 Bohr mag/cell
[tb_dev] Currently allocated     3.05E-05 Mbytes, locked:    0 /   2
[tb_pin] Currently allocated     0.00E+00 Mbytes, locked:    0 /   0

     iteration # 18     ecut=    60.00 Ry     beta= 0.30
     Davidson diagonalization with overlap

---- Real-time Memory Report at c_bands before calling an iterative solver
           723 MiB given to the printing process from OS
             0 MiB allocation reported by mallinfo(arena+hblkhd)
        840600 MiB available memory on the node where the printing process lives
     GPU memory used/free/total (MiB): 1004 / 80146 / 81151
------------------
     ethr =  1.64E-09,  avg # of iterations =  3.3

     total cpu time spent up to now is       26.9 secs

     total energy              =    -475.05601906 Ry
     estimated scf accuracy    <       0.00000013 Ry

     total magnetization       =     0.17 Bohr mag/cell
     absolute magnetization    =     0.41 Bohr mag/cell
[tb_dev] Currently allocated     3.05E-05 Mbytes, locked:    0 /   2
[tb_pin] Currently allocated     0.00E+00 Mbytes, locked:    0 /   0

     iteration # 19     ecut=    60.00 Ry     beta= 0.30
     Davidson diagonalization with overlap

---- Real-time Memory Report at c_bands before calling an iterative solver
           723 MiB given to the printing process from OS
             0 MiB allocation reported by mallinfo(arena+hblkhd)
        840937 MiB available memory on the node where the printing process lives
     GPU memory used/free/total (MiB): 1004 / 80146 / 81151
------------------
     ethr =  4.09E-10,  avg # of iterations =  3.9
 
     Magnetic moment per site  (integrated on atomic sphere of radius R)
     atom   1 (R=0.276)  charge= 14.0542  magn=  0.2322
     atom   2 (R=0.276)  charge=  5.1707  magn=  0.0171
     atom   3 (R=0.276)  charge=  5.1812  magn=  0.0153
     atom   4 (R=0.413)  charge=  2.2798  magn= -0.0597

     total cpu time spent up to now is       28.3 secs

     End of self-consistent calculation

 ------ SPIN UP ------------


          k = 0.0000 0.0000 0.0000 (  2553 PWs)   bands (ev):

   -88.7437 -52.0194 -51.9566 -51.9566 -41.1105 -13.3240 -11.3613   0.2108
     1.2686   1.2686   3.6731   4.8722   4.8722   5.3077   5.3077   5.6547
     7.0764   9.1863   9.1863  11.0502  14.9864  17.1623  22.0224  22.0225

     occupation numbers 
     1.0000   1.0000   1.0000   1.0000   1.0000   1.0000   1.0000   1.0000
     1.0000   1.0000   1.0000   1.0000   1.0000   1.0000   1.0000   1.0000
     0.0101   0.0000   0.0000   0.0000   0.0000   0.0000   0.0000   0.0000

          k = 0.0000 0.0000 0.1362 (  2534 PWs)   bands (ev):

   -88.7437 -52.0192 -51.9566 -51.9566 -41.1104 -13.3237 -11.3622   0.2842
     1.2687   1.2687   3.2691   4.8722   4.8722   5.3076   5.3076   6.2770
     7.0754   9.1865   9.1865  10.3911  15.7811  16.9279  22.0372  22.0375

     occupation numbers 
     1.0000   1.0000   1.0000   1.0000   1.0000   1.0000   1.0000   1.0000
     1.0000   1.0000   1.0000   1.0000   1.0000   1.0000   1.0000   1.0724
     0.0102   0.0000   0.0000   0.0000   0.0000   0.0000   0.0000   0.0000

          k = 0.0000 0.1443 0.0000 (  2529 PWs)   bands (ev):

   -88.7426 -52.0176 -51.9677 -51.9593 -41.1063 -13.1342 -11.3543   0.4397
     0.9755   1.3797   3.7061   4.1548   4.2336   5.6343   5.7921   5.8557
     7.2358   8.6510   9.0799  11.4039  15.5647  17.9015  20.1030  21.0417

     occupation numbers 
     1.0000   1.0000   1.0000   1.0000   1.0000   1.0000   1.0000   1.0000
     1.0000   1.0000   1.0000   1.0000   1.0000   1.0000   1.0002   1.0006
     0.0007   0.0000   0.0000   0.0000   0.0000   0.0000   0.0000   0.0000

          k = 0.0000 0.1443 0.1362 (  2537 PWs)   bands (ev):

   -88.7426 -52.0176 -51.9677 -51.9593 -41.1064 -13.1338 -11.3552   0.5067
     0.9592   1.3796   3.6857   3.8201   4.2337   5.6133   5.8558   6.3529
     7.1110   8.8315   9.0794  10.8122  16.3314  17.5017  20.0601  21.0369

     occupation numbers 
     1.0000   1.0000   1.0000   1.0000   1.0000   1.0000   1.0000   1.0000
     1.0000   1.0000   1.0000   1.0000   1.0000   1.0000   1.0006   1.0830
     0.0059   0.0000   0.0000   0.0000   0.0000   0.0000   0.0000   0.0000

          k = 0.0000 0.2887 0.0000 (  2521 PWs)   bands (ev):

   -88.7400 -52.0135 -51.9947 -51.9656 -41.0966 -12.6356 -11.3506   0.5644
     1.0467   1.6354   2.1677   3.6039   4.5474   5.7114   6.1437   6.1785
     7.2591   8.2273   8.9469  12.1137  16.2270  17.5574  19.5487  19.5592

     occupation numbers 
     1.0000   1.0000   1.0000   1.0000   1.0000   1.0000   1.0000   1.0000
     1.0000   1.0000   1.0000   1.0000   1.0000   1.0000   1.0294   1.0397
     0.0004   0.0000   0.0000   0.0000   0.0000   0.0000   0.0000   0.0000

          k = 0.0000 0.2887 0.1362 (  2522 PWs)   bands (ev):

   -88.7400 -52.0135 -51.9947 -51.9655 -41.0966 -12.6353 -11.3513   0.5345
     1.1024   1.6352   2.1880   3.6044   4.4065   5.6317   6.1789   6.4512
     6.8812   8.6913   8.9453  11.7381  16.3949  17.8690  18.8412  19.5671

     occupation numbers 
     1.0000   1.0000   1.0000   1.0000   1.0000   1.0000   1.0000   1.0000
     1.0000   1.0000   1.0000   1.0000   1.0000   1.0000   1.0399   1.0313
     0.1151   0.0000   0.0000   0.0000   0.0000   0.0000   0.0000   0.0000

          k = 0.0000 0.4330 0.0000 (  2498 PWs)   bands (ev):

   -88.7374 -52.0218 -52.0091 -51.9719 -41.0867 -12.0390 -11.3946   0.0740
     1.1093   1.8178   2.0935   3.3612   3.9732   5.6281   6.0443   6.2543
     7.7397   8.5840   8.9851  12.9874  14.0152  17.9719  18.5427  18.9965

     occupation numbers 
     1.0000   1.0000   1.0000   1.0000   1.0000   1.0000   1.0000   1.0000
     1.0000   1.0000   1.0000   1.0000   1.0000   1.0000   1.0100   1.0653
     0.0000   0.0000   0.0000   0.0000   0.0000   0.0000   0.0000   0.0000

          k = 0.0000 0.4330 0.1362 (  2508 PWs)   bands (ev):

   -88.7374 -52.0219 -52.0091 -51.9719 -41.0868 -12.0389 -11.3948   0.0582
     1.1066   1.8172   2.1217   3.3624   4.0329   5.5799   6.0445   6.2806
     7.3934   8.9489   8.9821  12.9981  13.8148  18.4857  18.5654  18.8701

     occupation numbers 
     1.0000   1.0000   1.0000   1.0000   1.0000   1.0000   1.0000   1.0000
     1.0000   1.0000   1.0000   1.0000   1.0000   1.0000   1.0101   1.0734
     0.0000   0.0000   0.0000   0.0000   0.0000   0.0000   0.0000   0.0000

          k = 0.0000-0.5774 0.0000 (  2514 PWs)   bands (ev):

   -88.7363 -52.0330 -52.0076 -51.9746 -41.0827 -11.6678 -11.5172  -0.3442
     1.2321   1.8458   2.4032   3.3765   3.5486   5.4729   5.8900   6.2190
     8.4963   8.6035   9.0379  12.5848  14.0872  16.7733  18.1912  19.0034

     occupation numbers 
     1.0000   1.0000   1.0000   1.0000   1.0000   1.0000   1.0000   1.0000
     1.0000   1.0000   1.0000   1.0000   1.0000   1.0000   1.0010   1.0533
     0.0000   0.0000   0.0000   0.0000   0.0000   0.0000   0.0000   0.0000

          k = 0.0000-0.5774 0.1362 (  2506 PWs)   bands (ev):

   -88.7363 -52.0330 -52.0075 -51.9745 -41.0827 -11.6678 -11.5173  -0.3538
     1.2304   1.8452   2.3857   3.3777   3.6475   5.4451   5.8900   6.1991
     8.1280   8.9420   9.0351  12.4438  14.4060  16.6405  18.2190  19.0887

     occupation numbers 
     1.0000   1.0000   1.0000   1.0000   1.0000   1.0000   1.0000   1.0000
     1.0000   1.0000   1.0000   1.0000   1.0000   1.0000   1.0010   1.0465
     0.0000   0.0000   0.0000   0.0000   0.0000   0.0000   0.0000   0.0000

          k = 0.1250 0.2165 0.0000 (  2525 PWs)   bands (ev):

   -88.7408 -52.0147 -51.9856 -51.9650 -41.0994 -12.7896 -11.3483   0.6792
     0.8834   1.5075   2.7315   3.4652   4.5720   5.7582   6.0475   6.1700
     7.3191   8.2128   8.8989  11.9159  16.4255  18.0497  19.0321  19.3451

     occupation numbers 
     1.0000   1.0000   1.0000   1.0000   1.0000   1.0000   1.0000   1.0000
     1.0000   1.0000   1.0000   1.0000   1.0000   1.0001   1.0105   1.0371
     0.0001   0.0000   0.0000   0.0000   0.0000   0.0000   0.0000   0.0000

          k = 0.1250 0.2165 0.1362 (  2531 PWs)   bands (ev):

   -88.7408 -52.0147 -51.9855 -51.9651 -41.0995 -12.7892 -11.3491   0.6573
     0.9431   1.5087   2.7439   3.4643   4.3148   5.7761   6.0648   6.4123
     7.1816   8.5093   8.8394  11.5898  16.8812  18.1038  18.2866  19.6538

     occupation numbers 
     1.0000   1.0000   1.0000   1.0000   1.0000   1.0000   1.0000   1.0000
     1.0000   1.0000   1.0000   1.0000   1.0000   1.0001   1.0129   1.0637
     0.0018   0.0000   0.0000   0.0000   0.0000   0.0000   0.0000   0.0000

          k = 0.1250 0.3608 0.0000 (  2516 PWs)   bands (ev):

   -88.7382 -52.0110 -52.0093 -51.9741 -41.0896 -12.2415 -11.3612   0.4945
     1.0568   1.7187   2.0394   2.9590   4.3533   5.7746   6.1511   6.3533
     7.4620   8.3441   8.8800  12.7412  14.9968  17.1007  18.7582  20.2107

     occupation numbers 
     1.0000   1.0000   1.0000   1.0000   1.0000   1.0000   1.0000   1.0000
     1.0000   1.0000   1.0000   1.0000   1.0000   1.0001   1.0315   1.0829
     0.0000   0.0000   0.0000   0.0000   0.0000   0.0000   0.0000   0.0000

          k = 0.1250 0.3608 0.1362 (  2518 PWs)   bands (ev):

   -88.7382 -52.0111 -52.0093 -51.9741 -41.0897 -12.2411 -11.3618   0.4709
     1.0584   1.7543   2.0589   2.9596   4.3292   5.7631   6.1442   6.3382
     7.2956   8.6463   8.8382  12.6477  14.9319  17.0758  18.9705  20.1380

     occupation numbers 
     1.0000   1.0000   1.0000   1.0000   1.0000   1.0000   1.0000   1.0000
     1.0000   1.0000   1.0000   1.0000   1.0000   1.0001   1.0296   1.0833
     0.0002   0.0000   0.0000   0.0000   0.0000   0.0000   0.0000   0.0000

          k = 0.1250 0.5052 0.0000 (  2507 PWs)   bands (ev):

   -88.7363 -52.0269 -52.0075 -51.9807 -41.0827 -11.7496 -11.4376  -0.0350
     1.0047   1.9808   2.3597   2.8634   3.6596   5.6129   5.9784   6.3419
     8.1751   8.5976   9.1118  12.6622  14.0519  16.8841  17.5548  19.4654

     occupation numbers 
     1.0000   1.0000   1.0000   1.0000   1.0000   1.0000   1.0000   1.0000
     1.0000   1.0000   1.0000   1.0000   1.0000   1.0000   1.0042   1.0833
     0.0000   0.0000   0.0000   0.0000   0.0000   0.0000   0.0000   0.0000

          k = 0.1250 0.5052 0.1362 (  2512 PWs)   bands (ev):

   -88.7363 -52.0269 -52.0076 -51.9807 -41.0827 -11.7496 -11.4377  -0.0455
     0.9994   1.9836   2.3576   2.8659   3.7268   5.5919   5.9841   6.3140
     8.0408   8.7602   9.0574  12.6077  14.0938  16.7963  17.7310  19.6231

     occupation numbers 
     1.0000   1.0000   1.0000   1.0000   1.0000   1.0000   1.0000   1.0000
     1.0000   1.0000   1.0000   1.0000   1.0000   1.0000   1.0045   1.0809
     0.0000   0.0000   0.0000   0.0000   0.0000   0.0000   0.0000   0.0000

          k = 0.2500 0.4330 0.0000 (  2509 PWs)   bands (ev):

   -88.7363 -52.0183 -52.0076 -51.9892 -41.0827 -11.8020 -11.3875   0.5584
     0.6900   1.7746   2.3510   2.5134   3.7893   5.7103   6.0396   6.4963
     7.8946   8.4979   9.2159  12.7792  14.0072  16.0472  19.0624  19.9379

     occupation numbers 
     1.0000   1.0000   1.0000   1.0000   1.0000   1.0000   1.0000   1.0000
     1.0000   1.0000   1.0000   1.0000   1.0000   1.0000   1.0095   0.9706
     0.0000   0.0000   0.0000   0.0000   0.0000   0.0000   0.0000   0.0000

          k = 0.2500 0.4330 0.1362 (  2519 PWs)   bands (ev):

   -88.7363 -52.0184 -52.0077 -51.9893 -41.0827 -11.8017 -11.3879   0.5526
     0.6757   1.7732   2.3863   2.5212   3.7841   5.7187   6.0476   6.4233
     8.1022   8.4557   9.0426  12.7690  14.0825  15.9619  18.8951  20.0053

     occupation numbers 
     1.0000   1.0000   1.0000   1.0000   1.0000   1.0000   1.0000   1.0000
     1.0000   1.0000   1.0000   1.0000   1.0000   1.0000   1.0105   1.0564
     0.0000   0.0000   0.0000   0.0000   0.0000   0.0000   0.0000   0.0000

          k = 0.2500 0.5774 0.0000 (  2514 PWs)   bands (ev):

   -88.7356 -52.0190 -52.0064 -51.9984 -41.0799 -11.5822 -11.4253   0.3904
     0.8030   1.5346   2.5127   2.7886   3.2751   5.4847   6.2218   6.4417
     8.2430   8.4252   9.8542  11.4477  14.9208  15.7638  17.8133  19.6583

     occupation numbers 
     1.0000   1.0000   1.0000   1.0000   1.0000   1.0000   1.0000   1.0000
     1.0000   1.0000   1.0000   1.0000   1.0000   1.0000   1.0542   1.0409
     0.0000   0.0000   0.0000   0.0000   0.0000   0.0000   0.0000   0.0000

          k = 0.2500 0.5774 0.1362 (  2508 PWs)   bands (ev):

   -88.7356 -52.0189 -52.0064 -51.9984 -41.0798 -11.5821 -11.4254   0.3824
     0.7974   1.5292   2.5260   2.7907   3.2966   5.4819   6.2253   6.4098
     8.3825   8.4841   9.6534  11.3301  15.0132  15.7191  17.8961  19.5478

     occupation numbers 
     1.0000   1.0000   1.0000   1.0000   1.0000   1.0000   1.0000   1.0000
     1.0000   1.0000   1.0000   1.0000   1.0000   1.0000   1.0555   1.0652
     0.0000   0.0000   0.0000   0.0000   0.0000   0.0000   0.0000   0.0000

          k = 0.0000-0.1443 0.1362 (  2537 PWs)   bands (ev):

   -88.7426 -52.0176 -51.9678 -51.9593 -41.1064 -13.1338 -11.3553   0.5107
     0.9570   1.3798   3.6249   3.8785   4.2333   5.6131   5.8557   6.3265
     7.2026   8.7006   9.0804  10.9031  16.2522  17.5247  20.2233  21.0480

     occupation numbers 
     1.0000   1.0000   1.0000   1.0000   1.0000   1.0000   1.0000   1.0000
     1.0000   1.0000   1.0000   1.0000   1.0000   1.0000   1.0006   1.0825
     0.0012   0.0000   0.0000   0.0000   0.0000   0.0000   0.0000   0.0000

          k = 0.0000-0.2887 0.1362 (  2522 PWs)   bands (ev):

   -88.7400 -52.0135 -51.9947 -51.9655 -41.0966 -12.6351 -11.3515   0.5494
     1.0923   1.6355   2.1899   3.6036   4.3376   5.6797   6.1787   6.3143
     7.3457   8.2260   8.9469  12.0156  16.1161  18.0387  18.9447  19.5666

     occupation numbers 
     1.0000   1.0000   1.0000   1.0000   1.0000   1.0000   1.0000   1.0000
     1.0000   1.0000   1.0000   1.0000   1.0000   1.0000   1.0398   1.0809
     0.0001   0.0000   0.0000   0.0000   0.0000   0.0000   0.0000   0.0000

          k = 0.0000-0.4330 0.1362 (  2508 PWs)   bands (ev):

   -88.7374 -52.0219 -52.0092 -51.9719 -41.0868 -12.0384 -11.3953   0.0629
     1.1016   1.8176   2.1527   3.3616   3.9408   5.6222   6.0445   6.2166
     7.7882   8.5239   8.9833  13.2624  13.8900  17.7381  18.5629  18.9627

     occupation numbers 
     1.0000   1.0000   1.0000   1.0000   1.0000   1.0000   1.0000   1.0000
     1.0000   1.0000   1.0000   1.0000   1.0000   1.0000   1.0101   1.0525
     0.0000   0.0000   0.0000   0.0000   0.0000   0.0000   0.0000   0.0000

          k =-0.1250-0.3608 0.1362 (  2518 PWs)   bands (ev):

   -88.7382 -52.0110 -52.0094 -51.9741 -41.0897 -12.2409 -11.3620   0.4776
     1.0539   1.7509   2.0716   2.9591   4.2754   5.8079   6.1870   6.2212
     7.6041   8.3258   8.8510  12.8274  14.8928  17.0417  18.9094  19.9041

     occupation numbers 
     1.0000   1.0000   1.0000   1.0000   1.0000   1.0000   1.0000   1.0000
     1.0000   1.0000   1.0000   1.0000   1.0000   1.0002   1.0425   1.0541
     0.0000   0.0000   0.0000   0.0000   0.0000   0.0000   0.0000   0.0000

          k =-0.1250-0.5052 0.1362 (  2512 PWs)   bands (ev):

   -88.7363 -52.0269 -52.0076 -51.9807 -41.0827 -11.7492 -11.4381  -0.0444
     0.9990   1.9778   2.3831   2.8704   3.6792   5.6120   5.9839   6.2894
     8.2633   8.5941   8.9984  12.5743  14.3470  16.7146  17.4455  19.7262

     occupation numbers 
     1.0000   1.0000   1.0000   1.0000   1.0000   1.0000   1.0000   1.0000
     1.0000   1.0000   1.0000   1.0000   1.0000   1.0000   1.0045   1.0757
     0.0000   0.0000   0.0000   0.0000   0.0000   0.0000   0.0000   0.0000

 ------ SPIN DOWN ----------


          k = 0.0000 0.0000 0.0000 (  2553 PWs)   bands (ev):

   -88.4614 -51.7072 -51.7072 -51.6927 -41.1569 -13.2946 -11.3301   0.2740
     1.3441   1.3441   3.7057   4.8959   4.8959   5.4441   5.5627   5.5627
     7.1974   9.2989   9.2990  10.9500  14.9660  17.1768  21.9122  21.9135

     occupation numbers 
     1.0000   1.0000   1.0000   1.0000   1.0000   1.0000   1.0000   1.0000
     1.0000   1.0000   1.0000   1.0000   1.0000   1.0000   1.0000   1.0000
     0.0014   0.0000   0.0000   0.0000   0.0000   0.0000   0.0000   0.0000

          k = 0.0000 0.0000 0.1362 (  2534 PWs)   bands (ev):

   -88.4613 -51.7072 -51.7072 -51.6925 -41.1568 -13.2942 -11.3311   0.3645
     1.3442   1.3442   3.2005   4.8959   4.8959   5.5627   5.5627   6.2819
     7.0560   9.2993   9.2993  10.3007  15.7720  16.9384  21.9263  21.9275

     occupation numbers 
     1.0000   1.0000   1.0000   1.0000   1.0000   1.0000   1.0000   1.0000
     1.0000   1.0000   1.0000   1.0000   1.0000   1.0000   1.0000   1.0737
     0.0136   0.0000   0.0000   0.0000   0.0000   0.0000   0.0000   0.0000

          k = 0.0000 0.1443 0.0000 (  2529 PWs)   bands (ev):

   -88.4602 -51.7184 -51.7098 -51.6908 -41.1526 -13.1047 -11.3229   0.5032
     1.0441   1.4525   3.7635   4.1920   4.3164   5.6300   5.8606   6.0589
     7.3002   8.7537   9.1904  11.3148  15.5453  17.9156  19.9206  20.8613

     occupation numbers 
     1.0000   1.0000   1.0000   1.0000   1.0000   1.0000   1.0000   1.0000
     1.0000   1.0000   1.0000   1.0000   1.0000   1.0000   1.0006   1.0120
     0.0002   0.0000   0.0000   0.0000   0.0000   0.0000   0.0000   0.0000

          k = 0.0000 0.1443 0.1362 (  2537 PWs)   bands (ev):

   -88.4602 -51.7184 -51.7099 -51.6908 -41.1527 -13.1043 -11.3240   0.5852
     1.0241   1.4525   3.6854   3.8240   4.3165   5.8233   6.0590   6.3966
     7.0759   8.9259   9.1900  10.7215  16.3208  17.5122  19.8707  20.8569

     occupation numbers 
     1.0000   1.0000   1.0000   1.0000   1.0000   1.0000   1.0000   1.0000
     1.0000   1.0000   1.0000   1.0000   1.0000   1.0003   1.0120   1.0721
     0.0101   0.0000   0.0000   0.0000   0.0000   0.0000   0.0000   0.0000

          k = 0.0000 0.2887 0.0000 (  2521 PWs)   bands (ev):

   -88.4576 -51.7458 -51.7162 -51.6866 -41.1426 -12.6059 -11.3188   0.6255
     1.1087   1.7029   2.2214   3.6803   4.5876   5.9428   6.1420   6.4033
     7.2097   8.2844   9.0540  12.0251  16.0370  17.4342  19.3285  19.5643

     occupation numbers 
     1.0000   1.0000   1.0000   1.0000   1.0000   1.0000   1.0000   1.0000
     1.0000   1.0000   1.0000   1.0000   1.0000   1.0025   1.0290   1.0688
     0.0011   0.0000   0.0000   0.0000   0.0000   0.0000   0.0000   0.0000

          k = 0.0000 0.2887 0.1362 (  2522 PWs)   bands (ev):

   -88.4576 -51.7458 -51.7162 -51.6866 -41.1426 -12.6055 -11.3195   0.5893
     1.1759   1.7028   2.2492   3.6808   4.3959   5.8152   6.4037   6.5891
     6.8287   8.7046   9.0523  11.6426  16.1534  17.8267  18.8051  19.3366

     occupation numbers 
     1.0000   1.0000   1.0000   1.0000   1.0000   1.0000   1.0000   1.0000
     1.0000   1.0000   1.0000   1.0000   1.0000   1.0003   1.0686   0.7729
     0.1879   0.0000   0.0000   0.0000   0.0000   0.0000   0.0000   0.0000

          k = 0.0000 0.4330 0.0000 (  2498 PWs)   bands (ev):

   -88.4549 -51.7731 -51.7226 -51.6822 -41.1325 -12.0090 -11.3625   0.1302
     1.1474   1.8867   2.1665   3.4080   4.0111   5.8952   6.3010   6.5193
     7.4529   8.5932   9.0951  12.8286  13.7618  17.9436  18.2924  18.9274

     occupation numbers 
     1.0000   1.0000   1.0000   1.0000   1.0000   1.0000   1.0000   1.0000
     1.0000   1.0000   1.0000   1.0000   1.0000   1.0011   1.0785   0.9303
     0.0000   0.0000   0.0000   0.0000   0.0000   0.0000   0.0000   0.0000

          k = 0.0000 0.4330 0.1362 (  2508 PWs)   bands (ev):

   -88.4550 -51.7732 -51.7226 -51.6823 -41.1325 -12.0088 -11.3627   0.1122
     1.1436   1.8861   2.2021   3.4093   4.0802   5.8166   6.3012   6.5679
     7.1441   8.9175   9.0919  12.8679  13.5369  18.3146  18.4349  18.8566

     occupation numbers 
     1.0000   1.0000   1.0000   1.0000   1.0000   1.0000   1.0000   1.0000
     1.0000   1.0000   1.0000   1.0000   1.0000   1.0003   1.0785   0.8254
     0.0034   0.0000   0.0000   0.0000   0.0000   0.0000   0.0000   0.0000

          k = 0.0000-0.5774 0.0000 (  2514 PWs)   bands (ev):

   -88.4539 -51.7845 -51.7253 -51.6807 -41.1284 -11.6381 -11.4845  -0.2914
     1.2600   1.9185   2.4962   3.4005   3.5666   5.7716   6.1655   6.4978
     8.1097   8.6729   9.1509  12.2397  14.0451  16.6644  17.9357  19.0041

     occupation numbers 
     1.0000   1.0000   1.0000   1.0000   1.0000   1.0000   1.0000   1.0000
     1.0000   1.0000   1.0000   1.0000   1.0000   1.0001   1.0357   0.9682
     0.0000   0.0000   0.0000   0.0000   0.0000   0.0000   0.0000   0.0000

          k = 0.0000-0.5774 0.1362 (  2506 PWs)   bands (ev):

   -88.4539 -51.7844 -51.7253 -51.6806 -41.1284 -11.6380 -11.4845  -0.3021
     1.2576   1.9178   2.4752   3.4018   3.6824   5.7297   6.1655   6.4736
     7.8662   8.8984   9.1478  12.1075  14.3588  16.5366  17.9625  19.0321

     occupation numbers 
     1.0000   1.0000   1.0000   1.0000   1.0000   1.0000   1.0000   1.0000
     1.0000   1.0000   1.0000   1.0000   1.0000   1.0000   1.0357   1.0044
     0.0000   0.0000   0.0000   0.0000   0.0000   0.0000   0.0000   0.0000

          k = 0.1250 0.2165 0.0000 (  2525 PWs)   bands (ev):

   -88.4584 -51.7365 -51.7157 -51.6878 -41.1455 -12.7600 -11.3166   0.7401
     0.9495   1.5745   2.7830   3.5492   4.6101   5.9248   6.0754   6.3656
     7.2887   8.3192   8.9924  11.8291  16.3950  17.7215  18.9215  19.3188

     occupation numbers 
     1.0000   1.0000   1.0000   1.0000   1.0000   1.0000   1.0000   1.0000
     1.0000   1.0000   1.0000   1.0000   1.0000   1.0019   1.0145   1.0815
     0.0002   0.0000   0.0000   0.0000   0.0000   0.0000   0.0000   0.0000

          k = 0.1250 0.2165 0.1362 (  2531 PWs)   bands (ev):

   -88.4584 -51.7365 -51.7157 -51.6878 -41.1456 -12.7595 -11.3176   0.7127
     1.0228   1.5762   2.8009   3.5475   4.2781   6.0312   6.1590   6.6129
     7.0923   8.5804   8.9308  11.5005  16.8368  17.7588  18.2791  19.5491

     occupation numbers 
     1.0000   1.0000   1.0000   1.0000   1.0000   1.0000   1.0000   1.0000
     1.0000   1.0000   1.0000   1.0000   1.0000   1.0085   1.0338   0.7105
     0.0079   0.0000   0.0000   0.0000   0.0000   0.0000   0.0000   0.0000

          k = 0.1250 0.3608 0.0000 (  2516 PWs)   bands (ev):

   -88.4557 -51.7611 -51.7249 -51.6836 -41.1355 -12.2115 -11.3292   0.5528
     1.1062   1.7846   2.0983   3.0255   4.3969   6.0304   6.4124   6.5517
     7.2085   8.4277   8.9312  12.6402  14.6439  16.9529  18.7217  20.1485

     occupation numbers 
     1.0000   1.0000   1.0000   1.0000   1.0000   1.0000   1.0000   1.0000
     1.0000   1.0000   1.0000   1.0000   1.0000   1.0084   1.0636   0.8629
     0.0011   0.0000   0.0000   0.0000   0.0000   0.0000   0.0000   0.0000

          k = 0.1250 0.3608 0.1362 (  2518 PWs)   bands (ev):

   -88.4557 -51.7611 -51.7249 -51.6836 -41.1355 -12.2111 -11.3298   0.5249
     1.1079   1.8258   2.1256   3.0262   4.3622   5.9929   6.3475   6.6012
     7.1054   8.7541   8.8256  12.5501  14.5738  16.9234  18.9749  20.0855

     occupation numbers 
     1.0000   1.0000   1.0000   1.0000   1.0000   1.0000   1.0000   1.0000
     1.0000   1.0000   1.0000   1.0000   1.0000   1.0051   1.0832   0.7417
     0.0065   0.0000   0.0000   0.0000   0.0000   0.0000   0.0000   0.0000

          k = 0.1250 0.5052 0.0000 (  2507 PWs)   bands (ev):

   -88.4539 -51.7783 -51.7316 -51.6805 -41.1284 -11.7195 -11.4053   0.0178
     1.0476   2.0401   2.4344   2.9082   3.6950   5.9326   6.2452   6.5870
     7.9414   8.6777   9.0653  12.2828  13.9891  16.7020  17.4538  19.4598

     occupation numbers 
     1.0000   1.0000   1.0000   1.0000   1.0000   1.0000   1.0000   1.0000
     1.0000   1.0000   1.0000   1.0000   1.0000   1.0021   1.0623   0.7782
     0.0000   0.0000   0.0000   0.0000   0.0000   0.0000   0.0000   0.0000

          k = 0.1250 0.5052 0.1362 (  2512 PWs)   bands (ev):

   -88.4539 -51.7783 -51.7316 -51.6806 -41.1284 -11.7194 -11.4054   0.0062
     1.0413   2.0431   2.4322   2.9112   3.7736   5.8975   6.2545   6.5499
     7.8356   8.8683   8.9663  12.2295  14.0324  16.6187  17.6326  19.6473

     occupation numbers 
     1.0000   1.0000   1.0000   1.0000   1.0000   1.0000   1.0000   1.0000
     1.0000   1.0000   1.0000   1.0000   1.0000   1.0012   1.0654   0.8669
     0.0000   0.0000   0.0000   0.0000   0.0000   0.0000   0.0000   0.0000

          k = 0.2500 0.4330 0.0000 (  2509 PWs)   bands (ev):

   -88.4539 -51.7697 -51.7402 -51.6805 -41.1284 -11.7719 -11.3551   0.6077
     0.7457   1.8168   2.4170   2.5754   3.8388   6.0466   6.3010   6.7203
     7.7277   8.6161   9.0654  12.3495  13.9242  15.9234  18.9743  19.9528

     occupation numbers 
     1.0000   1.0000   1.0000   1.0000   1.0000   1.0000   1.0000   1.0000
     1.0000   1.0000   1.0000   1.0000   1.0000   1.0103   1.0785   0.4188
     0.0000   0.0000   0.0000   0.0000   0.0000   0.0000   0.0000   0.0000

          k = 0.2500 0.4330 0.1362 (  2519 PWs)   bands (ev):

   -88.4539 -51.7698 -51.7403 -51.6806 -41.1284 -11.7715 -11.3555   0.6014
     0.7289   1.8154   2.4574   2.5868   3.8308   6.0580   6.3113   6.6103
     7.9526   8.5649   8.9148  12.3331  14.0055  15.8432  18.8351  19.9324

     occupation numbers 
     1.0000   1.0000   1.0000   1.0000   1.0000   1.0000   1.0000   1.0000
     1.0000   1.0000   1.0000   1.0000   1.0000   1.0119   1.0805   0.7174
     0.0000   0.0000   0.0000   0.0000   0.0000   0.0000   0.0000   0.0000

          k = 0.2500 0.5774 0.0000 (  2514 PWs)   bands (ev):

   -88.4531 -51.7704 -51.7495 -51.6794 -41.1254 -11.5523 -11.3925   0.4417
     0.8543   1.5764   2.5657   2.8610   3.3142   5.8497   6.4677   6.6796
     8.2425   8.5267   9.5219  11.0254  14.8611  15.6592  17.6880  19.5603

     occupation numbers 
     1.0000   1.0000   1.0000   1.0000   1.0000   1.0000   1.0000   1.0000
     1.0000   1.0000   1.0000   1.0000   1.0000   1.0005   1.0121   0.5270
     0.0000   0.0000   0.0000   0.0000   0.0000   0.0000   0.0000   0.0000

          k = 0.2500 0.5774 0.1362 (  2508 PWs)   bands (ev):

   -88.4531 -51.7703 -51.7495 -51.6794 -41.1254 -11.5523 -11.3925   0.4328
     0.8479   1.5707   2.5804   2.8628   3.3394   5.8458   6.4736   6.6380
     8.4414   8.6038   9.2648  10.8952  14.9505  15.6219  17.7792  19.4672

     occupation numbers 
     1.0000   1.0000   1.0000   1.0000   1.0000   1.0000   1.0000   1.0000
     1.0000   1.0000   1.0000   1.0000   1.0000   1.0005   1.0044   0.6420
     0.0000   0.0000   0.0000   0.0000   0.0000   0.0000   0.0000   0.0000

          k = 0.0000-0.1443 0.1362 (  2537 PWs)   bands (ev):

   -88.4602 -51.7185 -51.7099 -51.6908 -41.1527 -13.1043 -11.3240   0.5901
     1.0214   1.4526   3.6097   3.8986   4.3160   5.8133   6.0589   6.3906
     7.1439   8.8002   9.1910  10.8185  16.2372  17.5372  20.0365  20.8669

     occupation numbers 
     1.0000   1.0000   1.0000   1.0000   1.0000   1.0000   1.0000   1.0000
     1.0000   1.0000   1.0000   1.0000   1.0000   1.0003   1.0120   1.0746
     0.0034   0.0000   0.0000   0.0000   0.0000   0.0000   0.0000   0.0000

          k = 0.0000-0.2887 0.1362 (  2522 PWs)   bands (ev):

   -88.4576 -51.7458 -51.7162 -51.6866 -41.1426 -12.6054 -11.3198   0.6059
     1.1647   1.7031   2.2517   3.6799   4.3152   5.8778   6.4035   6.4669
     7.2325   8.2760   9.0540  11.9257  15.9181  17.9336  18.9195  19.3353

     occupation numbers 
     1.0000   1.0000   1.0000   1.0000   1.0000   1.0000   1.0000   1.0000
     1.0000   1.0000   1.0000   1.0000   1.0000   1.0008   1.0687   1.0131
     0.0007   0.0000   0.0000   0.0000   0.0000   0.0000   0.0000   0.0000

          k = 0.0000-0.4330 0.1362 (  2508 PWs)   bands (ev):

   -88.4550 -51.7732 -51.7226 -51.6823 -41.1325 -12.0083 -11.3633   0.1171
     1.1382   1.8865   2.2406   3.4084   3.9670   5.8717   6.3013   6.4691
     7.5221   8.5463   9.0933  13.0574  13.6905  17.6893  18.3117  18.8781

     occupation numbers 
     1.0000   1.0000   1.0000   1.0000   1.0000   1.0000   1.0000   1.0000
     1.0000   1.0000   1.0000   1.0000   1.0000   1.0008   1.0785   1.0103
     0.0000   0.0000   0.0000   0.0000   0.0000   0.0000   0.0000   0.0000

          k =-0.1250-0.3608 0.1362 (  2518 PWs)   bands (ev):

   -88.4557 -51.7611 -51.7249 -51.6836 -41.1355 -12.2109 -11.3300   0.5322
     1.1028   1.8213   2.1422   3.0255   4.2957   6.0737   6.3269   6.4949
     7.3963   8.4076   8.9082  12.7279  14.5468  16.8787  18.9001  19.8526

     occupation numbers 
     1.0000   1.0000   1.0000   1.0000   1.0000   1.0000   1.0000   1.0000
     1.0000   1.0000   1.0000   1.0000   1.0000   1.0143   1.0825   0.9730
     0.0000   0.0000   0.0000   0.0000   0.0000   0.0000   0.0000   0.0000

          k =-0.1250-0.5052 0.1362 (  2512 PWs)   bands (ev):

   -88.4539 -51.7783 -51.7316 -51.6806 -41.1284 -11.7190 -11.4058   0.0073
     1.0410   2.0366   2.4628   2.9172   3.7161   5.9258   6.2509   6.5160
     8.0214   8.6681   8.9905  12.1955  14.2833  16.5454  17.3459  19.7038

     occupation numbers 
     1.0000   1.0000   1.0000   1.0000   1.0000   1.0000   1.0000   1.0000
     1.0000   1.0000   1.0000   1.0000   1.0000   1.0019   1.0642   0.9365
     0.0000   0.0000   0.0000   0.0000   0.0000   0.0000   0.0000   0.0000

     the Fermi energy is     6.7275 ev

!    total energy              =    -475.05601916 Ry
     total all-electron energy =     -3102.928157 Ry
     estimated scf accuracy    <       0.00000001 Ry
     smearing contrib. (-TS)   =       0.00587765 Ry
     internal energy E=F+TS    =    -475.06189681 Ry

     The total energy is F=E-TS. E is the sum of the following terms:
     one-electron contribution =    -478.67021595 Ry
     hartree contribution      =     251.35173279 Ry
     xc contribution           =     -49.03849432 Ry
     ewald contribution        =     -92.01107445 Ry
     one-center paw contrib.   =    -106.69384486 Ry
      -> PAW hartree energy AE =     279.80871599 Ry
      -> PAW hartree energy PS =    -278.44894311 Ry
      -> PAW xc energy AE      =    -154.25141544 Ry
      -> PAW xc energy PS      =      46.19779770 Ry
      -> total E_H with PAW    =     252.71150566 Ry
      -> total E_XC with PAW   =    -157.09211206 Ry

     total magnetization       =     0.17 Bohr mag/cell
     absolute magnetization    =     0.41 Bohr mag/cell

     convergence has been achieved in  19 iterations

     Forces acting on atoms (cartesian axes, Ry/au):

     atom    1 type  1   force =     0.00000000    0.00000000    0.01132823
     atom    2 type  2   force =     0.00000000    0.00000000    0.02369478
     atom    3 type  2   force =     0.00000000    0.00000000   -0.04500429
     atom    4 type  3   force =     0.00000000    0.00000000    0.00998128
     The non-local contrib.  to forces
     atom    1 type  1   force =    -0.00000000   -0.00000000    0.01422787
     atom    2 type  2   force =     0.00000000    0.00000000   -0.88887952
     atom    3 type  2   force =     0.00000000    0.00000000    0.72375862
     atom    4 type  3   force =     0.00000000    0.00000000   -0.00223572
     The ionic contribution  to forces
     atom    1 type  1   force =    -0.00000000   -0.00000000    1.15032118
     atom    2 type  2   force =     0.00000000   -0.00000000   33.00394986
     atom    3 type  2   force =    -0.00000000    0.00000000  -32.23942492
     atom    4 type  3   force =     0.00000000   -0.00000000   -1.91484612
     The local contribution  to forces
     atom    1 type  1   force =    -0.00000000   -0.00000000   -1.15309950
     atom    2 type  2   force =     0.00000001   -0.00000001  -32.09855663
     atom    3 type  2   force =    -0.00000001    0.00000001   31.47619023
     atom    4 type  3   force =    -0.00000000   -0.00000000    1.92706697
     The core correction contribution to forces
     atom    1 type  1   force =    -0.00000000    0.00000000   -0.00019852
     atom    2 type  2   force =    -0.00000000    0.00000000    0.00719139
     atom    3 type  2   force =     0.00000000   -0.00000000   -0.00555073
     atom    4 type  3   force =     0.00000000    0.00000000    0.00000000
     The Hubbard contrib.    to forces
     atom    1 type  1   force =     0.00000000    0.00000000    0.00000000
     atom    2 type  2   force =     0.00000000    0.00000000    0.00000000
     atom    3 type  2   force =     0.00000000    0.00000000    0.00000000
     atom    4 type  3   force =     0.00000000    0.00000000    0.00000000
     The SCF correction term to forces
     atom    1 type  1   force =     0.00000000   -0.00000000    0.00007431
     atom    2 type  2   force =     0.00000000   -0.00000000   -0.00001321
     atom    3 type  2   force =    -0.00000000    0.00000000    0.00001964
     atom    4 type  3   force =     0.00000000   -0.00000000   -0.00000674

     Total force =     0.053055     Total SCF correction =     0.000078

     Writing all to output data dir ./out/pw.save/ :
     XML data file, charge density, pseudopotentials, collected wavefunctions
 
     init_run     :     13.36s CPU      3.17s WALL (       1 calls)
     electrons    :     92.82s CPU     24.73s WALL (       1 calls)
     forces       :      0.55s CPU      0.52s WALL (       1 calls)

     Called by init_run:
     wfcinit      :      0.25s CPU      0.31s WALL (       1 calls)
     wfcinit:atom :      0.04s CPU      0.04s WALL (      50 calls)
     wfcinit:wfcr :      0.16s CPU      0.20s WALL (      50 calls)
     potinit      :     12.61s CPU      2.33s WALL (       1 calls)
     hinit0       :      0.41s CPU      0.40s WALL (       1 calls)

     Called by electrons:
     c_bands      :     11.62s CPU     11.68s WALL (      19 calls)
     sum_band     :      2.04s CPU      2.06s WALL (      19 calls)
     v_of_rho     :      0.30s CPU      0.18s WALL (      20 calls)
     v_h          :      0.21s CPU      0.03s WALL (      20 calls)
     v_xc         :      0.10s CPU      0.15s WALL (      21 calls)
     newd         :      0.47s CPU      0.36s WALL (      20 calls)
                                        0.36s GPU  (      20 calls)
     PAW_pot      :     81.87s CPU     10.50s WALL (      20 calls)
     mix_rho      :      0.53s CPU      0.52s WALL (      19 calls)

     Called by c_bands:
     init_us_2    :      0.80s CPU      0.79s WALL (    2000 calls)
     cegterg      :     10.21s CPU     10.22s WALL (     950 calls)

     Called by sum_band:
     sum_band:wei :      0.03s CPU      0.03s WALL (      19 calls)
                                        0.03s GPU  (      19 calls)
     sum_band:loo :      1.27s CPU      1.28s WALL (      19 calls)
                                        1.28s GPU  (      19 calls)
     sum_band:buf :      0.14s CPU      0.17s WALL (     950 calls)
                                        0.15s GPU  (     950 calls)
     sum_band:ini :      0.37s CPU      0.39s WALL (     950 calls)
                                        0.38s GPU  (     950 calls)
     sum_band:cal :      0.04s CPU      0.06s WALL (     950 calls)
                                        0.05s GPU  (     950 calls)
     sum_band:bec :      0.20s CPU      0.23s WALL (     950 calls)
                                        0.21s GPU  (     950 calls)
     addusdens    :      0.63s CPU      0.64s WALL (      19 calls)
                                        0.64s GPU  (      19 calls)
     addusd:skk   :      0.00s CPU      0.00s WALL (      57 calls)
                                        0.00s GPU  (      57 calls)

     Called by *egterg:
     cdiaghg      :      3.30s CPU      3.43s WALL (    4338 calls)
                                        3.38s GPU  (    4338 calls)
     cegterg:over :      0.74s CPU      0.77s WALL (    3388 calls)
     cegterg:upda :      0.61s CPU      0.61s WALL (    3388 calls)
     cegterg:last :      0.12s CPU      0.12s WALL (    1954 calls)
     h_psi        :      3.74s CPU      3.75s WALL (    4388 calls)
                                        3.69s GPU  (    4388 calls)
     s_psi        :      0.68s CPU      0.71s WALL (    4388 calls)
     g_psi        :      0.02s CPU      0.08s WALL (    3388 calls)
                                        0.04s GPU  (    3388 calls)

     Called by h_psi:
     h_psi:calbec :      0.13s CPU      0.24s WALL (    4388 calls)
                                        0.18s GPU  (    4388 calls)
     vloc_psi     :      2.54s CPU      2.48s WALL (    4388 calls)
                                        2.43s GPU  (    4388 calls)
     add_vuspsi   :      0.61s CPU      0.72s WALL (    4388 calls)
                                        0.66s GPU  (    4388 calls)

     General routines
     calbec       :      0.14s CPU      0.17s WALL (    5538 calls)
     fft          :      3.77s CPU      0.90s WALL (     513 calls)
                                        0.02s GPU  (     473 calls)
     ffts         :      4.59s CPU      0.81s WALL (     656 calls)
                                        0.02s GPU  (     616 calls)
     fftw         :      0.26s CPU      0.84s WALL (   14584 calls)
                                        0.67s GPU  (   14584 calls)
     interpolate  :      8.47s CPU      1.69s WALL (      40 calls)
 
     Parallel routines

     PAW routines
     PAW_pot      :     81.87s CPU     10.50s WALL (      20 calls)
     PAW_symme    :      0.02s CPU      0.00s WALL (      39 calls)
 
     PWSCF        :   1m47.54s CPU     28.91s WALL

 
   This run was terminated on:   3:53:47  12Jul2026            

=------------------------------------------------------------------------------=
   JOB DONE.
=------------------------------------------------------------------------------=
Warning: ieee_divide_by_zero is signaling
Warning: ieee_inexact is signaling
FORTRAN STOP
