
     Program PROJWFC v.7.3.1 starts on 12Jul2026 at  6:36:29 

     This program is part of the open-source Quantum ESPRESSO suite
     for quantum simulation of materials; please cite
         "P. Giannozzi et al., J. Phys.:Condens. Matter 21 395502 (2009);
         "P. Giannozzi et al., J. Phys.:Condens. Matter 29 465901 (2017);
         "P. Giannozzi et al., J. Chem. Phys. 152 154105 (2020);
          URL http://www.quantum-espresso.org", 
     in publications or presentations arising from this work. More details at
     http://www.quantum-espresso.org/quote

     Serial version
     1357478 MiB available memory on the printing compute node when the environment starts


     Reading xml data from directory:

     ./out/pw.save/
     file Co.pbe-spn-kjpaw_psl.0.3.1.UPF: wavefunction(s)  3P 3D renormalized
     file O.pbe-n-kjpaw_psl.1.0.0.UPF: wavefunction(s)  2S 2P renormalized
     file Na.pbe-spn-kjpaw_psl.1.0.0.UPF: wavefunction(s)  2P renormalized

     IMPORTANT: XC functional enforced from input :
     Exchange-correlation= PBE
                           (   1   4   3   4   0   0   0)
     Any further DFT definition will be discarded
     Please, verify this is what you really want


     G-vector sticks info
     --------------------
     sticks:   dense  smooth     PW     G-vecs:    dense   smooth      PW
     Sum        2941    1483    421               256907    90927   13513

     Using Slab Decomposition


     Check: negative core charge=   -0.000006

     Gaussian broadening (read from input): ngauss,degauss=   0    0.020000


     Calling projwave .... 

  Problem Sizes 
  natomwfc =           59
  nbnd     =           64
  nkstot   =          120
  npwx     =        11393
  nkb      =          110


     Atomic states used for projection
     (read from pseudopotential files):

     state #   1: atom   1 (Co ), wfc  1 (l=0 m= 1)
     state #   2: atom   1 (Co ), wfc  2 (l=0 m= 1)
     state #   3: atom   1 (Co ), wfc  3 (l=1 m= 1)
     state #   4: atom   1 (Co ), wfc  3 (l=1 m= 2)
     state #   5: atom   1 (Co ), wfc  3 (l=1 m= 3)
     state #   6: atom   1 (Co ), wfc  4 (l=2 m= 1)
     state #   7: atom   1 (Co ), wfc  4 (l=2 m= 2)
     state #   8: atom   1 (Co ), wfc  4 (l=2 m= 3)
     state #   9: atom   1 (Co ), wfc  4 (l=2 m= 4)
     state #  10: atom   1 (Co ), wfc  4 (l=2 m= 5)
     state #  11: atom   2 (Co ), wfc  1 (l=0 m= 1)
     state #  12: atom   2 (Co ), wfc  2 (l=0 m= 1)
     state #  13: atom   2 (Co ), wfc  3 (l=1 m= 1)
     state #  14: atom   2 (Co ), wfc  3 (l=1 m= 2)
     state #  15: atom   2 (Co ), wfc  3 (l=1 m= 3)
     state #  16: atom   2 (Co ), wfc  4 (l=2 m= 1)
     state #  17: atom   2 (Co ), wfc  4 (l=2 m= 2)
     state #  18: atom   2 (Co ), wfc  4 (l=2 m= 3)
     state #  19: atom   2 (Co ), wfc  4 (l=2 m= 4)
     state #  20: atom   2 (Co ), wfc  4 (l=2 m= 5)
     state #  21: atom   3 (Co ), wfc  1 (l=0 m= 1)
     state #  22: atom   3 (Co ), wfc  2 (l=0 m= 1)
     state #  23: atom   3 (Co ), wfc  3 (l=1 m= 1)
     state #  24: atom   3 (Co ), wfc  3 (l=1 m= 2)
     state #  25: atom   3 (Co ), wfc  3 (l=1 m= 3)
     state #  26: atom   3 (Co ), wfc  4 (l=2 m= 1)
     state #  27: atom   3 (Co ), wfc  4 (l=2 m= 2)
     state #  28: atom   3 (Co ), wfc  4 (l=2 m= 3)
     state #  29: atom   3 (Co ), wfc  4 (l=2 m= 4)
     state #  30: atom   3 (Co ), wfc  4 (l=2 m= 5)
     state #  31: atom   4 (O  ), wfc  1 (l=0 m= 1)
     state #  32: atom   4 (O  ), wfc  2 (l=1 m= 1)
     state #  33: atom   4 (O  ), wfc  2 (l=1 m= 2)
     state #  34: atom   4 (O  ), wfc  2 (l=1 m= 3)
     state #  35: atom   5 (O  ), wfc  1 (l=0 m= 1)
     state #  36: atom   5 (O  ), wfc  2 (l=1 m= 1)
     state #  37: atom   5 (O  ), wfc  2 (l=1 m= 2)
     state #  38: atom   5 (O  ), wfc  2 (l=1 m= 3)
     state #  39: atom   6 (O  ), wfc  1 (l=0 m= 1)
     state #  40: atom   6 (O  ), wfc  2 (l=1 m= 1)
     state #  41: atom   6 (O  ), wfc  2 (l=1 m= 2)
     state #  42: atom   6 (O  ), wfc  2 (l=1 m= 3)
     state #  43: atom   7 (O  ), wfc  1 (l=0 m= 1)
     state #  44: atom   7 (O  ), wfc  2 (l=1 m= 1)
     state #  45: atom   7 (O  ), wfc  2 (l=1 m= 2)
     state #  46: atom   7 (O  ), wfc  2 (l=1 m= 3)
     state #  47: atom   8 (O  ), wfc  1 (l=0 m= 1)
     state #  48: atom   8 (O  ), wfc  2 (l=1 m= 1)
     state #  49: atom   8 (O  ), wfc  2 (l=1 m= 2)
     state #  50: atom   8 (O  ), wfc  2 (l=1 m= 3)
     state #  51: atom   9 (O  ), wfc  1 (l=0 m= 1)
     state #  52: atom   9 (O  ), wfc  2 (l=1 m= 1)
     state #  53: atom   9 (O  ), wfc  2 (l=1 m= 2)
     state #  54: atom   9 (O  ), wfc  2 (l=1 m= 3)
     state #  55: atom  10 (Na ), wfc  1 (l=0 m= 1)
     state #  56: atom  10 (Na ), wfc  2 (l=0 m= 1)
     state #  57: atom  10 (Na ), wfc  3 (l=1 m= 1)
     state #  58: atom  10 (Na ), wfc  3 (l=1 m= 2)
     state #  59: atom  10 (Na ), wfc  3 (l=1 m= 3)

 k =   0.0000000000  0.0000000000  0.0000000000
==== e(   1) =   -93.52244 eV ==== 
     psi = 0.381*[#  11]+0.381*[#  21]+0.220*[#   1]+0.005*[#   2]+0.003*[#  12]
          +0.003*[#  22]+0.001*[#  32]+0.001*[#  36]+0.001*[#  40]+0.001*[#  44]
          +0.001*[#  48]+0.001*[#  52]
    |psi|^2 = 1.000
==== e(   2) =   -93.51733 eV ==== 
     psi = 0.487*[#  11]+0.487*[#  21]+0.006*[#  12]+0.006*[#  22]+0.002*[#  38]
          +0.002*[#  46]+0.002*[#  33]+0.002*[#  41]+0.002*[#  49]+0.002*[#  53]
          
    |psi|^2 = 1.000
==== e(   3) =   -93.51616 eV ==== 
     psi = 0.757*[#   1]+0.109*[#  11]+0.109*[#  21]+0.006*[#   2]+0.002*[#  12]
          +0.002*[#  22]+0.002*[#  37]+0.002*[#  45]+0.002*[#  34]+0.002*[#  42]
          +0.002*[#  50]+0.002*[#  54]
    |psi|^2 = 1.000
==== e(   4) =   -56.76909 eV ==== 
     psi = 0.249*[#  14]+0.249*[#  15]+0.249*[#  24]+0.249*[#  25]
    |psi|^2 = 1.000
==== e(   5) =   -56.76909 eV ==== 
     psi = 0.249*[#  14]+0.249*[#  15]+0.249*[#  24]+0.249*[#  25]
    |psi|^2 = 1.000
==== e(   6) =   -56.76879 eV ==== 
     psi = 0.329*[#   4]+0.329*[#   5]+0.084*[#  14]+0.084*[#  15]+0.084*[#  24]
          +0.084*[#  25]
    |psi|^2 = 1.000
==== e(   7) =   -56.76879 eV ==== 
     psi = 0.329*[#   4]+0.329*[#   5]+0.084*[#  14]+0.084*[#  15]+0.084*[#  24]
          +0.084*[#  25]
    |psi|^2 = 1.000
==== e(   8) =   -56.73059 eV ==== 
     psi = 0.169*[#   4]+0.169*[#   5]+0.165*[#  14]+0.165*[#  15]+0.165*[#  24]
          +0.165*[#  25]
    |psi|^2 = 1.000
==== e(   9) =   -56.73059 eV ==== 
     psi = 0.169*[#   4]+0.169*[#   5]+0.165*[#  14]+0.165*[#  15]+0.165*[#  24]
          +0.165*[#  25]
    |psi|^2 = 1.000
==== e(  10) =   -56.72269 eV ==== 
     psi = 0.394*[#  13]+0.394*[#  23]+0.209*[#   3]
    |psi|^2 = 1.000
==== e(  11) =   -56.71450 eV ==== 
     psi = 0.499*[#  13]+0.499*[#  23]
    |psi|^2 = 1.000
==== e(  12) =   -56.71226 eV ==== 
     psi = 0.788*[#   3]+0.105*[#  13]+0.105*[#  23]
    |psi|^2 = 1.000
==== e(  13) =   -52.22479 eV ==== 
     psi = 0.999*[#  55]
    |psi|^2 = 1.000
==== e(  14) =   -24.14175 eV ==== 
     psi = 0.500*[#  58]+0.500*[#  59]
    |psi|^2 = 1.000
==== e(  15) =   -24.14175 eV ==== 
     psi = 0.500*[#  58]+0.500*[#  59]
    |psi|^2 = 1.000
==== e(  16) =   -24.10285 eV ==== 
     psi = 1.000*[#  57]
    |psi|^2 = 1.000
==== e(  17) =   -16.84229 eV ==== 
     psi = 0.108*[#   2]+0.108*[#  12]+0.108*[#  22]+0.106*[#  31]+0.106*[#  35]
          +0.106*[#  39]+0.106*[#  43]+0.106*[#  47]+0.106*[#  51]+0.003*[#   1]
          +0.003*[#  11]+0.003*[#  21]+0.003*[#  32]+0.003*[#  36]+0.003*[#  40]
          +0.003*[#  44]+0.003*[#  48]+0.003*[#  52]+0.002*[#   6]+0.002*[#  16]
          +0.002*[#  26]
    |psi|^2 = 0.999
==== e(  18) =   -15.16737 eV ==== 
     psi = 0.155*[#  31]+0.155*[#  35]+0.155*[#  39]+0.155*[#  43]+0.155*[#  47]
          +0.155*[#  51]+0.007*[#  19]+0.007*[#  20]+0.007*[#  29]+0.007*[#  30]
          +0.006*[#  17]+0.006*[#  18]+0.006*[#  27]+0.006*[#  28]+0.002*[#  32]
          +0.002*[#  36]+0.002*[#  40]+0.002*[#  44]+0.002*[#  48]+0.002*[#  52]
          
    |psi|^2 = 0.998
==== e(  19) =   -15.16737 eV ==== 
     psi = 0.155*[#  31]+0.155*[#  35]+0.155*[#  39]+0.155*[#  43]+0.155*[#  47]
          +0.155*[#  51]+0.007*[#  19]+0.007*[#  20]+0.007*[#  29]+0.007*[#  30]
          +0.006*[#  17]+0.006*[#  18]+0.006*[#  27]+0.006*[#  28]+0.002*[#  32]
          +0.002*[#  36]+0.002*[#  40]+0.002*[#  44]+0.002*[#  48]+0.002*[#  52]
          
    |psi|^2 = 0.998
==== e(  20) =   -15.16714 eV ==== 
     psi = 0.155*[#  31]+0.155*[#  35]+0.155*[#  39]+0.155*[#  43]+0.155*[#  47]
          +0.155*[#  51]+0.009*[#   9]+0.009*[#  10]+0.008*[#   7]+0.008*[#   8]
          +0.002*[#  19]+0.002*[#  20]+0.002*[#  29]+0.002*[#  30]+0.002*[#  17]
          +0.002*[#  18]+0.002*[#  27]+0.002*[#  28]+0.002*[#  32]+0.002*[#  36]
          +0.002*[#  40]+0.002*[#  44]+0.002*[#  48]+0.002*[#  52]
    |psi|^2 = 0.998
==== e(  21) =   -15.16714 eV ==== 
     psi = 0.155*[#  31]+0.155*[#  35]+0.155*[#  39]+0.155*[#  43]+0.155*[#  47]
          +0.155*[#  51]+0.009*[#   9]+0.009*[#  10]+0.008*[#   7]+0.008*[#   8]
          +0.002*[#  19]+0.002*[#  20]+0.002*[#  29]+0.002*[#  30]+0.002*[#  17]
          +0.002*[#  18]+0.002*[#  27]+0.002*[#  28]+0.002*[#  32]+0.002*[#  36]
          +0.002*[#  40]+0.002*[#  44]+0.002*[#  48]+0.002*[#  52]
    |psi|^2 = 0.998
==== e(  22) =   -14.91826 eV ==== 
     psi = 0.165*[#  31]+0.165*[#  35]+0.165*[#  39]+0.165*[#  43]+0.165*[#  47]
          +0.165*[#  51]
    |psi|^2 = 0.995
==== e(  23) =    -3.05724 eV ==== 
     psi = 0.111*[#   6]+0.109*[#  16]+0.109*[#  26]+0.101*[#  32]+0.101*[#  36]
          +0.101*[#  40]+0.101*[#  44]+0.101*[#  48]+0.101*[#  52]+0.011*[#  56]
          +0.008*[#  31]+0.008*[#  35]+0.008*[#  39]+0.008*[#  43]+0.008*[#  47]
          +0.008*[#  51]+0.002*[#  11]+0.002*[#  21]+0.001*[#   1]
    |psi|^2 = 0.997
==== e(  24) =    -2.92154 eV ==== 
     psi = 0.086*[#   7]+0.086*[#   8]+0.050*[#  37]+0.050*[#  45]+0.050*[#  34]
          +0.050*[#  42]+0.050*[#  50]+0.050*[#  54]+0.050*[#  33]+0.050*[#  41]
          +0.050*[#  49]+0.050*[#  53]+0.049*[#  38]+0.049*[#  46]+0.021*[#  17]
          +0.021*[#  18]+0.021*[#  27]+0.021*[#  28]+0.016*[#  32]+0.016*[#  36]
          +0.016*[#  40]+0.016*[#  44]+0.016*[#  48]+0.016*[#  52]+0.010*[#   9]
          +0.010*[#  10]+0.003*[#  19]+0.003*[#  20]+0.003*[#  29]+0.003*[#  30]
          
    |psi|^2 = 0.989
==== e(  25) =    -2.92154 eV ==== 
     psi = 0.086*[#   7]+0.086*[#   8]+0.050*[#  37]+0.050*[#  45]+0.050*[#  34]
          +0.050*[#  42]+0.050*[#  50]+0.050*[#  54]+0.050*[#  33]+0.050*[#  41]
          +0.050*[#  49]+0.050*[#  53]+0.049*[#  38]+0.049*[#  46]+0.021*[#  17]
          +0.021*[#  18]+0.021*[#  27]+0.021*[#  28]+0.016*[#  32]+0.016*[#  36]
          +0.016*[#  40]+0.016*[#  44]+0.016*[#  48]+0.016*[#  52]+0.010*[#   9]
          +0.010*[#  10]+0.003*[#  19]+0.003*[#  20]+0.003*[#  29]+0.003*[#  30]
          
    |psi|^2 = 0.989
==== e(  26) =    -2.91754 eV ==== 
     psi = 0.065*[#  17]+0.065*[#  18]+0.065*[#  27]+0.065*[#  28]+0.050*[#  33]
          +0.050*[#  34]+0.050*[#  37]+0.050*[#  38]+0.050*[#  41]+0.050*[#  42]
          +0.050*[#  45]+0.050*[#  46]+0.050*[#  49]+0.050*[#  50]+0.050*[#  53]
          +0.050*[#  54]+0.016*[#  32]+0.016*[#  36]+0.016*[#  40]+0.016*[#  44]
          +0.016*[#  48]+0.016*[#  52]+0.008*[#  19]+0.008*[#  20]+0.008*[#  29]
          +0.008*[#  30]
    |psi|^2 = 0.989
==== e(  27) =    -2.91754 eV ==== 
     psi = 0.065*[#  17]+0.065*[#  18]+0.065*[#  27]+0.065*[#  28]+0.050*[#  33]
          +0.050*[#  34]+0.050*[#  37]+0.050*[#  38]+0.050*[#  41]+0.050*[#  42]
          +0.050*[#  45]+0.050*[#  46]+0.050*[#  49]+0.050*[#  50]+0.050*[#  53]
          +0.050*[#  54]+0.016*[#  32]+0.016*[#  36]+0.016*[#  40]+0.016*[#  44]
          +0.016*[#  48]+0.016*[#  52]+0.008*[#  19]+0.008*[#  20]+0.008*[#  29]
          +0.008*[#  30]
    |psi|^2 = 0.989
==== e(  28) =    -2.71163 eV ==== 
     psi = 0.070*[#   9]+0.070*[#  10]+0.070*[#  19]+0.070*[#  20]+0.070*[#  29]
          +0.070*[#  30]+0.039*[#  38]+0.039*[#  46]+0.039*[#  33]+0.039*[#  41]
          +0.039*[#  49]+0.039*[#  53]+0.038*[#  34]+0.038*[#  42]+0.038*[#  50]
          +0.038*[#  54]+0.038*[#  37]+0.038*[#  45]+0.020*[#  17]+0.020*[#  18]
          +0.020*[#  27]+0.020*[#  28]+0.019*[#   7]+0.019*[#   8]
    |psi|^2 = 0.998
==== e(  29) =    -2.71163 eV ==== 
     psi = 0.070*[#   9]+0.070*[#  10]+0.070*[#  19]+0.070*[#  20]+0.070*[#  29]
          +0.070*[#  30]+0.039*[#  38]+0.039*[#  46]+0.039*[#  33]+0.039*[#  41]
          +0.039*[#  49]+0.039*[#  53]+0.038*[#  34]+0.038*[#  42]+0.038*[#  50]
          +0.038*[#  54]+0.038*[#  37]+0.038*[#  45]+0.020*[#  17]+0.020*[#  18]
          +0.020*[#  27]+0.020*[#  28]+0.019*[#   7]+0.019*[#   8]
    |psi|^2 = 0.998
==== e(  30) =    -2.48409 eV ==== 
     psi = 0.136*[#  37]+0.136*[#  45]+0.108*[#   2]+0.102*[#  34]+0.102*[#  42]
          +0.102*[#  50]+0.102*[#  54]+0.034*[#  33]+0.034*[#  41]+0.034*[#  49]
          +0.034*[#  53]+0.027*[#  12]+0.027*[#  22]+0.008*[#   6]+0.003*[#   1]
          +0.003*[#  16]+0.003*[#  26]
    |psi|^2 = 0.997
==== e(  31) =    -2.47667 eV ==== 
     psi = 0.136*[#  38]+0.136*[#  46]+0.102*[#  33]+0.102*[#  41]+0.102*[#  49]
          +0.102*[#  53]+0.081*[#  12]+0.081*[#  22]+0.034*[#  34]+0.034*[#  42]
          +0.034*[#  50]+0.034*[#  54]+0.007*[#  16]+0.007*[#  26]+0.002*[#  11]
          +0.002*[#  21]
    |psi|^2 = 0.997
==== e(  32) =    -0.91169 eV ==== 
     psi = 0.084*[#  32]+0.084*[#  36]+0.084*[#  40]+0.084*[#  44]+0.084*[#  48]
          +0.084*[#  52]+0.078*[#  19]+0.078*[#  20]+0.078*[#  29]+0.078*[#  30]
          +0.021*[#  17]+0.021*[#  18]+0.021*[#  27]+0.021*[#  28]+0.007*[#  31]
          +0.007*[#  35]+0.007*[#  39]+0.007*[#  43]+0.007*[#  47]+0.007*[#  51]
          +0.005*[#  33]+0.005*[#  34]+0.005*[#  37]+0.005*[#  41]+0.005*[#  42]
          +0.005*[#  45]+0.005*[#  38]+0.005*[#  46]+0.005*[#  49]+0.005*[#  50]
          +0.005*[#  53]+0.005*[#  54]
    |psi|^2 = 0.998
==== e(  33) =    -0.91169 eV ==== 
     psi = 0.084*[#  32]+0.084*[#  36]+0.084*[#  40]+0.084*[#  44]+0.084*[#  48]
          +0.084*[#  52]+0.078*[#  19]+0.078*[#  20]+0.078*[#  29]+0.078*[#  30]
          +0.021*[#  17]+0.021*[#  18]+0.021*[#  27]+0.021*[#  28]+0.007*[#  31]
          +0.007*[#  35]+0.007*[#  39]+0.007*[#  43]+0.007*[#  47]+0.007*[#  51]
          +0.005*[#  33]+0.005*[#  34]+0.005*[#  37]+0.005*[#  41]+0.005*[#  42]
          +0.005*[#  45]+0.005*[#  38]+0.005*[#  46]+0.005*[#  49]+0.005*[#  50]
          +0.005*[#  53]+0.005*[#  54]
    |psi|^2 = 0.998
==== e(  34) =    -0.90829 eV ==== 
     psi = 0.104*[#   9]+0.104*[#  10]+0.084*[#  32]+0.084*[#  36]+0.084*[#  40]
          +0.084*[#  44]+0.084*[#  48]+0.084*[#  52]+0.028*[#   7]+0.028*[#   8]
          +0.026*[#  19]+0.026*[#  20]+0.026*[#  29]+0.026*[#  30]+0.007*[#  17]
          +0.007*[#  18]+0.007*[#  27]+0.007*[#  28]+0.007*[#  31]+0.007*[#  35]
          +0.007*[#  39]+0.007*[#  43]+0.007*[#  47]+0.007*[#  51]+0.005*[#  33]
          +0.005*[#  34]+0.005*[#  37]+0.005*[#  38]+0.005*[#  41]+0.005*[#  42]
          +0.005*[#  45]+0.005*[#  46]+0.005*[#  49]+0.005*[#  50]+0.005*[#  53]
          +0.005*[#  54]
    |psi|^2 = 0.998
==== e(  35) =    -0.90829 eV ==== 
     psi = 0.104*[#   9]+0.104*[#  10]+0.084*[#  32]+0.084*[#  36]+0.084*[#  40]
          +0.084*[#  44]+0.084*[#  48]+0.084*[#  52]+0.028*[#   7]+0.028*[#   8]
          +0.026*[#  19]+0.026*[#  20]+0.026*[#  29]+0.026*[#  30]+0.007*[#  17]
          +0.007*[#  18]+0.007*[#  27]+0.007*[#  28]+0.007*[#  31]+0.007*[#  35]
          +0.007*[#  39]+0.007*[#  43]+0.007*[#  47]+0.007*[#  51]+0.005*[#  33]
          +0.005*[#  34]+0.005*[#  37]+0.005*[#  38]+0.005*[#  41]+0.005*[#  42]
          +0.005*[#  45]+0.005*[#  46]+0.005*[#  49]+0.005*[#  50]+0.005*[#  53]
          +0.005*[#  54]
    |psi|^2 = 0.998
==== e(  36) =    -0.49629 eV ==== 
     psi = 0.163*[#  37]+0.163*[#  45]+0.122*[#  34]+0.122*[#  42]+0.122*[#  50]
          +0.122*[#  54]+0.041*[#  33]+0.041*[#  41]+0.041*[#  49]+0.041*[#  53]
          +0.002*[#   3]
    |psi|^2 = 0.983
==== e(  37) =    -0.48759 eV ==== 
     psi = 0.163*[#  38]+0.163*[#  46]+0.123*[#  33]+0.123*[#  41]+0.123*[#  49]
          +0.123*[#  53]+0.041*[#  34]+0.041*[#  42]+0.041*[#  50]+0.041*[#  54]
          +0.001*[#  13]+0.001*[#  23]
    |psi|^2 = 0.983
==== e(  38) =     0.47961 eV ==== 
     psi = 0.163*[#  32]+0.163*[#  36]+0.163*[#  40]+0.163*[#  44]+0.163*[#  48]
          +0.163*[#  52]
    |psi|^2 = 0.982
==== e(  39) =     0.70633 eV ==== 
     psi = 0.119*[#   7]+0.119*[#   8]+0.119*[#  17]+0.119*[#  18]+0.119*[#  27]
          +0.119*[#  28]+0.046*[#   9]+0.046*[#  10]+0.046*[#  19]+0.046*[#  20]
          +0.046*[#  29]+0.046*[#  30]
    |psi|^2 = 0.999
==== e(  40) =     0.70633 eV ==== 
     psi = 0.119*[#   7]+0.119*[#   8]+0.119*[#  17]+0.119*[#  18]+0.119*[#  27]
          +0.119*[#  28]+0.046*[#   9]+0.046*[#  10]+0.046*[#  19]+0.046*[#  20]
          +0.046*[#  29]+0.046*[#  30]
    |psi|^2 = 0.999
==== e(  41) =     0.72572 eV ==== 
     psi = 0.492*[#  16]+0.492*[#  26]+0.002*[#  38]+0.002*[#  46]+0.002*[#  33]
          +0.002*[#  41]+0.002*[#  49]+0.002*[#  53]
    |psi|^2 = 0.999
==== e(  42) =     0.72592 eV ==== 
     psi = 0.655*[#   6]+0.165*[#  16]+0.165*[#  26]+0.002*[#  37]+0.002*[#  45]
          +0.002*[#  34]+0.002*[#  42]+0.002*[#  50]+0.002*[#  54]
    |psi|^2 = 0.999
==== e(  43) =     1.05114 eV ==== 
     psi = 0.083*[#  33]+0.083*[#  38]+0.083*[#  46]+0.083*[#  34]+0.083*[#  41]
          +0.083*[#  42]+0.083*[#  49]+0.083*[#  53]+0.083*[#  37]+0.083*[#  45]
          +0.083*[#  50]+0.083*[#  54]
    |psi|^2 = 0.994
==== e(  44) =     1.05114 eV ==== 
     psi = 0.083*[#  33]+0.083*[#  38]+0.083*[#  46]+0.083*[#  34]+0.083*[#  41]
          +0.083*[#  42]+0.083*[#  49]+0.083*[#  53]+0.083*[#  37]+0.083*[#  45]
          +0.083*[#  50]+0.083*[#  54]
    |psi|^2 = 0.994
==== e(  45) =     1.79444 eV ==== 
     psi = 0.161*[#   9]+0.161*[#  10]+0.079*[#   7]+0.079*[#   8]+0.040*[#  19]
          +0.040*[#  20]+0.040*[#  29]+0.040*[#  30]+0.032*[#  32]+0.032*[#  36]
          +0.032*[#  40]+0.032*[#  44]+0.032*[#  48]+0.032*[#  52]+0.020*[#  17]
          +0.020*[#  18]+0.020*[#  27]+0.020*[#  28]+0.007*[#  33]+0.007*[#  34]
          +0.007*[#  37]+0.007*[#  38]+0.007*[#  41]+0.007*[#  42]+0.007*[#  45]
          +0.007*[#  46]+0.007*[#  49]+0.007*[#  50]+0.007*[#  53]+0.007*[#  54]
          
    |psi|^2 = 0.992
==== e(  46) =     1.79444 eV ==== 
     psi = 0.161*[#   9]+0.161*[#  10]+0.079*[#   7]+0.079*[#   8]+0.040*[#  19]
          +0.040*[#  20]+0.040*[#  29]+0.040*[#  30]+0.032*[#  32]+0.032*[#  36]
          +0.032*[#  40]+0.032*[#  44]+0.032*[#  48]+0.032*[#  52]+0.020*[#  17]
          +0.020*[#  18]+0.020*[#  27]+0.020*[#  28]+0.007*[#  33]+0.007*[#  34]
          +0.007*[#  37]+0.007*[#  38]+0.007*[#  41]+0.007*[#  42]+0.007*[#  45]
          +0.007*[#  46]+0.007*[#  49]+0.007*[#  50]+0.007*[#  53]+0.007*[#  54]
          
    |psi|^2 = 0.992
==== e(  47) =     1.79635 eV ==== 
     psi = 0.121*[#  19]+0.121*[#  20]+0.121*[#  29]+0.121*[#  30]+0.059*[#  17]
          +0.059*[#  18]+0.059*[#  27]+0.059*[#  28]+0.032*[#  32]+0.032*[#  36]
          +0.032*[#  40]+0.032*[#  44]+0.032*[#  48]+0.032*[#  52]+0.007*[#  33]
          +0.007*[#  34]+0.007*[#  37]+0.007*[#  41]+0.007*[#  42]+0.007*[#  45]
          +0.007*[#  49]+0.007*[#  50]+0.007*[#  38]+0.007*[#  46]+0.007*[#  53]
          +0.007*[#  54]
    |psi|^2 = 0.992
==== e(  48) =     1.79635 eV ==== 
     psi = 0.121*[#  19]+0.121*[#  20]+0.121*[#  29]+0.121*[#  30]+0.059*[#  17]
          +0.059*[#  18]+0.059*[#  27]+0.059*[#  28]+0.032*[#  32]+0.032*[#  36]
          +0.032*[#  40]+0.032*[#  44]+0.032*[#  48]+0.032*[#  52]+0.007*[#  33]
          +0.007*[#  34]+0.007*[#  37]+0.007*[#  41]+0.007*[#  42]+0.007*[#  45]
          +0.007*[#  49]+0.007*[#  50]+0.007*[#  38]+0.007*[#  46]+0.007*[#  53]
          +0.007*[#  54]
    |psi|^2 = 0.992
==== e(  49) =     1.85053 eV ==== 
     psi = 0.534*[#  56]+0.116*[#   6]+0.116*[#  16]+0.116*[#  26]+0.017*[#  32]
          +0.017*[#  36]+0.017*[#  40]+0.017*[#  44]+0.017*[#  48]+0.017*[#  52]
          +0.002*[#   2]+0.002*[#  12]+0.002*[#  22]
    |psi|^2 = 0.995
==== e(  50) =     2.24606 eV ==== 
     psi = 0.431*[#  56]+0.103*[#   6]+0.102*[#  16]+0.102*[#  26]+0.033*[#  32]
          +0.033*[#  36]+0.033*[#  40]+0.033*[#  44]+0.033*[#  48]+0.033*[#  52]
          +0.003*[#   2]+0.004*[#  12]+0.004*[#  22]+0.003*[#  31]+0.003*[#  35]
          +0.003*[#  39]+0.003*[#  43]+0.003*[#  47]+0.003*[#  51]
    |psi|^2 = 0.969
==== e(  51) =     3.95241 eV ==== 
     psi = 0.098*[#  17]+0.098*[#  18]+0.098*[#  27]+0.098*[#  28]+0.036*[#  19]
          +0.036*[#  20]+0.036*[#  29]+0.036*[#  30]+0.031*[#  32]+0.031*[#  36]
          +0.031*[#  40]+0.031*[#  44]+0.031*[#  48]+0.031*[#  52]+0.020*[#  33]
          +0.020*[#  34]+0.020*[#  37]+0.020*[#  38]+0.020*[#  41]+0.020*[#  42]
          +0.020*[#  45]+0.020*[#  46]+0.020*[#  49]+0.020*[#  50]+0.020*[#  53]
          +0.020*[#  54]+0.004*[#  31]+0.004*[#  35]+0.004*[#  39]+0.004*[#  43]
          +0.004*[#  47]+0.004*[#  51]
    |psi|^2 = 0.990
==== e(  52) =     3.95241 eV ==== 
     psi = 0.098*[#  17]+0.098*[#  18]+0.098*[#  27]+0.098*[#  28]+0.036*[#  19]
          +0.036*[#  20]+0.036*[#  29]+0.036*[#  30]+0.031*[#  32]+0.031*[#  36]
          +0.031*[#  40]+0.031*[#  44]+0.031*[#  48]+0.031*[#  52]+0.020*[#  33]
          +0.020*[#  34]+0.020*[#  37]+0.020*[#  38]+0.020*[#  41]+0.020*[#  42]
          +0.020*[#  45]+0.020*[#  46]+0.020*[#  49]+0.020*[#  50]+0.020*[#  53]
          +0.020*[#  54]+0.004*[#  31]+0.004*[#  35]+0.004*[#  39]+0.004*[#  43]
          +0.004*[#  47]+0.004*[#  51]
    |psi|^2 = 0.990
==== e(  53) =     3.95708 eV ==== 
     psi = 0.130*[#   7]+0.130*[#   8]+0.048*[#   9]+0.048*[#  10]+0.033*[#  17]
          +0.033*[#  18]+0.033*[#  27]+0.033*[#  28]+0.031*[#  32]+0.031*[#  36]
          +0.031*[#  40]+0.031*[#  44]+0.031*[#  48]+0.031*[#  52]+0.020*[#  33]
          +0.020*[#  38]+0.020*[#  34]+0.020*[#  41]+0.020*[#  46]+0.020*[#  37]
          +0.020*[#  42]+0.020*[#  49]+0.020*[#  45]+0.020*[#  50]+0.020*[#  53]
          +0.020*[#  54]+0.012*[#  19]+0.012*[#  20]+0.012*[#  29]+0.012*[#  30]
          +0.004*[#  31]+0.004*[#  35]+0.004*[#  39]+0.004*[#  43]+0.004*[#  47]
          +0.004*[#  51]
    |psi|^2 = 0.990
==== e(  54) =     3.95708 eV ==== 
     psi = 0.130*[#   7]+0.130*[#   8]+0.048*[#   9]+0.048*[#  10]+0.033*[#  17]
          +0.033*[#  18]+0.033*[#  27]+0.033*[#  28]+0.031*[#  32]+0.031*[#  36]
          +0.031*[#  40]+0.031*[#  44]+0.031*[#  48]+0.031*[#  52]+0.020*[#  33]
          +0.020*[#  38]+0.020*[#  34]+0.020*[#  41]+0.020*[#  46]+0.020*[#  37]
          +0.020*[#  42]+0.020*[#  49]+0.020*[#  45]+0.020*[#  50]+0.020*[#  53]
          +0.020*[#  54]+0.012*[#  19]+0.012*[#  20]+0.012*[#  29]+0.012*[#  30]
          +0.004*[#  31]+0.004*[#  35]+0.004*[#  39]+0.004*[#  43]+0.004*[#  47]
          +0.004*[#  51]
    |psi|^2 = 0.990
==== e(  55) =     4.69298 eV ==== 
     psi = 0.051*[#   9]+0.051*[#  10]+0.050*[#  19]+0.050*[#  20]+0.050*[#  29]
          +0.050*[#  30]+0.044*[#  37]+0.044*[#  45]+0.044*[#  33]+0.044*[#  34]
          +0.044*[#  41]+0.044*[#  42]+0.044*[#  38]+0.044*[#  46]+0.044*[#  49]
          +0.044*[#  50]+0.044*[#  53]+0.044*[#  54]+0.028*[#   7]+0.028*[#   8]
          +0.028*[#  17]+0.028*[#  18]+0.028*[#  27]+0.028*[#  28]
    |psi|^2 = 0.995
==== e(  56) =     4.69298 eV ==== 
     psi = 0.051*[#   9]+0.051*[#  10]+0.050*[#  19]+0.050*[#  20]+0.050*[#  29]
          +0.050*[#  30]+0.044*[#  37]+0.044*[#  45]+0.044*[#  33]+0.044*[#  34]
          +0.044*[#  41]+0.044*[#  42]+0.044*[#  38]+0.044*[#  46]+0.044*[#  49]
          +0.044*[#  50]+0.044*[#  53]+0.044*[#  54]+0.028*[#   7]+0.028*[#   8]
          +0.028*[#  17]+0.028*[#  18]+0.028*[#  27]+0.028*[#  28]
    |psi|^2 = 0.995
==== e(  57) =     5.95243 eV ==== 
     psi = 0.002*[#  32]+0.002*[#  36]+0.002*[#  40]+0.002*[#  44]+0.002*[#  48]
          +0.002*[#  52]
    |psi|^2 = 0.011
==== e(  58) =     8.47991 eV ==== 
     psi = 0.133*[#   2]+0.125*[#  12]+0.125*[#  22]+0.029*[#  31]+0.029*[#  35]
          +0.029*[#  39]+0.029*[#  43]+0.029*[#  47]+0.029*[#  51]+0.004*[#  56]
          +0.003*[#  32]+0.003*[#  36]+0.003*[#  40]+0.003*[#  44]+0.003*[#  48]
          +0.003*[#  52]
    |psi|^2 = 0.576
==== e(  59) =     9.18033 eV ==== 

    |psi|^2 = 0.001
==== e(  60) =     9.18033 eV ==== 

    |psi|^2 = 0.001
==== e(  61) =     9.96505 eV ==== 

    |psi|^2 = 0.001
==== e(  62) =     9.96505 eV ==== 

    |psi|^2 = 0.001
==== e(  63) =    10.51123 eV ==== 
     psi = 0.021*[#  12]+0.021*[#  22]+0.004*[#   2]+0.003*[#  31]+0.003*[#  35]
          +0.003*[#  39]+0.003*[#  43]+0.003*[#  47]+0.003*[#  51]
    |psi|^2 = 0.070
==== e(  64) =    10.81563 eV ==== 
     psi = 0.002*[#  12]+0.002*[#  22]
    |psi|^2 = 0.004

 k =   0.0227272727  0.0131215970  0.0000000000
==== e(   1) =   -93.52243 eV ==== 
     psi = 0.381*[#  11]+0.381*[#  21]+0.220*[#   1]+0.005*[#   2]+0.003*[#  12]
          +0.003*[#  22]+0.001*[#  32]+0.001*[#  36]+0.001*[#  40]+0.001*[#  44]
          +0.001*[#  48]+0.001*[#  52]
    |psi|^2 = 1.000
==== e(   2) =   -93.51733 eV ==== 
     psi = 0.487*[#  11]+0.487*[#  21]+0.006*[#  12]+0.006*[#  22]+0.002*[#  38]
          +0.002*[#  46]+0.002*[#  33]+0.002*[#  41]+0.002*[#  49]+0.002*[#  53]
          
    |psi|^2 = 1.000
==== e(   3) =   -93.51616 eV ==== 
     psi = 0.757*[#   1]+0.109*[#  11]+0.109*[#  21]+0.006*[#   2]+0.002*[#  12]
          +0.002*[#  22]+0.002*[#  37]+0.002*[#  45]+0.002*[#  34]+0.002*[#  42]
          +0.002*[#  50]+0.002*[#  54]
    |psi|^2 = 1.000
==== e(   4) =   -56.77018 eV ==== 
     psi = 0.176*[#  14]+0.176*[#  15]+0.176*[#  24]+0.176*[#  25]+0.146*[#   4]
          +0.146*[#   5]
    |psi|^2 = 1.000
==== e(   5) =   -56.77017 eV ==== 
     psi = 0.176*[#  14]+0.176*[#  15]+0.176*[#  24]+0.176*[#  25]+0.146*[#   4]
          +0.146*[#   5]
    |psi|^2 = 1.000
==== e(   6) =   -56.76760 eV ==== 
     psi = 0.183*[#   4]+0.183*[#   5]+0.157*[#  14]+0.157*[#  15]+0.157*[#  24]
          +0.157*[#  25]
    |psi|^2 = 1.000
==== e(   7) =   -56.76756 eV ==== 
     psi = 0.183*[#   4]+0.183*[#   5]+0.157*[#  14]+0.157*[#  15]+0.157*[#  24]
          +0.157*[#  25]
    |psi|^2 = 1.000
==== e(   8) =   -56.73068 eV ==== 
     psi = 0.169*[#   4]+0.169*[#   5]+0.165*[#  14]+0.165*[#  15]+0.165*[#  24]
          +0.165*[#  25]
    |psi|^2 = 1.000
==== e(   9) =   -56.73061 eV ==== 
     psi = 0.169*[#   4]+0.169*[#   5]+0.165*[#  14]+0.165*[#  15]+0.165*[#  24]
          +0.165*[#  25]
    |psi|^2 = 1.000
==== e(  10) =   -56.72268 eV ==== 
     psi = 0.394*[#  13]+0.394*[#  23]+0.209*[#   3]
    |psi|^2 = 1.000
==== e(  11) =   -56.71450 eV ==== 
     psi = 0.499*[#  13]+0.499*[#  23]
    |psi|^2 = 1.000
==== e(  12) =   -56.71227 eV ==== 
     psi = 0.788*[#   3]+0.104*[#  13]+0.104*[#  23]
    |psi|^2 = 1.000
==== e(  13) =   -52.22478 eV ==== 
     psi = 0.999*[#  55]
    |psi|^2 = 1.000
==== e(  14) =   -24.14170 eV ==== 
     psi = 0.500*[#  58]+0.500*[#  59]
    |psi|^2 = 1.000
==== e(  15) =   -24.14169 eV ==== 
     psi = 0.500*[#  58]+0.500*[#  59]
    |psi|^2 = 1.000
==== e(  16) =   -24.10285 eV ==== 
     psi = 1.000*[#  57]
    |psi|^2 = 1.000
==== e(  17) =   -16.84034 eV ==== 
     psi = 0.108*[#   2]+0.108*[#  12]+0.108*[#  22]+0.106*[#  31]+0.106*[#  35]
          +0.106*[#  39]+0.106*[#  43]+0.106*[#  47]+0.106*[#  51]+0.003*[#   1]
          +0.003*[#  11]+0.003*[#  21]+0.003*[#  32]+0.003*[#  36]+0.003*[#  40]
          +0.003*[#  44]+0.003*[#  48]+0.003*[#  52]+0.002*[#   6]+0.002*[#  16]
          +0.002*[#  26]
    |psi|^2 = 0.999
==== e(  18) =   -15.17814 eV ==== 
     psi = 0.155*[#  31]+0.155*[#  35]+0.155*[#  39]+0.155*[#  43]+0.155*[#  47]
          +0.155*[#  51]+0.004*[#   9]+0.004*[#  10]+0.004*[#  19]+0.004*[#  20]
          +0.004*[#  29]+0.004*[#  30]+0.004*[#   7]+0.004*[#   8]+0.004*[#  17]
          +0.004*[#  18]+0.004*[#  27]+0.004*[#  28]+0.002*[#  32]+0.002*[#  36]
          +0.002*[#  40]+0.002*[#  44]+0.002*[#  48]+0.002*[#  52]
    |psi|^2 = 0.998
==== e(  19) =   -15.17667 eV ==== 
     psi = 0.155*[#  31]+0.155*[#  35]+0.155*[#  39]+0.155*[#  43]+0.155*[#  47]
          +0.155*[#  51]+0.004*[#   9]+0.004*[#  10]+0.004*[#  19]+0.004*[#  20]
          +0.004*[#  29]+0.004*[#  30]+0.004*[#   7]+0.004*[#   8]+0.004*[#  17]
          +0.004*[#  18]+0.004*[#  27]+0.004*[#  28]+0.002*[#  32]+0.002*[#  36]
          +0.002*[#  40]+0.002*[#  44]+0.002*[#  48]+0.002*[#  52]
    |psi|^2 = 0.998
==== e(  20) =   -15.15907 eV ==== 
     psi = 0.155*[#  31]+0.155*[#  35]+0.155*[#  39]+0.155*[#  43]+0.155*[#  47]
          +0.155*[#  51]+0.005*[#   9]+0.005*[#  10]+0.005*[#  19]+0.005*[#  20]
          +0.005*[#  29]+0.005*[#  30]+0.004*[#   7]+0.004*[#   8]+0.004*[#  17]
          +0.004*[#  18]+0.004*[#  27]+0.004*[#  28]+0.001*[#  32]+0.001*[#  36]
          +0.001*[#  40]+0.001*[#  44]+0.001*[#  48]+0.001*[#  52]
    |psi|^2 = 0.998
==== e(  21) =   -15.15767 eV ==== 
     psi = 0.155*[#  31]+0.155*[#  35]+0.155*[#  39]+0.155*[#  43]+0.155*[#  47]
          +0.155*[#  51]+0.005*[#   9]+0.005*[#  10]+0.005*[#  19]+0.005*[#  20]
          +0.005*[#  29]+0.005*[#  30]+0.004*[#   7]+0.004*[#   8]+0.004*[#  17]
          +0.004*[#  18]+0.004*[#  27]+0.004*[#  28]+0.001*[#  32]+0.001*[#  36]
          +0.001*[#  40]+0.001*[#  44]+0.001*[#  48]+0.001*[#  52]
    |psi|^2 = 0.998
==== e(  22) =   -14.91834 eV ==== 
     psi = 0.165*[#  31]+0.165*[#  35]+0.165*[#  39]+0.165*[#  43]+0.165*[#  47]
          +0.165*[#  51]
    |psi|^2 = 0.995
==== e(  23) =    -3.05500 eV ==== 
     psi = 0.111*[#   6]+0.109*[#  16]+0.109*[#  26]+0.101*[#  32]+0.101*[#  36]
          +0.101*[#  40]+0.101*[#  44]+0.101*[#  48]+0.101*[#  52]+0.010*[#  56]
          +0.008*[#  31]+0.008*[#  35]+0.008*[#  39]+0.008*[#  43]+0.008*[#  47]
          +0.008*[#  51]+0.002*[#  11]+0.002*[#  21]+0.001*[#   1]
    |psi|^2 = 0.997
==== e(  24) =    -2.93909 eV ==== 
     psi = 0.052*[#   7]+0.052*[#   8]+0.050*[#  38]+0.050*[#  46]+0.050*[#  33]
          +0.050*[#  41]+0.050*[#  49]+0.050*[#  53]+0.050*[#  34]+0.050*[#  42]
          +0.050*[#  50]+0.050*[#  54]+0.050*[#  37]+0.050*[#  45]+0.035*[#  17]
          +0.035*[#  18]+0.035*[#  27]+0.035*[#  28]+0.017*[#  32]+0.017*[#  36]
          +0.017*[#  40]+0.017*[#  44]+0.017*[#  48]+0.017*[#  52]+0.008*[#   9]
          +0.008*[#  10]+0.006*[#  19]+0.006*[#  20]+0.006*[#  29]+0.006*[#  30]
          +0.002*[#  12]+0.002*[#  22]+0.002*[#   2]
    |psi|^2 = 0.990
==== e(  25) =    -2.92512 eV ==== 
     psi = 0.051*[#  37]+0.051*[#  45]+0.051*[#  34]+0.051*[#  42]+0.051*[#  50]
          +0.051*[#  54]+0.050*[#  33]+0.050*[#  41]+0.050*[#  49]+0.050*[#  53]
          +0.050*[#  38]+0.050*[#  46]+0.048*[#  17]+0.048*[#  18]+0.048*[#  27]
          +0.048*[#  28]+0.032*[#   7]+0.032*[#   8]+0.015*[#  32]+0.015*[#  36]
          +0.015*[#  40]+0.015*[#  44]+0.015*[#  48]+0.015*[#  52]+0.005*[#  19]
          +0.005*[#  20]+0.005*[#  29]+0.005*[#  30]+0.003*[#   2]+0.003*[#   9]
          +0.003*[#  10]+0.002*[#  12]+0.002*[#  22]
    |psi|^2 = 0.990
==== e(  26) =    -2.92499 eV ==== 
     psi = 0.055*[#   7]+0.055*[#   8]+0.050*[#  37]+0.050*[#  45]+0.050*[#  34]
          +0.050*[#  42]+0.050*[#  50]+0.050*[#  54]+0.049*[#  33]+0.049*[#  41]
          +0.049*[#  49]+0.049*[#  53]+0.049*[#  38]+0.049*[#  46]+0.035*[#  17]
          +0.035*[#  18]+0.035*[#  27]+0.035*[#  28]+0.017*[#  32]+0.017*[#  36]
          +0.017*[#  40]+0.017*[#  44]+0.017*[#  48]+0.017*[#  52]+0.008*[#   9]
          +0.008*[#  10]+0.006*[#  19]+0.006*[#  20]+0.006*[#  29]+0.006*[#  30]
          
    |psi|^2 = 0.989
==== e(  27) =    -2.91186 eV ==== 
     psi = 0.051*[#  17]+0.051*[#  18]+0.051*[#  27]+0.051*[#  28]+0.050*[#  34]
          +0.050*[#  37]+0.050*[#  42]+0.050*[#  45]+0.050*[#  50]+0.050*[#  54]
          +0.050*[#  33]+0.050*[#  38]+0.050*[#  41]+0.050*[#  46]+0.050*[#  49]
          +0.050*[#  53]+0.031*[#   7]+0.031*[#   8]+0.016*[#  32]+0.016*[#  36]
          +0.016*[#  40]+0.016*[#  44]+0.016*[#  48]+0.016*[#  52]+0.005*[#  19]
          +0.005*[#  20]+0.005*[#  29]+0.005*[#  30]+0.002*[#   9]+0.002*[#  10]
          
    |psi|^2 = 0.989
==== e(  28) =    -2.71373 eV ==== 
     psi = 0.070*[#   9]+0.070*[#  10]+0.070*[#  19]+0.070*[#  20]+0.070*[#  29]
          +0.070*[#  30]+0.039*[#  38]+0.039*[#  46]+0.039*[#  33]+0.039*[#  41]
          +0.039*[#  49]+0.039*[#  53]+0.038*[#  34]+0.038*[#  42]+0.038*[#  50]
          +0.038*[#  54]+0.038*[#  37]+0.038*[#  45]+0.020*[#  17]+0.020*[#  18]
          +0.020*[#  27]+0.020*[#  28]+0.019*[#   7]+0.019*[#   8]
    |psi|^2 = 0.998
==== e(  29) =    -2.71029 eV ==== 
     psi = 0.070*[#   9]+0.070*[#  10]+0.070*[#  19]+0.070*[#  20]+0.070*[#  29]
          +0.070*[#  30]+0.039*[#  38]+0.039*[#  46]+0.039*[#  33]+0.039*[#  41]
          +0.039*[#  49]+0.039*[#  53]+0.038*[#  34]+0.038*[#  42]+0.038*[#  50]
          +0.038*[#  54]+0.038*[#  37]+0.038*[#  45]+0.020*[#  17]+0.020*[#  18]
          +0.020*[#  27]+0.020*[#  28]+0.019*[#   7]+0.019*[#   8]
    |psi|^2 = 0.998
==== e(  30) =    -2.46794 eV ==== 
     psi = 0.133*[#  37]+0.133*[#  45]+0.103*[#   2]+0.100*[#  34]+0.100*[#  42]
          +0.100*[#  50]+0.100*[#  54]+0.035*[#  33]+0.035*[#  41]+0.035*[#  49]
          +0.035*[#  53]+0.026*[#  12]+0.026*[#  22]+0.008*[#   6]+0.003*[#   1]
          +0.003*[#  16]+0.003*[#  26]+0.002*[#  38]+0.002*[#  46]+0.002*[#  17]
          +0.002*[#  18]+0.002*[#  27]+0.002*[#  28]
    |psi|^2 = 0.997
==== e(  31) =    -2.46073 eV ==== 
     psi = 0.133*[#  38]+0.133*[#  46]+0.100*[#  33]+0.100*[#  41]+0.100*[#  49]
          +0.100*[#  53]+0.077*[#  12]+0.077*[#  22]+0.035*[#  34]+0.035*[#  42]
          +0.035*[#  50]+0.035*[#  54]+0.007*[#  16]+0.007*[#  26]+0.002*[#   7]
          +0.002*[#   8]+0.002*[#  37]+0.002*[#  45]+0.002*[#  11]+0.002*[#  21]
          
    |psi|^2 = 0.997
==== e(  32) =    -0.92209 eV ==== 
     psi = 0.083*[#  32]+0.083*[#  36]+0.083*[#  40]+0.083*[#  44]+0.083*[#  48]
          +0.083*[#  52]+0.072*[#  19]+0.072*[#  20]+0.072*[#  29]+0.072*[#  30]
          +0.019*[#  17]+0.019*[#  18]+0.019*[#  27]+0.019*[#  28]+0.008*[#  38]
          +0.008*[#  46]+0.008*[#   9]+0.008*[#  10]+0.007*[#  33]+0.007*[#  41]
          +0.007*[#  49]+0.007*[#  53]+0.006*[#  31]+0.006*[#  35]+0.006*[#  39]
          +0.006*[#  43]+0.006*[#  47]+0.006*[#  51]+0.006*[#  34]+0.006*[#  42]
          +0.006*[#  50]+0.006*[#  54]+0.005*[#  37]+0.005*[#  45]+0.002*[#   7]
          +0.002*[#   8]
    |psi|^2 = 0.997
==== e(  33) =    -0.91851 eV ==== 
     psi = 0.093*[#   9]+0.093*[#  10]+0.080*[#  32]+0.080*[#  36]+0.080*[#  40]
          +0.080*[#  44]+0.080*[#  48]+0.080*[#  52]+0.029*[#  19]+0.029*[#  20]
          +0.029*[#  29]+0.029*[#  30]+0.026*[#   7]+0.026*[#   8]+0.009*[#  37]
          +0.009*[#  45]+0.009*[#  17]+0.009*[#  18]+0.009*[#  27]+0.009*[#  28]
          +0.008*[#  34]+0.008*[#  42]+0.008*[#  50]+0.008*[#  54]+0.007*[#  31]
          +0.007*[#  35]+0.007*[#  39]+0.007*[#  43]+0.007*[#  47]+0.007*[#  51]
          +0.006*[#  33]+0.006*[#  41]+0.006*[#  49]+0.006*[#  53]+0.005*[#  38]
          +0.005*[#  46]
    |psi|^2 = 0.997
==== e(  34) =    -0.91386 eV ==== 
     psi = 0.085*[#  32]+0.085*[#  36]+0.085*[#  40]+0.085*[#  44]+0.085*[#  48]
          +0.085*[#  52]+0.074*[#  19]+0.074*[#  20]+0.074*[#  29]+0.074*[#  30]
          +0.019*[#  17]+0.019*[#  18]+0.019*[#  27]+0.019*[#  28]+0.008*[#   9]
          +0.008*[#  10]+0.007*[#  31]+0.007*[#  35]+0.007*[#  39]+0.007*[#  43]
          +0.007*[#  47]+0.007*[#  51]+0.004*[#  33]+0.004*[#  34]+0.004*[#  37]
          +0.004*[#  41]+0.004*[#  42]+0.004*[#  45]+0.004*[#  38]+0.004*[#  46]
          +0.004*[#  49]+0.004*[#  50]+0.004*[#  53]+0.004*[#  54]+0.002*[#   7]
          +0.002*[#   8]+0.001*[#   6]
    |psi|^2 = 0.998
==== e(  35) =    -0.90987 eV ==== 
     psi = 0.096*[#   9]+0.096*[#  10]+0.083*[#  32]+0.083*[#  36]+0.083*[#  40]
          +0.083*[#  44]+0.083*[#  48]+0.083*[#  52]+0.029*[#  19]+0.029*[#  20]
          +0.029*[#  29]+0.029*[#  30]+0.026*[#   7]+0.026*[#   8]+0.008*[#  17]
          +0.008*[#  18]+0.008*[#  27]+0.008*[#  28]+0.007*[#  31]+0.007*[#  35]
          +0.007*[#  39]+0.007*[#  43]+0.007*[#  47]+0.007*[#  51]+0.005*[#  33]
          +0.005*[#  34]+0.005*[#  37]+0.005*[#  38]+0.005*[#  41]+0.005*[#  42]
          +0.005*[#  45]+0.005*[#  46]+0.005*[#  49]+0.005*[#  50]+0.005*[#  53]
          +0.005*[#  54]
    |psi|^2 = 0.998
==== e(  36) =    -0.48503 eV ==== 
     psi = 0.158*[#  37]+0.158*[#  45]+0.119*[#  34]+0.119*[#  42]+0.119*[#  50]
          +0.119*[#  54]+0.040*[#  33]+0.040*[#  41]+0.040*[#  49]+0.040*[#  53]
          +0.003*[#   9]+0.003*[#  10]+0.003*[#  32]+0.003*[#  36]+0.003*[#  40]
          +0.003*[#  44]+0.003*[#  48]+0.003*[#  52]+0.002*[#   3]
    |psi|^2 = 0.983
==== e(  37) =    -0.47673 eV ==== 
     psi = 0.159*[#  38]+0.159*[#  46]+0.119*[#  33]+0.119*[#  41]+0.119*[#  49]
          +0.119*[#  53]+0.040*[#  34]+0.040*[#  42]+0.040*[#  50]+0.040*[#  54]
          +0.003*[#  32]+0.003*[#  36]+0.003*[#  40]+0.003*[#  44]+0.003*[#  48]
          +0.003*[#  52]+0.002*[#  19]+0.002*[#  20]+0.002*[#  29]+0.002*[#  30]
          +0.001*[#  13]+0.001*[#  23]
    |psi|^2 = 0.984
==== e(  38) =     0.48138 eV ==== 
     psi = 0.161*[#  32]+0.161*[#  36]+0.161*[#  40]+0.161*[#  44]+0.161*[#  48]
          +0.161*[#  52]+0.002*[#   7]+0.002*[#   8]+0.002*[#  17]+0.002*[#  18]
          +0.002*[#  27]+0.002*[#  28]
    |psi|^2 = 0.982
==== e(  39) =     0.69036 eV ==== 
     psi = 0.114*[#   7]+0.114*[#   8]+0.114*[#  17]+0.114*[#  18]+0.114*[#  27]
          +0.114*[#  28]+0.044*[#   9]+0.044*[#  10]+0.044*[#  19]+0.044*[#  20]
          +0.044*[#  29]+0.044*[#  30]+0.004*[#  33]+0.004*[#  34]+0.004*[#  37]
          +0.004*[#  38]+0.004*[#  41]+0.004*[#  42]+0.004*[#  45]+0.004*[#  46]
          +0.004*[#  49]+0.004*[#  50]+0.004*[#  53]+0.004*[#  54]
    |psi|^2 = 0.999
==== e(  40) =     0.69241 eV ==== 
     psi = 0.113*[#   7]+0.113*[#   8]+0.113*[#  17]+0.113*[#  18]+0.113*[#  27]
          +0.113*[#  28]+0.044*[#   9]+0.044*[#  10]+0.044*[#  19]+0.044*[#  20]
          +0.044*[#  29]+0.044*[#  30]+0.004*[#  33]+0.004*[#  34]+0.004*[#  37]
          +0.004*[#  38]+0.004*[#  41]+0.004*[#  42]+0.004*[#  45]+0.004*[#  46]
          +0.004*[#  49]+0.004*[#  50]+0.004*[#  53]+0.004*[#  54]+0.002*[#  32]
          +0.002*[#  36]+0.002*[#  40]+0.002*[#  44]+0.002*[#  48]+0.002*[#  52]
          
    |psi|^2 = 0.999
==== e(  41) =     0.72797 eV ==== 
     psi = 0.446*[#  16]+0.446*[#  26]+0.090*[#   6]+0.002*[#  38]+0.002*[#  46]
          +0.001*[#  33]+0.001*[#  41]+0.001*[#  49]+0.001*[#  53]
    |psi|^2 = 0.999
==== e(  42) =     0.72825 eV ==== 
     psi = 0.564*[#   6]+0.210*[#  16]+0.210*[#  26]+0.002*[#  37]+0.002*[#  45]
          +0.002*[#  34]+0.002*[#  42]+0.002*[#  50]+0.002*[#  54]
    |psi|^2 = 0.999
==== e(  43) =     1.05770 eV ==== 
     psi = 0.079*[#  33]+0.079*[#  38]+0.079*[#  46]+0.079*[#  34]+0.079*[#  41]
          +0.079*[#  42]+0.079*[#  49]+0.079*[#  50]+0.079*[#  53]+0.079*[#  37]
          +0.079*[#  45]+0.079*[#  54]+0.005*[#   7]+0.005*[#   8]+0.005*[#  17]
          +0.005*[#  18]+0.005*[#  27]+0.005*[#  28]+0.002*[#   9]+0.002*[#  10]
          +0.002*[#  19]+0.002*[#  20]+0.002*[#  29]+0.002*[#  30]
    |psi|^2 = 0.994
==== e(  44) =     1.06565 eV ==== 
     psi = 0.079*[#  33]+0.079*[#  38]+0.079*[#  41]+0.079*[#  46]+0.079*[#  34]
          +0.079*[#  42]+0.079*[#  49]+0.079*[#  37]+0.079*[#  45]+0.079*[#  50]
          +0.079*[#  53]+0.079*[#  54]+0.005*[#   7]+0.005*[#   8]+0.005*[#  17]
          +0.005*[#  18]+0.005*[#  27]+0.005*[#  28]+0.002*[#   9]+0.002*[#  10]
          +0.002*[#  19]+0.002*[#  20]+0.002*[#  29]+0.002*[#  30]
    |psi|^2 = 0.994
==== e(  45) =     1.76505 eV ==== 
     psi = 0.085*[#   9]+0.085*[#  10]+0.081*[#  19]+0.081*[#  20]+0.081*[#  29]
          +0.081*[#  30]+0.040*[#   7]+0.040*[#   8]+0.038*[#  17]+0.038*[#  18]
          +0.038*[#  27]+0.038*[#  28]+0.032*[#  32]+0.032*[#  36]+0.032*[#  40]
          +0.032*[#  44]+0.032*[#  48]+0.032*[#  52]+0.006*[#  33]+0.006*[#  34]
          +0.006*[#  37]+0.006*[#  38]+0.006*[#  41]+0.006*[#  42]+0.006*[#  45]
          +0.006*[#  46]+0.006*[#  49]+0.006*[#  50]+0.006*[#  53]+0.006*[#  54]
          
    |psi|^2 = 0.992
==== e(  46) =     1.76589 eV ==== 
     psi = 0.085*[#   9]+0.085*[#  10]+0.081*[#  19]+0.081*[#  20]+0.081*[#  29]
          +0.081*[#  30]+0.040*[#   7]+0.040*[#   8]+0.038*[#  17]+0.038*[#  18]
          +0.038*[#  27]+0.038*[#  28]+0.032*[#  32]+0.032*[#  36]+0.032*[#  40]
          +0.032*[#  44]+0.032*[#  48]+0.032*[#  52]+0.006*[#  33]+0.006*[#  34]
          +0.006*[#  37]+0.006*[#  38]+0.006*[#  41]+0.006*[#  42]+0.006*[#  45]
          +0.006*[#  46]+0.006*[#  49]+0.006*[#  50]+0.006*[#  53]+0.006*[#  54]
          
    |psi|^2 = 0.992
==== e(  47) =     1.82247 eV ==== 
     psi = 0.079*[#  19]+0.079*[#  20]+0.079*[#  29]+0.079*[#  30]+0.075*[#   9]
          +0.075*[#  10]+0.041*[#  17]+0.041*[#  18]+0.041*[#  27]+0.041*[#  28]
          +0.039*[#   7]+0.039*[#   8]+0.031*[#  32]+0.031*[#  36]+0.031*[#  40]
          +0.031*[#  44]+0.031*[#  48]+0.031*[#  52]+0.008*[#  33]+0.008*[#  34]
          +0.008*[#  37]+0.008*[#  38]+0.008*[#  41]+0.008*[#  42]+0.008*[#  45]
          +0.008*[#  46]+0.008*[#  49]+0.008*[#  50]+0.008*[#  53]+0.008*[#  54]
          
    |psi|^2 = 0.992
==== e(  48) =     1.82348 eV ==== 
     psi = 0.080*[#  19]+0.080*[#  20]+0.080*[#  29]+0.080*[#  30]+0.075*[#   9]
          +0.075*[#  10]+0.041*[#  17]+0.041*[#  18]+0.041*[#  27]+0.041*[#  28]
          +0.039*[#   7]+0.039*[#   8]+0.031*[#  32]+0.031*[#  36]+0.031*[#  40]
          +0.031*[#  44]+0.031*[#  48]+0.031*[#  52]+0.008*[#  33]+0.008*[#  34]
          +0.008*[#  37]+0.008*[#  38]+0.008*[#  41]+0.008*[#  42]+0.008*[#  45]
          +0.008*[#  46]+0.008*[#  49]+0.008*[#  50]+0.008*[#  53]+0.008*[#  54]
          
    |psi|^2 = 0.992
==== e(  49) =     1.85316 eV ==== 
     psi = 0.531*[#  56]+0.117*[#   6]+0.117*[#  16]+0.117*[#  26]+0.018*[#  32]
          +0.018*[#  36]+0.018*[#  40]+0.018*[#  44]+0.018*[#  48]+0.018*[#  52]
          +0.002*[#   2]+0.002*[#  12]+0.002*[#  22]
    |psi|^2 = 0.995
==== e(  50) =     2.24930 eV ==== 
     psi = 0.434*[#  56]+0.102*[#   6]+0.102*[#  16]+0.102*[#  26]+0.033*[#  32]
          +0.033*[#  36]+0.033*[#  40]+0.033*[#  44]+0.033*[#  48]+0.033*[#  52]
          +0.003*[#   2]+0.003*[#  12]+0.003*[#  22]+0.003*[#  31]+0.003*[#  35]
          +0.003*[#  39]+0.003*[#  43]+0.003*[#  47]+0.003*[#  51]
    |psi|^2 = 0.969
==== e(  51) =     3.95169 eV ==== 
     psi = 0.090*[#  17]+0.090*[#  18]+0.090*[#  27]+0.090*[#  28]+0.032*[#  19]
          +0.032*[#  20]+0.032*[#  29]+0.032*[#  30]+0.030*[#  32]+0.030*[#  36]
          +0.030*[#  40]+0.030*[#  44]+0.030*[#  48]+0.030*[#  52]+0.021*[#  33]
          +0.021*[#  34]+0.021*[#  37]+0.021*[#  38]+0.021*[#  41]+0.021*[#  42]
          +0.021*[#  45]+0.021*[#  46]+0.021*[#  49]+0.021*[#  50]+0.021*[#  53]
          +0.021*[#  54]+0.018*[#   7]+0.018*[#   8]+0.006*[#   9]+0.006*[#  10]
          +0.004*[#  31]+0.004*[#  35]+0.004*[#  39]+0.004*[#  43]+0.004*[#  47]
          +0.004*[#  51]
    |psi|^2 = 0.990
==== e(  52) =     3.95308 eV ==== 
     psi = 0.091*[#  17]+0.091*[#  18]+0.091*[#  27]+0.091*[#  28]+0.032*[#  19]
          +0.032*[#  20]+0.032*[#  29]+0.032*[#  30]+0.030*[#  32]+0.030*[#  36]
          +0.030*[#  40]+0.030*[#  44]+0.030*[#  48]+0.030*[#  52]+0.021*[#  33]
          +0.021*[#  38]+0.021*[#  34]+0.021*[#  41]+0.021*[#  46]+0.021*[#  37]
          +0.021*[#  42]+0.021*[#  49]+0.021*[#  45]+0.021*[#  50]+0.021*[#  53]
          +0.021*[#  54]+0.017*[#   7]+0.017*[#   8]+0.005*[#   9]+0.005*[#  10]
          +0.004*[#  31]+0.004*[#  35]+0.004*[#  39]+0.004*[#  43]+0.004*[#  47]
          +0.004*[#  51]
    |psi|^2 = 0.990
==== e(  53) =     3.95805 eV ==== 
     psi = 0.112*[#   7]+0.112*[#   8]+0.042*[#   9]+0.042*[#  10]+0.041*[#  17]
          +0.041*[#  18]+0.041*[#  27]+0.041*[#  28]+0.032*[#  32]+0.032*[#  36]
          +0.032*[#  40]+0.032*[#  44]+0.032*[#  48]+0.032*[#  52]+0.020*[#  33]
          +0.020*[#  38]+0.020*[#  34]+0.020*[#  41]+0.020*[#  46]+0.020*[#  37]
          +0.020*[#  42]+0.020*[#  49]+0.020*[#  45]+0.020*[#  50]+0.020*[#  53]
          +0.020*[#  54]+0.016*[#  19]+0.016*[#  20]+0.016*[#  29]+0.016*[#  30]
          +0.004*[#  31]+0.004*[#  35]+0.004*[#  39]+0.004*[#  43]+0.004*[#  47]
          +0.004*[#  51]
    |psi|^2 = 0.990
==== e(  54) =     3.95924 eV ==== 
     psi = 0.114*[#   7]+0.114*[#   8]+0.043*[#   9]+0.043*[#  10]+0.040*[#  17]
          +0.040*[#  18]+0.040*[#  27]+0.040*[#  28]+0.032*[#  32]+0.032*[#  36]
          +0.032*[#  40]+0.032*[#  44]+0.032*[#  48]+0.032*[#  52]+0.020*[#  33]
          +0.020*[#  34]+0.020*[#  37]+0.020*[#  38]+0.020*[#  41]+0.020*[#  42]
          +0.020*[#  45]+0.020*[#  46]+0.020*[#  49]+0.020*[#  50]+0.020*[#  53]
          +0.020*[#  54]+0.016*[#  19]+0.016*[#  20]+0.016*[#  29]+0.016*[#  30]
          +0.004*[#  31]+0.004*[#  35]+0.004*[#  39]+0.004*[#  43]+0.004*[#  47]
          +0.004*[#  51]
    |psi|^2 = 0.990
==== e(  55) =     4.68694 eV ==== 
     psi = 0.051*[#   9]+0.051*[#  10]+0.050*[#  19]+0.050*[#  20]+0.050*[#  29]
          +0.050*[#  30]+0.044*[#  37]+0.044*[#  45]+0.044*[#  33]+0.044*[#  34]
          +0.044*[#  41]+0.044*[#  42]+0.044*[#  38]+0.044*[#  46]+0.044*[#  49]
          +0.044*[#  50]+0.044*[#  53]+0.044*[#  54]+0.028*[#   7]+0.028*[#   8]
          +0.028*[#  17]+0.028*[#  18]+0.028*[#  27]+0.028*[#  28]
    |psi|^2 = 0.995
==== e(  56) =     4.69170 eV ==== 
     psi = 0.051*[#   9]+0.051*[#  10]+0.050*[#  19]+0.050*[#  20]+0.050*[#  29]
          +0.050*[#  30]+0.044*[#  37]+0.044*[#  45]+0.044*[#  33]+0.044*[#  34]
          +0.044*[#  41]+0.044*[#  42]+0.044*[#  38]+0.044*[#  46]+0.044*[#  49]
          +0.044*[#  50]+0.044*[#  53]+0.044*[#  54]+0.028*[#   7]+0.028*[#   8]
          +0.028*[#  17]+0.028*[#  18]+0.028*[#  27]+0.028*[#  28]
    |psi|^2 = 0.995
==== e(  57) =     5.95645 eV ==== 
     psi = 0.002*[#  32]+0.002*[#  36]+0.002*[#  40]+0.002*[#  44]+0.002*[#  48]
          +0.002*[#  52]
    |psi|^2 = 0.011
==== e(  58) =     8.48490 eV ==== 
     psi = 0.132*[#   2]+0.124*[#  12]+0.124*[#  22]+0.029*[#  31]+0.029*[#  35]
          +0.029*[#  39]+0.029*[#  43]+0.029*[#  47]+0.029*[#  51]+0.004*[#  56]
          +0.002*[#  32]+0.002*[#  36]+0.002*[#  40]+0.002*[#  44]+0.002*[#  48]
          +0.002*[#  52]
    |psi|^2 = 0.573
==== e(  59) =     9.11128 eV ==== 
     psi = 0.001*[#  12]+0.001*[#  22]
    |psi|^2 = 0.005
==== e(  60) =     9.14991 eV ==== 

    |psi|^2 = 0.001
==== e(  61) =     9.92981 eV ==== 

    |psi|^2 = 0.001
==== e(  62) =    10.00320 eV ==== 

    |psi|^2 = 0.001
==== e(  63) =    10.55436 eV ==== 
     psi = 0.020*[#  12]+0.020*[#  22]+0.004*[#   2]+0.003*[#  31]+0.003*[#  35]
          +0.003*[#  39]+0.003*[#  43]+0.003*[#  47]+0.003*[#  51]
    |psi|^2 = 0.068
==== e(  64) =    10.89115 eV ==== 
     psi = 0.002*[#  12]+0.002*[#  22]
    |psi|^2 = 0.004

 k =   0.0454545455  0.0262431941  0.0000000000
==== e(   1) =   -93.52241 eV ==== 
     psi = 0.381*[#  11]+0.381*[#  21]+0.219*[#   1]+0.004*[#   2]+0.003*[#  12]
          +0.003*[#  22]+0.001*[#  32]+0.001*[#  36]+0.001*[#  40]+0.001*[#  44]
          +0.001*[#  48]+0.001*[#  52]
    |psi|^2 = 1.000
==== e(   2) =   -93.51734 eV ==== 
     psi = 0.487*[#  11]+0.487*[#  21]+0.006*[#  12]+0.006*[#  22]+0.002*[#  38]
          +0.002*[#  46]+0.002*[#  33]+0.002*[#  41]+0.002*[#  49]+0.002*[#  53]
          
    |psi|^2 = 1.000
==== e(   3) =   -93.51617 eV ==== 
     psi = 0.758*[#   1]+0.109*[#  11]+0.109*[#  21]+0.006*[#   2]+0.002*[#  12]
          +0.002*[#  22]+0.002*[#  37]+0.002*[#  45]+0.002*[#  34]+0.002*[#  42]
          +0.002*[#  50]+0.002*[#  54]
    |psi|^2 = 1.000
==== e(   4) =   -56.77143 eV ==== 
     psi = 0.171*[#  14]+0.171*[#  15]+0.171*[#  24]+0.171*[#  25]+0.155*[#   4]
          +0.155*[#   5]
    |psi|^2 = 1.000
==== e(   5) =   -56.77130 eV ==== 
     psi = 0.171*[#  14]+0.171*[#  15]+0.171*[#  24]+0.171*[#  25]+0.155*[#   4]
          +0.155*[#   5]
    |psi|^2 = 1.000
==== e(   6) =   -56.76629 eV ==== 
     psi = 0.174*[#   4]+0.174*[#   5]+0.162*[#  14]+0.162*[#  15]+0.162*[#  24]
          +0.162*[#  25]
    |psi|^2 = 1.000
==== e(   7) =   -56.76616 eV ==== 
     psi = 0.174*[#   4]+0.174*[#   5]+0.162*[#  14]+0.162*[#  15]+0.162*[#  24]
          +0.162*[#  25]
    |psi|^2 = 1.000
==== e(   8) =   -56.73102 eV ==== 
     psi = 0.169*[#   4]+0.169*[#   5]+0.165*[#  14]+0.165*[#  15]+0.165*[#  24]
          +0.165*[#  25]
    |psi|^2 = 1.000
==== e(   9) =   -56.73070 eV ==== 
     psi = 0.169*[#   4]+0.169*[#   5]+0.165*[#  14]+0.165*[#  15]+0.165*[#  24]
          +0.165*[#  25]
    |psi|^2 = 1.000
==== e(  10) =   -56.72263 eV ==== 
     psi = 0.395*[#  13]+0.395*[#  23]+0.209*[#   3]
    |psi|^2 = 1.000
==== e(  11) =   -56.71451 eV ==== 
     psi = 0.499*[#  13]+0.499*[#  23]
    |psi|^2 = 1.000
==== e(  12) =   -56.71228 eV ==== 
     psi = 0.789*[#   3]+0.104*[#  13]+0.104*[#  23]
    |psi|^2 = 1.000
==== e(  13) =   -52.22478 eV ==== 
     psi = 0.999*[#  55]
    |psi|^2 = 1.000
==== e(  14) =   -24.14175 eV ==== 
     psi = 0.500*[#  58]+0.500*[#  59]
    |psi|^2 = 1.000
==== e(  15) =   -24.14170 eV ==== 
     psi = 0.500*[#  58]+0.500*[#  59]
    |psi|^2 = 1.000
==== e(  16) =   -24.10283 eV ==== 
     psi = 1.000*[#  57]
    |psi|^2 = 1.000
==== e(  17) =   -16.83451 eV ==== 
     psi = 0.108*[#   2]+0.108*[#  12]+0.108*[#  22]+0.107*[#  31]+0.107*[#  35]
          +0.107*[#  39]+0.107*[#  43]+0.107*[#  47]+0.107*[#  51]+0.003*[#   1]
          +0.003*[#  11]+0.003*[#  21]+0.003*[#  32]+0.003*[#  36]+0.003*[#  40]
          +0.003*[#  44]+0.003*[#  48]+0.003*[#  52]+0.002*[#   6]+0.002*[#  16]
          +0.002*[#  26]
    |psi|^2 = 0.999
==== e(  18) =   -15.19190 eV ==== 
     psi = 0.156*[#  31]+0.156*[#  35]+0.156*[#  39]+0.156*[#  43]+0.156*[#  47]
          +0.156*[#  51]+0.004*[#   9]+0.004*[#  10]+0.004*[#  19]+0.004*[#  20]
          +0.004*[#  29]+0.004*[#  30]+0.004*[#   7]+0.004*[#   8]+0.004*[#  17]
          +0.004*[#  18]+0.004*[#  27]+0.004*[#  28]+0.002*[#  32]+0.002*[#  36]
          +0.002*[#  40]+0.002*[#  44]+0.002*[#  48]+0.002*[#  52]
    |psi|^2 = 0.998
==== e(  19) =   -15.18590 eV ==== 
     psi = 0.156*[#  31]+0.156*[#  35]+0.156*[#  39]+0.156*[#  43]+0.156*[#  47]
          +0.156*[#  51]+0.004*[#   9]+0.004*[#  10]+0.004*[#  19]+0.004*[#  20]
          +0.004*[#  29]+0.004*[#  30]+0.004*[#   7]+0.004*[#   8]+0.004*[#  17]
          +0.004*[#  18]+0.004*[#  27]+0.004*[#  28]+0.002*[#  32]+0.002*[#  36]
          +0.002*[#  40]+0.002*[#  44]+0.002*[#  48]+0.002*[#  52]
    |psi|^2 = 0.998
==== e(  20) =   -15.15339 eV ==== 
     psi = 0.154*[#  31]+0.154*[#  35]+0.154*[#  39]+0.154*[#  43]+0.154*[#  47]
          +0.154*[#  51]+0.005*[#   9]+0.005*[#  10]+0.005*[#  19]+0.005*[#  20]
          +0.005*[#  29]+0.005*[#  30]+0.005*[#   7]+0.005*[#   8]+0.005*[#  17]
          +0.005*[#  18]+0.005*[#  27]+0.005*[#  28]+0.001*[#  32]+0.001*[#  36]
          +0.001*[#  40]+0.001*[#  44]+0.001*[#  48]+0.001*[#  52]
    |psi|^2 = 0.998
==== e(  21) =   -15.14795 eV ==== 
     psi = 0.155*[#  31]+0.155*[#  35]+0.155*[#  39]+0.155*[#  43]+0.155*[#  47]
          +0.155*[#  51]+0.005*[#   9]+0.005*[#  10]+0.005*[#  19]+0.005*[#  20]
          +0.005*[#  29]+0.005*[#  30]+0.005*[#   7]+0.005*[#   8]+0.005*[#  17]
          +0.005*[#  18]+0.005*[#  27]+0.005*[#  28]+0.001*[#  32]+0.001*[#  36]
          +0.001*[#  40]+0.001*[#  44]+0.001*[#  48]+0.001*[#  52]
    |psi|^2 = 0.998
==== e(  22) =   -14.91858 eV ==== 
     psi = 0.165*[#  31]+0.165*[#  35]+0.165*[#  39]+0.165*[#  43]+0.165*[#  47]
          +0.165*[#  51]
    |psi|^2 = 0.995
==== e(  23) =    -3.04831 eV ==== 
     psi = 0.111*[#   6]+0.109*[#  16]+0.109*[#  26]+0.101*[#  32]+0.101*[#  36]
          +0.101*[#  40]+0.101*[#  44]+0.101*[#  48]+0.101*[#  52]+0.010*[#  56]
          +0.008*[#  31]+0.008*[#  35]+0.008*[#  39]+0.008*[#  43]+0.008*[#  47]
          +0.008*[#  51]+0.002*[#  11]+0.002*[#  21]+0.001*[#   1]
    |psi|^2 = 0.997
==== e(  24) =    -2.98134 eV ==== 
     psi = 0.051*[#  38]+0.051*[#  46]+0.050*[#  33]+0.050*[#  41]+0.050*[#  49]
          +0.050*[#  53]+0.050*[#  34]+0.050*[#  42]+0.050*[#  50]+0.050*[#  54]
          +0.050*[#  37]+0.050*[#  45]+0.041*[#   7]+0.041*[#   8]+0.035*[#  17]
          +0.035*[#  18]+0.035*[#  27]+0.035*[#  28]+0.016*[#  32]+0.016*[#  36]
          +0.016*[#  40]+0.016*[#  44]+0.016*[#  48]+0.016*[#  52]+0.008*[#   9]
          +0.008*[#  10]+0.007*[#  19]+0.007*[#  20]+0.007*[#  29]+0.007*[#  30]
          +0.007*[#  12]+0.007*[#  22]+0.006*[#   2]
    |psi|^2 = 0.991
==== e(  25) =    -2.94898 eV ==== 
     psi = 0.052*[#  37]+0.052*[#  45]+0.052*[#  34]+0.052*[#  42]+0.052*[#  50]
          +0.052*[#  54]+0.051*[#  33]+0.051*[#  41]+0.051*[#  49]+0.051*[#  53]
          +0.051*[#  38]+0.051*[#  46]+0.043*[#  17]+0.043*[#  18]+0.043*[#  27]
          +0.043*[#  28]+0.038*[#   7]+0.038*[#   8]+0.014*[#  32]+0.014*[#  36]
          +0.014*[#  40]+0.014*[#  44]+0.014*[#  48]+0.014*[#  52]+0.007*[#   2]
          +0.006*[#  12]+0.006*[#  22]+0.003*[#  19]+0.003*[#  20]+0.003*[#  29]
          +0.003*[#  30]+0.002*[#   9]+0.002*[#  10]
    |psi|^2 = 0.991
==== e(  26) =    -2.92814 eV ==== 
     psi = 0.049*[#  37]+0.049*[#  45]+0.049*[#  34]+0.049*[#  42]+0.049*[#  50]
          +0.049*[#  54]+0.049*[#  33]+0.049*[#  41]+0.049*[#  49]+0.049*[#  53]
          +0.049*[#  38]+0.049*[#  46]+0.047*[#   7]+0.047*[#   8]+0.037*[#  17]
          +0.037*[#  18]+0.037*[#  27]+0.037*[#  28]+0.018*[#  32]+0.018*[#  36]
          +0.018*[#  40]+0.018*[#  44]+0.018*[#  48]+0.018*[#  52]+0.009*[#   9]
          +0.009*[#  10]+0.008*[#  19]+0.008*[#  20]+0.008*[#  29]+0.008*[#  30]
          
    |psi|^2 = 0.989
==== e(  27) =    -2.90233 eV ==== 
     psi = 0.051*[#  34]+0.051*[#  37]+0.051*[#  42]+0.051*[#  45]+0.051*[#  50]
          +0.051*[#  54]+0.050*[#  33]+0.050*[#  38]+0.050*[#  41]+0.050*[#  46]
          +0.050*[#  49]+0.050*[#  53]+0.048*[#  17]+0.048*[#  18]+0.048*[#  27]
          +0.048*[#  28]+0.039*[#   7]+0.039*[#   8]+0.015*[#  32]+0.015*[#  36]
          +0.015*[#  40]+0.015*[#  44]+0.015*[#  48]+0.015*[#  52]+0.003*[#  19]
          +0.003*[#  20]+0.003*[#  29]+0.003*[#  30]+0.002*[#   9]+0.002*[#  10]
          
    |psi|^2 = 0.989
==== e(  28) =    -2.71995 eV ==== 
     psi = 0.070*[#   9]+0.070*[#  10]+0.069*[#  19]+0.069*[#  20]+0.069*[#  29]
          +0.069*[#  30]+0.039*[#  38]+0.039*[#  46]+0.039*[#  33]+0.039*[#  41]
          +0.039*[#  49]+0.039*[#  53]+0.038*[#  34]+0.038*[#  42]+0.038*[#  50]
          +0.038*[#  54]+0.038*[#  37]+0.038*[#  45]+0.019*[#  17]+0.019*[#  18]
          +0.019*[#  27]+0.019*[#  28]+0.019*[#   7]+0.019*[#   8]
    |psi|^2 = 0.998
==== e(  29) =    -2.70627 eV ==== 
     psi = 0.070*[#   9]+0.070*[#  10]+0.069*[#  19]+0.069*[#  20]+0.069*[#  29]
          +0.069*[#  30]+0.039*[#  38]+0.039*[#  46]+0.039*[#  33]+0.039*[#  41]
          +0.039*[#  49]+0.039*[#  53]+0.039*[#  34]+0.039*[#  42]+0.039*[#  50]
          +0.039*[#  54]+0.038*[#  37]+0.038*[#  45]+0.020*[#  17]+0.020*[#  18]
          +0.020*[#  27]+0.020*[#  28]+0.019*[#   7]+0.019*[#   8]
    |psi|^2 = 0.998
==== e(  30) =    -2.42637 eV ==== 
     psi = 0.106*[#  37]+0.106*[#  45]+0.086*[#  34]+0.086*[#  42]+0.086*[#  50]
          +0.086*[#  54]+0.076*[#   2]+0.048*[#  33]+0.048*[#  41]+0.048*[#  49]
          +0.048*[#  53]+0.032*[#  12]+0.032*[#  22]+0.028*[#  38]+0.028*[#  46]
          +0.007*[#   6]+0.005*[#  17]+0.005*[#  18]+0.005*[#  27]+0.005*[#  28]
          +0.004*[#  16]+0.004*[#  26]+0.002*[#   1]+0.002*[#   7]+0.002*[#   8]
          +0.001*[#  32]+0.001*[#  36]+0.001*[#  40]+0.001*[#  44]+0.001*[#  48]
          +0.001*[#  52]
    |psi|^2 = 0.996
==== e(  31) =    -2.41600 eV ==== 
     psi = 0.106*[#  38]+0.106*[#  46]+0.086*[#  33]+0.086*[#  41]+0.086*[#  49]
          +0.086*[#  53]+0.061*[#  12]+0.061*[#  22]+0.047*[#  34]+0.047*[#  42]
          +0.047*[#  50]+0.047*[#  54]+0.028*[#  37]+0.028*[#  45]+0.017*[#   2]
          +0.006*[#  16]+0.006*[#  26]+0.006*[#   7]+0.006*[#   8]+0.003*[#  17]
          +0.003*[#  18]+0.003*[#  27]+0.003*[#  28]+0.002*[#   6]+0.002*[#  11]
          +0.002*[#  21]+0.002*[#  32]+0.002*[#  36]+0.002*[#  40]+0.002*[#  44]
          +0.002*[#  48]+0.002*[#  52]
    |psi|^2 = 0.996
==== e(  32) =    -0.95063 eV ==== 
     psi = 0.078*[#  32]+0.078*[#  36]+0.078*[#  40]+0.078*[#  44]+0.078*[#  48]
          +0.078*[#  52]+0.058*[#  19]+0.058*[#  20]+0.058*[#  29]+0.058*[#  30]
          +0.025*[#   9]+0.025*[#  10]+0.016*[#  17]+0.016*[#  18]+0.016*[#  27]
          +0.016*[#  28]+0.014*[#  38]+0.014*[#  46]+0.013*[#  33]+0.013*[#  41]
          +0.013*[#  49]+0.013*[#  53]+0.009*[#  34]+0.009*[#  42]+0.009*[#  50]
          +0.009*[#  54]+0.008*[#  37]+0.008*[#  45]+0.006*[#   7]+0.006*[#   8]
          +0.006*[#  31]+0.006*[#  35]+0.006*[#  39]+0.006*[#  43]+0.006*[#  47]
          +0.006*[#  51]
    |psi|^2 = 0.996
==== e(  33) =    -0.94603 eV ==== 
     psi = 0.071*[#  32]+0.071*[#  36]+0.071*[#  40]+0.071*[#  44]+0.071*[#  48]
          +0.071*[#  52]+0.067*[#   9]+0.067*[#  10]+0.035*[#  19]+0.035*[#  20]
          +0.035*[#  29]+0.035*[#  30]+0.023*[#   7]+0.023*[#   8]+0.017*[#  37]
          +0.017*[#  45]+0.015*[#  34]+0.015*[#  42]+0.015*[#  50]+0.015*[#  54]
          +0.013*[#  17]+0.013*[#  18]+0.013*[#  27]+0.013*[#  28]+0.011*[#  33]
          +0.011*[#  41]+0.011*[#  49]+0.011*[#  53]+0.009*[#  38]+0.009*[#  46]
          +0.006*[#  31]+0.006*[#  35]+0.006*[#  39]+0.006*[#  43]+0.006*[#  47]
          +0.006*[#  51]
    |psi|^2 = 0.996
==== e(  34) =    -0.92056 eV ==== 
     psi = 0.088*[#  32]+0.088*[#  36]+0.088*[#  40]+0.088*[#  44]+0.088*[#  48]
          +0.088*[#  52]+0.066*[#  19]+0.066*[#  20]+0.066*[#  29]+0.066*[#  30]
          +0.023*[#   9]+0.023*[#  10]+0.016*[#  17]+0.016*[#  18]+0.016*[#  27]
          +0.016*[#  28]+0.006*[#  31]+0.006*[#  35]+0.006*[#  39]+0.006*[#  43]
          +0.006*[#  47]+0.006*[#  51]+0.004*[#   7]+0.004*[#   8]+0.004*[#  33]
          +0.004*[#  34]+0.004*[#  37]+0.004*[#  41]+0.004*[#  42]+0.004*[#  45]
          +0.004*[#  38]+0.004*[#  46]+0.004*[#  49]+0.004*[#  50]+0.004*[#  53]
          +0.004*[#  54]+0.004*[#   6]+0.002*[#  16]+0.002*[#  26]
    |psi|^2 = 0.997
==== e(  35) =    -0.91440 eV ==== 
     psi = 0.081*[#  32]+0.081*[#  36]+0.081*[#  40]+0.081*[#  44]+0.081*[#  48]
          +0.081*[#  52]+0.080*[#   9]+0.080*[#  10]+0.036*[#  19]+0.036*[#  20]
          +0.036*[#  29]+0.036*[#  30]+0.023*[#   7]+0.023*[#   8]+0.012*[#  17]
          +0.012*[#  18]+0.012*[#  27]+0.012*[#  28]+0.007*[#  31]+0.007*[#  35]
          +0.007*[#  39]+0.007*[#  43]+0.007*[#  47]+0.007*[#  51]+0.006*[#  33]
          +0.006*[#  34]+0.006*[#  37]+0.006*[#  38]+0.006*[#  41]+0.006*[#  42]
          +0.006*[#  45]+0.006*[#  46]+0.006*[#  49]+0.006*[#  50]+0.006*[#  53]
          +0.006*[#  54]+0.003*[#  16]+0.003*[#  26]
    |psi|^2 = 0.998
==== e(  36) =    -0.45443 eV ==== 
     psi = 0.145*[#  37]+0.145*[#  45]+0.109*[#  34]+0.109*[#  42]+0.109*[#  50]
          +0.109*[#  54]+0.039*[#  33]+0.039*[#  41]+0.039*[#  49]+0.039*[#  53]
          +0.010*[#   9]+0.010*[#  10]+0.010*[#  32]+0.010*[#  36]+0.010*[#  40]
          +0.010*[#  44]+0.010*[#  48]+0.010*[#  52]+0.003*[#  38]+0.003*[#  46]
          +0.003*[#  19]+0.003*[#  20]+0.003*[#  29]+0.003*[#  30]+0.002*[#   3]
          
    |psi|^2 = 0.984
==== e(  37) =    -0.44686 eV ==== 
     psi = 0.145*[#  38]+0.145*[#  46]+0.110*[#  33]+0.110*[#  41]+0.110*[#  49]
          +0.110*[#  53]+0.039*[#  34]+0.039*[#  42]+0.039*[#  50]+0.039*[#  54]
          +0.009*[#  32]+0.009*[#  36]+0.009*[#  40]+0.009*[#  44]+0.009*[#  48]
          +0.009*[#  52]+0.008*[#  19]+0.008*[#  20]+0.008*[#  29]+0.008*[#  30]
          +0.003*[#  37]+0.003*[#  45]+0.001*[#  13]+0.001*[#  23]
    |psi|^2 = 0.985
==== e(  38) =     0.48449 eV ==== 
     psi = 0.152*[#  32]+0.152*[#  36]+0.152*[#  40]+0.152*[#  44]+0.152*[#  48]
          +0.152*[#  52]+0.009*[#   7]+0.009*[#   8]+0.009*[#  17]+0.009*[#  18]
          +0.009*[#  27]+0.009*[#  28]+0.002*[#   9]+0.002*[#  10]+0.002*[#  19]
          +0.002*[#  20]+0.002*[#  29]+0.002*[#  30]
    |psi|^2 = 0.983
==== e(  39) =     0.64589 eV ==== 
     psi = 0.103*[#   7]+0.103*[#   8]+0.103*[#  17]+0.103*[#  18]+0.103*[#  27]
          +0.103*[#  28]+0.039*[#   9]+0.039*[#  10]+0.039*[#  19]+0.039*[#  20]
          +0.039*[#  29]+0.039*[#  30]+0.012*[#  33]+0.012*[#  34]+0.012*[#  37]
          +0.012*[#  38]+0.012*[#  41]+0.012*[#  42]+0.012*[#  45]+0.012*[#  46]
          +0.012*[#  49]+0.012*[#  50]+0.012*[#  53]+0.012*[#  54]
    |psi|^2 = 0.998
==== e(  40) =     0.65876 eV ==== 
     psi = 0.096*[#   7]+0.096*[#   8]+0.096*[#  17]+0.096*[#  18]+0.096*[#  27]
          +0.096*[#  28]+0.038*[#   9]+0.038*[#  10]+0.038*[#  19]+0.038*[#  20]
          +0.038*[#  29]+0.038*[#  30]+0.011*[#  32]+0.011*[#  36]+0.011*[#  40]
          +0.011*[#  44]+0.011*[#  48]+0.011*[#  52]+0.010*[#  33]+0.010*[#  34]
          +0.010*[#  37]+0.010*[#  38]+0.010*[#  41]+0.010*[#  42]+0.010*[#  45]
          +0.010*[#  46]+0.010*[#  49]+0.010*[#  50]+0.010*[#  53]+0.010*[#  54]
          
    |psi|^2 = 0.997
==== e(  41) =     0.73414 eV ==== 
     psi = 0.350*[#  16]+0.350*[#  26]+0.277*[#   6]+0.001*[#  33]+0.001*[#  38]
          +0.001*[#  41]+0.001*[#  46]+0.001*[#  49]+0.001*[#  53]+0.001*[#  34]
          
    |psi|^2 = 0.999
==== e(  42) =     0.73570 eV ==== 
     psi = 0.373*[#   6]+0.302*[#  16]+0.302*[#  26]+0.001*[#  34]+0.001*[#  37]
          +0.001*[#  42]+0.001*[#  45]+0.001*[#  50]+0.001*[#  54]+0.001*[#  33]
          +0.001*[#  41]
    |psi|^2 = 0.999
==== e(  43) =     1.07415 eV ==== 
     psi = 0.070*[#  33]+0.070*[#  38]+0.070*[#  34]+0.070*[#  41]+0.070*[#  46]
          +0.070*[#  37]+0.070*[#  42]+0.070*[#  49]+0.070*[#  53]+0.070*[#  45]
          +0.070*[#  50]+0.070*[#  54]+0.016*[#   7]+0.016*[#   8]+0.016*[#  17]
          +0.016*[#  18]+0.016*[#  27]+0.016*[#  28]+0.008*[#   9]+0.008*[#  10]
          +0.008*[#  19]+0.008*[#  20]+0.008*[#  29]+0.008*[#  30]+0.002*[#   6]
          +0.002*[#  16]+0.002*[#  26]
    |psi|^2 = 0.994
==== e(  44) =     1.10310 eV ==== 
     psi = 0.072*[#  33]+0.072*[#  38]+0.072*[#  41]+0.072*[#  46]+0.072*[#  34]
          +0.072*[#  42]+0.072*[#  49]+0.072*[#  37]+0.072*[#  45]+0.072*[#  50]
          +0.072*[#  53]+0.072*[#  54]+0.014*[#   7]+0.014*[#   8]+0.014*[#  17]
          +0.014*[#  18]+0.014*[#  27]+0.014*[#  28]+0.007*[#   9]+0.007*[#  10]
          +0.007*[#  19]+0.007*[#  20]+0.007*[#  29]+0.007*[#  30]
    |psi|^2 = 0.994
==== e(  45) =     1.73195 eV ==== 
     psi = 0.086*[#   9]+0.086*[#  10]+0.084*[#  19]+0.084*[#  20]+0.084*[#  29]
          +0.084*[#  30]+0.038*[#   7]+0.038*[#   8]+0.037*[#  17]+0.037*[#  18]
          +0.037*[#  27]+0.037*[#  28]+0.032*[#  32]+0.032*[#  36]+0.032*[#  40]
          +0.032*[#  44]+0.032*[#  48]+0.032*[#  52]+0.006*[#  33]+0.006*[#  34]
          +0.006*[#  37]+0.005*[#  38]+0.006*[#  41]+0.006*[#  42]+0.006*[#  45]
          +0.005*[#  46]+0.006*[#  49]+0.006*[#  50]+0.006*[#  53]+0.006*[#  54]
          
    |psi|^2 = 0.992
==== e(  46) =     1.73495 eV ==== 
     psi = 0.086*[#   9]+0.086*[#  10]+0.084*[#  19]+0.084*[#  20]+0.084*[#  29]
          +0.084*[#  30]+0.038*[#   7]+0.038*[#   8]+0.037*[#  17]+0.037*[#  18]
          +0.037*[#  27]+0.037*[#  28]+0.032*[#  32]+0.032*[#  36]+0.032*[#  40]
          +0.032*[#  44]+0.032*[#  48]+0.032*[#  52]+0.005*[#  33]+0.006*[#  34]
          +0.006*[#  37]+0.005*[#  38]+0.005*[#  41]+0.006*[#  42]+0.006*[#  45]
          +0.005*[#  46]+0.005*[#  49]+0.006*[#  50]+0.005*[#  53]+0.006*[#  54]
          
    |psi|^2 = 0.992
==== e(  47) =     1.84576 eV ==== 
     psi = 0.076*[#  19]+0.076*[#  20]+0.076*[#  29]+0.076*[#  30]+0.074*[#   9]
          +0.074*[#  10]+0.042*[#  17]+0.042*[#  18]+0.042*[#  27]+0.042*[#  28]
          +0.041*[#   7]+0.041*[#   8]+0.031*[#  32]+0.031*[#  36]+0.031*[#  40]
          +0.031*[#  44]+0.031*[#  48]+0.031*[#  52]+0.008*[#  33]+0.008*[#  34]
          +0.008*[#  37]+0.008*[#  38]+0.008*[#  41]+0.008*[#  42]+0.008*[#  45]
          +0.008*[#  46]+0.008*[#  49]+0.008*[#  50]+0.008*[#  53]+0.008*[#  54]
          
    |psi|^2 = 0.992
==== e(  48) =     1.85011 eV ==== 
     psi = 0.077*[#  19]+0.077*[#  20]+0.077*[#  29]+0.077*[#  30]+0.075*[#   9]
          +0.075*[#  10]+0.042*[#  17]+0.042*[#  18]+0.042*[#  27]+0.042*[#  28]
          +0.041*[#   7]+0.041*[#   8]+0.031*[#  32]+0.031*[#  36]+0.031*[#  40]
          +0.031*[#  44]+0.031*[#  48]+0.031*[#  52]+0.008*[#  33]+0.008*[#  34]
          +0.008*[#  37]+0.008*[#  38]+0.008*[#  41]+0.008*[#  42]+0.008*[#  45]
          +0.008*[#  46]+0.008*[#  49]+0.008*[#  50]+0.008*[#  53]+0.008*[#  54]
          
    |psi|^2 = 0.992
==== e(  49) =     1.86090 eV ==== 
     psi = 0.522*[#  56]+0.118*[#   6]+0.118*[#  16]+0.118*[#  26]+0.018*[#  32]
          +0.018*[#  36]+0.018*[#  40]+0.018*[#  44]+0.018*[#  48]+0.018*[#  52]
          +0.002*[#   2]+0.002*[#  12]+0.002*[#  22]
    |psi|^2 = 0.995
==== e(  50) =     2.25892 eV ==== 
     psi = 0.444*[#  56]+0.100*[#   6]+0.099*[#  16]+0.099*[#  26]+0.033*[#  32]
          +0.033*[#  36]+0.033*[#  40]+0.033*[#  44]+0.033*[#  48]+0.033*[#  52]
          +0.003*[#   2]+0.003*[#  12]+0.003*[#  22]+0.003*[#  31]+0.003*[#  35]
          +0.003*[#  39]+0.003*[#  43]+0.003*[#  47]+0.003*[#  51]
    |psi|^2 = 0.969
==== e(  51) =     3.95034 eV ==== 
     psi = 0.083*[#  17]+0.083*[#  18]+0.083*[#  27]+0.083*[#  28]+0.035*[#   7]
          +0.035*[#   8]+0.028*[#  19]+0.028*[#  20]+0.028*[#  29]+0.028*[#  30]
          +0.028*[#  32]+0.028*[#  36]+0.028*[#  40]+0.028*[#  44]+0.028*[#  48]
          +0.028*[#  52]+0.022*[#  33]+0.022*[#  34]+0.022*[#  38]+0.022*[#  46]
          +0.022*[#  37]+0.022*[#  41]+0.022*[#  42]+0.022*[#  45]+0.022*[#  49]
          +0.022*[#  50]+0.022*[#  53]+0.022*[#  54]+0.011*[#   9]+0.011*[#  10]
          +0.004*[#  31]+0.004*[#  35]+0.004*[#  39]+0.004*[#  43]+0.004*[#  47]
          +0.004*[#  51]
    |psi|^2 = 0.989
==== e(  52) =     3.95632 eV ==== 
     psi = 0.086*[#  17]+0.086*[#  18]+0.086*[#  27]+0.086*[#  28]+0.030*[#   7]
          +0.030*[#   8]+0.029*[#  19]+0.029*[#  20]+0.029*[#  29]+0.029*[#  30]
          +0.028*[#  32]+0.028*[#  36]+0.028*[#  40]+0.028*[#  44]+0.028*[#  48]
          +0.028*[#  52]+0.022*[#  38]+0.022*[#  46]+0.022*[#  33]+0.022*[#  41]
          +0.022*[#  49]+0.022*[#  53]+0.022*[#  34]+0.022*[#  42]+0.022*[#  50]
          +0.022*[#  54]+0.022*[#  37]+0.022*[#  45]+0.009*[#   9]+0.009*[#  10]
          +0.004*[#  31]+0.004*[#  35]+0.004*[#  39]+0.004*[#  43]+0.004*[#  47]
          +0.004*[#  51]
    |psi|^2 = 0.989
==== e(  53) =     3.96005 eV ==== 
     psi = 0.094*[#   7]+0.094*[#   8]+0.048*[#  17]+0.048*[#  18]+0.048*[#  27]
          +0.048*[#  28]+0.037*[#   9]+0.037*[#  10]+0.034*[#  32]+0.034*[#  36]
          +0.034*[#  40]+0.034*[#  44]+0.034*[#  48]+0.034*[#  52]+0.020*[#  19]
          +0.020*[#  20]+0.020*[#  29]+0.020*[#  30]+0.019*[#  33]+0.019*[#  38]
          +0.019*[#  41]+0.019*[#  46]+0.019*[#  34]+0.019*[#  42]+0.019*[#  49]
          +0.019*[#  53]+0.019*[#  37]+0.019*[#  45]+0.019*[#  50]+0.019*[#  54]
          +0.004*[#  31]+0.004*[#  35]+0.004*[#  39]+0.004*[#  43]+0.004*[#  47]
          +0.004*[#  51]
    |psi|^2 = 0.991
==== e(  54) =     3.96433 eV ==== 
     psi = 0.100*[#   7]+0.100*[#   8]+0.045*[#  17]+0.045*[#  18]+0.045*[#  27]
          +0.045*[#  28]+0.039*[#   9]+0.039*[#  10]+0.034*[#  32]+0.034*[#  36]
          +0.034*[#  40]+0.034*[#  44]+0.034*[#  48]+0.034*[#  52]+0.019*[#  33]
          +0.019*[#  34]+0.019*[#  37]+0.019*[#  41]+0.019*[#  42]+0.019*[#  45]
          +0.019*[#  38]+0.019*[#  46]+0.019*[#  49]+0.019*[#  50]+0.019*[#  53]
          +0.019*[#  54]+0.019*[#  19]+0.019*[#  20]+0.019*[#  29]+0.019*[#  30]
          +0.004*[#  31]+0.004*[#  35]+0.004*[#  39]+0.004*[#  43]+0.004*[#  47]
          +0.004*[#  51]
    |psi|^2 = 0.991
==== e(  55) =     4.66899 eV ==== 
     psi = 0.051*[#   9]+0.051*[#  10]+0.050*[#  19]+0.050*[#  20]+0.050*[#  29]
          +0.050*[#  30]+0.044*[#  37]+0.044*[#  45]+0.044*[#  33]+0.044*[#  34]
          +0.044*[#  41]+0.044*[#  42]+0.044*[#  38]+0.044*[#  46]+0.044*[#  49]
          +0.044*[#  50]+0.044*[#  53]+0.044*[#  54]+0.028*[#   7]+0.028*[#   8]
          +0.028*[#  17]+0.028*[#  18]+0.028*[#  27]+0.028*[#  28]
    |psi|^2 = 0.993
==== e(  56) =     4.68782 eV ==== 
     psi = 0.050*[#   9]+0.050*[#  10]+0.050*[#  19]+0.050*[#  20]+0.050*[#  29]
          +0.050*[#  30]+0.044*[#  37]+0.044*[#  45]+0.044*[#  33]+0.044*[#  34]
          +0.044*[#  41]+0.044*[#  42]+0.044*[#  38]+0.044*[#  46]+0.044*[#  49]
          +0.044*[#  50]+0.044*[#  53]+0.044*[#  54]+0.028*[#   7]+0.028*[#   8]
          +0.028*[#  17]+0.028*[#  18]+0.028*[#  27]+0.028*[#  28]
    |psi|^2 = 0.995
==== e(  57) =     5.96844 eV ==== 
     psi = 0.002*[#  32]+0.002*[#  36]+0.002*[#  40]+0.002*[#  44]+0.002*[#  48]
          +0.002*[#  52]
    |psi|^2 = 0.012
==== e(  58) =     8.49825 eV ==== 
     psi = 0.130*[#   2]+0.120*[#  12]+0.120*[#  22]+0.028*[#  31]+0.028*[#  35]
          +0.028*[#  39]+0.028*[#  43]+0.028*[#  47]+0.028*[#  51]+0.004*[#  56]
          +0.002*[#  32]+0.002*[#  36]+0.002*[#  40]+0.002*[#  44]+0.002*[#  48]
          +0.002*[#  52]
    |psi|^2 = 0.558
==== e(  59) =     8.93716 eV ==== 
     psi = 0.005*[#  12]+0.005*[#  22]+0.002*[#   2]
    |psi|^2 = 0.020
==== e(  60) =     9.07175 eV ==== 

    |psi|^2 = 0.001
==== e(  61) =     9.83795 eV ==== 
     psi = 0.001*[#  12]+0.001*[#  22]
    |psi|^2 = 0.004
==== e(  62) =    10.10411 eV ==== 

    |psi|^2 = 0.000
==== e(  63) =    10.67230 eV ==== 
     psi = 0.019*[#  12]+0.019*[#  22]+0.004*[#   2]+0.003*[#  31]+0.003*[#  35]
          +0.003*[#  39]+0.003*[#  43]+0.003*[#  47]+0.003*[#  51]
    |psi|^2 = 0.065
==== e(  64) =    11.08309 eV ==== 
     psi = 0.002*[#  12]+0.002*[#  22]
    |psi|^2 = 0.004

 k =   0.0681818182  0.0393647911  0.0000000000
==== e(   1) =   -93.52237 eV ==== 
     psi = 0.382*[#  11]+0.382*[#  21]+0.218*[#   1]+0.004*[#   2]+0.003*[#  12]
          +0.003*[#  22]+0.001*[#  32]+0.001*[#  36]+0.001*[#  40]+0.001*[#  44]
          +0.001*[#  48]+0.001*[#  52]
    |psi|^2 = 1.000
==== e(   2) =   -93.51736 eV ==== 
     psi = 0.488*[#  11]+0.488*[#  21]+0.005*[#  12]+0.005*[#  22]+0.002*[#  38]
          +0.002*[#  46]+0.002*[#  33]+0.002*[#  41]+0.002*[#  49]+0.002*[#  53]
          
    |psi|^2 = 1.000
==== e(   3) =   -93.51618 eV ==== 
     psi = 0.759*[#   1]+0.108*[#  11]+0.108*[#  21]+0.006*[#   2]+0.002*[#  12]
          +0.002*[#  22]+0.002*[#  37]+0.002*[#  45]+0.002*[#  34]+0.002*[#  42]
          +0.002*[#  50]+0.002*[#  54]
    |psi|^2 = 1.000
==== e(   4) =   -56.77264 eV ==== 
     psi = 0.170*[#  14]+0.170*[#  15]+0.170*[#  24]+0.170*[#  25]+0.158*[#   4]
          +0.158*[#   5]
    |psi|^2 = 1.000
==== e(   5) =   -56.77240 eV ==== 
     psi = 0.170*[#  14]+0.170*[#  15]+0.170*[#  24]+0.170*[#  25]+0.158*[#   4]
          +0.158*[#   5]
    |psi|^2 = 1.000
==== e(   6) =   -56.76496 eV ==== 
     psi = 0.171*[#   4]+0.171*[#   5]+0.163*[#  14]+0.163*[#  15]+0.163*[#  24]
          +0.163*[#  25]
    |psi|^2 = 1.000
==== e(   7) =   -56.76465 eV ==== 
     psi = 0.171*[#   4]+0.171*[#   5]+0.163*[#  14]+0.163*[#  15]+0.163*[#  24]
          +0.163*[#  25]
    |psi|^2 = 1.000
==== e(   8) =   -56.73149 eV ==== 
     psi = 0.169*[#   4]+0.169*[#   5]+0.165*[#  14]+0.165*[#  15]+0.165*[#  24]
          +0.165*[#  25]
    |psi|^2 = 1.000
==== e(   9) =   -56.73081 eV ==== 
     psi = 0.169*[#   4]+0.169*[#   5]+0.165*[#  14]+0.165*[#  15]+0.165*[#  24]
          +0.165*[#  25]
    |psi|^2 = 1.000
==== e(  10) =   -56.72252 eV ==== 
     psi = 0.395*[#  13]+0.395*[#  23]+0.207*[#   3]
    |psi|^2 = 1.000
==== e(  11) =   -56.71452 eV ==== 
     psi = 0.498*[#  13]+0.498*[#  23]
    |psi|^2 = 1.000
==== e(  12) =   -56.71228 eV ==== 
     psi = 0.790*[#   3]+0.104*[#  13]+0.104*[#  23]
    |psi|^2 = 1.000
==== e(  13) =   -52.22478 eV ==== 
     psi = 0.999*[#  55]
    |psi|^2 = 1.000
==== e(  14) =   -24.14180 eV ==== 
     psi = 0.500*[#  58]+0.500*[#  59]
    |psi|^2 = 1.000
==== e(  15) =   -24.14170 eV ==== 
     psi = 0.500*[#  58]+0.500*[#  59]
    |psi|^2 = 1.000
==== e(  16) =   -24.10276 eV ==== 
     psi = 1.000*[#  57]
    |psi|^2 = 1.000
==== e(  17) =   -16.82479 eV ==== 
     psi = 0.107*[#   2]+0.107*[#  12]+0.107*[#  22]+0.107*[#  31]+0.107*[#  35]
          +0.107*[#  39]+0.107*[#  43]+0.107*[#  47]+0.107*[#  51]+0.003*[#   1]
          +0.003*[#  11]+0.003*[#  21]+0.003*[#  32]+0.003*[#  36]+0.003*[#  40]
          +0.003*[#  44]+0.003*[#  48]+0.003*[#  52]+0.002*[#   6]+0.002*[#  16]
          +0.002*[#  26]
    |psi|^2 = 0.999
==== e(  18) =   -15.20868 eV ==== 
     psi = 0.156*[#  31]+0.156*[#  35]+0.156*[#  39]+0.156*[#  43]+0.156*[#  47]
          +0.156*[#  51]+0.004*[#   9]+0.004*[#  10]+0.004*[#  19]+0.004*[#  20]
          +0.004*[#  29]+0.004*[#  30]+0.003*[#   7]+0.003*[#   8]+0.003*[#  17]
          +0.003*[#  18]+0.003*[#  27]+0.003*[#  28]+0.002*[#  32]+0.002*[#  36]
          +0.002*[#  40]+0.002*[#  44]+0.002*[#  48]+0.002*[#  52]
    |psi|^2 = 0.998
==== e(  19) =   -15.19489 eV ==== 
     psi = 0.156*[#  31]+0.156*[#  35]+0.156*[#  39]+0.156*[#  43]+0.156*[#  47]
          +0.156*[#  51]+0.004*[#   9]+0.004*[#  10]+0.004*[#  19]+0.004*[#  20]
          +0.004*[#  29]+0.004*[#  30]+0.003*[#   7]+0.003*[#   8]+0.003*[#  17]
          +0.003*[#  18]+0.003*[#  27]+0.003*[#  28]+0.002*[#  32]+0.002*[#  36]
          +0.002*[#  40]+0.002*[#  44]+0.002*[#  48]+0.002*[#  52]
    |psi|^2 = 0.998
==== e(  20) =   -15.15002 eV ==== 
     psi = 0.154*[#  31]+0.154*[#  35]+0.154*[#  39]+0.154*[#  43]+0.154*[#  47]
          +0.154*[#  51]+0.005*[#   9]+0.005*[#  10]+0.005*[#  19]+0.005*[#  20]
          +0.005*[#  29]+0.005*[#  30]+0.005*[#   7]+0.005*[#   8]+0.005*[#  17]
          +0.005*[#  18]+0.005*[#  27]+0.005*[#  28]+0.001*[#  32]+0.001*[#  36]
          +0.001*[#  40]+0.001*[#  44]+0.001*[#  48]+0.001*[#  52]
    |psi|^2 = 0.998
==== e(  21) =   -15.13814 eV ==== 
     psi = 0.154*[#  31]+0.154*[#  35]+0.154*[#  39]+0.154*[#  43]+0.154*[#  47]
          +0.154*[#  51]+0.005*[#   9]+0.005*[#  10]+0.005*[#  19]+0.005*[#  20]
          +0.005*[#  29]+0.005*[#  30]+0.005*[#   7]+0.005*[#   8]+0.005*[#  17]
          +0.005*[#  18]+0.005*[#  27]+0.005*[#  28]+0.001*[#  32]+0.001*[#  36]
          +0.001*[#  40]+0.001*[#  44]+0.001*[#  48]+0.001*[#  52]
    |psi|^2 = 0.998
==== e(  22) =   -14.91897 eV ==== 
     psi = 0.165*[#  31]+0.165*[#  35]+0.165*[#  39]+0.165*[#  43]+0.165*[#  47]
          +0.165*[#  51]
    |psi|^2 = 0.996
==== e(  23) =    -3.04036 eV ==== 
     psi = 0.041*[#  32]+0.041*[#  36]+0.041*[#  40]+0.041*[#  44]+0.041*[#  48]
          +0.041*[#  52]+0.036*[#   6]+0.036*[#  33]+0.036*[#  38]+0.036*[#  41]
          +0.036*[#  46]+0.036*[#  49]+0.036*[#  53]+0.036*[#  34]+0.035*[#  37]
          +0.036*[#  42]+0.035*[#  45]+0.036*[#  50]+0.036*[#  54]+0.031*[#  16]
          +0.031*[#  26]+0.023*[#   7]+0.023*[#   8]+0.023*[#  17]+0.023*[#  18]
          +0.023*[#  27]+0.023*[#  28]+0.009*[#  12]+0.009*[#  22]+0.007*[#   2]
          +0.006*[#   9]+0.006*[#  10]+0.006*[#  19]+0.006*[#  20]+0.006*[#  29]
          +0.006*[#  30]+0.003*[#  56]+0.003*[#  31]+0.003*[#  35]+0.003*[#  39]
          +0.003*[#  43]+0.003*[#  47]+0.003*[#  51]+0.001*[#  11]+0.001*[#  21]
          
    |psi|^2 = 0.994
==== e(  24) =    -3.03572 eV ==== 
     psi = 0.078*[#  16]+0.078*[#  26]+0.075*[#  32]+0.075*[#  36]+0.075*[#  40]
          +0.075*[#  44]+0.075*[#  48]+0.075*[#  52]+0.074*[#   6]+0.015*[#  33]
          +0.015*[#  34]+0.015*[#  37]+0.015*[#  38]+0.015*[#  41]+0.015*[#  42]
          +0.015*[#  45]+0.015*[#  46]+0.015*[#  49]+0.015*[#  50]+0.015*[#  53]
          +0.015*[#  54]+0.012*[#   7]+0.012*[#   8]+0.009*[#  17]+0.009*[#  18]
          +0.009*[#  27]+0.009*[#  28]+0.007*[#  56]+0.006*[#  31]+0.006*[#  35]
          +0.006*[#  39]+0.006*[#  43]+0.006*[#  47]+0.006*[#  51]+0.004*[#   2]
          +0.003*[#  12]+0.003*[#  22]+0.003*[#   9]+0.003*[#  10]+0.003*[#  19]
          +0.003*[#  20]+0.003*[#  29]+0.003*[#  30]+0.002*[#   1]
    |psi|^2 = 0.996
==== e(  25) =    -2.98028 eV ==== 
     psi = 0.053*[#  37]+0.053*[#  45]+0.052*[#  34]+0.052*[#  42]+0.052*[#  50]
          +0.052*[#  54]+0.052*[#  33]+0.052*[#  41]+0.052*[#  49]+0.052*[#  53]
          +0.051*[#  38]+0.051*[#  46]+0.040*[#  17]+0.040*[#  18]+0.040*[#  27]
          +0.040*[#  28]+0.038*[#   7]+0.038*[#   8]+0.013*[#  32]+0.013*[#  36]
          +0.013*[#  40]+0.013*[#  44]+0.013*[#  48]+0.013*[#  52]+0.012*[#   2]
          +0.011*[#  12]+0.011*[#  22]+0.002*[#  19]+0.002*[#  20]+0.002*[#  29]
          +0.002*[#  30]+0.002*[#   9]+0.002*[#  10]
    |psi|^2 = 0.992
==== e(  26) =    -2.92988 eV ==== 
     psi = 0.049*[#  37]+0.049*[#  45]+0.049*[#  34]+0.049*[#  42]+0.049*[#  50]
          +0.049*[#  54]+0.048*[#  33]+0.048*[#  41]+0.048*[#  49]+0.048*[#  53]
          +0.048*[#  38]+0.048*[#  46]+0.043*[#   7]+0.043*[#   8]+0.036*[#  17]
          +0.036*[#  18]+0.036*[#  27]+0.036*[#  28]+0.019*[#  32]+0.019*[#  36]
          +0.019*[#  40]+0.019*[#  44]+0.019*[#  48]+0.019*[#  52]+0.010*[#   9]
          +0.010*[#  10]+0.010*[#  19]+0.010*[#  20]+0.010*[#  29]+0.010*[#  30]
          
    |psi|^2 = 0.989
==== e(  27) =    -2.89013 eV ==== 
     psi = 0.051*[#  37]+0.051*[#  45]+0.051*[#  34]+0.051*[#  42]+0.051*[#  50]
          +0.051*[#  54]+0.051*[#  33]+0.051*[#  41]+0.051*[#  49]+0.051*[#  53]
          +0.051*[#  38]+0.051*[#  46]+0.048*[#  17]+0.048*[#  18]+0.048*[#  27]
          +0.048*[#  28]+0.042*[#   7]+0.042*[#   8]+0.015*[#  32]+0.015*[#  36]
          +0.015*[#  40]+0.015*[#  44]+0.015*[#  48]+0.015*[#  52]+0.002*[#  19]
          +0.002*[#  20]+0.002*[#  29]+0.002*[#  30]+0.002*[#   9]+0.002*[#  10]
          
    |psi|^2 = 0.989
==== e(  28) =    -2.73008 eV ==== 
     psi = 0.069*[#   9]+0.069*[#  10]+0.069*[#  19]+0.069*[#  20]+0.069*[#  29]
          +0.069*[#  30]+0.039*[#  38]+0.039*[#  46]+0.039*[#  33]+0.039*[#  41]
          +0.039*[#  49]+0.039*[#  53]+0.038*[#  34]+0.038*[#  42]+0.038*[#  50]
          +0.038*[#  54]+0.038*[#  37]+0.038*[#  45]+0.019*[#  17]+0.019*[#  18]
          +0.019*[#  27]+0.019*[#  28]+0.018*[#   7]+0.018*[#   8]+0.001*[#  32]
          +0.001*[#  36]+0.001*[#  40]+0.001*[#  44]+0.001*[#  48]+0.001*[#  52]
          
    |psi|^2 = 0.998
==== e(  29) =    -2.69962 eV ==== 
     psi = 0.069*[#   9]+0.069*[#  10]+0.069*[#  19]+0.069*[#  20]+0.069*[#  29]
          +0.069*[#  30]+0.039*[#  38]+0.039*[#  46]+0.039*[#  33]+0.039*[#  41]
          +0.039*[#  49]+0.039*[#  53]+0.039*[#  34]+0.039*[#  42]+0.039*[#  50]
          +0.039*[#  54]+0.039*[#  37]+0.039*[#  45]+0.020*[#  17]+0.020*[#  18]
          +0.020*[#  27]+0.020*[#  28]+0.020*[#   7]+0.020*[#   8]
    |psi|^2 = 0.998
==== e(  30) =    -2.37224 eV ==== 
[...]
          +0.041*[#  49]+0.041*[#  53]+0.041*[#  34]+0.041*[#  42]+0.041*[#  50]
          +0.041*[#  54]+0.041*[#  37]+0.041*[#  45]+0.021*[#  17]+0.021*[#  18]
          +0.021*[#  27]+0.021*[#  28]+0.020*[#   7]+0.020*[#   8]
    |psi|^2 = 0.998
==== e(  30) =    -2.37993 eV ==== 
     psi = 0.137*[#  37]+0.137*[#  45]+0.108*[#   2]+0.103*[#  34]+0.103*[#  42]
          +0.103*[#  50]+0.103*[#  54]+0.034*[#  33]+0.034*[#  41]+0.034*[#  49]
          +0.034*[#  53]+0.027*[#  12]+0.027*[#  22]+0.005*[#   6]+0.003*[#   1]
          +0.002*[#  16]+0.002*[#  26]
    |psi|^2 = 0.998
==== e(  31) =    -2.37247 eV ==== 
     psi = 0.137*[#  38]+0.137*[#  46]+0.103*[#  33]+0.103*[#  41]+0.103*[#  49]
          +0.103*[#  53]+0.080*[#  12]+0.080*[#  22]+0.034*[#  34]+0.034*[#  42]
          +0.034*[#  50]+0.034*[#  54]+0.005*[#  16]+0.005*[#  26]+0.002*[#  11]
          +0.002*[#  21]
    |psi|^2 = 0.997
==== e(  32) =    -0.60607 eV ==== 
     psi = 0.092*[#  32]+0.092*[#  36]+0.092*[#  40]+0.092*[#  44]+0.092*[#  48]
          +0.092*[#  52]+0.068*[#  19]+0.068*[#  20]+0.068*[#  29]+0.068*[#  30]
          +0.021*[#  17]+0.021*[#  18]+0.021*[#  27]+0.021*[#  28]+0.007*[#  31]
          +0.007*[#  35]+0.007*[#  39]+0.007*[#  43]+0.007*[#  47]+0.007*[#  51]
          +0.004*[#  33]+0.004*[#  34]+0.004*[#  37]+0.004*[#  41]+0.004*[#  42]
          +0.004*[#  45]+0.004*[#  50]+0.004*[#  53]+0.004*[#  54]+0.004*[#  38]
          +0.004*[#  46]+0.004*[#  49]
    |psi|^2 = 0.997
==== e(  33) =    -0.60607 eV ==== 
     psi = 0.092*[#  32]+0.092*[#  36]+0.092*[#  40]+0.092*[#  44]+0.092*[#  48]
          +0.092*[#  52]+0.068*[#  19]+0.068*[#  20]+0.068*[#  29]+0.068*[#  30]
          +0.021*[#  17]+0.021*[#  18]+0.021*[#  27]+0.021*[#  28]+0.007*[#  31]
          +0.007*[#  35]+0.007*[#  39]+0.007*[#  43]+0.007*[#  47]+0.007*[#  51]
          +0.004*[#  33]+0.004*[#  34]+0.004*[#  37]+0.004*[#  41]+0.004*[#  42]
          +0.004*[#  45]+0.004*[#  50]+0.004*[#  53]+0.004*[#  54]+0.004*[#  38]
          +0.004*[#  46]+0.004*[#  49]
    |psi|^2 = 0.997
==== e(  34) =    -0.60228 eV ==== 
     psi = 0.092*[#  32]+0.092*[#  36]+0.092*[#  40]+0.092*[#  44]+0.092*[#  48]
          +0.092*[#  52]+0.091*[#   9]+0.091*[#  10]+0.028*[#   7]+0.028*[#   8]
          +0.023*[#  19]+0.023*[#  20]+0.023*[#  29]+0.023*[#  30]+0.007*[#  17]
          +0.007*[#  18]+0.007*[#  27]+0.007*[#  28]+0.007*[#  31]+0.007*[#  35]
          +0.007*[#  39]+0.007*[#  43]+0.007*[#  47]+0.007*[#  51]+0.004*[#  33]
          +0.004*[#  34]+0.004*[#  37]+0.004*[#  38]+0.004*[#  41]+0.004*[#  42]
          +0.004*[#  45]+0.004*[#  46]+0.004*[#  49]+0.004*[#  50]+0.004*[#  53]
          +0.004*[#  54]
    |psi|^2 = 0.997
==== e(  35) =    -0.60228 eV ==== 
     psi = 0.092*[#  32]+0.092*[#  36]+0.092*[#  40]+0.092*[#  44]+0.092*[#  48]
          +0.092*[#  52]+0.091*[#   9]+0.091*[#  10]+0.028*[#   7]+0.028*[#   8]
          +0.023*[#  19]+0.023*[#  20]+0.023*[#  29]+0.023*[#  30]+0.007*[#  17]
          +0.007*[#  18]+0.007*[#  27]+0.007*[#  28]+0.007*[#  31]+0.007*[#  35]
          +0.007*[#  39]+0.007*[#  43]+0.007*[#  47]+0.007*[#  51]+0.004*[#  33]
          +0.004*[#  34]+0.004*[#  37]+0.004*[#  38]+0.004*[#  41]+0.004*[#  42]
          +0.004*[#  45]+0.004*[#  46]+0.004*[#  49]+0.004*[#  50]+0.004*[#  53]
          +0.004*[#  54]
    |psi|^2 = 0.997
==== e(  36) =    -0.40982 eV ==== 
     psi = 0.163*[#  37]+0.163*[#  45]+0.122*[#  34]+0.122*[#  42]+0.122*[#  50]
          +0.122*[#  54]+0.041*[#  33]+0.041*[#  41]+0.041*[#  49]+0.041*[#  53]
          +0.002*[#   3]
    |psi|^2 = 0.983
==== e(  37) =    -0.40064 eV ==== 
     psi = 0.163*[#  38]+0.163*[#  46]+0.123*[#  33]+0.123*[#  41]+0.123*[#  49]
          +0.123*[#  53]+0.041*[#  34]+0.041*[#  42]+0.041*[#  50]+0.041*[#  54]
          +0.001*[#  13]+0.001*[#  23]
    |psi|^2 = 0.983
==== e(  38) =     0.66301 eV ==== 
     psi = 0.163*[#  32]+0.163*[#  36]+0.163*[#  40]+0.163*[#  44]+0.163*[#  48]
          +0.163*[#  52]
    |psi|^2 = 0.979
==== e(  39) =     1.13815 eV ==== 
     psi = 0.083*[#  33]+0.083*[#  34]+0.083*[#  38]+0.083*[#  41]+0.083*[#  42]
          +0.083*[#  46]+0.083*[#  37]+0.083*[#  45]+0.083*[#  49]+0.083*[#  50]
          +0.083*[#  53]+0.083*[#  54]
    |psi|^2 = 0.994
==== e(  40) =     1.13815 eV ==== 
     psi = 0.083*[#  33]+0.083*[#  34]+0.083*[#  38]+0.083*[#  41]+0.083*[#  42]
          +0.083*[#  46]+0.083*[#  37]+0.083*[#  45]+0.083*[#  49]+0.083*[#  50]
          +0.083*[#  53]+0.083*[#  54]
    |psi|^2 = 0.994
==== e(  41) =     1.39874 eV ==== 
     psi = 0.119*[#  17]+0.119*[#  18]+0.119*[#  27]+0.119*[#  28]+0.118*[#   7]
          +0.118*[#   8]+0.047*[#  19]+0.047*[#  20]+0.047*[#  29]+0.047*[#  30]
          +0.047*[#   9]+0.047*[#  10]
    |psi|^2 = 0.999
==== e(  42) =     1.39874 eV ==== 
     psi = 0.119*[#  17]+0.119*[#  18]+0.119*[#  27]+0.119*[#  28]+0.118*[#   7]
          +0.118*[#   8]+0.047*[#  19]+0.047*[#  20]+0.047*[#  29]+0.047*[#  30]
          +0.047*[#   9]+0.047*[#  10]
    |psi|^2 = 0.999
==== e(  43) =     1.77770 eV ==== 
     psi = 0.653*[#   6]+0.167*[#  16]+0.167*[#  26]+0.002*[#  37]+0.002*[#  45]
          +0.001*[#  34]+0.001*[#  42]+0.001*[#  50]+0.001*[#  54]
    |psi|^2 = 0.998
==== e(  44) =     1.77918 eV ==== 
     psi = 0.494*[#  16]+0.494*[#  26]+0.002*[#  38]+0.002*[#  46]+0.001*[#  33]
          +0.001*[#  41]+0.001*[#  49]+0.001*[#  53]
    |psi|^2 = 0.998
==== e(  45) =     1.93609 eV ==== 
     psi = 0.943*[#  56]+0.017*[#   6]+0.009*[#  16]+0.009*[#  26]
    |psi|^2 = 0.980
==== e(  46) =     2.46530 eV ==== 
     psi = 0.132*[#  19]+0.132*[#  20]+0.132*[#  29]+0.132*[#  30]+0.060*[#  17]
          +0.060*[#  18]+0.060*[#  27]+0.060*[#  28]+0.026*[#  32]+0.026*[#  36]
          +0.026*[#  40]+0.026*[#  44]+0.026*[#  48]+0.026*[#  52]+0.006*[#  33]
          +0.006*[#  34]+0.006*[#  37]+0.006*[#  38]+0.006*[#  41]+0.006*[#  42]
          +0.006*[#  45]+0.006*[#  46]+0.006*[#  49]+0.006*[#  50]+0.006*[#  53]
          +0.006*[#  54]
    |psi|^2 = 0.994
==== e(  47) =     2.46530 eV ==== 
     psi = 0.132*[#  19]+0.132*[#  20]+0.132*[#  29]+0.132*[#  30]+0.060*[#  17]
          +0.060*[#  18]+0.060*[#  27]+0.060*[#  28]+0.026*[#  32]+0.026*[#  36]
          +0.026*[#  40]+0.026*[#  44]+0.026*[#  48]+0.026*[#  52]+0.006*[#  33]
          +0.006*[#  34]+0.006*[#  37]+0.006*[#  38]+0.006*[#  41]+0.006*[#  42]
          +0.006*[#  45]+0.006*[#  46]+0.006*[#  49]+0.006*[#  50]+0.006*[#  53]
          +0.006*[#  54]
    |psi|^2 = 0.994
==== e(  48) =     2.46558 eV ==== 
     psi = 0.176*[#   9]+0.176*[#  10]+0.081*[#   7]+0.081*[#   8]+0.044*[#  19]
          +0.044*[#  20]+0.044*[#  29]+0.044*[#  30]+0.026*[#  32]+0.026*[#  36]
          +0.026*[#  40]+0.026*[#  44]+0.026*[#  48]+0.026*[#  52]+0.020*[#  17]
          +0.020*[#  18]+0.020*[#  27]+0.020*[#  28]+0.006*[#  33]+0.006*[#  34]
          +0.006*[#  37]+0.006*[#  38]+0.006*[#  41]+0.006*[#  42]+0.006*[#  45]
          +0.006*[#  46]+0.006*[#  49]+0.006*[#  50]+0.006*[#  53]+0.006*[#  54]
          
    |psi|^2 = 0.994
==== e(  49) =     2.46558 eV ==== 
     psi = 0.176*[#   9]+0.176*[#  10]+0.081*[#   7]+0.081*[#   8]+0.044*[#  19]
          +0.044*[#  20]+0.044*[#  29]+0.044*[#  30]+0.026*[#  32]+0.026*[#  36]
          +0.026*[#  40]+0.026*[#  44]+0.026*[#  48]+0.026*[#  52]+0.020*[#  17]
          +0.020*[#  18]+0.020*[#  27]+0.020*[#  28]+0.006*[#  33]+0.006*[#  34]
          +0.006*[#  37]+0.006*[#  38]+0.006*[#  41]+0.006*[#  42]+0.006*[#  45]
          +0.006*[#  46]+0.006*[#  49]+0.006*[#  50]+0.006*[#  53]+0.006*[#  54]
          
    |psi|^2 = 0.994
==== e(  50) =     2.97564 eV ==== 
     psi = 0.227*[#   6]+0.227*[#  16]+0.227*[#  26]+0.042*[#  32]+0.042*[#  36]
          +0.042*[#  40]+0.042*[#  44]+0.042*[#  48]+0.042*[#  52]+0.018*[#  56]
          +0.005*[#   2]+0.005*[#  12]+0.005*[#  22]+0.002*[#  31]+0.002*[#  35]
          +0.002*[#  39]+0.002*[#  43]+0.002*[#  47]+0.002*[#  51]
    |psi|^2 = 0.983
==== e(  51) =     4.30215 eV ==== 
     psi = 0.103*[#  17]+0.103*[#  18]+0.103*[#  27]+0.103*[#  28]+0.038*[#  19]
          +0.038*[#  20]+0.038*[#  29]+0.038*[#  30]+0.029*[#  32]+0.029*[#  36]
          +0.029*[#  40]+0.029*[#  44]+0.029*[#  48]+0.029*[#  52]+0.019*[#  33]
          +0.019*[#  34]+0.019*[#  37]+0.019*[#  38]+0.019*[#  41]+0.019*[#  42]
          +0.019*[#  45]+0.019*[#  46]+0.019*[#  49]+0.019*[#  50]+0.019*[#  53]
          +0.019*[#  54]+0.004*[#  31]+0.004*[#  35]+0.004*[#  39]+0.004*[#  43]
          +0.004*[#  47]+0.004*[#  51]
    |psi|^2 = 0.990
==== e(  52) =     4.30215 eV ==== 
     psi = 0.103*[#  17]+0.103*[#  18]+0.103*[#  27]+0.103*[#  28]+0.038*[#  19]
          +0.038*[#  20]+0.038*[#  29]+0.038*[#  30]+0.029*[#  32]+0.029*[#  36]
          +0.029*[#  40]+0.029*[#  44]+0.029*[#  48]+0.029*[#  52]+0.019*[#  33]
          +0.019*[#  34]+0.019*[#  37]+0.019*[#  38]+0.019*[#  41]+0.019*[#  42]
          +0.019*[#  45]+0.019*[#  46]+0.019*[#  49]+0.019*[#  50]+0.019*[#  53]
          +0.019*[#  54]+0.004*[#  31]+0.004*[#  35]+0.004*[#  39]+0.004*[#  43]
          +0.004*[#  47]+0.004*[#  51]
    |psi|^2 = 0.990
==== e(  53) =     4.30765 eV ==== 
     psi = 0.137*[#   7]+0.137*[#   8]+0.050*[#   9]+0.050*[#  10]+0.034*[#  17]
          +0.034*[#  18]+0.034*[#  27]+0.034*[#  28]+0.029*[#  32]+0.029*[#  36]
          +0.029*[#  40]+0.029*[#  44]+0.029*[#  48]+0.029*[#  52]+0.019*[#  33]
          +0.019*[#  38]+0.019*[#  41]+0.019*[#  46]+0.019*[#  49]+0.019*[#  53]
          +0.019*[#  34]+0.019*[#  37]+0.019*[#  42]+0.019*[#  45]+0.019*[#  50]
          +0.019*[#  54]+0.013*[#  19]+0.013*[#  20]+0.013*[#  29]+0.013*[#  30]
          +0.004*[#  31]+0.004*[#  35]+0.004*[#  39]+0.004*[#  43]+0.004*[#  47]
          +0.004*[#  51]
    |psi|^2 = 0.990
==== e(  54) =     4.30765 eV ==== 
     psi = 0.137*[#   7]+0.137*[#   8]+0.050*[#   9]+0.050*[#  10]+0.034*[#  17]
          +0.034*[#  18]+0.034*[#  27]+0.034*[#  28]+0.029*[#  32]+0.029*[#  36]
          +0.029*[#  40]+0.029*[#  44]+0.029*[#  48]+0.029*[#  52]+0.019*[#  33]
          +0.019*[#  38]+0.019*[#  41]+0.019*[#  46]+0.019*[#  49]+0.019*[#  53]
          +0.019*[#  34]+0.019*[#  37]+0.019*[#  42]+0.019*[#  45]+0.019*[#  50]
          +0.019*[#  54]+0.013*[#  19]+0.013*[#  20]+0.013*[#  29]+0.013*[#  30]
          +0.004*[#  31]+0.004*[#  35]+0.004*[#  39]+0.004*[#  43]+0.004*[#  47]
          +0.004*[#  51]
    |psi|^2 = 0.990
==== e(  55) =     5.03398 eV ==== 
     psi = 0.056*[#   9]+0.056*[#  10]+0.056*[#  19]+0.056*[#  20]+0.056*[#  29]
          +0.056*[#  30]+0.042*[#  37]+0.042*[#  45]+0.042*[#  33]+0.042*[#  34]
          +0.042*[#  41]+0.042*[#  42]+0.042*[#  38]+0.042*[#  46]+0.042*[#  49]
          +0.042*[#  50]+0.042*[#  53]+0.042*[#  54]+0.027*[#   7]+0.027*[#   8]
          +0.027*[#  17]+0.027*[#  18]+0.027*[#  27]+0.027*[#  28]
    |psi|^2 = 0.996
==== e(  56) =     5.03398 eV ==== 
     psi = 0.056*[#   9]+0.056*[#  10]+0.056*[#  19]+0.056*[#  20]+0.056*[#  29]
          +0.056*[#  30]+0.042*[#  37]+0.042*[#  45]+0.042*[#  33]+0.042*[#  34]
          +0.042*[#  41]+0.042*[#  42]+0.042*[#  38]+0.042*[#  46]+0.042*[#  49]
          +0.042*[#  50]+0.042*[#  53]+0.042*[#  54]+0.027*[#   7]+0.027*[#   8]
          +0.027*[#  17]+0.027*[#  18]+0.027*[#  27]+0.027*[#  28]
    |psi|^2 = 0.996
==== e(  57) =     5.95393 eV ==== 
     psi = 0.002*[#  32]+0.002*[#  36]+0.002*[#  40]+0.002*[#  44]+0.002*[#  48]
          +0.002*[#  52]
    |psi|^2 = 0.013
==== e(  58) =     8.54739 eV ==== 
     psi = 0.130*[#   2]+0.121*[#  12]+0.121*[#  22]+0.028*[#  31]+0.028*[#  35]
          +0.028*[#  39]+0.028*[#  43]+0.028*[#  47]+0.028*[#  51]+0.005*[#  56]
          +0.002*[#  32]+0.002*[#  36]+0.002*[#  40]+0.002*[#  44]+0.002*[#  48]
          +0.002*[#  52]
    |psi|^2 = 0.562
==== e(  59) =     9.14796 eV ==== 

    |psi|^2 = 0.001
==== e(  60) =     9.14796 eV ==== 

    |psi|^2 = 0.001
==== e(  61) =     9.86538 eV ==== 

    |psi|^2 = 0.001
==== e(  62) =     9.86538 eV ==== 

    |psi|^2 = 0.001
==== e(  63) =    10.45657 eV ==== 
     psi = 0.022*[#  12]+0.022*[#  22]+0.005*[#   2]+0.003*[#  31]+0.003*[#  35]
          +0.003*[#  39]+0.003*[#  43]+0.003*[#  47]+0.003*[#  51]
    |psi|^2 = 0.076
==== e(  64) =    10.66833 eV ==== 
     psi = 0.002*[#  12]+0.002*[#  22]
    |psi|^2 = 0.003

Lowdin Charges: 

     Atom #   1: total charge =  15.6709, s =  2.4564, p =  5.9988, d =  7.2156, 
                 spin up      =   8.1895, s =  1.2297, 
                 spin up      =   8.1895, p =  2.9996, pz=  0.9999, px=  0.9998, py=  0.9998, 
                 spin up      =   8.1895, d =  3.9603, dz2=  0.9852, dxz=  0.6923, dyz=  0.6923, dx2-y2=  0.7953, dxy=  0.7953, 
                 spin down    =   7.4814, s =  1.2267, 
                 spin down    =   7.4814, p =  2.9993, pz=  0.9999, px=  0.9997, py=  0.9997, 
                 spin down    =   7.4814, d =  3.2553, dz2=  0.6953, dxz=  0.6189, dyz=  0.6189, dx2-y2=  0.6611, dxy=  0.6611, 
                 polarization =   0.7081, s =  0.0029, p =  0.0003, d =  0.7049, 
     Atom #   2: total charge =  15.6712, s =  2.4550, p =  5.9988, d =  7.2174, 
                 spin up      =   8.1881, s =  1.2290, 
                 spin up      =   8.1881, p =  2.9996, pz=  0.9999, px=  0.9998, py=  0.9998, 
                 spin up      =   8.1881, d =  3.9596, dz2=  0.9855, dxz=  0.6917, dyz=  0.6917, dx2-y2=  0.7954, dxy=  0.7954, 
                 spin down    =   7.4831, s =  1.2260, 
                 spin down    =   7.4831, p =  2.9993, pz=  0.9999, px=  0.9997, py=  0.9997, 
                 spin down    =   7.4831, d =  3.2578, dz2=  0.6949, dxz=  0.6196, dyz=  0.6196, dx2-y2=  0.6619, dxy=  0.6619, 
                 polarization =   0.7049, s =  0.0029, p =  0.0003, d =  0.7017, 
     Atom #   3: total charge =  15.6712, s =  2.4550, p =  5.9988, d =  7.2174, 
                 spin up      =   8.1881, s =  1.2290, 
                 spin up      =   8.1881, p =  2.9996, pz=  0.9999, px=  0.9998, py=  0.9998, 
                 spin up      =   8.1881, d =  3.9596, dz2=  0.9855, dxz=  0.6917, dyz=  0.6917, dx2-y2=  0.7954, dxy=  0.7954, 
                 spin down    =   7.4831, s =  1.2260, 
                 spin down    =   7.4831, p =  2.9993, pz=  0.9999, px=  0.9997, py=  0.9997, 
                 spin down    =   7.4831, d =  3.2578, dz2=  0.6949, dxz=  0.6196, dyz=  0.6196, dx2-y2=  0.6619, dxy=  0.6619, 
                 polarization =   0.7049, s =  0.0029, p =  0.0003, d =  0.7017, 
     Atom #   4: total charge =   6.6712, s =  1.8655, p =  4.8057, d =  0.0000, 
                 spin up      =   3.3822, s =  0.9333, 
                 spin up      =   3.3822, p =  2.4490, pz=  0.8549, px=  0.7970, py=  0.7970, 
                 spin up      =   3.3822, d =  0.0000, dz2=  0.0000, dxz=  0.0000, dyz=  0.0000, dx2-y2=  0.0000, dxy=  0.0000, 
                 spin down    =   3.2890, s =  0.9322, 
                 spin down    =   3.2890, p =  2.3568, pz=  0.7857, px=  0.7855, py=  0.7856, 
                 spin down    =   3.2890, d =  0.0000, dz2=  0.0000, dxz=  0.0000, dyz=  0.0000, dx2-y2=  0.0000, dxy=  0.0000, 
                 polarization =   0.0933, s =  0.0011, p =  0.0922, d =  0.0000, 
     Atom #   5: total charge =   6.6712, s =  1.8655, p =  4.8057, d =  0.0000, 
                 spin up      =   3.3822, s =  0.9333, 
                 spin up      =   3.3822, p =  2.4490, pz=  0.8549, px=  0.7971, py=  0.7970, 
                 spin up      =   3.3822, d =  0.0000, dz2=  0.0000, dxz=  0.0000, dyz=  0.0000, dx2-y2=  0.0000, dxy=  0.0000, 
                 spin down    =   3.2890, s =  0.9322, 
                 spin down    =   3.2890, p =  2.3568, pz=  0.7857, px=  0.7857, py=  0.7854, 
                 spin down    =   3.2890, d =  0.0000, dz2=  0.0000, dxz=  0.0000, dyz=  0.0000, dx2-y2=  0.0000, dxy=  0.0000, 
                 polarization =   0.0933, s =  0.0011, p =  0.0922, d =  0.0000, 
     Atom #   6: total charge =   6.6712, s =  1.8655, p =  4.8057, d =  0.0000, 
                 spin up      =   3.3822, s =  0.9333, 
                 spin up      =   3.3822, p =  2.4490, pz=  0.8549, px=  0.7970, py=  0.7970, 
                 spin up      =   3.3822, d =  0.0000, dz2=  0.0000, dxz=  0.0000, dyz=  0.0000, dx2-y2=  0.0000, dxy=  0.0000, 
                 spin down    =   3.2890, s =  0.9322, 
                 spin down    =   3.2890, p =  2.3568, pz=  0.7857, px=  0.7855, py=  0.7856, 
                 spin down    =   3.2890, d =  0.0000, dz2=  0.0000, dxz=  0.0000, dyz=  0.0000, dx2-y2=  0.0000, dxy=  0.0000, 
                 polarization =   0.0933, s =  0.0011, p =  0.0922, d =  0.0000, 
     Atom #   7: total charge =   6.6712, s =  1.8655, p =  4.8057, d =  0.0000, 
                 spin up      =   3.3822, s =  0.9333, 
                 spin up      =   3.3822, p =  2.4490, pz=  0.8549, px=  0.7971, py=  0.7970, 
                 spin up      =   3.3822, d =  0.0000, dz2=  0.0000, dxz=  0.0000, dyz=  0.0000, dx2-y2=  0.0000, dxy=  0.0000, 
                 spin down    =   3.2890, s =  0.9322, 
                 spin down    =   3.2890, p =  2.3568, pz=  0.7857, px=  0.7857, py=  0.7854, 
                 spin down    =   3.2890, d =  0.0000, dz2=  0.0000, dxz=  0.0000, dyz=  0.0000, dx2-y2=  0.0000, dxy=  0.0000, 
                 polarization =   0.0933, s =  0.0011, p =  0.0922, d =  0.0000, 
     Atom #   8: total charge =   6.6712, s =  1.8655, p =  4.8057, d =  0.0000, 
                 spin up      =   3.3822, s =  0.9333, 
                 spin up      =   3.3822, p =  2.4490, pz=  0.8549, px=  0.7970, py=  0.7970, 
                 spin up      =   3.3822, d =  0.0000, dz2=  0.0000, dxz=  0.0000, dyz=  0.0000, dx2-y2=  0.0000, dxy=  0.0000, 
                 spin down    =   3.2890, s =  0.9322, 
                 spin down    =   3.2890, p =  2.3568, pz=  0.7857, px=  0.7855, py=  0.7856, 
                 spin down    =   3.2890, d =  0.0000, dz2=  0.0000, dxz=  0.0000, dyz=  0.0000, dx2-y2=  0.0000, dxy=  0.0000, 
                 polarization =   0.0933, s =  0.0011, p =  0.0922, d =  0.0000, 
     Atom #   9: total charge =   6.6712, s =  1.8655, p =  4.8057, d =  0.0000, 
                 spin up      =   3.3822, s =  0.9333, 
                 spin up      =   3.3822, p =  2.4490, pz=  0.8549, px=  0.7970, py=  0.7970, 
                 spin up      =   3.3822, d =  0.0000, dz2=  0.0000, dxz=  0.0000, dyz=  0.0000, dx2-y2=  0.0000, dxy=  0.0000, 
                 spin down    =   3.2890, s =  0.9322, 
                 spin down    =   3.2890, p =  2.3568, pz=  0.7857, px=  0.7855, py=  0.7856, 
                 spin down    =   3.2890, d =  0.0000, dz2=  0.0000, dxz=  0.0000, dyz=  0.0000, dx2-y2=  0.0000, dxy=  0.0000, 
                 polarization =   0.0933, s =  0.0011, p =  0.0922, d =  0.0000, 
     Atom #  10: total charge =   8.6963, s =  2.6976, p =  5.9987, d =  0.0000, 
                 spin up      =   4.3135, s =  1.3142, 
                 spin up      =   4.3135, p =  2.9994, pz=  0.9998, px=  0.9998, py=  0.9998, 
                 spin up      =   4.3135, d =  0.0000, dz2=  0.0000, dxz=  0.0000, dyz=  0.0000, dx2-y2=  0.0000, dxy=  0.0000, 
                 spin down    =   4.3828, s =  1.3834, 
                 spin down    =   4.3828, p =  2.9994, pz=  0.9998, px=  0.9998, py=  0.9998, 
                 spin down    =   4.3828, d =  0.0000, dz2=  0.0000, dxz=  0.0000, dyz=  0.0000, dx2-y2=  0.0000, dxy=  0.0000, 
                 polarization =  -0.0693, s = -0.0692, p = -0.0000, d =  0.0000, 
     Spilling Parameter:   0.0027

     PROJWFC      :     36.38s CPU     12.54s WALL


   This run was terminated on:   6:36:42  12Jul2026            

=------------------------------------------------------------------------------=
   JOB DONE.
=------------------------------------------------------------------------------=
