
     Program PWSCF v.7.3.1 starts on 12Jul2026 at  5:36:24 

     This program is part of the open-source Quantum ESPRESSO suite
     for quantum simulation of materials; please cite
         "P. Giannozzi et al., J. Phys.:Condens. Matter 21 395502 (2009);
         "P. Giannozzi et al., J. Phys.:Condens. Matter 29 465901 (2017);
         "P. Giannozzi et al., J. Chem. Phys. 152 154105 (2020);
          URL http://www.quantum-espresso.org", 
     in publications or presentations arising from this work. More details at
     http://www.quantum-espresso.org/quote

     Parallel version (MPI & OpenMP), running on      14 processor cores
     Number of MPI processes:                 1
     Threads/MPI process:                    14

     MPI processes distributed on     1 nodes
     1354608 MiB available memory on the printing compute node when the environment starts
 
     Reading input from pw.in

     Current dimensions of program PWSCF are:
     Max number of different atomic species (ntypx) = 10
     Max number of k-points (npk) =  40000
     Max angular momentum in pseudopotentials (lmaxx) =  4
     file Co.pbe-spn-kjpaw_psl.0.3.1.UPF: wavefunction(s)  3P 3D renormalized
     file O.pbe-n-kjpaw_psl.1.0.0.UPF: wavefunction(s)  2S 2P renormalized
     file K.pbe-spn-kjpaw_psl.1.0.0.UPF: wavefunction(s)  3S renormalized
 
     Subspace diagonalization in iterative solution of the eigenvalue problem:
     a serial algorithm will be used

 
     G-vector sticks info
     --------------------
     sticks:   dense  smooth     PW     G-vecs:    dense   smooth      PW
     Sum        1003     499    151                47935    16953    2771
 
     Using Slab Decomposition
 


     bravais-lattice index     =            4
     lattice parameter (alat)  =       5.4802  a.u.
     unit-cell volume          =     270.3248 (a.u.)^3
     number of atoms/cell      =            4
     number of atomic types    =            3
     number of electrons       =        38.00
     number of Kohn-Sham states=           27
     kinetic-energy cutoff     =      60.0000  Ry
     charge density cutoff     =     480.0000  Ry
     scf convergence threshold =      1.0E-07
     mixing beta               =       0.3000
     number of iterations used =            8  local-TF  mixing
     Exchange-correlation= SLA  PW   PBX  PBC
                           (   1   4   3   4   0   0   0)

     GPU acceleration is ACTIVE.  1 visible GPUs per MPI rank
     GPU-aware MPI enabled


     GPU used by master process:

        Device Number: 0
        Device name: NVIDIA A100-SXM4-80GB
        Compute capability : 80
        Ratio of single to double precision performance  : 2
        Memory Clock Rate (KHz): 1593000
        Memory Bus Width (bits): 5120
        Peak Memory Bandwidth (GB/s): ******

     celldm(1)=   5.480206  celldm(2)=   0.000000  celldm(3)=   1.896552
     celldm(4)=   0.000000  celldm(5)=   0.000000  celldm(6)=   0.000000

     crystal axes: (cart. coord. in units of alat)
               a(1) = (   1.000000   0.000000   0.000000 )  
               a(2) = (  -0.500000   0.866025   0.000000 )  
               a(3) = (   0.000000   0.000000   1.896552 )  

     reciprocal axes: (cart. coord. in units 2 pi/alat)
               b(1) = (  1.000000  0.577350 -0.000000 )  
               b(2) = (  0.000000  1.154701  0.000000 )  
               b(3) = (  0.000000 -0.000000  0.527273 )  


     PseudoPot. # 1 for Co read from file:
     ../../pseudo/Co.pbe-spn-kjpaw_psl.0.3.1.UPF
     MD5 check sum: 3c0a43779828c046024e4f3be63f8e67
     Pseudo is Projector augmented-wave + core cor, Zval = 17.0
     Generated using &quot;atomic&quot; code by A. Dal Corso  v.6.2.2
     Shape of augmentation charge: PSQ
     Using radial grid of 1193 points,  6 beta functions with: 
                l(1) =   0
                l(2) =   0
                l(3) =   1
                l(4) =   1
                l(5) =   2
                l(6) =   2
     Q(r) pseudized with 0 coefficients 


     PseudoPot. # 2 for O  read from file:
     ../../pseudo/O.pbe-n-kjpaw_psl.1.0.0.UPF
     MD5 check sum: e99d9cef9b487d1ca56f5b95ecd0fd7a
     Pseudo is Projector augmented-wave + core cor, Zval =  6.0
     Generated using &quot;atomic&quot; code by A. Dal Corso  v.6.3
     Shape of augmentation charge: PSQ
     Using radial grid of 1095 points,  4 beta functions with: 
                l(1) =   0
                l(2) =   0
                l(3) =   1
                l(4) =   1
     Q(r) pseudized with 0 coefficients 


     PseudoPot. # 3 for K  read from file:
     ../../pseudo/K.pbe-spn-kjpaw_psl.1.0.0.UPF
     MD5 check sum: 34cc42130a09071ebe376fd42eb21491
     Pseudo is Projector augmented-wave + core cor, Zval =  9.0
     Generated using &quot;atomic&quot; code by A. Dal Corso  v.6.2.2
     Shape of augmentation charge: PSQ
     Using radial grid of 1165 points,  6 beta functions with: 
                l(1) =   0
                l(2) =   0
                l(3) =   1
                l(4) =   1
                l(5) =   2
                l(6) =   2
     Q(r) pseudized with 0 coefficients 


     atomic species   valence    mass     pseudopotential
     Co               17.00    58.93300     Co( 1.00)
     O                 6.00    15.99900     O ( 1.00)
     K                 9.00    39.09830     K ( 1.00)

     Starting magnetic structure 
     atomic species   magnetization
     Co              0.300
     O               0.000
     K               0.000

      6 Sym. Ops. (no inversion) found


                                    s                        frac. trans.

      isym =  1     identity                                     

 cryst.   s( 1) = (     1          0          0      )
                  (     0          1          0      )
                  (     0          0          1      )

 cart.    s( 1) = (  1.0000000  0.0000000  0.0000000 )
                  (  0.0000000  1.0000000  0.0000000 )
                  (  0.0000000  0.0000000  1.0000000 )


      isym =  2     120 deg rotation - cryst. axis [0,0,1]       

 cryst.   s( 2) = (     0          1          0      )
                  (    -1         -1          0      )
                  (     0          0          1      )

 cart.    s( 2) = ( -0.5000000 -0.8660254  0.0000000 )
                  (  0.8660254 -0.5000000  0.0000000 )
                  (  0.0000000  0.0000000  1.0000000 )


      isym =  3     120 deg rotation - cryst. axis [0,0,-1]      

 cryst.   s( 3) = (    -1         -1          0      )
                  (     1          0          0      )
                  (     0          0          1      )

 cart.    s( 3) = ( -0.5000000  0.8660254  0.0000000 )
                  ( -0.8660254 -0.5000000  0.0000000 )
                  (  0.0000000  0.0000000  1.0000000 )


      isym =  4     inv. 180 deg rotation - cart. axis [1,0,0]   

 cryst.   s( 4) = (    -1          0          0      )
                  (     1          1          0      )
                  (     0          0          1      )

 cart.    s( 4) = ( -1.0000000  0.0000000  0.0000000 )
                  (  0.0000000  1.0000000  0.0000000 )
                  (  0.0000000  0.0000000  1.0000000 )


      isym =  5     inv. 180 deg rotation - cryst. axis [0,1,0]  

 cryst.   s( 5) = (     1          1          0      )
                  (     0         -1          0      )
                  (     0          0          1      )

 cart.    s( 5) = (  0.5000000  0.8660254  0.0000000 )
                  (  0.8660254 -0.5000000  0.0000000 )
                  (  0.0000000  0.0000000  1.0000000 )


      isym =  6     inv. 180 deg rotation - cryst. axis [1,1,0]  

 cryst.   s( 6) = (     0         -1          0      )
                  (    -1          0          0      )
                  (     0          0          1      )

 cart.    s( 6) = (  0.5000000 -0.8660254  0.0000000 )
                  ( -0.8660254 -0.5000000  0.0000000 )
                  (  0.0000000  0.0000000  1.0000000 )


     point group C_3v (3m)  
     there are  3 classes
     the character table:

       E     2C3   3s_v 
A_1    1.00  1.00  1.00
A_2    1.00  1.00 -1.00
E      2.00 -1.00  0.00

     the symmetry operations in each class and the name of the first element:

     E        1
          identity                                               
     2C3      2    3
          120 deg rotation - cryst. axis [0,0,1]                 
     3s_v     4    5    6
          inv. 180 deg rotation - cart. axis [1,0,0]             

   Cartesian axes

     site n.     atom                  positions (alat units)
         1        Co     tau(   1) = (   0.0000000   0.0000000   0.0000000  )
         2        O      tau(   2) = (  -0.0000000   0.5773503   0.3310345  )
         3        O      tau(   3) = (   0.5000000   0.2886751   1.5655172  )
         4        K      tau(   4) = (   0.0000000   0.0000000   1.2068965  )

   Crystallographic axes

     site n.     atom                  positions (cryst. coord.)
         1        Co     tau(   1) = (  0.0000000  0.0000000  0.0000000  )
         2        O      tau(   2) = (  0.3333333  0.6666667  0.1745455  )
         3        O      tau(   3) = (  0.6666667  0.3333333  0.8254545  )
         4        K      tau(   4) = (  0.0000000  0.0000000  0.6363636  )

     number of k points=    25  Marzari-Vanderbilt smearing, width (Ry)=  0.0200
                       cart. coord. in units 2pi/alat
        k(    1) = (   0.0000000   0.0000000   0.0000000), wk =   0.0052083
        k(    2) = (   0.0000000   0.0000000   0.1757576), wk =   0.0104167
        k(    3) = (   0.0000000   0.1443376   0.0000000), wk =   0.0312500
        k(    4) = (   0.0000000   0.1443376   0.1757576), wk =   0.0312500
        k(    5) = (   0.0000000   0.2886751   0.0000000), wk =   0.0312500
        k(    6) = (   0.0000000   0.2886751   0.1757576), wk =   0.0312500
        k(    7) = (   0.0000000   0.4330127   0.0000000), wk =   0.0312500
        k(    8) = (   0.0000000   0.4330127   0.1757576), wk =   0.0312500
        k(    9) = (   0.0000000  -0.5773503   0.0000000), wk =   0.0156250
        k(   10) = (   0.0000000  -0.5773503   0.1757576), wk =   0.0312500
        k(   11) = (   0.1250000   0.2165064   0.0000000), wk =   0.0312500
        k(   12) = (   0.1250000   0.2165064   0.1757576), wk =   0.0625000
        k(   13) = (   0.1250000   0.3608439   0.0000000), wk =   0.0625000
        k(   14) = (   0.1250000   0.3608439   0.1757576), wk =   0.0625000
        k(   15) = (   0.1250000   0.5051815   0.0000000), wk =   0.0625000
        k(   16) = (   0.1250000   0.5051815   0.1757576), wk =   0.0625000
        k(   17) = (   0.2500000   0.4330127   0.0000000), wk =   0.0312500
        k(   18) = (   0.2500000   0.4330127   0.1757576), wk =   0.0625000
        k(   19) = (   0.2500000   0.5773503   0.0000000), wk =   0.0312500
        k(   20) = (   0.2500000   0.5773503   0.1757576), wk =   0.0625000
        k(   21) = (   0.0000000  -0.1443376   0.1757576), wk =   0.0312500
        k(   22) = (   0.0000000  -0.2886751   0.1757576), wk =   0.0312500
        k(   23) = (   0.0000000  -0.4330127   0.1757576), wk =   0.0312500
        k(   24) = (  -0.1250000  -0.3608439   0.1757576), wk =   0.0625000
        k(   25) = (  -0.1250000  -0.5051815   0.1757576), wk =   0.0625000

                       cryst. coord.
        k(    1) = (   0.0000000   0.0000000   0.0000000), wk =   0.0052083
        k(    2) = (   0.0000000   0.0000000   0.3333333), wk =   0.0104167
        k(    3) = (   0.0000000   0.1250000   0.0000000), wk =   0.0312500
        k(    4) = (   0.0000000   0.1250000   0.3333333), wk =   0.0312500
        k(    5) = (   0.0000000   0.2500000   0.0000000), wk =   0.0312500
        k(    6) = (   0.0000000   0.2500000   0.3333333), wk =   0.0312500
        k(    7) = (   0.0000000   0.3750000   0.0000000), wk =   0.0312500
        k(    8) = (   0.0000000   0.3750000   0.3333333), wk =   0.0312500
        k(    9) = (   0.0000000  -0.5000000   0.0000000), wk =   0.0156250
        k(   10) = (   0.0000000  -0.5000000   0.3333333), wk =   0.0312500
        k(   11) = (   0.1250000   0.1250000   0.0000000), wk =   0.0312500
        k(   12) = (   0.1250000   0.1250000   0.3333333), wk =   0.0625000
        k(   13) = (   0.1250000   0.2500000   0.0000000), wk =   0.0625000
        k(   14) = (   0.1250000   0.2500000   0.3333333), wk =   0.0625000
        k(   15) = (   0.1250000   0.3750000   0.0000000), wk =   0.0625000
        k(   16) = (   0.1250000   0.3750000   0.3333333), wk =   0.0625000
        k(   17) = (   0.2500000   0.2500000   0.0000000), wk =   0.0312500
        k(   18) = (   0.2500000   0.2500000   0.3333333), wk =   0.0625000
        k(   19) = (   0.2500000   0.3750000   0.0000000), wk =   0.0312500
        k(   20) = (   0.2500000   0.3750000   0.3333333), wk =   0.0625000
        k(   21) = (   0.0000000  -0.1250000   0.3333333), wk =   0.0312500
        k(   22) = (   0.0000000  -0.2500000   0.3333333), wk =   0.0312500
        k(   23) = (   0.0000000  -0.3750000   0.3333333), wk =   0.0312500
        k(   24) = (  -0.1250000  -0.2500000   0.3333333), wk =   0.0625000
        k(   25) = (  -0.1250000  -0.3750000   0.3333333), wk =   0.0625000

     Dense  grid:    47935 G-vectors     FFT dimensions: (  40,  40,  75)

     Smooth grid:    16953 G-vectors     FFT dimensions: (  27,  27,  54)

     Dynamical RAM for                 wfc:       0.87 MB

     Dynamical RAM for     wfc (w. buffer):      44.59 MB

     Dynamical RAM for           str. fact:       2.19 MB

     Dynamical RAM for           local pot:       0.00 MB

     Dynamical RAM for          nlocal pot:       1.68 MB

     Dynamical RAM for                qrad:       5.27 MB

     Dynamical RAM for          rho,v,vnew:       9.88 MB

     Dynamical RAM for               rhoin:       3.29 MB

     Dynamical RAM for            rho*nmix:      23.41 MB

     Dynamical RAM for           G-vectors:       2.87 MB

     Dynamical RAM for          h,s,v(r/c):       0.13 MB

     Dynamical RAM for          <psi|beta>:       0.02 MB

     Dynamical RAM for                 psi:       1.75 MB

     Dynamical RAM for                hpsi:       1.75 MB

     Dynamical RAM for                spsi:       1.75 MB

     Dynamical RAM for      wfcinit/wfcrot:       1.77 MB

     Dynamical RAM for           addusdens:     138.24 MB

     Dynamical RAM for          addusforce:     139.72 MB

     Estimated static dynamical RAM per process >      78.20 MB

     Estimated max dynamical RAM per process >     241.33 MB

     Check: negative core charge=   -0.000009
     Generating pointlists ...
     new r_m :   0.2745 (alat units)  1.5045 (a.u.) for type    1
     new r_m :   0.2745 (alat units)  1.5045 (a.u.) for type    2
     new r_m :   0.2804 (alat units)  1.5364 (a.u.) for type    3

     Initial potential from superposition of free atoms

     starting charge      37.9809, renormalised to      38.0000
     Starting wfcs are   26 randomized atomic wfcs +    1 random wfcs
     Checking if some PAW data can be deallocated... 

     total cpu time spent up to now is        3.3 secs

     Self-consistent Calculation
[tb_dev] Currently allocated     6.58E-01 Mbytes, locked:    0 /   6
[tb_pin] Currently allocated     0.00E+00 Mbytes, locked:    0 /   0

     iteration #  1     ecut=    60.00 Ry     beta= 0.30
     Davidson diagonalization with overlap

---- Real-time Memory Report at c_bands before calling an iterative solver
           654 MiB given to the printing process from OS
             0 MiB allocation reported by mallinfo(arena+hblkhd)
       1352052 MiB available memory on the node where the printing process lives
     GPU memory used/free/total (MiB): 926 / 80224 / 81151
------------------
     ethr =  1.00E-02,  avg # of iterations =  9.1

     total cpu time spent up to now is        5.5 secs

     total energy              =    -572.44520458 Ry
     estimated scf accuracy    <       1.60672157 Ry

     total magnetization       =     4.00 Bohr mag/cell
     absolute magnetization    =     4.00 Bohr mag/cell
[tb_dev] Currently allocated     3.05E-05 Mbytes, locked:    0 /   2
[tb_pin] Currently allocated     0.00E+00 Mbytes, locked:    0 /   0

     iteration #  2     ecut=    60.00 Ry     beta= 0.30
     Davidson diagonalization with overlap

---- Real-time Memory Report at c_bands before calling an iterative solver
           695 MiB given to the printing process from OS
             0 MiB allocation reported by mallinfo(arena+hblkhd)
       1350653 MiB available memory on the node where the printing process lives
     GPU memory used/free/total (MiB): 938 / 80212 / 81151
------------------
     ethr =  4.23E-03,  avg # of iterations =  1.8

     total cpu time spent up to now is        6.8 secs

     total energy              =    -572.41819085 Ry
     estimated scf accuracy    <       0.51781714 Ry

     total magnetization       =     3.92 Bohr mag/cell
     absolute magnetization    =     3.92 Bohr mag/cell
[tb_dev] Currently allocated     3.05E-05 Mbytes, locked:    0 /   2
[tb_pin] Currently allocated     0.00E+00 Mbytes, locked:    0 /   0

     iteration #  3     ecut=    60.00 Ry     beta= 0.30
     Davidson diagonalization with overlap

---- Real-time Memory Report at c_bands before calling an iterative solver
           697 MiB given to the printing process from OS
             0 MiB allocation reported by mallinfo(arena+hblkhd)
       1348624 MiB available memory on the node where the printing process lives
     GPU memory used/free/total (MiB): 938 / 80212 / 81151
------------------
     ethr =  1.36E-03,  avg # of iterations =  2.7

     total cpu time spent up to now is        8.2 secs

     total energy              =    -572.64826264 Ry
     estimated scf accuracy    <       1.04145326 Ry

     total magnetization       =     1.25 Bohr mag/cell
     absolute magnetization    =     1.58 Bohr mag/cell
[tb_dev] Currently allocated     3.05E-05 Mbytes, locked:    0 /   2
[tb_pin] Currently allocated     0.00E+00 Mbytes, locked:    0 /   0

     iteration #  4     ecut=    60.00 Ry     beta= 0.30
     Davidson diagonalization with overlap

---- Real-time Memory Report at c_bands before calling an iterative solver
           699 MiB given to the printing process from OS
             0 MiB allocation reported by mallinfo(arena+hblkhd)
       1346716 MiB available memory on the node where the printing process lives
     GPU memory used/free/total (MiB): 938 / 80212 / 81151
------------------
     ethr =  1.36E-03,  avg # of iterations =  1.6

     total cpu time spent up to now is        9.4 secs

     total energy              =    -572.67992887 Ry
     estimated scf accuracy    <       2.43143964 Ry

     total magnetization       =     0.75 Bohr mag/cell
     absolute magnetization    =     1.20 Bohr mag/cell
[tb_dev] Currently allocated     3.05E-05 Mbytes, locked:    0 /   2
[tb_pin] Currently allocated     0.00E+00 Mbytes, locked:    0 /   0

     iteration #  5     ecut=    60.00 Ry     beta= 0.30
     Davidson diagonalization with overlap

---- Real-time Memory Report at c_bands before calling an iterative solver
           700 MiB given to the printing process from OS
             0 MiB allocation reported by mallinfo(arena+hblkhd)
       1344067 MiB available memory on the node where the printing process lives
     GPU memory used/free/total (MiB): 938 / 80212 / 81151
------------------
     ethr =  1.36E-03,  avg # of iterations =  1.5

     total cpu time spent up to now is       10.7 secs

     total energy              =    -572.64755879 Ry
     estimated scf accuracy    <       1.62633291 Ry

     total magnetization       =     0.39 Bohr mag/cell
     absolute magnetization    =     1.13 Bohr mag/cell
[tb_dev] Currently allocated     3.05E-05 Mbytes, locked:    0 /   2
[tb_pin] Currently allocated     0.00E+00 Mbytes, locked:    0 /   0

     iteration #  6     ecut=    60.00 Ry     beta= 0.30
     Davidson diagonalization with overlap

---- Real-time Memory Report at c_bands before calling an iterative solver
           701 MiB given to the printing process from OS
             0 MiB allocation reported by mallinfo(arena+hblkhd)
       1363110 MiB available memory on the node where the printing process lives
     GPU memory used/free/total (MiB): 938 / 80212 / 81151
------------------
     ethr =  1.36E-03,  avg # of iterations =  1.1

     total cpu time spent up to now is       11.9 secs

     total energy              =    -572.64248186 Ry
     estimated scf accuracy    <       0.95999669 Ry

     total magnetization       =     0.32 Bohr mag/cell
     absolute magnetization    =     1.13 Bohr mag/cell
[tb_dev] Currently allocated     3.05E-05 Mbytes, locked:    0 /   2
[tb_pin] Currently allocated     0.00E+00 Mbytes, locked:    0 /   0

     iteration #  7     ecut=    60.00 Ry     beta= 0.30
     Davidson diagonalization with overlap

---- Real-time Memory Report at c_bands before calling an iterative solver
           702 MiB given to the printing process from OS
             0 MiB allocation reported by mallinfo(arena+hblkhd)
       1362890 MiB available memory on the node where the printing process lives
     GPU memory used/free/total (MiB): 938 / 80212 / 81151
------------------
     ethr =  1.36E-03,  avg # of iterations =  1.2

     total cpu time spent up to now is       13.1 secs

     total energy              =    -572.68491970 Ry
     estimated scf accuracy    <       0.36193746 Ry

     total magnetization       =     0.02 Bohr mag/cell
     absolute magnetization    =     0.85 Bohr mag/cell
[tb_dev] Currently allocated     3.05E-05 Mbytes, locked:    0 /   2
[tb_pin] Currently allocated     0.00E+00 Mbytes, locked:    0 /   0

     iteration #  8     ecut=    60.00 Ry     beta= 0.30
     Davidson diagonalization with overlap

---- Real-time Memory Report at c_bands before calling an iterative solver
           703 MiB given to the printing process from OS
             0 MiB allocation reported by mallinfo(arena+hblkhd)
       1361464 MiB available memory on the node where the printing process lives
     GPU memory used/free/total (MiB): 938 / 80212 / 81151
------------------
     ethr =  9.52E-04,  avg # of iterations =  1.5

     total cpu time spent up to now is       14.4 secs

     total energy              =    -572.65269034 Ry
     estimated scf accuracy    <       0.19772531 Ry

     total magnetization       =    -0.00 Bohr mag/cell
     absolute magnetization    =     0.52 Bohr mag/cell
[tb_dev] Currently allocated     3.05E-05 Mbytes, locked:    0 /   2
[tb_pin] Currently allocated     0.00E+00 Mbytes, locked:    0 /   0

     iteration #  9     ecut=    60.00 Ry     beta= 0.30
     Davidson diagonalization with overlap

---- Real-time Memory Report at c_bands before calling an iterative solver
           704 MiB given to the printing process from OS
             0 MiB allocation reported by mallinfo(arena+hblkhd)
       1360474 MiB available memory on the node where the printing process lives
     GPU memory used/free/total (MiB): 938 / 80212 / 81151
------------------
     ethr =  5.20E-04,  avg # of iterations =  2.3

     total cpu time spent up to now is       15.7 secs

     total energy              =    -572.67859835 Ry
     estimated scf accuracy    <       0.00642094 Ry

     total magnetization       =    -0.00 Bohr mag/cell
     absolute magnetization    =     0.32 Bohr mag/cell
[tb_dev] Currently allocated     3.05E-05 Mbytes, locked:    0 /   2
[tb_pin] Currently allocated     0.00E+00 Mbytes, locked:    0 /   0

     iteration # 10     ecut=    60.00 Ry     beta= 0.30
     Davidson diagonalization with overlap

---- Real-time Memory Report at c_bands before calling an iterative solver
           705 MiB given to the printing process from OS
             0 MiB allocation reported by mallinfo(arena+hblkhd)
       1359303 MiB available memory on the node where the printing process lives
     GPU memory used/free/total (MiB): 938 / 80212 / 81151
------------------
     c_bands:  1 eigenvalues not converged
     c_bands:  1 eigenvalues not converged
     c_bands:  1 eigenvalues not converged
     c_bands:  1 eigenvalues not converged
     c_bands:  1 eigenvalues not converged
     ethr =  1.69E-05,  avg # of iterations = 11.5

     total cpu time spent up to now is       18.2 secs

     total energy              =    -572.68100243 Ry
     estimated scf accuracy    <       0.00746214 Ry

     total magnetization       =    -0.00 Bohr mag/cell
     absolute magnetization    =     0.29 Bohr mag/cell
[tb_dev] Currently allocated     3.05E-05 Mbytes, locked:    0 /   2
[tb_pin] Currently allocated     0.00E+00 Mbytes, locked:    0 /   0

     iteration # 11     ecut=    60.00 Ry     beta= 0.30
     Davidson diagonalization with overlap

---- Real-time Memory Report at c_bands before calling an iterative solver
           705 MiB given to the printing process from OS
             0 MiB allocation reported by mallinfo(arena+hblkhd)
       1357118 MiB available memory on the node where the printing process lives
     GPU memory used/free/total (MiB): 938 / 80212 / 81151
------------------
     ethr =  1.69E-05,  avg # of iterations =  1.3

     total cpu time spent up to now is       19.4 secs

     total energy              =    -572.68330246 Ry
     estimated scf accuracy    <       0.00673040 Ry

     total magnetization       =    -0.00 Bohr mag/cell
     absolute magnetization    =     0.29 Bohr mag/cell
[tb_dev] Currently allocated     3.05E-05 Mbytes, locked:    0 /   2
[tb_pin] Currently allocated     0.00E+00 Mbytes, locked:    0 /   0

     iteration # 12     ecut=    60.00 Ry     beta= 0.30
     Davidson diagonalization with overlap

---- Real-time Memory Report at c_bands before calling an iterative solver
           705 MiB given to the printing process from OS
             0 MiB allocation reported by mallinfo(arena+hblkhd)
       1356294 MiB available memory on the node where the printing process lives
     GPU memory used/free/total (MiB): 938 / 80212 / 81151
------------------
     ethr =  1.69E-05,  avg # of iterations =  1.5

     total cpu time spent up to now is       20.6 secs

     total energy              =    -572.68616098 Ry
     estimated scf accuracy    <       0.00611028 Ry

     total magnetization       =     0.00 Bohr mag/cell
     absolute magnetization    =     0.11 Bohr mag/cell
[tb_dev] Currently allocated     3.05E-05 Mbytes, locked:    0 /   2
[tb_pin] Currently allocated     0.00E+00 Mbytes, locked:    0 /   0

     iteration # 13     ecut=    60.00 Ry     beta= 0.30
     Davidson diagonalization with overlap

---- Real-time Memory Report at c_bands before calling an iterative solver
           705 MiB given to the printing process from OS
             0 MiB allocation reported by mallinfo(arena+hblkhd)
       1355410 MiB available memory on the node where the printing process lives
     GPU memory used/free/total (MiB): 938 / 80212 / 81151
------------------
     ethr =  1.61E-05,  avg # of iterations =  1.2

     total cpu time spent up to now is       21.9 secs

     total energy              =    -572.68660706 Ry
     estimated scf accuracy    <       0.00269491 Ry

     total magnetization       =     0.00 Bohr mag/cell
     absolute magnetization    =     0.06 Bohr mag/cell
[tb_dev] Currently allocated     3.05E-05 Mbytes, locked:    0 /   2
[tb_pin] Currently allocated     0.00E+00 Mbytes, locked:    0 /   0

     iteration # 14     ecut=    60.00 Ry     beta= 0.30
     Davidson diagonalization with overlap

---- Real-time Memory Report at c_bands before calling an iterative solver
           705 MiB given to the printing process from OS
             0 MiB allocation reported by mallinfo(arena+hblkhd)
       1354028 MiB available memory on the node where the printing process lives
     GPU memory used/free/total (MiB): 938 / 80212 / 81151
------------------
     ethr =  7.09E-06,  avg # of iterations =  1.5

     total cpu time spent up to now is       23.1 secs

     total energy              =    -572.68651914 Ry
     estimated scf accuracy    <       0.00284071 Ry

     total magnetization       =     0.00 Bohr mag/cell
     absolute magnetization    =     0.03 Bohr mag/cell
[tb_dev] Currently allocated     3.05E-05 Mbytes, locked:    0 /   2
[tb_pin] Currently allocated     0.00E+00 Mbytes, locked:    0 /   0

     iteration # 15     ecut=    60.00 Ry     beta= 0.30
     Davidson diagonalization with overlap

---- Real-time Memory Report at c_bands before calling an iterative solver
           705 MiB given to the printing process from OS
             0 MiB allocation reported by mallinfo(arena+hblkhd)
       1353670 MiB available memory on the node where the printing process lives
     GPU memory used/free/total (MiB): 938 / 80212 / 81151
------------------
     ethr =  7.09E-06,  avg # of iterations =  1.1

     total cpu time spent up to now is       24.3 secs

     total energy              =    -572.68653093 Ry
     estimated scf accuracy    <       0.00152997 Ry

     total magnetization       =     0.00 Bohr mag/cell
     absolute magnetization    =     0.02 Bohr mag/cell
[tb_dev] Currently allocated     3.05E-05 Mbytes, locked:    0 /   2
[tb_pin] Currently allocated     0.00E+00 Mbytes, locked:    0 /   0

     iteration # 16     ecut=    60.00 Ry     beta= 0.30
     Davidson diagonalization with overlap

---- Real-time Memory Report at c_bands before calling an iterative solver
           705 MiB given to the printing process from OS
             0 MiB allocation reported by mallinfo(arena+hblkhd)
       1351338 MiB available memory on the node where the printing process lives
     GPU memory used/free/total (MiB): 938 / 80212 / 81151
------------------
     ethr =  4.03E-06,  avg # of iterations =  1.5

     total cpu time spent up to now is       25.6 secs

     total energy              =    -572.68650583 Ry
     estimated scf accuracy    <       0.00126494 Ry

     total magnetization       =     0.00 Bohr mag/cell
     absolute magnetization    =     0.01 Bohr mag/cell
[tb_dev] Currently allocated     3.05E-05 Mbytes, locked:    0 /   2
[tb_pin] Currently allocated     0.00E+00 Mbytes, locked:    0 /   0

     iteration # 17     ecut=    60.00 Ry     beta= 0.30
     Davidson diagonalization with overlap

---- Real-time Memory Report at c_bands before calling an iterative solver
           705 MiB given to the printing process from OS
             0 MiB allocation reported by mallinfo(arena+hblkhd)
       1349378 MiB available memory on the node where the printing process lives
     GPU memory used/free/total (MiB): 938 / 80212 / 81151
------------------
     ethr =  3.33E-06,  avg # of iterations =  1.2

     total cpu time spent up to now is       26.8 secs

     total energy              =    -572.68633787 Ry
     estimated scf accuracy    <       0.00088529 Ry

     total magnetization       =     0.00 Bohr mag/cell
     absolute magnetization    =     0.01 Bohr mag/cell
[tb_dev] Currently allocated     3.05E-05 Mbytes, locked:    0 /   2
[tb_pin] Currently allocated     0.00E+00 Mbytes, locked:    0 /   0

     iteration # 18     ecut=    60.00 Ry     beta= 0.30
     Davidson diagonalization with overlap

---- Real-time Memory Report at c_bands before calling an iterative solver
           705 MiB given to the printing process from OS
             0 MiB allocation reported by mallinfo(arena+hblkhd)
       1347374 MiB available memory on the node where the printing process lives
     GPU memory used/free/total (MiB): 938 / 80212 / 81151
------------------
     ethr =  2.33E-06,  avg # of iterations =  1.9

     total cpu time spent up to now is       28.1 secs

     total energy              =    -572.68636710 Ry
     estimated scf accuracy    <       0.00006774 Ry

     total magnetization       =     0.00 Bohr mag/cell
     absolute magnetization    =     0.01 Bohr mag/cell
[tb_dev] Currently allocated     3.05E-05 Mbytes, locked:    0 /   2
[tb_pin] Currently allocated     0.00E+00 Mbytes, locked:    0 /   0

     iteration # 19     ecut=    60.00 Ry     beta= 0.30
     Davidson diagonalization with overlap

---- Real-time Memory Report at c_bands before calling an iterative solver
           705 MiB given to the printing process from OS
             0 MiB allocation reported by mallinfo(arena+hblkhd)
       1345067 MiB available memory on the node where the printing process lives
     GPU memory used/free/total (MiB): 938 / 80212 / 81151
------------------
     ethr =  1.78E-07,  avg # of iterations =  3.9

     total cpu time spent up to now is       29.7 secs

     total energy              =    -572.68638912 Ry
     estimated scf accuracy    <       0.00000548 Ry

     total magnetization       =    -0.00 Bohr mag/cell
     absolute magnetization    =     0.00 Bohr mag/cell
[tb_dev] Currently allocated     3.05E-05 Mbytes, locked:    0 /   2
[tb_pin] Currently allocated     0.00E+00 Mbytes, locked:    0 /   0

     iteration # 20     ecut=    60.00 Ry     beta= 0.30
     Davidson diagonalization with overlap

---- Real-time Memory Report at c_bands before calling an iterative solver
           705 MiB given to the printing process from OS
             0 MiB allocation reported by mallinfo(arena+hblkhd)
       1341863 MiB available memory on the node where the printing process lives
     GPU memory used/free/total (MiB): 938 / 80212 / 81151
------------------
     ethr =  1.44E-08,  avg # of iterations =  8.6

     total cpu time spent up to now is       31.8 secs

     total energy              =    -572.68639880 Ry
     estimated scf accuracy    <       0.00000328 Ry

     total magnetization       =    -0.00 Bohr mag/cell
     absolute magnetization    =     0.00 Bohr mag/cell
[tb_dev] Currently allocated     3.05E-05 Mbytes, locked:    0 /   2
[tb_pin] Currently allocated     0.00E+00 Mbytes, locked:    0 /   0

     iteration # 21     ecut=    60.00 Ry     beta= 0.30
     Davidson diagonalization with overlap

---- Real-time Memory Report at c_bands before calling an iterative solver
           706 MiB given to the printing process from OS
             0 MiB allocation reported by mallinfo(arena+hblkhd)
       1360485 MiB available memory on the node where the printing process lives
     GPU memory used/free/total (MiB): 938 / 80212 / 81151
------------------
     ethr =  8.62E-09,  avg # of iterations =  1.4

     total cpu time spent up to now is       33.0 secs

     total energy              =    -572.68639816 Ry
     estimated scf accuracy    <       0.00000117 Ry

     total magnetization       =    -0.00 Bohr mag/cell
     absolute magnetization    =     0.00 Bohr mag/cell
[tb_dev] Currently allocated     3.05E-05 Mbytes, locked:    0 /   2
[tb_pin] Currently allocated     0.00E+00 Mbytes, locked:    0 /   0

     iteration # 22     ecut=    60.00 Ry     beta= 0.30
     Davidson diagonalization with overlap

---- Real-time Memory Report at c_bands before calling an iterative solver
           706 MiB given to the printing process from OS
             0 MiB allocation reported by mallinfo(arena+hblkhd)
       1359542 MiB available memory on the node where the printing process lives
     GPU memory used/free/total (MiB): 938 / 80212 / 81151
------------------
     ethr =  3.09E-09,  avg # of iterations =  3.1

     total cpu time spent up to now is       34.4 secs

     total energy              =    -572.68639820 Ry
     estimated scf accuracy    <       0.00000028 Ry

     total magnetization       =     0.00 Bohr mag/cell
     absolute magnetization    =     0.00 Bohr mag/cell
[tb_dev] Currently allocated     3.05E-05 Mbytes, locked:    0 /   2
[tb_pin] Currently allocated     0.00E+00 Mbytes, locked:    0 /   0

     iteration # 23     ecut=    60.00 Ry     beta= 0.30
     Davidson diagonalization with overlap

---- Real-time Memory Report at c_bands before calling an iterative solver
           706 MiB given to the printing process from OS
             0 MiB allocation reported by mallinfo(arena+hblkhd)
       1358163 MiB available memory on the node where the printing process lives
     GPU memory used/free/total (MiB): 938 / 80212 / 81151
------------------
     ethr =  7.33E-10,  avg # of iterations =  3.9

     total cpu time spent up to now is       35.9 secs

     total energy              =    -572.68639871 Ry
     estimated scf accuracy    <       0.00000011 Ry

     total magnetization       =     0.00 Bohr mag/cell
     absolute magnetization    =     0.00 Bohr mag/cell
[tb_dev] Currently allocated     3.05E-05 Mbytes, locked:    0 /   2
[tb_pin] Currently allocated     0.00E+00 Mbytes, locked:    0 /   0

     iteration # 24     ecut=    60.00 Ry     beta= 0.30
     Davidson diagonalization with overlap

---- Real-time Memory Report at c_bands before calling an iterative solver
           706 MiB given to the printing process from OS
             0 MiB allocation reported by mallinfo(arena+hblkhd)
       1357038 MiB available memory on the node where the printing process lives
     GPU memory used/free/total (MiB): 938 / 80212 / 81151
------------------
     ethr =  2.88E-10,  avg # of iterations =  4.0
 
     Magnetic moment per site  (integrated on atomic sphere of radius R)
     atom   1 (R=0.275)  charge= 14.2551  magn=  0.0001
     atom   2 (R=0.275)  charge=  5.2562  magn= -0.0001
     atom   3 (R=0.275)  charge=  5.5291  magn= -0.0000
     atom   4 (R=0.280)  charge=  6.1560  magn= -0.0000

     total cpu time spent up to now is       37.5 secs

     End of self-consistent calculation

 ------ SPIN UP ------------


          k = 0.0000 0.0000 0.0000 (  2125 PWs)   bands (ev):

   -82.7578 -46.0785 -46.0785 -45.9628 -17.8547  -7.6097  -5.8055   0.2113
     0.4488   0.4488   6.5560   6.7244   6.7244   9.4916   9.9643   9.9643
    11.0204  11.0204  12.5766  14.3099  14.3099  17.9165  20.7598  21.9471
    21.9471  22.2195  24.1258

     occupation numbers 
     1.0000   1.0000   1.0000   1.0000   1.0000   1.0000   1.0000   1.0000
     1.0000   1.0000   1.0000   1.0000   1.0000   1.0000   1.0000   1.0000
     1.0000   1.0000   1.0146   0.0000   0.0000   0.0000   0.0000   0.0000
     0.0000   0.0000   0.0000

          k = 0.0000 0.0000 0.1758 (  2120 PWs)   bands (ev):

   -82.7578 -46.0786 -46.0786 -45.9626 -17.8514  -7.7452  -5.5919   0.0352
     0.4467   0.4467   6.7499   6.7499   6.7768   9.5552   9.9058   9.9058
    11.0334  11.0334  12.2474  14.3495  14.3495  18.6758  19.9839  21.8594
    21.8595  22.0550  24.2169

     occupation numbers 
     1.0000   1.0000   1.0000   1.0000   1.0000   1.0000   1.0000   1.0000
     1.0000   1.0000   1.0000   1.0000   1.0000   1.0000   1.0000   1.0000
     1.0000   1.0000   1.0001   0.0000   0.0000   0.0000   0.0000   0.0000
     0.0000   0.0000   0.0000

          k = 0.0000 0.1443 0.0000 (  2127 PWs)   bands (ev):

   -82.7570 -46.0869 -46.0806 -45.9614 -17.7203  -7.5876  -5.7818  -0.6434
     0.2885   0.7699   6.6353   6.8903   6.9376   9.0561   9.6366   9.9637
    11.2757  11.3709  12.4202  14.1182  14.2566  18.5233  20.3410  21.3251
    22.1445  23.1820  23.7917

     occupation numbers 
     1.0000   1.0000   1.0000   1.0000   1.0000   1.0000   1.0000   1.0000
     1.0000   1.0000   1.0000   1.0000   1.0000   1.0000   1.0000   1.0000
     1.0000   1.0000   1.0017   0.0000   0.0000   0.0000   0.0000   0.0000
     0.0000   0.0000   0.0000

          k = 0.0000 0.1443 0.1758 (  2112 PWs)   bands (ev):

   -82.7570 -46.0869 -46.0806 -45.9612 -17.7173  -7.6948  -5.6244  -0.6684
     0.2861   0.6861   6.5689   6.9242   7.0347   9.2652   9.5839  10.0114
    11.2652  11.3695  12.2165  14.0336  14.2805  19.1068  19.9422  21.1977
    22.1269  22.2466  24.3668

     occupation numbers 
     1.0000   1.0000   1.0000   1.0000   1.0000   1.0000   1.0000   1.0000
     1.0000   1.0000   1.0000   1.0000   1.0000   1.0000   1.0000   1.0000
     1.0000   1.0000   1.0000   0.0000   0.0000   0.0000   0.0000   0.0000
     0.0000   0.0000   0.0000

          k = 0.0000 0.2887 0.0000 (  2124 PWs)   bands (ev):

   -82.7553 -46.1070 -46.0854 -45.9581 -17.3711  -7.6586  -5.6932  -1.4887
    -0.0665   0.5251   6.7121   7.1270   7.2650   8.5328   9.2101  10.0328
    11.5048  11.7438  12.1748  13.9421  14.2047  19.1011  19.8346  21.1262
    22.8678  24.0747  25.1434

     occupation numbers 
     1.0000   1.0000   1.0000   1.0000   1.0000   1.0000   1.0000   1.0000
     1.0000   1.0000   1.0000   1.0000   1.0000   1.0000   1.0000   1.0000
     1.0000   1.0000   1.0000   0.0000   0.0000   0.0000   0.0000   0.0000
     0.0000   0.0000   0.0000

          k = 0.0000 0.2887 0.1758 (  2109 PWs)   bands (ev):

   -82.7552 -46.1070 -46.0853 -45.9580 -17.3687  -7.7012  -5.6487  -1.4600
    -0.0688   0.4778   6.5957   7.1365   7.3120   8.7166   9.1537  10.1667
    11.5495  11.7307  12.1240  13.7593  14.2231  19.0002  19.8873  21.2709
    22.9217  23.0371  25.1201

     occupation numbers 
     1.0000   1.0000   1.0000   1.0000   1.0000   1.0000   1.0000   1.0000
     1.0000   1.0000   1.0000   1.0000   1.0000   1.0000   1.0000   1.0000
     1.0000   1.0000   1.0000   0.0004   0.0000   0.0000   0.0000   0.0000
     0.0000   0.0000   0.0000

          k = 0.0000 0.4330 0.0000 (  2116 PWs)   bands (ev):

   -82.7535 -46.1271 -46.0903 -45.9547 -16.9781  -7.9534  -5.5315  -1.7806
    -0.3858  -0.0032   6.3778   7.1097   7.5683   8.5043   9.0497  10.1591
    11.5883  11.7070  12.0344  13.8605  14.3021  18.5167  20.3229  21.7529
    23.9260  24.2239  26.1653

     occupation numbers 
     1.0000   1.0000   1.0000   1.0000   1.0000   1.0000   1.0000   1.0000
     1.0000   1.0000   1.0000   1.0000   1.0000   1.0000   1.0000   1.0000
     1.0000   1.0000   1.0000   0.0001   0.0000   0.0000   0.0000   0.0000
     0.0000   0.0000   0.0000

          k = 0.0000 0.4330 0.1758 (  2127 PWs)   bands (ev):

   -82.7535 -46.1271 -46.0903 -45.9549 -16.9762  -7.9599  -5.5329  -1.7887
    -0.3878  -0.0197   6.6505   6.9277   7.6424   8.6754   8.9550   9.8696
    11.7021  11.7149  12.0444  13.8205  14.3364  18.5704  20.2554  21.5880
    23.7649  23.9783  25.4092

     occupation numbers 
     1.0000   1.0000   1.0000   1.0000   1.0000   1.0000   1.0000   1.0000
     1.0000   1.0000   1.0000   1.0000   1.0000   1.0000   1.0000   1.0000
     1.0000   1.0000   1.0000   0.0001   0.0000   0.0000   0.0000   0.0000
     0.0000   0.0000   0.0000

          k = 0.0000-0.5774 0.0000 (  2126 PWs)   bands (ev):

   -82.7528 -46.1356 -46.0922 -45.9534 -16.7987  -8.1448  -5.4417  -1.7434
    -0.5095  -0.3091   6.0873   7.2493   7.6500   8.4024   9.0789  10.2630
    11.5859  11.7827  11.8400  13.8105  14.3808  18.2845  20.6248  22.1173
    23.9390  24.4426  26.2680

     occupation numbers 
     1.0000   1.0000   1.0000   1.0000   1.0000   1.0000   1.0000   1.0000
     1.0000   1.0000   1.0000   1.0000   1.0000   1.0000   1.0000   1.0000
     1.0000   1.0000   1.0000   0.0001   0.0000   0.0000   0.0000   0.0000
     0.0000   0.0000   0.0000

          k = 0.0000-0.5774 0.1758 (  2130 PWs)   bands (ev):

   -82.7528 -46.1354 -46.0923 -45.9536 -16.7971  -8.1435  -5.4499  -1.7790
    -0.5113  -0.3026   6.3612   7.0480   7.7214   8.6453   8.9826   9.8542
    11.5885  11.8127  11.9473  13.8998  14.4224  18.4330  20.4558  21.5310
    24.0518  24.4134  25.5226

     occupation numbers 
     1.0000   1.0000   1.0000   1.0000   1.0000   1.0000   1.0000   1.0000
     1.0000   1.0000   1.0000   1.0000   1.0000   1.0000   1.0000   1.0000
     1.0000   1.0000   1.0000   0.0000   0.0000   0.0000   0.0000   0.0000
     0.0000   0.0000   0.0000

          k = 0.1250 0.2165 0.0000 (  2125 PWs)   bands (ev):

   -82.7558 -46.1003 -46.0850 -45.9590 -17.4776  -7.6137  -5.7243  -1.2560
    -0.1487   0.7473   6.7535   6.9957   7.3580   8.5878   9.1447  10.0761
    11.5224  11.6898  12.2092  13.9910  14.1600  19.2852  19.7026  21.0847
    22.3671  24.1599  24.6808

     occupation numbers 
     1.0000   1.0000   1.0000   1.0000   1.0000   1.0000   1.0000   1.0000
     1.0000   1.0000   1.0000   1.0000   1.0000   1.0000   1.0000   1.0000
     1.0000   1.0000   1.0000   0.0000   0.0000   0.0000   0.0000   0.0000
     0.0000   0.0000   0.0000

          k = 0.1250 0.2165 0.1758 (  2124 PWs)   bands (ev):

   -82.7558 -46.1003 -46.0849 -45.9590 -17.4750  -7.6713  -5.6586  -1.2257
    -0.1495   0.7007   6.5489   7.0301   7.2899   8.8881   9.1874  10.2646
    11.5237  11.6697  12.1271  13.8064  14.1541  19.3638  19.7189  20.9988
    22.2949  23.1332  25.0639

     occupation numbers 
     1.0000   1.0000   1.0000   1.0000   1.0000   1.0000   1.0000   1.0000
     1.0000   1.0000   1.0000   1.0000   1.0000   1.0000   1.0000   1.0000
     1.0000   1.0000   1.0000   0.0002   0.0000   0.0000   0.0000   0.0000
     0.0000   0.0000   0.0000

          k = 0.1250 0.3608 0.0000 (  2112 PWs)   bands (ev):

   -82.7540 -46.1182 -46.0917 -45.9557 -17.1003  -7.8191  -5.5842  -1.6451
    -0.7494   0.4530   6.7504   7.0101   7.5821   8.5412   8.8293  10.0804
    11.5767  11.7903  12.1470  13.9381  14.1606  18.9443  19.9581  21.4301
    22.9426  24.8087  25.7976

     occupation numbers 
     1.0000   1.0000   1.0000   1.0000   1.0000   1.0000   1.0000   1.0000
     1.0000   1.0000   1.0000   1.0000   1.0000   1.0000   1.0000   1.0000
     1.0000   1.0000   1.0000   0.0000   0.0000   0.0000   0.0000   0.0000
     0.0000   0.0000   0.0000

          k = 0.1250 0.3608 0.1758 (  2117 PWs)   bands (ev):

   -82.7540 -46.1182 -46.0917 -45.9558 -17.0983  -7.8316  -5.5848  -1.6278
    -0.7499   0.4318   6.8333   7.0010   7.4906   8.5055   8.9727  10.1377
    11.6272  11.8123  12.1173  13.7936  14.1334  18.9020  19.9990  21.4007
    22.8653  24.0401  25.7221

     occupation numbers 
     1.0000   1.0000   1.0000   1.0000   1.0000   1.0000   1.0000   1.0000
     1.0000   1.0000   1.0000   1.0000   1.0000   1.0000   1.0000   1.0000
     1.0000   1.0000   1.0000   0.0002   0.0000   0.0000   0.0000   0.0000
     0.0000   0.0000   0.0000

          k = 0.1250 0.5052 0.0000 (  2125 PWs)   bands (ev):

   -82.7528 -46.1309 -46.0968 -45.9535 -16.8028  -8.0933  -5.4408  -1.7337
    -1.0380   0.0827   6.3195   7.0520   7.9304   8.5270   8.7345  10.1217
    11.6404  11.7648  12.0273  13.9008  14.2478  18.6022  20.3229  21.9313
    23.5419  24.7772  26.1529

     occupation numbers 
     1.0000   1.0000   1.0000   1.0000   1.0000   1.0000   1.0000   1.0000
     1.0000   1.0000   1.0000   1.0000   1.0000   1.0000   1.0000   1.0000
     1.0000   1.0000   1.0000   0.0000   0.0000   0.0000   0.0000   0.0000
     0.0000   0.0000   0.0000

          k = 0.1250 0.5052 0.1758 (  2124 PWs)   bands (ev):

   -82.7528 -46.1309 -46.0967 -45.9536 -16.8011  -8.0938  -5.4431  -1.7688
    -1.0408   0.0754   6.6135   7.0673   7.7869   8.6115   8.7881   9.8035
    11.6431  11.8226  12.0798  13.9020  14.2159  18.6652  20.4150  21.5512
    23.3615  24.4252  25.6848

     occupation numbers 
     1.0000   1.0000   1.0000   1.0000   1.0000   1.0000   1.0000   1.0000
     1.0000   1.0000   1.0000   1.0000   1.0000   1.0000   1.0000   1.0000
     1.0000   1.0000   1.0000   0.0000   0.0000   0.0000   0.0000   0.0000
     0.0000   0.0000   0.0000

          k = 0.2500 0.4330 0.0000 (  2117 PWs)   bands (ev):

   -82.7528 -46.1246 -46.1030 -45.9535 -16.8068  -8.0406  -5.4393  -1.6731
    -1.4028   0.2644   6.6877   6.8601   7.8916   8.5165   8.7817   9.9357
    11.7001  11.7579  12.1655  14.0030  14.1106  19.0741  19.8983  21.6731
    23.1068  25.1431  26.3480

     occupation numbers 
     1.0000   1.0000   1.0000   1.0000   1.0000   1.0000   1.0000   1.0000
     1.0000   1.0000   1.0000   1.0000   1.0000   1.0000   1.0000   1.0000
     1.0000   1.0000   1.0000   0.0000   0.0000   0.0000   0.0000   0.0000
     0.0000   0.0000   0.0000

          k = 0.2500 0.4330 0.1758 (  2126 PWs)   bands (ev):

   -82.7528 -46.1247 -46.1030 -45.9536 -16.8052  -8.0403  -5.4471  -1.6857
    -1.4140   0.2544   6.8398   7.0001   7.8227   8.3877   8.8059   9.9448
    11.6859  11.8636  12.1585  13.8378  14.0688  19.1008  20.0071  21.4729
    22.8198  24.8186  25.8296

     occupation numbers 
     1.0000   1.0000   1.0000   1.0000   1.0000   1.0000   1.0000   1.0000
     1.0000   1.0000   1.0000   1.0000   1.0000   1.0000   1.0000   1.0000
     1.0000   1.0000   1.0000   0.0001   0.0000   0.0000   0.0000   0.0000
     0.0000   0.0000   0.0000

          k = 0.2500 0.5774 0.0000 (  2121 PWs)   bands (ev):

   -82.7523 -46.1252 -46.1097 -45.9525 -16.6773  -8.1470  -5.3731  -1.9692
    -1.2819   0.1024   6.5546   6.8627   7.8557   8.6501   8.8878   9.7439
    11.8047  11.8671  12.0664  14.0120  14.1032  19.1986  19.9128  21.9427
    22.8365  25.6361  26.1596

     occupation numbers 
     1.0000   1.0000   1.0000   1.0000   1.0000   1.0000   1.0000   1.0000
     1.0000   1.0000   1.0000   1.0000   1.0000   1.0000   1.0000   1.0000
     1.0000   1.0000   1.0000   0.0000   0.0000   0.0000   0.0000   0.0000
     0.0000   0.0000   0.0000

          k = 0.2500 0.5774 0.1758 (  2132 PWs)   bands (ev):

   -82.7523 -46.1252 -46.1098 -45.9526 -16.6759  -8.1461  -5.3696  -1.9929
    -1.3144   0.0887   6.7712   6.9975   8.0135   8.5019   8.7988   9.5745
    11.7980  11.9254  12.1156  13.8928  14.0106  19.2506  20.1193  21.5294
    22.5921  25.2368  25.8834

     occupation numbers 
     1.0000   1.0000   1.0000   1.0000   1.0000   1.0000   1.0000   1.0000
     1.0000   1.0000   1.0000   1.0000   1.0000   1.0000   1.0000   1.0000
     1.0000   1.0000   1.0000   0.0000   0.0000   0.0000   0.0000   0.0000
     0.0000   0.0000   0.0000

          k = 0.0000-0.1443 0.1758 (  2112 PWs)   bands (ev):

   -82.7570 -46.0869 -46.0806 -45.9612 -17.7173  -7.6937  -5.6276  -0.6653
     0.2871   0.6940   6.5062   6.9029   7.0625   9.2980   9.6279  10.0089
    11.2722  11.3525  12.2067  14.0324  14.2860  19.0483  20.0813  21.1068
    22.0643  22.2430  24.5340

     occupation numbers 
     1.0000   1.0000   1.0000   1.0000   1.0000   1.0000   1.0000   1.0000
     1.0000   1.0000   1.0000   1.0000   1.0000   1.0000   1.0000   1.0000
     1.0000   1.0000   1.0000   0.0000   0.0000   0.0000   0.0000   0.0000
     0.0000   0.0000   0.0000

          k = 0.0000-0.2887 0.1758 (  2109 PWs)   bands (ev):

   -82.7552 -46.1070 -46.0853 -45.9580 -17.3687  -7.6947  -5.6686  -1.4362
    -0.0676   0.5056   6.4090   7.0696   7.2689   8.8573   9.2226  10.3611
    11.5221  11.7166  12.0786  13.7637  14.2203  19.3644  19.4801  21.0479
    22.8477  23.3424  25.1111

     occupation numbers 
     1.0000   1.0000   1.0000   1.0000   1.0000   1.0000   1.0000   1.0000
     1.0000   1.0000   1.0000   1.0000   1.0000   1.0000   1.0000   1.0000
     1.0000   1.0000   1.0000   0.0004   0.0000   0.0000   0.0000   0.0000
     0.0000   0.0000   0.0000

          k = 0.0000-0.4330 0.1758 (  2127 PWs)   bands (ev):

   -82.7535 -46.1271 -46.0903 -45.9549 -16.9762  -7.9530  -5.5596  -1.7525
    -0.3872   0.0041   6.4028   6.9247   7.5967   8.6597   9.0211  10.2502
    11.6908  11.7190  11.9624  13.8346  14.3304  18.7397  19.8798  21.3700
    23.9203  24.4715  25.0888

     occupation numbers 
     1.0000   1.0000   1.0000   1.0000   1.0000   1.0000   1.0000   1.0000
     1.0000   1.0000   1.0000   1.0000   1.0000   1.0000   1.0000   1.0000
     1.0000   1.0000   1.0000   0.0001   0.0000   0.0000   0.0000   0.0000
     0.0000   0.0000   0.0000

          k =-0.1250-0.3608 0.1758 (  2117 PWs)   bands (ev):

   -82.7540 -46.1182 -46.0917 -45.9558 -17.0983  -7.8271  -5.6004  -1.6021
    -0.7552   0.4479   6.6354   6.9960   7.4929   8.6203   8.9420  10.3338
    11.6126  11.8126  12.0799  13.7791  14.1472  19.0573  19.7530  21.2363
    23.0042  24.1735  25.6539

     occupation numbers 
     1.0000   1.0000   1.0000   1.0000   1.0000   1.0000   1.0000   1.0000
     1.0000   1.0000   1.0000   1.0000   1.0000   1.0000   1.0000   1.0000
     1.0000   1.0000   1.0000   0.0003   0.0000   0.0000   0.0000   0.0000
     0.0000   0.0000   0.0000

          k =-0.1250-0.5052 0.1758 (  2124 PWs)   bands (ev):

   -82.7528 -46.1309 -46.0967 -45.9536 -16.8011  -8.0912  -5.4549  -1.7445
    -1.0499   0.0860   6.4978   7.0635   7.8155   8.6383   8.7079   9.9922
    11.6418  11.8670  12.0197  13.8824  14.2373  18.7067  20.2403  21.4688
    23.5058  24.5926  25.5907

     occupation numbers 
     1.0000   1.0000   1.0000   1.0000   1.0000   1.0000   1.0000   1.0000
     1.0000   1.0000   1.0000   1.0000   1.0000   1.0000   1.0000   1.0000
     1.0000   1.0000   1.0000   0.0000   0.0000   0.0000   0.0000   0.0000
     0.0000   0.0000   0.0000

 ------ SPIN DOWN ----------


          k = 0.0000 0.0000 0.0000 (  2125 PWs)   bands (ev):

   -82.7577 -46.0784 -46.0784 -45.9627 -17.8547  -7.6099  -5.8060   0.2113
     0.4488   0.4488   6.5558   6.7244   6.7244   9.4914   9.9639   9.9639
    11.0204  11.0204  12.5766  14.3100  14.3100  17.9164  20.7597  21.9471
    21.9471  22.2196  24.1258

     occupation numbers 
     1.0000   1.0000   1.0000   1.0000   1.0000   1.0000   1.0000   1.0000
     1.0000   1.0000   1.0000   1.0000   1.0000   1.0000   1.0000   1.0000
     1.0000   1.0000   1.0146   0.0000   0.0000   0.0000   0.0000   0.0000
     0.0000   0.0000   0.0000

          k = 0.0000 0.0000 0.1758 (  2120 PWs)   bands (ev):

   -82.7576 -46.0785 -46.0785 -45.9624 -17.8515  -7.7455  -5.5924   0.0351
     0.4467   0.4467   6.7499   6.7499   6.7766   9.5549   9.9053   9.9053
    11.0333  11.0333  12.2475  14.3496  14.3496  18.6757  19.9839  21.8594
    21.8595  22.0550  24.2169

     occupation numbers 
     1.0000   1.0000   1.0000   1.0000   1.0000   1.0000   1.0000   1.0000
     1.0000   1.0000   1.0000   1.0000   1.0000   1.0000   1.0000   1.0000
     1.0000   1.0000   1.0001   0.0000   0.0000   0.0000   0.0000   0.0000
     0.0000   0.0000   0.0000

          k = 0.0000 0.1443 0.0000 (  2127 PWs)   bands (ev):

   -82.7569 -46.0868 -46.0805 -45.9612 -17.7203  -7.5878  -5.7823  -0.6434
     0.2885   0.7698   6.6352   6.8903   6.9375   9.0559   9.6362   9.9634
    11.2756  11.3708  12.4202  14.1184  14.2567  18.5232  20.3410  21.3251
    22.1443  23.1821  23.7917

     occupation numbers 
     1.0000   1.0000   1.0000   1.0000   1.0000   1.0000   1.0000   1.0000
     1.0000   1.0000   1.0000   1.0000   1.0000   1.0000   1.0000   1.0000
     1.0000   1.0000   1.0017   0.0000   0.0000   0.0000   0.0000   0.0000
     0.0000   0.0000   0.0000

          k = 0.0000 0.1443 0.1758 (  2112 PWs)   bands (ev):

   -82.7569 -46.0868 -46.0805 -45.9610 -17.7173  -7.6950  -5.6248  -0.6684
     0.2861   0.6861   6.5689   6.9242   7.0345   9.2649   9.5836  10.0111
    11.2650  11.3694  12.2166  14.0337  14.2806  19.1067  19.9422  21.1977
    22.1268  22.2466  24.3667

     occupation numbers 
     1.0000   1.0000   1.0000   1.0000   1.0000   1.0000   1.0000   1.0000
     1.0000   1.0000   1.0000   1.0000   1.0000   1.0000   1.0000   1.0000
     1.0000   1.0000   1.0000   0.0000   0.0000   0.0000   0.0000   0.0000
     0.0000   0.0000   0.0000

          k = 0.0000 0.2887 0.0000 (  2124 PWs)   bands (ev):

   -82.7552 -46.1069 -46.0853 -45.9580 -17.3712  -7.6588  -5.6937  -1.4887
    -0.0666   0.5250   6.7120   7.1268   7.2650   8.5326   9.2098  10.0325
    11.5046  11.7436  12.1749  13.9423  14.2049  19.1011  19.8346  21.1261
    22.8678  24.0748  25.1434

     occupation numbers 
     1.0000   1.0000   1.0000   1.0000   1.0000   1.0000   1.0000   1.0000
     1.0000   1.0000   1.0000   1.0000   1.0000   1.0000   1.0000   1.0000
     1.0000   1.0000   1.0000   0.0000   0.0000   0.0000   0.0000   0.0000
     0.0000   0.0000   0.0000

          k = 0.0000 0.2887 0.1758 (  2109 PWs)   bands (ev):

   -82.7551 -46.1069 -46.0853 -45.9579 -17.3687  -7.7014  -5.6492  -1.4600
    -0.0688   0.4777   6.5956   7.1363   7.3120   8.7164   9.1533  10.1663
    11.5494  11.7305  12.1241  13.7596  14.2232  19.0002  19.8872  21.2708
    22.9217  23.0371  25.1200

     occupation numbers 
     1.0000   1.0000   1.0000   1.0000   1.0000   1.0000   1.0000   1.0000
     1.0000   1.0000   1.0000   1.0000   1.0000   1.0000   1.0000   1.0000
     1.0000   1.0000   1.0000   0.0004   0.0000   0.0000   0.0000   0.0000
     0.0000   0.0000   0.0000

          k = 0.0000 0.4330 0.0000 (  2116 PWs)   bands (ev):

   -82.7534 -46.1270 -46.0902 -45.9545 -16.9781  -7.9536  -5.5320  -1.7806
    -0.3858  -0.0032   6.3776   7.1095   7.5684   8.5042   9.0493  10.1588
    11.5883  11.7069  12.0344  13.8608  14.3022  18.5166  20.3228  21.7528
    23.9260  24.2239  26.1649

     occupation numbers 
     1.0000   1.0000   1.0000   1.0000   1.0000   1.0000   1.0000   1.0000
     1.0000   1.0000   1.0000   1.0000   1.0000   1.0000   1.0000   1.0000
     1.0000   1.0000   1.0000   0.0000   0.0000   0.0000   0.0000   0.0000
     0.0000   0.0000   0.0000

          k = 0.0000 0.4330 0.1758 (  2127 PWs)   bands (ev):

   -82.7534 -46.1270 -46.0902 -45.9547 -16.9762  -7.9600  -5.5335  -1.7887
    -0.3878  -0.0198   6.6504   6.9275   7.6425   8.6753   8.9546   9.8694
    11.7019  11.7149  12.0444  13.8208  14.3366  18.5704  20.2554  21.5880
    23.7649  23.9783  25.4093

     occupation numbers 
     1.0000   1.0000   1.0000   1.0000   1.0000   1.0000   1.0000   1.0000
     1.0000   1.0000   1.0000   1.0000   1.0000   1.0000   1.0000   1.0000
     1.0000   1.0000   1.0000   0.0001   0.0000   0.0000   0.0000   0.0000
     0.0000   0.0000   0.0000

          k = 0.0000-0.5774 0.0000 (  2126 PWs)   bands (ev):

   -82.7527 -46.1355 -46.0921 -45.9532 -16.7987  -8.1449  -5.4422  -1.7434
    -0.5095  -0.3092   6.0871   7.2491   7.6500   8.4023   9.0785  10.2627
    11.5858  11.7827  11.8398  13.8108  14.3809  18.2844  20.6247  22.1172
    23.9389  24.4426  26.2677

     occupation numbers 
     1.0000   1.0000   1.0000   1.0000   1.0000   1.0000   1.0000   1.0000
     1.0000   1.0000   1.0000   1.0000   1.0000   1.0000   1.0000   1.0000
     1.0000   1.0000   1.0000   0.0001   0.0000   0.0000   0.0000   0.0000
     0.0000   0.0000   0.0000

          k = 0.0000-0.5774 0.1758 (  2130 PWs)   bands (ev):

   -82.7527 -46.1354 -46.0922 -45.9534 -16.7971  -8.1437  -5.4504  -1.7790
    -0.5113  -0.3027   6.3610   7.0478   7.7214   8.6452   8.9822   9.8540
    11.5884  11.8127  11.9473  13.9001  14.4225  18.4330  20.4558  21.5310
    24.0517  24.4133  25.5226

     occupation numbers 
     1.0000   1.0000   1.0000   1.0000   1.0000   1.0000   1.0000   1.0000
     1.0000   1.0000   1.0000   1.0000   1.0000   1.0000   1.0000   1.0000
     1.0000   1.0000   1.0000   0.0000   0.0000   0.0000   0.0000   0.0000
     0.0000   0.0000   0.0000

          k = 0.1250 0.2165 0.0000 (  2125 PWs)   bands (ev):

   -82.7557 -46.1002 -46.0849 -45.9589 -17.4777  -7.6139  -5.7248  -1.2560
    -0.1487   0.7473   6.7534   6.9956   7.3579   8.5876   9.1444  10.0757
    11.5222  11.6896  12.2093  13.9912  14.1602  19.2851  19.7026  21.0847
    22.3671  24.1598  24.6807

     occupation numbers 
     1.0000   1.0000   1.0000   1.0000   1.0000   1.0000   1.0000   1.0000
     1.0000   1.0000   1.0000   1.0000   1.0000   1.0000   1.0000   1.0000
     1.0000   1.0000   1.0000   0.0000   0.0000   0.0000   0.0000   0.0000
     0.0000   0.0000   0.0000

          k = 0.1250 0.2165 0.1758 (  2124 PWs)   bands (ev):

   -82.7557 -46.1002 -46.0849 -45.9589 -17.4750  -7.6714  -5.6591  -1.2257
    -0.1495   0.7007   6.5489   7.0300   7.2897   8.8879   9.1871  10.2643
    11.5235  11.6695  12.1271  13.8067  14.1542  19.3637  19.7189  20.9988
    22.2949  23.1331  25.0661

     occupation numbers 
     1.0000   1.0000   1.0000   1.0000   1.0000   1.0000   1.0000   1.0000
     1.0000   1.0000   1.0000   1.0000   1.0000   1.0000   1.0000   1.0000
     1.0000   1.0000   1.0000   0.0002   0.0000   0.0000   0.0000   0.0000
     0.0000   0.0000   0.0000

          k = 0.1250 0.3608 0.0000 (  2112 PWs)   bands (ev):

   -82.7539 -46.1181 -46.0916 -45.9556 -17.1003  -7.8193  -5.5848  -1.6452
    -0.7495   0.4529   6.7502   7.0099   7.5820   8.5411   8.8290  10.0800
    11.5766  11.7903  12.1469  13.9384  14.1607  18.9443  19.9580  21.4300
    22.9426  24.8087  25.7976

     occupation numbers 
     1.0000   1.0000   1.0000   1.0000   1.0000   1.0000   1.0000   1.0000
     1.0000   1.0000   1.0000   1.0000   1.0000   1.0000   1.0000   1.0000
     1.0000   1.0000   1.0000   0.0000   0.0000   0.0000   0.0000   0.0000
     0.0000   0.0000   0.0000

          k = 0.1250 0.3608 0.1758 (  2117 PWs)   bands (ev):

   -82.7539 -46.1181 -46.0917 -45.9557 -17.0983  -7.8317  -5.5853  -1.6278
    -0.7500   0.4317   6.8332   7.0008   7.4906   8.5053   8.9724  10.1374
    11.6271  11.8123  12.1172  13.7939  14.1336  18.9020  19.9990  21.4007
    22.8653  24.0401  25.7197

     occupation numbers 
     1.0000   1.0000   1.0000   1.0000   1.0000   1.0000   1.0000   1.0000
     1.0000   1.0000   1.0000   1.0000   1.0000   1.0000   1.0000   1.0000
     1.0000   1.0000   1.0000   0.0002   0.0000   0.0000   0.0000   0.0000
     0.0000   0.0000   0.0000

          k = 0.1250 0.5052 0.0000 (  2125 PWs)   bands (ev):

   -82.7527 -46.1308 -46.0967 -45.9533 -16.8028  -8.0935  -5.4414  -1.7338
    -1.0380   0.0826   6.3193   7.0518   7.9304   8.5268   8.7343  10.1214
    11.6404  11.7649  12.0272  13.9011  14.2479  18.6022  20.3229  21.9312
    23.5418  24.7772  26.1536

     occupation numbers 
     1.0000   1.0000   1.0000   1.0000   1.0000   1.0000   1.0000   1.0000
     1.0000   1.0000   1.0000   1.0000   1.0000   1.0000   1.0000   1.0000
     1.0000   1.0000   1.0000   0.0000   0.0000   0.0000   0.0000   0.0000
     0.0000   0.0000   0.0000

          k = 0.1250 0.5052 0.1758 (  2124 PWs)   bands (ev):

   -82.7527 -46.1308 -46.0966 -45.9534 -16.8011  -8.0940  -5.4437  -1.7688
    -1.0408   0.0753   6.6133   7.0671   7.7869   8.6113   8.7878   9.8033
    11.6430  11.8226  12.0797  13.9023  14.2160  18.6652  20.4150  21.5511
    23.3615  24.4252  25.6844

     occupation numbers 
     1.0000   1.0000   1.0000   1.0000   1.0000   1.0000   1.0000   1.0000
     1.0000   1.0000   1.0000   1.0000   1.0000   1.0000   1.0000   1.0000
     1.0000   1.0000   1.0000   0.0000   0.0000   0.0000   0.0000   0.0000
     0.0000   0.0000   0.0000

          k = 0.2500 0.4330 0.0000 (  2117 PWs)   bands (ev):

   -82.7527 -46.1245 -46.1029 -45.9533 -16.8068  -8.0408  -5.4398  -1.6731
    -1.4028   0.2643   6.6876   6.8598   7.8913   8.5164   8.7815   9.9354
    11.7000  11.7580  12.1654  14.0033  14.1108  19.0740  19.8983  21.6731
    23.1067  25.1430  26.3493

     occupation numbers 
     1.0000   1.0000   1.0000   1.0000   1.0000   1.0000   1.0000   1.0000
     1.0000   1.0000   1.0000   1.0000   1.0000   1.0000   1.0000   1.0000
     1.0000   1.0000   1.0000   0.0000   0.0000   0.0000   0.0000   0.0000
     0.0000   0.0000   0.0000

          k = 0.2500 0.4330 0.1758 (  2126 PWs)   bands (ev):

   -82.7527 -46.1246 -46.1029 -45.9534 -16.8052  -8.0405  -5.4477  -1.6857
    -1.4140   0.2543   6.8397   6.9999   7.8226   8.3876   8.8057   9.9446
    11.6858  11.8636  12.1584  13.8381  14.0690  19.1008  20.0070  21.4728
    22.8197  24.8185  25.8292

     occupation numbers 
     1.0000   1.0000   1.0000   1.0000   1.0000   1.0000   1.0000   1.0000
     1.0000   1.0000   1.0000   1.0000   1.0000   1.0000   1.0000   1.0000
     1.0000   1.0000   1.0000   0.0001   0.0000   0.0000   0.0000   0.0000
     0.0000   0.0000   0.0000

          k = 0.2500 0.5774 0.0000 (  2121 PWs)   bands (ev):

   -82.7521 -46.1251 -46.1097 -45.9524 -16.6773  -8.1472  -5.3736  -1.9693
    -1.2819   0.1024   6.5545   6.8625   7.8553   8.6501   8.8878   9.7437
    11.8045  11.8671  12.0662  14.0123  14.1034  19.1986  19.9127  21.9427
    22.8365  25.6362  26.1593

     occupation numbers 
     1.0000   1.0000   1.0000   1.0000   1.0000   1.0000   1.0000   1.0000
     1.0000   1.0000   1.0000   1.0000   1.0000   1.0000   1.0000   1.0000
     1.0000   1.0000   1.0000   0.0000   0.0000   0.0000   0.0000   0.0000
     0.0000   0.0000   0.0000

          k = 0.2500 0.5774 0.1758 (  2132 PWs)   bands (ev):

   -82.7522 -46.1251 -46.1098 -45.9525 -16.6759  -8.1462  -5.3701  -1.9930
    -1.3144   0.0887   6.7711   6.9973   8.0131   8.5018   8.7988   9.5743
    11.7979  11.9254  12.1155  13.8931  14.0108  19.2505  20.1193  21.5294
    22.5920  25.2367  25.8830

     occupation numbers 
     1.0000   1.0000   1.0000   1.0000   1.0000   1.0000   1.0000   1.0000
     1.0000   1.0000   1.0000   1.0000   1.0000   1.0000   1.0000   1.0000
     1.0000   1.0000   1.0000   0.0000   0.0000   0.0000   0.0000   0.0000
     0.0000   0.0000   0.0000

          k = 0.0000-0.1443 0.1758 (  2112 PWs)   bands (ev):

   -82.7569 -46.0868 -46.0805 -45.9610 -17.7173  -7.6939  -5.6281  -0.6653
     0.2871   0.6939   6.5061   6.9029   7.0623   9.2977   9.6275  10.0086
    11.2721  11.3524  12.2068  14.0326  14.2861  19.0482  20.0813  21.1067
    22.0642  22.2430  24.5339

     occupation numbers 
     1.0000   1.0000   1.0000   1.0000   1.0000   1.0000   1.0000   1.0000
     1.0000   1.0000   1.0000   1.0000   1.0000   1.0000   1.0000   1.0000
     1.0000   1.0000   1.0000   0.0000   0.0000   0.0000   0.0000   0.0000
     0.0000   0.0000   0.0000

          k = 0.0000-0.2887 0.1758 (  2109 PWs)   bands (ev):

   -82.7551 -46.1069 -46.0853 -45.9579 -17.3687  -7.6949  -5.6691  -1.4363
    -0.0677   0.5055   6.4089   7.0694   7.2689   8.8571   9.2223  10.3608
    11.5220  11.7164  12.0786  13.7640  14.2204  19.3644  19.4801  21.0478
    22.8477  23.3424  25.1112

     occupation numbers 
     1.0000   1.0000   1.0000   1.0000   1.0000   1.0000   1.0000   1.0000
     1.0000   1.0000   1.0000   1.0000   1.0000   1.0000   1.0000   1.0000
     1.0000   1.0000   1.0000   0.0004   0.0000   0.0000   0.0000   0.0000
     0.0000   0.0000   0.0000

          k = 0.0000-0.4330 0.1758 (  2127 PWs)   bands (ev):

   -82.7534 -46.1270 -46.0902 -45.9547 -16.9762  -7.9531  -5.5601  -1.7526
    -0.3872   0.0041   6.4027   6.9245   7.5968   8.6596   9.0207  10.2499
    11.6907  11.7189  11.9624  13.8349  14.3305  18.7397  19.8798  21.3700
    23.9203  24.4715  25.0888

     occupation numbers 
     1.0000   1.0000   1.0000   1.0000   1.0000   1.0000   1.0000   1.0000
     1.0000   1.0000   1.0000   1.0000   1.0000   1.0000   1.0000   1.0000
     1.0000   1.0000   1.0000   0.0001   0.0000   0.0000   0.0000   0.0000
     0.0000   0.0000   0.0000

          k =-0.1250-0.3608 0.1758 (  2117 PWs)   bands (ev):

   -82.7539 -46.1181 -46.0917 -45.9557 -17.0983  -7.8273  -5.6009  -1.6021
    -0.7552   0.4478   6.6352   6.9958   7.4928   8.6202   8.9417  10.3335
    11.6125  11.8126  12.0799  13.7794  14.1473  19.0573  19.7530  21.2362
    23.0042  24.1735  25.6544

     occupation numbers 
     1.0000   1.0000   1.0000   1.0000   1.0000   1.0000   1.0000   1.0000
     1.0000   1.0000   1.0000   1.0000   1.0000   1.0000   1.0000   1.0000
     1.0000   1.0000   1.0000   0.0003   0.0000   0.0000   0.0000   0.0000
     0.0000   0.0000   0.0000

          k =-0.1250-0.5052 0.1758 (  2124 PWs)   bands (ev):

   -82.7527 -46.1308 -46.0966 -45.9534 -16.8011  -8.0913  -5.4555  -1.7446
    -1.0499   0.0860   6.4976   7.0633   7.8155   8.6380   8.7077   9.9920
    11.6417  11.8670  12.0196  13.8827  14.2375  18.7067  20.2403  21.4687
    23.5057  24.5926  25.5904

     occupation numbers 
     1.0000   1.0000   1.0000   1.0000   1.0000   1.0000   1.0000   1.0000
     1.0000   1.0000   1.0000   1.0000   1.0000   1.0000   1.0000   1.0000
     1.0000   1.0000   1.0000   0.0000   0.0000   0.0000   0.0000   0.0000
     0.0000   0.0000   0.0000

     the Fermi energy is    13.2284 ev

     WARNING: integrated charge=    38.00045085, expected=    38.00000000

!    total energy              =    -572.68639893 Ry
     total all-electron energy =     -4291.797235 Ry
     estimated scf accuracy    <       0.00000002 Ry
     smearing contrib. (-TS)   =       0.00000779 Ry
     internal energy E=F+TS    =    -572.68640672 Ry

     The total energy is F=E-TS. E is the sum of the following terms:
     one-electron contribution =    -295.07611735 Ry
     hartree contribution      =     172.32544548 Ry
     xc contribution           =     -57.51816377 Ry
     ewald contribution        =    -230.23023301 Ry
     one-center paw contrib.   =    -162.18733807 Ry
      -> PAW hartree energy AE =     319.29188121 Ry
      -> PAW hartree energy PS =    -317.90651589 Ry
      -> PAW xc energy AE      =    -218.11987805 Ry
      -> PAW xc energy PS      =      54.54717466 Ry
      -> total E_H with PAW    =     173.71081080 Ry
      -> total E_XC with PAW   =    -221.09086716 Ry

     total magnetization       =     0.00 Bohr mag/cell
     absolute magnetization    =     0.00 Bohr mag/cell

     convergence has been achieved in  24 iterations

     Forces acting on atoms (cartesian axes, Ry/au):

     atom    1 type  1   force =    -0.00000000   -0.00000000    0.33008715
     atom    2 type  2   force =    -0.00000000   -0.00000000   -0.01059530
     atom    3 type  2   force =     0.00000000    0.00000000    0.31035461
     atom    4 type  3   force =    -0.00000000   -0.00000000   -0.62984646
     The non-local contrib.  to forces
     atom    1 type  1   force =    -0.00000000   -0.00000000   -0.59729967
     atom    2 type  2   force =     0.00000000    0.00000000   -1.05295315
     atom    3 type  2   force =     0.00000000    0.00000000    0.95496894
     atom    4 type  3   force =     0.00000000    0.00000000   -0.22137809
     The ionic contribution  to forces
     atom    1 type  1   force =    -0.00000000   -0.00000000   23.16669390
     atom    2 type  2   force =     0.00000000   -0.00000000   24.75429182
     atom    3 type  2   force =    -0.00000000    0.00000000  -15.03372164
     atom    4 type  3   force =     0.00000000   -0.00000000  -32.88726408
     The local contribution  to forces
     atom    1 type  1   force =    -0.00000000   -0.00000000  -22.24076148
     atom    2 type  2   force =     0.00000001   -0.00000001  -23.72139397
     atom    3 type  2   force =    -0.00000001    0.00000001   14.39982078
     atom    4 type  3   force =     0.00000000   -0.00000000   32.47485063
     The core correction contribution to forces
     atom    1 type  1   force =     0.00000000   -0.00000000    0.00043190
     atom    2 type  2   force =    -0.00000000    0.00000000    0.00943114
     atom    3 type  2   force =     0.00000000   -0.00000000   -0.01092672
     atom    4 type  3   force =    -0.00000000    0.00000000    0.00411781
     The Hubbard contrib.    to forces
     atom    1 type  1   force =     0.00000000    0.00000000    0.00000000
     atom    2 type  2   force =     0.00000000    0.00000000    0.00000000
     atom    3 type  2   force =     0.00000000    0.00000000    0.00000000
     atom    4 type  3   force =     0.00000000    0.00000000    0.00000000
     The SCF correction term to forces
     atom    1 type  1   force =    -0.00000000    0.00000000    0.00102769
     atom    2 type  2   force =    -0.00000000    0.00000000    0.00003404
     atom    3 type  2   force =     0.00000000   -0.00000000    0.00021844
     atom    4 type  3   force =    -0.00000000    0.00000000   -0.00016754

     Total force =     0.775949     Total SCF correction =     0.001064

     Writing all to output data dir ./out/pw.save/ :
     XML data file, charge density, pseudopotentials, collected wavefunctions
 
     init_run     :     10.56s CPU      2.75s WALL (       1 calls)
     electrons    :    134.90s CPU     34.16s WALL (       1 calls)
     forces       :      0.57s CPU      0.55s WALL (       1 calls)

     Called by init_run:
     wfcinit      :      0.26s CPU      0.32s WALL (       1 calls)
     wfcinit:atom :      0.05s CPU      0.05s WALL (      50 calls)
     wfcinit:wfcr :      0.16s CPU      0.20s WALL (      50 calls)
     potinit      :      9.70s CPU      1.75s WALL (       1 calls)
     hinit0       :      0.52s CPU      0.55s WALL (       1 calls)

     Called by electrons:
     c_bands      :     12.78s CPU     12.98s WALL (      24 calls)
     sum_band     :      2.85s CPU      2.87s WALL (      24 calls)
     v_of_rho     :      0.36s CPU      0.19s WALL (      25 calls)
     v_h          :      0.25s CPU      0.03s WALL (      25 calls)
     v_xc         :      0.11s CPU      0.17s WALL (      26 calls)
     newd         :      0.76s CPU      0.63s WALL (      25 calls)
                                        0.63s GPU  (      25 calls)
     PAW_pot      :    122.24s CPU     17.65s WALL (      25 calls)
     mix_rho      :      0.62s CPU      0.62s WALL (      24 calls)

     Called by c_bands:
     init_us_2    :      0.95s CPU      0.95s WALL (    2500 calls)
     cegterg      :     11.13s CPU     11.30s WALL (    1200 calls)

     Called by sum_band:
     sum_band:wei :      0.03s CPU      0.03s WALL (      24 calls)
                                        0.03s GPU  (      24 calls)
     sum_band:loo :      1.51s CPU      1.51s WALL (      24 calls)
                                        1.51s GPU  (      24 calls)
     sum_band:buf :      0.14s CPU      0.17s WALL (    1200 calls)
                                        0.15s GPU  (    1200 calls)
     sum_band:ini :      0.44s CPU      0.46s WALL (    1200 calls)
                                        0.45s GPU  (    1200 calls)
     sum_band:cal :      0.04s CPU      0.07s WALL (    1200 calls)
                                        0.05s GPU  (    1200 calls)
     sum_band:bec :      0.26s CPU      0.28s WALL (    1200 calls)
                                        0.26s GPU  (    1200 calls)
     addusdens    :      1.19s CPU      1.20s WALL (      24 calls)
                                        1.20s GPU  (      24 calls)
     addusd:skk   :      0.00s CPU      0.00s WALL (      72 calls)
                                        0.00s GPU  (      72 calls)

     Called by *egterg:
     cdiaghg      :      4.05s CPU      4.20s WALL (    4722 calls)
                                        4.14s GPU  (    4722 calls)
     cegterg:over :      0.63s CPU      0.66s WALL (    3522 calls)
     cegterg:upda :      0.68s CPU      0.69s WALL (    3522 calls)
     cegterg:last :      0.11s CPU      0.11s WALL (    2008 calls)
     h_psi        :      3.89s CPU      4.02s WALL (    4772 calls)
                                        3.96s GPU  (    4772 calls)
     s_psi        :      0.71s CPU      0.75s WALL (    4772 calls)
     g_psi        :      0.02s CPU      0.08s WALL (    3522 calls)
                                        0.04s GPU  (    3522 calls)

     Called by h_psi:
     h_psi:calbec :      0.13s CPU      0.25s WALL (    4772 calls)
                                        0.20s GPU  (    4772 calls)
     vloc_psi     :      2.64s CPU      2.68s WALL (    4772 calls)
                                        2.62s GPU  (    4772 calls)
     add_vuspsi   :      0.64s CPU      0.76s WALL (    4772 calls)
                                        0.70s GPU  (    4772 calls)

     General routines
     calbec       :      0.15s CPU      0.18s WALL (    6172 calls)
     fft          :      2.98s CPU      0.60s WALL (     638 calls)
                                        0.02s GPU  (     588 calls)
     ffts         :      1.83s CPU      0.35s WALL (     865 calls)
                                        0.02s GPU  (     815 calls)
     fftw         :      0.28s CPU      0.90s WALL (   16860 calls)
                                        0.72s GPU  (   16860 calls)
     interpolate  :      4.91s CPU      0.92s WALL (      50 calls)
 
     Parallel routines

     PAW routines
     PAW_pot      :    122.24s CPU     17.65s WALL (      25 calls)
     PAW_symme    :      0.01s CPU      0.01s WALL (      49 calls)
 
     PWSCF        :   2m26.97s CPU     38.07s WALL

 
   This run was terminated on:   5:37: 2  12Jul2026            

=------------------------------------------------------------------------------=
   JOB DONE.
=------------------------------------------------------------------------------=
Warning: ieee_divide_by_zero is signaling
Warning: ieee_inexact is signaling
FORTRAN STOP
