
     Program PWSCF v.7.3.1 starts on 12Jul2026 at  3:57: 4 

     This program is part of the open-source Quantum ESPRESSO suite
     for quantum simulation of materials; please cite
         "P. Giannozzi et al., J. Phys.:Condens. Matter 21 395502 (2009);
         "P. Giannozzi et al., J. Phys.:Condens. Matter 29 465901 (2017);
         "P. Giannozzi et al., J. Chem. Phys. 152 154105 (2020);
          URL http://www.quantum-espresso.org", 
     in publications or presentations arising from this work. More details at
     http://www.quantum-espresso.org/quote

     Parallel version (MPI & OpenMP), running on      14 processor cores
     Number of MPI processes:                 1
     Threads/MPI process:                    14

     MPI processes distributed on     1 nodes
     834459 MiB available memory on the printing compute node when the environment starts
 
     Reading input from pw.in

     Current dimensions of program PWSCF are:
     Max number of different atomic species (ntypx) = 10
     Max number of k-points (npk) =  40000
     Max angular momentum in pseudopotentials (lmaxx) =  4
     file Co.pbe-spn-kjpaw_psl.0.3.1.UPF: wavefunction(s)  3P 3D renormalized
     file O.pbe-n-kjpaw_psl.1.0.0.UPF: wavefunction(s)  2S 2P renormalized
     file Na.pbe-spn-kjpaw_psl.1.0.0.UPF: wavefunction(s)  2P renormalized
 
     Subspace diagonalization in iterative solution of the eigenvalue problem:
     a serial algorithm will be used

 
     G-vector sticks info
     --------------------
     sticks:   dense  smooth     PW     G-vecs:    dense   smooth      PW
     Sum        2941    1483    421               178951    63407    9467
 
     Using Slab Decomposition
 


     bravais-lattice index     =            4
     lattice parameter (alat)  =       9.4527  a.u.
     unit-cell volume          =    1009.0018 (a.u.)^3
     number of atoms/cell      =           10
     number of atomic types    =            3
     number of electrons       =        96.00
     number of Kohn-Sham states=           64
     kinetic-energy cutoff     =      60.0000  Ry
     charge density cutoff     =     480.0000  Ry
     scf convergence threshold =      1.0E-07
     mixing beta               =       0.3000
     number of iterations used =            8  local-TF  mixing
     Exchange-correlation= SLA  PW   PBX  PBC
                           (   1   4   3   4   0   0   0)

     GPU acceleration is ACTIVE.  1 visible GPUs per MPI rank
     GPU-aware MPI enabled


     GPU used by master process:

        Device Number: 0
        Device name: NVIDIA A100-SXM4-80GB
        Compute capability : 80
        Ratio of single to double precision performance  : 2
        Memory Clock Rate (KHz): 1593000
        Memory Bus Width (bits): 5120
        Peak Memory Bandwidth (GB/s): ******

     celldm(1)=   9.452718  celldm(2)=   0.000000  celldm(3)=   1.379403
     celldm(4)=   0.000000  celldm(5)=   0.000000  celldm(6)=   0.000000

     crystal axes: (cart. coord. in units of alat)
               a(1) = (   1.000000   0.000000   0.000000 )  
               a(2) = (  -0.500000   0.866025   0.000000 )  
               a(3) = (   0.000000   0.000000   1.379403 )  

     reciprocal axes: (cart. coord. in units 2 pi/alat)
               b(1) = (  1.000000  0.577350 -0.000000 )  
               b(2) = (  0.000000  1.154701  0.000000 )  
               b(3) = (  0.000000 -0.000000  0.724951 )  


     PseudoPot. # 1 for Co read from file:
     ../../pseudo/Co.pbe-spn-kjpaw_psl.0.3.1.UPF
     MD5 check sum: 3c0a43779828c046024e4f3be63f8e67
     Pseudo is Projector augmented-wave + core cor, Zval = 17.0
     Generated using &quot;atomic&quot; code by A. Dal Corso  v.6.2.2
     Shape of augmentation charge: PSQ
     Using radial grid of 1193 points,  6 beta functions with: 
                l(1) =   0
                l(2) =   0
                l(3) =   1
                l(4) =   1
                l(5) =   2
                l(6) =   2
     Q(r) pseudized with 0 coefficients 


     PseudoPot. # 2 for O  read from file:
     ../../pseudo/O.pbe-n-kjpaw_psl.1.0.0.UPF
     MD5 check sum: e99d9cef9b487d1ca56f5b95ecd0fd7a
     Pseudo is Projector augmented-wave + core cor, Zval =  6.0
     Generated using &quot;atomic&quot; code by A. Dal Corso  v.6.3
     Shape of augmentation charge: PSQ
     Using radial grid of 1095 points,  4 beta functions with: 
                l(1) =   0
                l(2) =   0
                l(3) =   1
                l(4) =   1
     Q(r) pseudized with 0 coefficients 


     PseudoPot. # 3 for Na read from file:
     ../../pseudo/Na.pbe-spn-kjpaw_psl.1.0.0.UPF
     MD5 check sum: 05b4deb74e3932c23ab016979dc8b5d4
     Pseudo is Projector augmented-wave + core cor, Zval =  9.0
     Generated using &quot;atomic&quot; code by A. Dal Corso  v.6.3
     Shape of augmentation charge: PSQ
     Using radial grid of 1121 points,  4 beta functions with: 
                l(1) =   0
                l(2) =   0
                l(3) =   1
                l(4) =   1
     Q(r) pseudized with 0 coefficients 


     atomic species   valence    mass     pseudopotential
     Co               17.00    58.93300     Co( 1.00)
     O                 6.00    15.99900     O ( 1.00)
     Na                9.00    22.98977     Na( 1.00)

     Starting magnetic structure 
     atomic species   magnetization
     Co              0.300
     O               0.000
     Na              0.000

      6 Sym. Ops. (no inversion) found


                                    s                        frac. trans.

      isym =  1     identity                                     

 cryst.   s( 1) = (     1          0          0      )
                  (     0          1          0      )
                  (     0          0          1      )

 cart.    s( 1) = (  1.0000000  0.0000000  0.0000000 )
                  (  0.0000000  1.0000000  0.0000000 )
                  (  0.0000000  0.0000000  1.0000000 )


      isym =  2     120 deg rotation - cryst. axis [0,0,1]       

 cryst.   s( 2) = (     0          1          0      )
                  (    -1         -1          0      )
                  (     0          0          1      )

 cart.    s( 2) = ( -0.5000000 -0.8660254  0.0000000 )
                  (  0.8660254 -0.5000000  0.0000000 )
                  (  0.0000000  0.0000000  1.0000000 )


      isym =  3     120 deg rotation - cryst. axis [0,0,-1]      

 cryst.   s( 3) = (    -1         -1          0      )
                  (     1          0          0      )
                  (     0          0          1      )

 cart.    s( 3) = ( -0.5000000  0.8660254  0.0000000 )
                  ( -0.8660254 -0.5000000  0.0000000 )
                  (  0.0000000  0.0000000  1.0000000 )


      isym =  4     inv. 180 deg rotation - cart. axis [0,1,0]   

 cryst.   s( 4) = (     1          0          0      )
                  (    -1         -1          0      )
                  (     0          0          1      )

 cart.    s( 4) = (  1.0000000  0.0000000  0.0000000 )
                  (  0.0000000 -1.0000000  0.0000000 )
                  (  0.0000000  0.0000000  1.0000000 )


      isym =  5     inv. 180 deg rotation - cryst. axis [1,-1,0] 

 cryst.   s( 5) = (     0          1          0      )
                  (     1          0          0      )
                  (     0          0          1      )

 cart.    s( 5) = ( -0.5000000  0.8660254  0.0000000 )
                  (  0.8660254  0.5000000  0.0000000 )
                  (  0.0000000  0.0000000  1.0000000 )


      isym =  6     inv. 180 deg rotation - cryst. axis [2,1,0]  

 cryst.   s( 6) = (    -1         -1          0      )
                  (     0          1          0      )
                  (     0          0          1      )

 cart.    s( 6) = ( -0.5000000 -0.8660254  0.0000000 )
                  ( -0.8660254  0.5000000  0.0000000 )
                  (  0.0000000  0.0000000  1.0000000 )


     point group C_3v (3m)  
     there are  3 classes
     the character table:

       E     2C3   3s_v 
A_1    1.00  1.00  1.00
A_2    1.00  1.00 -1.00
E      2.00 -1.00  0.00

     the symmetry operations in each class and the name of the first element:

     E        1
          identity                                               
     2C3      2    3
          120 deg rotation - cryst. axis [0,0,1]                 
     3s_v     4    6    5
          inv. 180 deg rotation - cart. axis [0,1,0]             

   Cartesian axes

     site n.     atom                  positions (alat units)
         1        Co     tau(   1) = (   0.0000000   0.0000000   0.0000000  )
         2        Co     tau(   2) = (  -0.0000000   0.5773503   0.0000000  )
         3        Co     tau(   3) = (   0.5000000   0.2886751   0.0000000  )
         4        O      tau(   4) = (   0.1666667   0.2886751   0.1919170  )
         5        O      tau(   5) = (   0.6666667   0.0000000   0.1919170  )
         6        O      tau(   6) = (  -0.3333333   0.5773503   0.1919170  )
         7        O      tau(   7) = (   0.3333333   0.0000000   1.1874864  )
         8        O      tau(   8) = (   0.3333333   0.5773503   1.1874864  )
         9        O      tau(   9) = (  -0.1666667   0.2886751   1.1874864  )
        10        Na     tau(  10) = (   0.0000000   0.0000000   0.8396368  )

   Crystallographic axes

     site n.     atom                  positions (cryst. coord.)
         1        Co     tau(   1) = (  0.0000000  0.0000000  0.0000000  )
         2        Co     tau(   2) = (  0.3333333  0.6666667  0.0000000  )
         3        Co     tau(   3) = (  0.6666667  0.3333333  0.0000000  )
         4        O      tau(   4) = (  0.3333333  0.3333333  0.1391304  )
         5        O      tau(   5) = (  0.6666667  0.0000000  0.1391304  )
         6        O      tau(   6) = (  0.0000000  0.6666667  0.1391304  )
         7        O      tau(   7) = (  0.3333333  0.0000000  0.8608696  )
         8        O      tau(   8) = (  0.6666667  0.6666667  0.8608696  )
         9        O      tau(   9) = ( -0.0000000  0.3333333  0.8608696  )
        10        Na     tau(  10) = (  0.0000000  0.0000000  0.6086957  )

     number of k points=    17  Marzari-Vanderbilt smearing, width (Ry)=  0.0200
                       cart. coord. in units 2pi/alat
        k(    1) = (   0.0000000   0.0000000   0.0000000), wk =   0.0092593
        k(    2) = (   0.0000000   0.0000000   0.2416504), wk =   0.0185185
        k(    3) = (   0.0000000   0.1924501   0.0000000), wk =   0.0555556
        k(    4) = (   0.0000000   0.1924501   0.2416504), wk =   0.1111111
        k(    5) = (   0.0000000   0.3849002   0.0000000), wk =   0.0555556
        k(    6) = (   0.0000000   0.3849002   0.2416504), wk =   0.1111111
        k(    7) = (   0.0000000  -0.5773503   0.0000000), wk =   0.0277778
        k(    8) = (   0.0000000  -0.5773503   0.2416504), wk =   0.0555556
        k(    9) = (   0.1666667   0.2886751   0.0000000), wk =   0.0555556
        k(   10) = (   0.1666667   0.2886751   0.2416504), wk =   0.0555556
        k(   11) = (   0.1666667   0.4811252   0.0000000), wk =   0.1111111
        k(   12) = (   0.1666667   0.4811252   0.2416504), wk =   0.1111111
        k(   13) = (   0.3333333   0.5773503   0.0000000), wk =   0.0185185
        k(   14) = (   0.3333333   0.5773503   0.2416504), wk =   0.0185185
        k(   15) = (  -0.1666667  -0.2886751   0.2416504), wk =   0.0555556
        k(   16) = (  -0.1666667  -0.4811252   0.2416504), wk =   0.1111111
        k(   17) = (  -0.3333333  -0.5773503   0.2416504), wk =   0.0185185

                       cryst. coord.
        k(    1) = (   0.0000000   0.0000000   0.0000000), wk =   0.0092593
        k(    2) = (   0.0000000   0.0000000   0.3333333), wk =   0.0185185
        k(    3) = (   0.0000000   0.1666667   0.0000000), wk =   0.0555556
        k(    4) = (   0.0000000   0.1666667   0.3333333), wk =   0.1111111
        k(    5) = (   0.0000000   0.3333333   0.0000000), wk =   0.0555556
        k(    6) = (   0.0000000   0.3333333   0.3333333), wk =   0.1111111
        k(    7) = (   0.0000000  -0.5000000   0.0000000), wk =   0.0277778
        k(    8) = (   0.0000000  -0.5000000   0.3333333), wk =   0.0555556
        k(    9) = (   0.1666667   0.1666667   0.0000000), wk =   0.0555556
        k(   10) = (   0.1666667   0.1666667   0.3333333), wk =   0.0555556
        k(   11) = (   0.1666667   0.3333333   0.0000000), wk =   0.1111111
        k(   12) = (   0.1666667   0.3333333   0.3333333), wk =   0.1111111
        k(   13) = (   0.3333333   0.3333333   0.0000000), wk =   0.0185185
        k(   14) = (   0.3333333   0.3333333   0.3333333), wk =   0.0185185
        k(   15) = (  -0.1666667  -0.1666667   0.3333333), wk =   0.0555556
        k(   16) = (  -0.1666667  -0.3333333   0.3333333), wk =   0.1111111
        k(   17) = (  -0.3333333  -0.3333333   0.3333333), wk =   0.0185185

     Dense  grid:   178951 G-vectors     FFT dimensions: (  72,  72,  96)

     Smooth grid:    63407 G-vectors     FFT dimensions: (  48,  48,  72)

     Dynamical RAM for                 wfc:       7.73 MB

     Dynamical RAM for     wfc (w. buffer):     270.67 MB

     Dynamical RAM for           str. fact:       8.19 MB

     Dynamical RAM for           local pot:       0.00 MB

     Dynamical RAM for          nlocal pot:      13.29 MB

     Dynamical RAM for                qrad:       5.27 MB

     Dynamical RAM for          rho,v,vnew:      39.16 MB

     Dynamical RAM for               rhoin:      13.05 MB

     Dynamical RAM for            rho*nmix:      87.38 MB

     Dynamical RAM for           G-vectors:      10.72 MB

     Dynamical RAM for          h,s,v(r/c):       0.75 MB

     Dynamical RAM for          <psi|beta>:       0.11 MB

     Dynamical RAM for                 psi:      15.47 MB

     Dynamical RAM for                hpsi:      15.47 MB

     Dynamical RAM for                spsi:      15.47 MB

     Dynamical RAM for      wfcinit/wfcrot:      15.56 MB

     Dynamical RAM for           addusdens:     527.00 MB

     Dynamical RAM for          addusforce:     554.35 MB

     Estimated static dynamical RAM per process >     394.07 MB

     Estimated max dynamical RAM per process >       1.01 GB

     Check: negative core charge=   -0.000008
     Generating pointlists ...
     new r_m :   0.1587 (alat units)  1.4998 (a.u.) for type    1
     new r_m :   0.1587 (alat units)  1.4998 (a.u.) for type    2
     new r_m :   0.1987 (alat units)  1.8786 (a.u.) for type    3

     Initial potential from superposition of free atoms

     starting charge      95.9928, renormalised to      96.0000
     Starting wfcs are   59 randomized atomic wfcs +    5 random wfcs
     Checking if some PAW data can be deallocated... 

     total cpu time spent up to now is        5.3 secs

     Self-consistent Calculation
[tb_dev] Currently allocated     9.94E-01 Mbytes, locked:    0 /   6
[tb_pin] Currently allocated     0.00E+00 Mbytes, locked:    0 /   0

     iteration #  1     ecut=    60.00 Ry     beta= 0.30
     Davidson diagonalization with overlap

---- Real-time Memory Report at c_bands before calling an iterative solver
           972 MiB given to the printing process from OS
             0 MiB allocation reported by mallinfo(arena+hblkhd)
        833031 MiB available memory on the node where the printing process lives
     GPU memory used/free/total (MiB): 1616 / 79534 / 81151
------------------
     ethr =  1.00E-02,  avg # of iterations =  9.7

     total cpu time spent up to now is        9.0 secs

     total energy              =   -1488.30402391 Ry
     estimated scf accuracy    <       6.18212225 Ry

     total magnetization       =    14.00 Bohr mag/cell
     absolute magnetization    =    14.00 Bohr mag/cell
[tb_dev] Currently allocated     7.63E-05 Mbytes, locked:    0 /   2
[tb_pin] Currently allocated     0.00E+00 Mbytes, locked:    0 /   0

     iteration #  2     ecut=    60.00 Ry     beta= 0.30
     Davidson diagonalization with overlap

---- Real-time Memory Report at c_bands before calling an iterative solver
          1028 MiB given to the printing process from OS
             0 MiB allocation reported by mallinfo(arena+hblkhd)
        832730 MiB available memory on the node where the printing process lives
     GPU memory used/free/total (MiB): 1666 / 79484 / 81151
------------------
     ethr =  6.44E-03,  avg # of iterations =  2.0

     total cpu time spent up to now is       11.6 secs

     total energy              =   -1488.64560304 Ry
     estimated scf accuracy    <       1.02070435 Ry

     total magnetization       =    10.87 Bohr mag/cell
     absolute magnetization    =    10.87 Bohr mag/cell
[tb_dev] Currently allocated     7.63E-05 Mbytes, locked:    0 /   2
[tb_pin] Currently allocated     0.00E+00 Mbytes, locked:    0 /   0

     iteration #  3     ecut=    60.00 Ry     beta= 0.30
     Davidson diagonalization with overlap

---- Real-time Memory Report at c_bands before calling an iterative solver
          1033 MiB given to the printing process from OS
             0 MiB allocation reported by mallinfo(arena+hblkhd)
        832585 MiB available memory on the node where the printing process lives
     GPU memory used/free/total (MiB): 1666 / 79484 / 81151
------------------
     ethr =  1.06E-03,  avg # of iterations =  3.7

     total cpu time spent up to now is       14.3 secs

     total energy              =   -1488.94680616 Ry
     estimated scf accuracy    <       2.31790762 Ry

     total magnetization       =     4.81 Bohr mag/cell
     absolute magnetization    =     5.35 Bohr mag/cell
[tb_dev] Currently allocated     7.63E-05 Mbytes, locked:    0 /   2
[tb_pin] Currently allocated     0.00E+00 Mbytes, locked:    0 /   0

     iteration #  4     ecut=    60.00 Ry     beta= 0.30
     Davidson diagonalization with overlap

---- Real-time Memory Report at c_bands before calling an iterative solver
          1037 MiB given to the printing process from OS
             0 MiB allocation reported by mallinfo(arena+hblkhd)
        832438 MiB available memory on the node where the printing process lives
     GPU memory used/free/total (MiB): 1666 / 79484 / 81151
------------------
     ethr =  1.06E-03,  avg # of iterations =  1.4

     total cpu time spent up to now is       16.8 secs

     total energy              =   -1488.96996315 Ry
     estimated scf accuracy    <       1.07833199 Ry

     total magnetization       =     5.34 Bohr mag/cell
     absolute magnetization    =     5.74 Bohr mag/cell
[tb_dev] Currently allocated     7.63E-05 Mbytes, locked:    0 /   2
[tb_pin] Currently allocated     0.00E+00 Mbytes, locked:    0 /   0

     iteration #  5     ecut=    60.00 Ry     beta= 0.30
     Davidson diagonalization with overlap

---- Real-time Memory Report at c_bands before calling an iterative solver
          1043 MiB given to the printing process from OS
             0 MiB allocation reported by mallinfo(arena+hblkhd)
        832350 MiB available memory on the node where the printing process lives
     GPU memory used/free/total (MiB): 1666 / 79484 / 81151
------------------
     ethr =  1.06E-03,  avg # of iterations =  1.2

     total cpu time spent up to now is       19.1 secs

     total energy              =   -1489.05399036 Ry
     estimated scf accuracy    <       0.54203943 Ry

     total magnetization       =     7.22 Bohr mag/cell
     absolute magnetization    =     7.35 Bohr mag/cell
[tb_dev] Currently allocated     7.63E-05 Mbytes, locked:    0 /   2
[tb_pin] Currently allocated     0.00E+00 Mbytes, locked:    0 /   0

     iteration #  6     ecut=    60.00 Ry     beta= 0.30
     Davidson diagonalization with overlap

---- Real-time Memory Report at c_bands before calling an iterative solver
          1049 MiB given to the printing process from OS
             0 MiB allocation reported by mallinfo(arena+hblkhd)
        832256 MiB available memory on the node where the printing process lives
     GPU memory used/free/total (MiB): 1666 / 79484 / 81151
------------------
     ethr =  5.65E-04,  avg # of iterations =  1.7

     total cpu time spent up to now is       21.6 secs

     total energy              =   -1489.32309107 Ry
     estimated scf accuracy    <       0.49925340 Ry

     total magnetization       =     2.10 Bohr mag/cell
     absolute magnetization    =     3.61 Bohr mag/cell
[tb_dev] Currently allocated     7.63E-05 Mbytes, locked:    0 /   2
[tb_pin] Currently allocated     0.00E+00 Mbytes, locked:    0 /   0

     iteration #  7     ecut=    60.00 Ry     beta= 0.30
     Davidson diagonalization with overlap

---- Real-time Memory Report at c_bands before calling an iterative solver
          1055 MiB given to the printing process from OS
             0 MiB allocation reported by mallinfo(arena+hblkhd)
        832134 MiB available memory on the node where the printing process lives
     GPU memory used/free/total (MiB): 1666 / 79484 / 81151
------------------
     ethr =  5.20E-04,  avg # of iterations =  1.7

     total cpu time spent up to now is       24.1 secs

     total energy              =   -1489.28130744 Ry
     estimated scf accuracy    <       0.62477858 Ry

     total magnetization       =     2.19 Bohr mag/cell
     absolute magnetization    =     2.43 Bohr mag/cell
[tb_dev] Currently allocated     7.63E-05 Mbytes, locked:    0 /   2
[tb_pin] Currently allocated     0.00E+00 Mbytes, locked:    0 /   0

     iteration #  8     ecut=    60.00 Ry     beta= 0.30
     Davidson diagonalization with overlap

---- Real-time Memory Report at c_bands before calling an iterative solver
          1062 MiB given to the printing process from OS
             0 MiB allocation reported by mallinfo(arena+hblkhd)
        832030 MiB available memory on the node where the printing process lives
     GPU memory used/free/total (MiB): 1666 / 79484 / 81151
------------------
     ethr =  5.20E-04,  avg # of iterations =  2.3

     total cpu time spent up to now is       26.6 secs

     total energy              =   -1489.29474331 Ry
     estimated scf accuracy    <       0.16037503 Ry

     total magnetization       =     2.03 Bohr mag/cell
     absolute magnetization    =     2.64 Bohr mag/cell
[tb_dev] Currently allocated     7.63E-05 Mbytes, locked:    0 /   2
[tb_pin] Currently allocated     0.00E+00 Mbytes, locked:    0 /   0

     iteration #  9     ecut=    60.00 Ry     beta= 0.30
     Davidson diagonalization with overlap

---- Real-time Memory Report at c_bands before calling an iterative solver
          1067 MiB given to the printing process from OS
             0 MiB allocation reported by mallinfo(arena+hblkhd)
        831922 MiB available memory on the node where the printing process lives
     GPU memory used/free/total (MiB): 1666 / 79484 / 81151
------------------
     c_bands:  1 eigenvalues not converged
     c_bands:  1 eigenvalues not converged
     ethr =  1.67E-04,  avg # of iterations =  7.8

     total cpu time spent up to now is       30.1 secs

     total energy              =   -1489.30820114 Ry
     estimated scf accuracy    <       0.00821277 Ry

     total magnetization       =     2.38 Bohr mag/cell
     absolute magnetization    =     2.47 Bohr mag/cell
[tb_dev] Currently allocated     7.63E-05 Mbytes, locked:    0 /   2
[tb_pin] Currently allocated     0.00E+00 Mbytes, locked:    0 /   0

     iteration # 10     ecut=    60.00 Ry     beta= 0.30
     Davidson diagonalization with overlap

---- Real-time Memory Report at c_bands before calling an iterative solver
          1072 MiB given to the printing process from OS
             0 MiB allocation reported by mallinfo(arena+hblkhd)
        831773 MiB available memory on the node where the printing process lives
     GPU memory used/free/total (MiB): 1666 / 79484 / 81151
------------------
     c_bands:  1 eigenvalues not converged
     c_bands:  1 eigenvalues not converged
     c_bands:  3 eigenvalues not converged
     c_bands:  1 eigenvalues not converged
     c_bands:  1 eigenvalues not converged
     c_bands:  3 eigenvalues not converged
     c_bands:  2 eigenvalues not converged
     c_bands:  2 eigenvalues not converged
     c_bands:  1 eigenvalues not converged
     c_bands:  1 eigenvalues not converged
     c_bands:  1 eigenvalues not converged
     c_bands:  1 eigenvalues not converged
     c_bands:  1 eigenvalues not converged
     c_bands:  1 eigenvalues not converged
     c_bands:  2 eigenvalues not converged
     c_bands:  1 eigenvalues not converged
     c_bands:  1 eigenvalues not converged
     c_bands:  1 eigenvalues not converged
     c_bands:  1 eigenvalues not converged
     ethr =  8.55E-06,  avg # of iterations = 17.3

     total cpu time spent up to now is       35.3 secs

     total energy              =   -1489.31831971 Ry
     estimated scf accuracy    <       0.02792774 Ry

     total magnetization       =     2.41 Bohr mag/cell
     absolute magnetization    =     2.42 Bohr mag/cell
[tb_dev] Currently allocated     7.63E-05 Mbytes, locked:    0 /   2
[tb_pin] Currently allocated     0.00E+00 Mbytes, locked:    0 /   0

     iteration # 11     ecut=    60.00 Ry     beta= 0.30
     Davidson diagonalization with overlap

---- Real-time Memory Report at c_bands before calling an iterative solver
          1072 MiB given to the printing process from OS
             0 MiB allocation reported by mallinfo(arena+hblkhd)
        831558 MiB available memory on the node where the printing process lives
     GPU memory used/free/total (MiB): 1666 / 79484 / 81151
------------------
     c_bands:  1 eigenvalues not converged
     c_bands:  1 eigenvalues not converged
     c_bands:  1 eigenvalues not converged
     ethr =  8.55E-06,  avg # of iterations =  4.4

     total cpu time spent up to now is       38.2 secs

     total energy              =   -1489.31748468 Ry
     estimated scf accuracy    <       0.01573906 Ry

     total magnetization       =     2.42 Bohr mag/cell
     absolute magnetization    =     2.43 Bohr mag/cell
[tb_dev] Currently allocated     7.63E-05 Mbytes, locked:    0 /   2
[tb_pin] Currently allocated     0.00E+00 Mbytes, locked:    0 /   0

     iteration # 12     ecut=    60.00 Ry     beta= 0.30
     Davidson diagonalization with overlap

---- Real-time Memory Report at c_bands before calling an iterative solver
          1072 MiB given to the printing process from OS
             0 MiB allocation reported by mallinfo(arena+hblkhd)
        831407 MiB available memory on the node where the printing process lives
     GPU memory used/free/total (MiB): 1666 / 79484 / 81151
------------------
     ethr =  8.55E-06,  avg # of iterations =  1.8

     total cpu time spent up to now is       40.7 secs

     total energy              =   -1489.31872063 Ry
     estimated scf accuracy    <       0.00169064 Ry

     total magnetization       =     2.36 Bohr mag/cell
     absolute magnetization    =     2.38 Bohr mag/cell
[tb_dev] Currently allocated     7.63E-05 Mbytes, locked:    0 /   2
[tb_pin] Currently allocated     0.00E+00 Mbytes, locked:    0 /   0

     iteration # 13     ecut=    60.00 Ry     beta= 0.30
     Davidson diagonalization with overlap

---- Real-time Memory Report at c_bands before calling an iterative solver
          1072 MiB given to the printing process from OS
             0 MiB allocation reported by mallinfo(arena+hblkhd)
        831306 MiB available memory on the node where the printing process lives
     GPU memory used/free/total (MiB): 1666 / 79484 / 81151
------------------
     c_bands:  1 eigenvalues not converged
     c_bands:  1 eigenvalues not converged
     c_bands:  1 eigenvalues not converged
     ethr =  1.76E-06,  avg # of iterations =  7.0

     total cpu time spent up to now is       44.1 secs

     total energy              =   -1489.31899728 Ry
     estimated scf accuracy    <       0.00070677 Ry

     total magnetization       =     2.34 Bohr mag/cell
     absolute magnetization    =     2.37 Bohr mag/cell
[tb_dev] Currently allocated     7.63E-05 Mbytes, locked:    0 /   2
[tb_pin] Currently allocated     0.00E+00 Mbytes, locked:    0 /   0

     iteration # 14     ecut=    60.00 Ry     beta= 0.30
     Davidson diagonalization with overlap

---- Real-time Memory Report at c_bands before calling an iterative solver
          1074 MiB given to the printing process from OS
             0 MiB allocation reported by mallinfo(arena+hblkhd)
        831210 MiB available memory on the node where the printing process lives
     GPU memory used/free/total (MiB): 1666 / 79484 / 81151
------------------
     c_bands:  1 eigenvalues not converged
     ethr =  7.36E-07,  avg # of iterations =  4.6

     total cpu time spent up to now is       47.1 secs

     total energy              =   -1489.31908012 Ry
     estimated scf accuracy    <       0.00072397 Ry

     total magnetization       =     2.33 Bohr mag/cell
     absolute magnetization    =     2.36 Bohr mag/cell
[tb_dev] Currently allocated     7.63E-05 Mbytes, locked:    0 /   2
[tb_pin] Currently allocated     0.00E+00 Mbytes, locked:    0 /   0

     iteration # 15     ecut=    60.00 Ry     beta= 0.30
     Davidson diagonalization with overlap

---- Real-time Memory Report at c_bands before calling an iterative solver
          1076 MiB given to the printing process from OS
             0 MiB allocation reported by mallinfo(arena+hblkhd)
        831080 MiB available memory on the node where the printing process lives
     GPU memory used/free/total (MiB): 1666 / 79484 / 81151
------------------
     ethr =  7.36E-07,  avg # of iterations =  2.4

     total cpu time spent up to now is       49.7 secs

     total energy              =   -1489.31917537 Ry
     estimated scf accuracy    <       0.00002755 Ry

     total magnetization       =     2.30 Bohr mag/cell
     absolute magnetization    =     2.34 Bohr mag/cell
[tb_dev] Currently allocated     7.63E-05 Mbytes, locked:    0 /   2
[tb_pin] Currently allocated     0.00E+00 Mbytes, locked:    0 /   0

     iteration # 16     ecut=    60.00 Ry     beta= 0.30
     Davidson diagonalization with overlap

---- Real-time Memory Report at c_bands before calling an iterative solver
          1076 MiB given to the printing process from OS
             0 MiB allocation reported by mallinfo(arena+hblkhd)
        830925 MiB available memory on the node where the printing process lives
     GPU memory used/free/total (MiB): 1666 / 79484 / 81151
------------------
     c_bands:  1 eigenvalues not converged
     ethr =  2.87E-08,  avg # of iterations = 12.9

     total cpu time spent up to now is       54.2 secs

     total energy              =   -1489.31923822 Ry
     estimated scf accuracy    <       0.00002580 Ry

     total magnetization       =     2.30 Bohr mag/cell
     absolute magnetization    =     2.34 Bohr mag/cell
[tb_dev] Currently allocated     7.63E-05 Mbytes, locked:    0 /   2
[tb_pin] Currently allocated     0.00E+00 Mbytes, locked:    0 /   0

     iteration # 17     ecut=    60.00 Ry     beta= 0.30
     Davidson diagonalization with overlap

---- Real-time Memory Report at c_bands before calling an iterative solver
          1077 MiB given to the printing process from OS
             0 MiB allocation reported by mallinfo(arena+hblkhd)
        830632 MiB available memory on the node where the printing process lives
     GPU memory used/free/total (MiB): 1666 / 79484 / 81151
------------------
     ethr =  2.69E-08,  avg # of iterations =  1.5

     total cpu time spent up to now is       57.0 secs

     total energy              =   -1489.31924249 Ry
     estimated scf accuracy    <       0.00000962 Ry

     total magnetization       =     2.30 Bohr mag/cell
     absolute magnetization    =     2.34 Bohr mag/cell
[tb_dev] Currently allocated     7.63E-05 Mbytes, locked:    0 /   2
[tb_pin] Currently allocated     0.00E+00 Mbytes, locked:    0 /   0

     iteration # 18     ecut=    60.00 Ry     beta= 0.30
     Davidson diagonalization with overlap

---- Real-time Memory Report at c_bands before calling an iterative solver
          1077 MiB given to the printing process from OS
             0 MiB allocation reported by mallinfo(arena+hblkhd)
        831729 MiB available memory on the node where the printing process lives
     GPU memory used/free/total (MiB): 1666 / 79484 / 81151
------------------
     ethr =  1.00E-08,  avg # of iterations =  2.1

     total cpu time spent up to now is       59.7 secs

     total energy              =   -1489.31924411 Ry
     estimated scf accuracy    <       0.00000113 Ry

     total magnetization       =     2.30 Bohr mag/cell
     absolute magnetization    =     2.34 Bohr mag/cell
[tb_dev] Currently allocated     7.63E-05 Mbytes, locked:    0 /   2
[tb_pin] Currently allocated     0.00E+00 Mbytes, locked:    0 /   0

     iteration # 19     ecut=    60.00 Ry     beta= 0.30
     Davidson diagonalization with overlap

---- Real-time Memory Report at c_bands before calling an iterative solver
          1077 MiB given to the printing process from OS
             0 MiB allocation reported by mallinfo(arena+hblkhd)
        830783 MiB available memory on the node where the printing process lives
     GPU memory used/free/total (MiB): 1666 / 79484 / 81151
------------------
     ethr =  1.17E-09,  avg # of iterations =  8.9

     total cpu time spent up to now is       63.5 secs

     total energy              =   -1489.31924503 Ry
     estimated scf accuracy    <       0.00000039 Ry

     total magnetization       =     2.30 Bohr mag/cell
     absolute magnetization    =     2.34 Bohr mag/cell
[tb_dev] Currently allocated     7.63E-05 Mbytes, locked:    0 /   2
[tb_pin] Currently allocated     0.00E+00 Mbytes, locked:    0 /   0

     iteration # 20     ecut=    60.00 Ry     beta= 0.30
     Davidson diagonalization with overlap

---- Real-time Memory Report at c_bands before calling an iterative solver
          1078 MiB given to the printing process from OS
             0 MiB allocation reported by mallinfo(arena+hblkhd)
        829868 MiB available memory on the node where the printing process lives
     GPU memory used/free/total (MiB): 1666 / 79484 / 81151
------------------
     ethr =  4.04E-10,  avg # of iterations =  2.6

     total cpu time spent up to now is       66.2 secs

     total energy              =   -1489.31924507 Ry
     estimated scf accuracy    <       0.00000020 Ry

     total magnetization       =     2.30 Bohr mag/cell
     absolute magnetization    =     2.34 Bohr mag/cell
[tb_dev] Currently allocated     7.63E-05 Mbytes, locked:    0 /   2
[tb_pin] Currently allocated     0.00E+00 Mbytes, locked:    0 /   0

     iteration # 21     ecut=    60.00 Ry     beta= 0.30
     Davidson diagonalization with overlap

---- Real-time Memory Report at c_bands before calling an iterative solver
          1078 MiB given to the printing process from OS
             0 MiB allocation reported by mallinfo(arena+hblkhd)
        833311 MiB available memory on the node where the printing process lives
     GPU memory used/free/total (MiB): 1666 / 79484 / 81151
------------------
     ethr =  2.08E-10,  avg # of iterations =  5.2
 
     Magnetic moment per site  (integrated on atomic sphere of radius R)
     atom   1 (R=0.159)  charge= 14.1116  magn=  0.5686
     atom   2 (R=0.159)  charge= 14.0946  magn=  0.6002
     atom   3 (R=0.159)  charge= 14.0946  magn=  0.6002
     atom   4 (R=0.159)  charge=  5.2120  magn=  0.0648
     atom   5 (R=0.159)  charge=  5.2120  magn=  0.0648
     atom   6 (R=0.159)  charge=  5.2120  magn=  0.0648
     atom   7 (R=0.159)  charge=  5.2473  magn=  0.0537
     atom   8 (R=0.159)  charge=  5.2473  magn=  0.0537
     atom   9 (R=0.159)  charge=  5.2473  magn=  0.0537
     atom  10 (R=0.199)  charge=  7.9510  magn=  0.0007

     total cpu time spent up to now is       69.2 secs

     End of self-consistent calculation

 ------ SPIN UP ------------


          k = 0.0000 0.0000 0.0000 (  7923 PWs)   bands (ev):

   -91.4908 -91.4870 -91.4189 -54.7272 -54.7272 -54.7253 -54.7192 -54.7095
   -54.7095 -54.6604 -54.6604 -54.6241 -47.0704 -18.9976 -18.9831 -18.9831
   -14.9723 -13.3837 -13.3837 -13.2095 -13.2095 -13.0644  -1.2725  -1.1443
    -1.1443  -0.9671  -0.9671  -0.7766  -0.7766  -0.7080  -0.6029   0.8643
     0.8643   1.0520   1.0520   1.2873   1.3832   2.3596   2.6956   2.7285
     2.7362   2.7362   2.9071   2.9071   3.7717   3.7717   3.8175   3.8175
     3.9352   5.8569   5.8569   5.9255   5.9255   6.6382   6.6382   7.7905
    12.6185  13.1425  14.5334  14.5334  15.1070  15.3165  15.3165  15.5905

     occupation numbers 
     1.0000   1.0000   1.0000   1.0000   1.0000   1.0000   1.0000   1.0000
     1.0000   1.0000   1.0000   1.0000   1.0000   1.0000   1.0000   1.0000
     1.0000   1.0000   1.0000   1.0000   1.0000   1.0000   1.0000   1.0000
     1.0000   1.0000   1.0000   1.0000   1.0000   1.0000   1.0000   1.0000
     1.0000   1.0000   1.0000   1.0000   1.0000   1.0000   1.0000   1.0000
     1.0000   1.0000   1.0000   1.0000   1.0168   1.0168   1.0269   1.0269
     1.0645   0.0000   0.0000   0.0000   0.0000   0.0000   0.0000   0.0000
     0.0000   0.0000   0.0000   0.0000   0.0000   0.0000   0.0000   0.0000

          k = 0.0000 0.0000 0.2417 (  7928 PWs)   bands (ev):

   -91.4908 -91.4870 -91.4189 -54.7270 -54.7270 -54.7255 -54.7193 -54.7095
   -54.7095 -54.6605 -54.6605 -54.6242 -47.0704 -18.9980 -18.9830 -18.9830
   -14.9706 -13.3836 -13.3836 -13.2095 -13.2095 -13.0669  -1.2370  -1.1453
    -1.1453  -0.9688  -0.9688  -0.7766  -0.7766  -0.7039  -0.6010   0.8661
     0.8661   1.0537   1.0537   1.2781   1.3797   2.2298   2.6959   2.7294
     2.7362   2.7362   2.9068   2.9068   3.7701   3.7701   3.8158   3.8158
     3.9758   5.8645   5.8645   5.9339   5.9339   6.6382   6.6382   8.1566
    11.3523  14.0992  14.4755  14.4755  14.9907  15.2707  15.2707  15.4829

     occupation numbers 
     1.0000   1.0000   1.0000   1.0000   1.0000   1.0000   1.0000   1.0000
     1.0000   1.0000   1.0000   1.0000   1.0000   1.0000   1.0000   1.0000
     1.0000   1.0000   1.0000   1.0000   1.0000   1.0000   1.0000   1.0000
     1.0000   1.0000   1.0000   1.0000   1.0000   1.0000   1.0000   1.0000
     1.0000   1.0000   1.0000   1.0000   1.0000   1.0000   1.0000   1.0000
     1.0000   1.0000   1.0000   1.0000   1.0165   1.0165   1.0265   1.0265
     1.0765   0.0000   0.0000   0.0000   0.0000   0.0000   0.0000   0.0000
     0.0000   0.0000   0.0000   0.0000   0.0000   0.0000   0.0000   0.0000

          k = 0.0000 0.1925 0.0000 (  7914 PWs)   bands (ev):

   -91.4905 -91.4872 -91.4190 -54.7299 -54.7278 -54.7250 -54.7195 -54.7065
   -54.7064 -54.6628 -54.6608 -54.6242 -47.0704 -18.9974 -18.9833 -18.9831
   -14.8698 -13.4772 -13.4177 -13.2284 -13.1957 -13.0671  -1.5023  -1.2680
    -1.1367  -1.0462  -0.9271  -0.8774  -0.7104  -0.2848  -0.0907   0.6262
     0.6686   0.8479   0.9279   1.6388   1.7134   2.0608   2.1686   2.5971
     2.7887   2.8630   3.1329   3.3360   3.5379   3.5519   3.8873   3.9556
     3.9874   5.8614   5.9207   5.9411   5.9994   6.3652   6.5628   8.0604
    12.7563  13.1169  13.4818  13.9276  14.3761  15.8202  16.1769  16.6448

     occupation numbers 
     1.0000   1.0000   1.0000   1.0000   1.0000   1.0000   1.0000   1.0000
     1.0000   1.0000   1.0000   1.0000   1.0000   1.0000   1.0000   1.0000
     1.0000   1.0000   1.0000   1.0000   1.0000   1.0000   1.0000   1.0000
     1.0000   1.0000   1.0000   1.0000   1.0000   1.0000   1.0000   1.0000
     1.0000   1.0000   1.0000   1.0000   1.0000   1.0000   1.0000   1.0000
     1.0000   1.0000   1.0000   1.0000   1.0006   1.0007   1.0481   1.0709
     1.0791   0.0000   0.0000   0.0000   0.0000   0.0000   0.0000   0.0000
     0.0000   0.0000   0.0000   0.0000   0.0000   0.0000   0.0000   0.0000

          k = 0.0000 0.1925 0.2417 (  7936 PWs)   bands (ev):

   -91.4906 -91.4872 -91.4190 -54.7299 -54.7278 -54.7250 -54.7196 -54.7065
   -54.7063 -54.6628 -54.6608 -54.6242 -47.0704 -18.9977 -18.9834 -18.9831
   -14.8683 -13.4771 -13.4177 -13.2284 -13.1958 -13.0693  -1.5022  -1.2660
    -1.1079  -1.0487  -0.9290  -0.8805  -0.7103  -0.2829  -0.0894   0.6244
     0.6676   0.8516   0.9295   1.6403   1.7124   2.0615   2.1567   2.4984
     2.7886   2.8633   3.1327   3.3329   3.5386   3.5526   3.8836   3.9510
     4.0307   5.8715   5.9249   5.9459   6.0058   6.3476   6.5657   8.3872
    11.7026  12.9045  13.8613  14.2277  14.4984  15.8556  16.1823  16.6967

     occupation numbers 
     1.0000   1.0000   1.0000   1.0000   1.0000   1.0000   1.0000   1.0000
     1.0000   1.0000   1.0000   1.0000   1.0000   1.0000   1.0000   1.0000
     1.0000   1.0000   1.0000   1.0000   1.0000   1.0000   1.0000   1.0000
     1.0000   1.0000   1.0000   1.0000   1.0000   1.0000   1.0000   1.0000
     1.0000   1.0000   1.0000   1.0000   1.0000   1.0000   1.0000   1.0000
     1.0000   1.0000   1.0000   1.0000   1.0006   1.0007   1.0468   1.0695
     1.0832   0.0000   0.0000   0.0000   0.0000   0.0000   0.0000   0.0000
     0.0000   0.0000   0.0000   0.0000   0.0000   0.0000   0.0000   0.0000

          k = 0.0000 0.3849 0.0000 (  7930 PWs)   bands (ev):

   -91.4899 -91.4878 -91.4190 -54.7340 -54.7251 -54.7241 -54.7205 -54.7059
   -54.7016 -54.6661 -54.6616 -54.6243 -47.0704 -18.9971 -18.9839 -18.9833
   -14.5849 -13.7743 -13.4624 -13.2736 -13.1487 -13.0785  -1.9095  -1.1690
    -1.0688  -1.0140  -0.8039  -0.6754  -0.5507  -0.0712   0.1647   0.4612
     0.5656   0.6772   1.0525   1.0829   1.5445   1.9180   2.2833   2.8857
     2.8917   3.2075   3.2786   3.2851   3.3187   3.6998   3.7416   3.9743
     4.0105   5.8608   5.8934   5.9126   5.9505   6.3128   6.3363   8.7741
    11.2708  13.3070  13.4445  13.8926  14.3766  15.2490  16.0692  16.4716

     occupation numbers 
     1.0000   1.0000   1.0000   1.0000   1.0000   1.0000   1.0000   1.0000
     1.0000   1.0000   1.0000   1.0000   1.0000   1.0000   1.0000   1.0000
     1.0000   1.0000   1.0000   1.0000   1.0000   1.0000   1.0000   1.0000
     1.0000   1.0000   1.0000   1.0000   1.0000   1.0000   1.0000   1.0000
     1.0000   1.0000   1.0000   1.0000   1.0000   1.0000   1.0000   1.0000
     1.0000   1.0000   1.0000   1.0000   1.0000   1.0070   1.0119   1.0761
     1.0826   0.0000   0.0000   0.0000   0.0000   0.0000   0.0000   0.0000
     0.0000   0.0000   0.0000   0.0000   0.0000   0.0000   0.0000   0.0000

          k = 0.0000 0.3849 0.2417 (  7917 PWs)   bands (ev):

   -91.4899 -91.4878 -91.4190 -54.7340 -54.7252 -54.7240 -54.7205 -54.7059
   -54.7015 -54.6660 -54.6615 -54.6243 -47.0704 -18.9972 -18.9838 -18.9833
   -14.5837 -13.7740 -13.4625 -13.2736 -13.1490 -13.0801  -1.9100  -1.1755
    -1.0762  -1.0165  -0.7797  -0.6785  -0.5505  -0.0705   0.1623   0.4755
     0.5683   0.6771   1.0542   1.0876   1.5441   1.9279   2.2826   2.8301
     2.8856   3.2068   3.2806   3.2860   3.3207   3.6888   3.7382   4.0002
     4.0080   5.8266   5.8850   5.9106   5.9604   6.3156   6.3514   8.9872
    11.2399  12.6274  13.2944  13.6218  15.1648  15.3793  16.1365  16.8382

     occupation numbers 
     1.0000   1.0000   1.0000   1.0000   1.0000   1.0000   1.0000   1.0000
     1.0000   1.0000   1.0000   1.0000   1.0000   1.0000   1.0000   1.0000
     1.0000   1.0000   1.0000   1.0000   1.0000   1.0000   1.0000   1.0000
     1.0000   1.0000   1.0000   1.0000   1.0000   1.0000   1.0000   1.0000
     1.0000   1.0000   1.0000   1.0000   1.0000   1.0000   1.0000   1.0000
     1.0000   1.0000   1.0000   1.0000   1.0000   1.0061   1.0114   1.0813
     1.0823   0.0000   0.0000   0.0000   0.0000   0.0000   0.0000   0.0000
     0.0000   0.0000   0.0000   0.0000   0.0000   0.0000   0.0000   0.0000

          k = 0.0000-0.5774 0.0000 (  7928 PWs)   bands (ev):

   -91.4894 -91.4882 -91.4190 -54.7358 -54.7233 -54.7212 -54.7205 -54.7099
   -54.6995 -54.6667 -54.6621 -54.6243 -47.0704 -18.9968 -18.9842 -18.9835
   -14.1903 -14.1783 -13.4813 -13.2957 -13.1052 -13.1051  -2.0596  -1.1917
    -1.1169  -0.6610  -0.6554  -0.4083  -0.3278  -0.2812  -0.1407   0.3496
     0.4524   0.5989   0.9832   0.9911   1.4370   2.0107   2.7733   2.8101
     2.8907   3.1598   3.2300   3.2389   3.5966   3.7224   3.7369   3.9183
     3.9316   5.7184   5.7766   5.9213   6.0580   6.0917   6.5134   9.6271
    10.0952  13.1070  13.4629  14.3294  14.4221  15.4467  15.6499  15.7695

     occupation numbers 
     1.0000   1.0000   1.0000   1.0000   1.0000   1.0000   1.0000   1.0000
     1.0000   1.0000   1.0000   1.0000   1.0000   1.0000   1.0000   1.0000
     1.0000   1.0000   1.0000   1.0000   1.0000   1.0000   1.0000   1.0000
     1.0000   1.0000   1.0000   1.0000   1.0000   1.0000   1.0000   1.0000
     1.0000   1.0000   1.0000   1.0000   1.0000   1.0000   1.0000   1.0000
     1.0000   1.0000   1.0000   1.0000   1.0015   1.0094   1.0112   1.0588
     1.0633   0.0000   0.0000   0.0000   0.0000   0.0000   0.0000   0.0000
     0.0000   0.0000   0.0000   0.0000   0.0000   0.0000   0.0000   0.0000

          k = 0.0000-0.5774 0.2417 (  7914 PWs)   bands (ev):

   -91.4894 -91.4882 -91.4190 -54.7357 -54.7232 -54.7212 -54.7206 -54.7100
   -54.6994 -54.6667 -54.6619 -54.6243 -47.0704 -18.9969 -18.9843 -18.9833
   -14.1889 -14.1782 -13.4813 -13.2956 -13.1067 -13.1054  -2.0601  -1.2047
    -1.1250  -0.6589  -0.6537  -0.4140  -0.3224  -0.2713  -0.1405   0.3677
     0.4648   0.6022   0.9824   0.9908   1.4373   2.0246   2.7618   2.7946
     2.8894   3.1599   3.2306   3.2399   3.5944   3.7342   3.7509   3.8992
     3.9180   5.6736   5.7432   5.9233   6.0778   6.1156   6.5131   9.7098
    10.1756  13.0591  13.2951  13.8944  13.9352  15.7306  16.2593  16.5019

     occupation numbers 
     1.0000   1.0000   1.0000   1.0000   1.0000   1.0000   1.0000   1.0000
     1.0000   1.0000   1.0000   1.0000   1.0000   1.0000   1.0000   1.0000
     1.0000   1.0000   1.0000   1.0000   1.0000   1.0000   1.0000   1.0000
     1.0000   1.0000   1.0000   1.0000   1.0000   1.0000   1.0000   1.0000
     1.0000   1.0000   1.0000   1.0000   1.0000   1.0000   1.0000   1.0000
     1.0000   1.0000   1.0000   1.0000   1.0015   1.0109   1.0133   1.0521
     1.0586   0.0000   0.0000   0.0000   0.0000   0.0000   0.0000   0.0000
     0.0000   0.0000   0.0000   0.0000   0.0000   0.0000   0.0000   0.0000

          k = 0.1667 0.2887 0.0000 (  7899 PWs)   bands (ev):

   -91.4901 -91.4876 -91.4190 -54.7314 -54.7280 -54.7243 -54.7201 -54.7056
   -54.7024 -54.6653 -54.6613 -54.6242 -47.0703 -18.9970 -18.9837 -18.9832
   -14.6762 -13.5835 -13.5787 -13.1973 -13.1959 -13.0744  -1.5750  -1.5743
    -1.0661  -0.8894  -0.8789  -0.8274  -0.5845   0.0327   0.0833   0.5756
     0.6067   0.7576   0.8080   1.2263   1.8708   1.9807   1.9833   2.7641
     3.0018   3.0358   3.2502   3.3571   3.3591   3.5702   3.9016   3.9046
     4.0013   5.8452   5.8911   5.9287   6.1037   6.1312   6.4886   8.5427
    12.0471  12.3991  13.3685  14.0924  15.2801  15.3929  16.1033  16.1173

     occupation numbers 
     1.0000   1.0000   1.0000   1.0000   1.0000   1.0000   1.0000   1.0000
     1.0000   1.0000   1.0000   1.0000   1.0000   1.0000   1.0000   1.0000
     1.0000   1.0000   1.0000   1.0000   1.0000   1.0000   1.0000   1.0000
     1.0000   1.0000   1.0000   1.0000   1.0000   1.0000   1.0000   1.0000
     1.0000   1.0000   1.0000   1.0000   1.0000   1.0000   1.0000   1.0000
     1.0000   1.0000   1.0000   1.0000   1.0000   1.0010   1.0530   1.0540
     1.0815   0.0000   0.0000   0.0000   0.0000   0.0000   0.0000   0.0000
     0.0000   0.0000   0.0000   0.0000   0.0000   0.0000   0.0000   0.0000

          k = 0.1667 0.2887 0.2417 (  7926 PWs)   bands (ev):

   -91.4901 -91.4876 -91.4190 -54.7315 -54.7281 -54.7243 -54.7203 -54.7056
   -54.7025 -54.6653 -54.6613 -54.6243 -47.0704 -18.9973 -18.9837 -18.9833
   -14.6748 -13.5833 -13.5786 -13.1975 -13.1961 -13.0762  -1.5753  -1.5751
    -1.0743  -0.8827  -0.8627  -0.8307  -0.5845   0.0303   0.0818   0.5846
     0.6128   0.7569   0.8086   1.2311   1.8708   1.9853   1.9887   2.6987
     3.0016   3.0356   3.2298   3.3580   3.3602   3.5703   3.8972   3.9009
     4.0436   5.8348   5.8846   5.8897   6.1109   6.1374   6.4885   8.8312
    11.9741  12.3785  12.3930  15.0532  15.2360  15.3921  15.8163  15.8831

     occupation numbers 
     1.0000   1.0000   1.0000   1.0000   1.0000   1.0000   1.0000   1.0000
     1.0000   1.0000   1.0000   1.0000   1.0000   1.0000   1.0000   1.0000
     1.0000   1.0000   1.0000   1.0000   1.0000   1.0000   1.0000   1.0000
     1.0000   1.0000   1.0000   1.0000   1.0000   1.0000   1.0000   1.0000
     1.0000   1.0000   1.0000   1.0000   1.0000   1.0000   1.0000   1.0000
     1.0000   1.0000   1.0000   1.0000   1.0000   1.0010   1.0515   1.0527
     1.0823   0.0000   0.0000   0.0000   0.0000   0.0000   0.0000   0.0000
     0.0000   0.0000   0.0000   0.0000   0.0000   0.0000   0.0000   0.0000

          k = 0.1667 0.4811 0.0000 (  7898 PWs)   bands (ev):

   -91.4894 -91.4882 -91.4190 -54.7328 -54.7235 -54.7232 -54.7210 -54.7106
   -54.6994 -54.6658 -54.6621 -54.6243 -47.0703 -18.9967 -18.9840 -18.9834
   -14.3338 -13.9300 -13.6511 -13.2099 -13.1369 -13.0953  -1.8386  -1.3559
    -1.1934  -0.7549  -0.6017  -0.5869  -0.3983  -0.1365  -0.0867   0.3201
     0.4234   0.5646   1.0183   1.2715   1.4276   2.0961   2.4689   2.8095
     3.0540   3.2472   3.2683   3.2976   3.4631   3.6833   3.7049   3.8841
     3.8920   5.6060   5.7111   5.8411   6.2236   6.3586   6.4328   9.3848
    10.6805  11.8426  13.9526  14.7152  15.0684  15.1170  15.5094  16.1502

     occupation numbers 
     1.0000   1.0000   1.0000   1.0000   1.0000   1.0000   1.0000   1.0000
     1.0000   1.0000   1.0000   1.0000   1.0000   1.0000   1.0000   1.0000
     1.0000   1.0000   1.0000   1.0000   1.0000   1.0000   1.0000   1.0000
     1.0000   1.0000   1.0000   1.0000   1.0000   1.0000   1.0000   1.0000
     1.0000   1.0000   1.0000   1.0000   1.0000   1.0000   1.0000   1.0000
     1.0000   1.0000   1.0000   1.0000   1.0001   1.0056   1.0075   1.0470
     1.0497   0.0000   0.0000   0.0000   0.0000   0.0000   0.0000   0.0000
     0.0000   0.0000   0.0000   0.0000   0.0000   0.0000   0.0000   0.0000

          k = 0.1667 0.4811 0.2417 (  7912 PWs)   bands (ev):

   -91.4894 -91.4882 -91.4190 -54.7329 -54.7236 -54.7232 -54.7211 -54.7106
   -54.6994 -54.6658 -54.6621 -54.6243 -47.0703 -18.9969 -18.9840 -18.9835
   -14.3328 -13.9295 -13.6508 -13.2102 -13.1375 -13.0965  -1.8396  -1.3620
    -1.2047  -0.7584  -0.5978  -0.5825  -0.3959  -0.1355  -0.0876   0.3375
     0.4336   0.5722   1.0186   1.2717   1.4277   2.1077   2.4709   2.7934
     3.0530   3.2468   3.2683   3.2848   3.4660   3.6824   3.6990   3.8807
     3.9164   5.5476   5.6781   5.8254   6.2319   6.3639   6.4338   9.5722
    10.7534  11.8849  13.2784  14.4023  14.8722  15.2303  15.9744  16.6833

     occupation numbers 
     1.0000   1.0000   1.0000   1.0000   1.0000   1.0000   1.0000   1.0000
     1.0000   1.0000   1.0000   1.0000   1.0000   1.0000   1.0000   1.0000
     1.0000   1.0000   1.0000   1.0000   1.0000   1.0000   1.0000   1.0000
     1.0000   1.0000   1.0000   1.0000   1.0000   1.0000   1.0000   1.0000
     1.0000   1.0000   1.0000   1.0000   1.0000   1.0000   1.0000   1.0000
     1.0000   1.0000   1.0000   1.0000   1.0001   1.0056   1.0069   1.0459
     1.0581   0.0000   0.0000   0.0000   0.0000   0.0000   0.0000   0.0000
     0.0000   0.0000   0.0000   0.0000   0.0000   0.0000   0.0000   0.0000

          k = 0.3333 0.5774 0.0000 (  7920 PWs)   bands (ev):

   -91.4888 -91.4888 -91.4190 -54.7300 -54.7224 -54.7224 -54.7190 -54.7190
   -54.6986 -54.6637 -54.6637 -54.6243 -47.0704 -18.9967 -18.9839 -18.9839
   -13.9992 -13.9841 -13.9841 -13.1363 -13.1363 -13.1352  -1.4794  -1.4524
    -1.4524  -0.6378  -0.5855  -0.5855  -0.2428  -0.2428  -0.2197   0.2096
     0.3183   0.3183   1.3659   1.3659   1.3911   2.4552   2.4552   2.5120
     3.2454   3.2454   3.2555   3.5045   3.5045   3.5053   3.7386   3.7386
     3.7469   5.5954   5.6495   5.6495   6.4344   6.4416   6.4416  10.0340
    10.6523  10.6523  14.3269  14.6711  14.6711  15.7515  15.9056  15.9056

     occupation numbers 
     1.0000   1.0000   1.0000   1.0000   1.0000   1.0000   1.0000   1.0000
     1.0000   1.0000   1.0000   1.0000   1.0000   1.0000   1.0000   1.0000
     1.0000   1.0000   1.0000   1.0000   1.0000   1.0000   1.0000   1.0000
     1.0000   1.0000   1.0000   1.0000   1.0000   1.0000   1.0000   1.0000
     1.0000   1.0000   1.0000   1.0000   1.0000   1.0000   1.0000   1.0000
     1.0000   1.0000   1.0000   1.0003   1.0003   1.0003   1.0115   1.0115
     1.0127   0.0000   0.0000   0.0000   0.0000   0.0000   0.0000   0.0000
     0.0000   0.0000   0.0000   0.0000   0.0000   0.0000   0.0000   0.0000

          k = 0.3333 0.5774 0.2417 (  7899 PWs)   bands (ev):

   -91.4888 -91.4888 -91.4190 -54.7300 -54.7224 -54.7224 -54.7190 -54.7190
   -54.6985 -54.6636 -54.6636 -54.6243 -47.0703 -18.9967 -18.9838 -18.9838
   -13.9977 -13.9840 -13.9840 -13.1368 -13.1366 -13.1366  -1.4869  -1.4570
    -1.4570  -0.6429  -0.5878  -0.5878  -0.2427  -0.2427  -0.2198   0.2343
     0.3326   0.3326   1.3658   1.3658   1.3913   2.4586   2.4586   2.5158
     3.2411   3.2411   3.2494   3.5045   3.5045   3.5055   3.7463   3.7463
     3.7567   5.5400   5.6109   5.6109   6.4340   6.4414   6.4414  10.1631
    10.7738  10.7738  13.9300  14.2212  14.2212  16.3138  16.3711  16.3712

     occupation numbers 
     1.0000   1.0000   1.0000   1.0000   1.0000   1.0000   1.0000   1.0000
     1.0000   1.0000   1.0000   1.0000   1.0000   1.0000   1.0000   1.0000
     1.0000   1.0000   1.0000   1.0000   1.0000   1.0000   1.0000   1.0000
     1.0000   1.0000   1.0000   1.0000   1.0000   1.0000   1.0000   1.0000
     1.0000   1.0000   1.0000   1.0000   1.0000   1.0000   1.0000   1.0000
     1.0000   1.0000   1.0000   1.0003   1.0003   1.0003   1.0126   1.0126
     1.0142   0.0000   0.0000   0.0000   0.0000   0.0000   0.0000   0.0000
     0.0000   0.0000   0.0000   0.0000   0.0000   0.0000   0.0000   0.0000

          k =-0.1667-0.2887 0.2417 (  7926 PWs)   bands (ev):

   -91.4901 -91.4876 -91.4190 -54.7315 -54.7281 -54.7243 -54.7203 -54.7056
   -54.7025 -54.6653 -54.6613 -54.6243 -47.0704 -18.9973 -18.9837 -18.9833
   -14.6749 -13.5834 -13.5787 -13.1973 -13.1961 -13.0762  -1.5768  -1.5758
    -1.0677  -0.8817  -0.8688  -0.8302  -0.5845   0.0325   0.0828   0.5807
     0.6102   0.7606   0.8120   1.2291   1.8706   1.9814   1.9846   2.6994
     3.0026   3.0367   3.2319   3.3585   3.3604   3.5702   3.8946   3.8979
     4.0336   5.8568   5.8996   5.9228   6.1063   6.1305   6.4888   8.7564
    11.9037  12.2945  12.4510  15.0745  15.2828  15.4667  16.1004  16.1320

     occupation numbers 
     1.0000   1.0000   1.0000   1.0000   1.0000   1.0000   1.0000   1.0000
     1.0000   1.0000   1.0000   1.0000   1.0000   1.0000   1.0000   1.0000
     1.0000   1.0000   1.0000   1.0000   1.0000   1.0000   1.0000   1.0000
     1.0000   1.0000   1.0000   1.0000   1.0000   1.0000   1.0000   1.0000
     1.0000   1.0000   1.0000   1.0000   1.0000   1.0000   1.0000   1.0000
     1.0000   1.0000   1.0000   1.0000   1.0000   1.0010   1.0506   1.0517
     1.0831   0.0000   0.0000   0.0000   0.0000   0.0000   0.0000   0.0000
     0.0000   0.0000   0.0000   0.0000   0.0000   0.0000   0.0000   0.0000

          k =-0.1667-0.4811 0.2417 (  7912 PWs)   bands (ev):

   -91.4894 -91.4882 -91.4190 -54.7329 -54.7236 -54.7232 -54.7211 -54.7106
   -54.6994 -54.6658 -54.6621 -54.6243 -47.0703 -18.9969 -18.9840 -18.9835
   -14.3329 -13.9295 -13.6510 -13.2100 -13.1373 -13.0965  -1.8406  -1.3625
    -1.2011  -0.7584  -0.5990  -0.5856  -0.3965  -0.1374  -0.0875   0.3430
     0.4369   0.5755   1.0176   1.2716   1.4275   2.0994   2.4639   2.7864
     3.0556   3.2488   3.2686   3.2893   3.4671   3.6779   3.7034   3.8706
     3.8951   5.6031   5.7159   5.8481   6.2242   6.3606   6.4329   9.4572
    10.6429  11.7174  13.4594  14.6592  15.0775  15.5898  15.9260  16.4964

     occupation numbers 
     1.0000   1.0000   1.0000   1.0000   1.0000   1.0000   1.0000   1.0000
     1.0000   1.0000   1.0000   1.0000   1.0000   1.0000   1.0000   1.0000
     1.0000   1.0000   1.0000   1.0000   1.0000   1.0000   1.0000   1.0000
     1.0000   1.0000   1.0000   1.0000   1.0000   1.0000   1.0000   1.0000
     1.0000   1.0000   1.0000   1.0000   1.0000   1.0000   1.0000   1.0000
     1.0000   1.0000   1.0000   1.0000   1.0001   1.0052   1.0074   1.0425
     1.0507   0.0000   0.0000   0.0000   0.0000   0.0000   0.0000   0.0000
     0.0000   0.0000   0.0000   0.0000   0.0000   0.0000   0.0000   0.0000

          k =-0.3333-0.5774 0.2417 (  7899 PWs)   bands (ev):

   -91.4888 -91.4888 -91.4190 -54.7300 -54.7224 -54.7224 -54.7190 -54.7190
   -54.6985 -54.6636 -54.6636 -54.6243 -47.0703 -18.9967 -18.9838 -18.9838
   -13.9978 -13.9841 -13.9841 -13.1366 -13.1364 -13.1364  -1.4884  -1.4562
    -1.4562  -0.6439  -0.5905  -0.5905  -0.2427  -0.2427  -0.2196   0.2403
     0.3368   0.3368   1.3659   1.3659   1.3911   2.4495   2.4495   2.5045
     3.2456   3.2456   3.2546   3.5045   3.5045   3.5054   3.7322   3.7322
     3.7375   5.6030   5.6550   5.6550   6.4343   6.4416   6.4416   9.9815
    10.6111  10.6111  14.3313  14.5597  14.5597  16.0981  16.3000  16.3001

     occupation numbers 
     1.0000   1.0000   1.0000   1.0000   1.0000   1.0000   1.0000   1.0000
     1.0000   1.0000   1.0000   1.0000   1.0000   1.0000   1.0000   1.0000
     1.0000   1.0000   1.0000   1.0000   1.0000   1.0000   1.0000   1.0000
     1.0000   1.0000   1.0000   1.0000   1.0000   1.0000   1.0000   1.0000
     1.0000   1.0000   1.0000   1.0000   1.0000   1.0000   1.0000   1.0000
     1.0000   1.0000   1.0000   1.0003   1.0003   1.0003   1.0106   1.0106
     1.0113   0.0000   0.0000   0.0000   0.0000   0.0000   0.0000   0.0000
     0.0000   0.0000   0.0000   0.0000   0.0000   0.0000   0.0000   0.0000

 ------ SPIN DOWN ----------


          k = 0.0000 0.0000 0.0000 (  7923 PWs)   bands (ev):

   -90.7555 -90.7514 -90.7246 -54.0727 -54.0727 -54.0613 -54.0613 -54.0226
   -54.0226 -53.8866 -53.8796 -53.8562 -47.0697 -18.9973 -18.9818 -18.9818
   -14.8760 -13.2862 -13.2862 -13.0935 -13.0935 -12.9587  -0.9986  -0.9986
    -0.9741  -0.8169  -0.8169  -0.6077  -0.5520  -0.5520  -0.5127   1.1028
     1.1028   1.3432   1.3432   1.3584   1.4559   2.5280   2.9761   2.9761
     3.3303   3.3303   3.6885   3.7402   4.3584   4.3584   4.4088   4.4088
     4.7845   6.1788   6.1788   6.2315   6.2315   6.9467   6.9467   7.8065
    12.7001  13.2548  14.5411  14.5411  15.1288  15.3194  15.3194  15.5889

     occupation numbers 
     1.0000   1.0000   1.0000   1.0000   1.0000   1.0000   1.0000   1.0000
     1.0000   1.0000   1.0000   1.0000   1.0000   1.0000   1.0000   1.0000
     1.0000   1.0000   1.0000   1.0000   1.0000   1.0000   1.0000   1.0000
     1.0000   1.0000   1.0000   1.0000   1.0000   1.0000   1.0000   1.0000
     1.0000   1.0000   1.0000   1.0000   1.0000   1.0000   1.0000   1.0000
     1.0000   1.0000   1.0060   1.0117   0.5399   0.5399   0.4061   0.4061
     0.0069   0.0000   0.0000   0.0000   0.0000   0.0000   0.0000   0.0000
     0.0000   0.0000   0.0000   0.0000   0.0000   0.0000   0.0000   0.0000

          k = 0.0000 0.0000 0.2417 (  7928 PWs)   bands (ev):

   -90.7555 -90.7514 -90.7246 -54.0726 -54.0726 -54.0612 -54.0612 -54.0228
   -54.0228 -53.8868 -53.8797 -53.8563 -47.0697 -18.9976 -18.9817 -18.9817
   -14.8744 -13.2862 -13.2862 -13.0935 -13.0935 -12.9612  -0.9996  -0.9996
    -0.9342  -0.8186  -0.8186  -0.6027  -0.5521  -0.5521  -0.5107   1.1049
     1.1049   1.3450   1.3450   1.3491   1.4523   2.3895   2.9758   2.9758
     3.3303   3.3303   3.6897   3.7407   4.3569   4.3569   4.4072   4.4072
     4.8286   6.1868   6.1868   6.2403   6.2403   6.9467   6.9467   8.1759
    11.4337  14.1956  14.4807  14.4807  15.0047  15.2710  15.2710  15.4747

     occupation numbers 
     1.0000   1.0000   1.0000   1.0000   1.0000   1.0000   1.0000   1.0000
     1.0000   1.0000   1.0000   1.0000   1.0000   1.0000   1.0000   1.0000
     1.0000   1.0000   1.0000   1.0000   1.0000   1.0000   1.0000   1.0000
     1.0000   1.0000   1.0000   1.0000   1.0000   1.0000   1.0000   1.0000
     1.0000   1.0000   1.0000   1.0000   1.0000   1.0000   1.0000   1.0000
     1.0000   1.0000   1.0061   1.0118   0.5441   0.5441   0.4103   0.4103
     0.0034   0.0000   0.0000   0.0000   0.0000   0.0000   0.0000   0.0000
     0.0000   0.0000   0.0000   0.0000   0.0000   0.0000   0.0000   0.0000

          k = 0.0000 0.1925 0.0000 (  7914 PWs)   bands (ev):

   -90.7552 -90.7516 -90.7246 -54.0773 -54.0750 -54.0557 -54.0548 -54.0269
   -54.0236 -53.8862 -53.8800 -53.8563 -47.0697 -18.9971 -18.9821 -18.9818
   -14.7732 -13.3778 -13.3203 -13.1129 -13.0824 -12.9609  -1.3629  -1.1315
    -0.8907  -0.8405  -0.7855  -0.6563  -0.4904  -0.1733   0.0290   0.8024
     0.8596   1.1168   1.1973   1.8042   1.8804   2.2778   2.4368   2.7692
     3.6247   3.7298   3.7590   3.8294   4.1552   4.1679   4.4468   4.5089
     4.8067   6.1806   6.2504   6.2612   6.2997   6.6767   6.8658   8.0761
    12.8010  13.1552  13.5938  13.9353  14.3765  15.8303  16.2177  16.6882

     occupation numbers 
     1.0000   1.0000   1.0000   1.0000   1.0000   1.0000   1.0000   1.0000
     1.0000   1.0000   1.0000   1.0000   1.0000   1.0000   1.0000   1.0000
     1.0000   1.0000   1.0000   1.0000   1.0000   1.0000   1.0000   1.0000
     1.0000   1.0000   1.0000   1.0000   1.0000   1.0000   1.0000   1.0000
     1.0000   1.0000   1.0000   1.0000   1.0000   1.0000   1.0000   1.0000
     1.0024   1.0103   1.0146   1.0300   1.0070   0.9892   0.3151   0.1934
     0.0049   0.0000   0.0000   0.0000   0.0000   0.0000   0.0000   0.0000
     0.0000   0.0000   0.0000   0.0000   0.0000   0.0000   0.0000   0.0000

          k = 0.0000 0.1925 0.2417 (  7936 PWs)   bands (ev):

   -90.7553 -90.7517 -90.7246 -54.0773 -54.0750 -54.0556 -54.0548 -54.0269
   -54.0237 -53.8862 -53.8800 -53.8564 -47.0697 -18.9974 -18.9821 -18.9818
   -14.7717 -13.3778 -13.3203 -13.1129 -13.0824 -12.9632  -1.3628  -1.1310
    -0.8934  -0.8083  -0.7872  -0.6573  -0.4904  -0.1716   0.0301   0.7998
     0.8575   1.1217   1.1990   1.8071   1.8796   2.2798   2.4135   2.6759
     3.6250   3.7253   3.7594   3.8295   4.1559   4.1685   4.4433   4.5042
     4.8518   6.1922   6.2534   6.2664   6.3061   6.6533   6.8696   8.4117
    11.7795  12.9082  13.8669  14.2276  14.5927  15.8693  16.2122  16.7635

     occupation numbers 
     1.0000   1.0000   1.0000   1.0000   1.0000   1.0000   1.0000   1.0000
     1.0000   1.0000   1.0000   1.0000   1.0000   1.0000   1.0000   1.0000
     1.0000   1.0000   1.0000   1.0000   1.0000   1.0000   1.0000   1.0000
     1.0000   1.0000   1.0000   1.0000   1.0000   1.0000   1.0000   1.0000
     1.0000   1.0000   1.0000   1.0000   1.0000   1.0000   1.0000   1.0000
     1.0024   1.0097   1.0146   1.0301   1.0060   0.9883   0.3231   0.2014
     0.0023   0.0000   0.0000   0.0000   0.0000   0.0000   0.0000   0.0000
     0.0000   0.0000   0.0000   0.0000   0.0000   0.0000   0.0000   0.0000

          k = 0.0000 0.3849 0.0000 (  7930 PWs)   bands (ev):

   -90.7545 -90.7522 -90.7247 -54.0827 -54.0724 -54.0507 -54.0478 -54.0336
   -54.0261 -53.8850 -53.8810 -53.8567 -47.0697 -18.9968 -18.9826 -18.9820
   -14.4874 -13.6743 -13.3657 -13.1582 -13.0380 -12.9711  -1.7667  -1.0065
    -0.8789  -0.8543  -0.5483  -0.5082  -0.3432   0.0741   0.3330   0.7304
     0.8106   0.8841   1.2085   1.2722   1.7858   2.0887   2.4687   3.0547
     3.7753   3.8043   3.9429   3.9559   4.1358   4.1585   4.3110   4.5222
     4.7768   6.1900   6.2172   6.2277   6.3037   6.5968   6.6283   8.7880
    11.2756  13.3221  13.4804  13.9158  14.4894  15.2871  16.1239  16.5800

     occupation numbers 
     1.0000   1.0000   1.0000   1.0000   1.0000   1.0000   1.0000   1.0000
     1.0000   1.0000   1.0000   1.0000   1.0000   1.0000   1.0000   1.0000
     1.0000   1.0000   1.0000   1.0000   1.0000   1.0000   1.0000   1.0000
     1.0000   1.0000   1.0000   1.0000   1.0000   1.0000   1.0000   1.0000
     1.0000   1.0000   1.0000   1.0000   1.0000   1.0000   1.0000   1.0000
     1.0175   1.0236   1.0670   1.0710   1.0301   1.0024   0.6710   0.1720
     0.0078   0.0000   0.0000   0.0000   0.0000   0.0000   0.0000   0.0000
     0.0000   0.0000   0.0000   0.0000   0.0000   0.0000   0.0000   0.0000

          k = 0.0000 0.3849 0.2417 (  7917 PWs)   bands (ev):

   -90.7545 -90.7522 -90.7247 -54.0828 -54.0725 -54.0506 -54.0477 -54.0335
   -54.0261 -53.8849 -53.8810 -53.8567 -47.0697 -18.9968 -18.9826 -18.9820
   -14.4861 -13.6740 -13.3657 -13.1582 -13.0383 -12.9727  -1.7671  -1.0120
    -0.8869  -0.8590  -0.5517  -0.4815  -0.3423   0.0748   0.3304   0.7417
     0.8125   0.8897   1.2105   1.2799   1.7852   2.0995   2.4672   2.9892
     3.7749   3.8036   3.9435   3.9569   4.1245   4.1599   4.3084   4.5124
     4.8094   6.1464   6.2014   6.2394   6.3061   6.5997   6.6467   9.0120
    11.2459  12.6950  13.3031  13.6216  15.2179  15.4740  16.1886  16.9325

     occupation numbers 
     1.0000   1.0000   1.0000   1.0000   1.0000   1.0000   1.0000   1.0000
     1.0000   1.0000   1.0000   1.0000   1.0000   1.0000   1.0000   1.0000
     1.0000   1.0000   1.0000   1.0000   1.0000   1.0000   1.0000   1.0000
     1.0000   1.0000   1.0000   1.0000   1.0000   1.0000   1.0000   1.0000
     1.0000   1.0000   1.0000   1.0000   1.0000   1.0000   1.0000   1.0000
     1.0174   1.0235   1.0672   1.0713   1.0415   1.0006   0.6779   0.1877
     0.0046   0.0000   0.0000   0.0000   0.0000   0.0000   0.0000   0.0000
     0.0000   0.0000   0.0000   0.0000   0.0000   0.0000   0.0000   0.0000

          k = 0.0000-0.5774 0.0000 (  7928 PWs)   bands (ev):

   -90.7540 -90.7527 -90.7248 -54.0849 -54.0658 -54.0572 -54.0441 -54.0337
   -54.0280 -53.8840 -53.8818 -53.8568 -47.0697 -18.9965 -18.9829 -18.9823
   -14.0917 -14.0793 -13.3849 -13.1803 -12.9962 -12.9961  -1.9149  -1.0068
    -0.9294  -0.4871  -0.4735  -0.3155  -0.0952  -0.0423   0.0596   0.5615
     0.6926   0.9177   1.1898   1.1958   1.5074   2.1685   2.9445   2.9875
     3.7166   3.8465   3.8627   3.8699   4.2295   4.3885   4.4040   4.5361
     4.5793   6.0496   6.0949   6.3022   6.3575   6.3829   6.7903   9.6401
    10.0991  13.1146  13.4647  14.3778  14.4784  15.5534  15.7689  15.8352

     occupation numbers 
     1.0000   1.0000   1.0000   1.0000   1.0000   1.0000   1.0000   1.0000
     1.0000   1.0000   1.0000   1.0000   1.0000   1.0000   1.0000   1.0000
     1.0000   1.0000   1.0000   1.0000   1.0000   1.0000   1.0000   1.0000
     1.0000   1.0000   1.0000   1.0000   1.0000   1.0000   1.0000   1.0000
     1.0000   1.0000   1.0000   1.0000   1.0000   1.0000   1.0000   1.0000
     1.0087   1.0350   1.0399   1.0423   0.8755   0.4586   0.4183   0.1517
     0.0993   0.0000   0.0000   0.0000   0.0000   0.0000   0.0000   0.0000
     0.0000   0.0000   0.0000   0.0000   0.0000   0.0000   0.0000   0.0000

          k = 0.0000-0.5774 0.2417 (  7914 PWs)   bands (ev):

   -90.7540 -90.7527 -90.7248 -54.0848 -54.0659 -54.0573 -54.0439 -54.0337
   -54.0278 -53.8839 -53.8818 -53.8568 -47.0697 -18.9965 -18.9830 -18.9820
   -14.0903 -14.0791 -13.3849 -13.1802 -12.9977 -12.9964  -1.9153  -1.0207
    -0.9381  -0.4858  -0.4726  -0.3219  -0.0903  -0.0330   0.0599   0.5865
     0.7103   0.9209   1.1892   1.1956   1.5077   2.1831   2.9301   2.9679
     3.7149   3.8466   3.8628   3.8703   4.2283   4.3707   4.3911   4.5484
     4.5892   5.9963   6.0553   6.3063   6.3806   6.4079   6.7900   9.7316
    10.1859  13.0672  13.3012  13.9476  13.9994  15.7833  16.3586  16.6065

     occupation numbers 
     1.0000   1.0000   1.0000   1.0000   1.0000   1.0000   1.0000   1.0000
     1.0000   1.0000   1.0000   1.0000   1.0000   1.0000   1.0000   1.0000
     1.0000   1.0000   1.0000   1.0000   1.0000   1.0000   1.0000   1.0000
     1.0000   1.0000   1.0000   1.0000   1.0000   1.0000   1.0000   1.0000
     1.0000   1.0000   1.0000   1.0000   1.0000   1.0000   1.0000   1.0000
     1.0085   1.0350   1.0400   1.0424   0.8781   0.5065   0.4517   0.1351
     0.0894   0.0000   0.0000   0.0000   0.0000   0.0000   0.0000   0.0000
     0.0000   0.0000   0.0000   0.0000   0.0000   0.0000   0.0000   0.0000

          k = 0.1667 0.2887 0.0000 (  7899 PWs)   bands (ev):

   -90.7547 -90.7520 -90.7247 -54.0789 -54.0767 -54.0507 -54.0492 -54.0324
   -54.0251 -53.8853 -53.8806 -53.8565 -47.0697 -18.9967 -18.9824 -18.9819
   -14.5790 -13.4837 -13.4789 -13.0852 -13.0840 -12.9673  -1.4303  -1.4274
    -0.8583  -0.7355  -0.6859  -0.5945  -0.3725   0.1832   0.2378   0.7766
     0.7994   0.9921   1.0573   1.4225   2.1108   2.1655   2.1765   2.9482
     3.7656   3.9073   3.9426   3.9933   3.9944   4.0193   4.4427   4.4478
     4.8010   6.1956   6.2365   6.2551   6.4000   6.4212   6.7819   8.5561
    12.0541  12.4002  13.4395  14.2052  15.2824  15.4096  16.1548  16.1627

     occupation numbers 
     1.0000   1.0000   1.0000   1.0000   1.0000   1.0000   1.0000   1.0000
     1.0000   1.0000   1.0000   1.0000   1.0000   1.0000   1.0000   1.0000
     1.0000   1.0000   1.0000   1.0000   1.0000   1.0000   1.0000   1.0000
     1.0000   1.0000   1.0000   1.0000   1.0000   1.0000   1.0000   1.0000
     1.0000   1.0000   1.0000   1.0000   1.0000   1.0000   1.0000   1.0000
     1.0157   1.0549   1.0669   1.0802   1.0804   1.0832   0.3244   0.3129
     0.0053   0.0000   0.0000   0.0000   0.0000   0.0000   0.0000   0.0000
     0.0000   0.0000   0.0000   0.0000   0.0000   0.0000   0.0000   0.0000

          k = 0.1667 0.2887 0.2417 (  7926 PWs)   bands (ev):

   -90.7547 -90.7521 -90.7247 -54.0790 -54.0768 -54.0507 -54.0493 -54.0324
   -54.0252 -53.8853 -53.8808 -53.8566 -47.0697 -18.9970 -18.9824 -18.9820
   -14.5776 -13.4835 -13.4787 -13.0855 -13.0842 -12.9692  -1.4302  -1.4283
    -0.8685  -0.7394  -0.6894  -0.5633  -0.3725   0.1807   0.2363   0.7816
     0.8028   0.9956   1.0610   1.4300   2.1118   2.1719   2.1808   2.8697
     3.7545   3.9065   3.9418   3.9938   3.9951   4.0195   4.4388   4.4446
     4.8426   6.1785   6.2113   6.2291   6.4073   6.4274   6.7819   8.8596
    11.9890  12.3786  12.4550  15.1397  15.2413  15.4299  15.8655  15.9217

     occupation numbers 
     1.0000   1.0000   1.0000   1.0000   1.0000   1.0000   1.0000   1.0000
     1.0000   1.0000   1.0000   1.0000   1.0000   1.0000   1.0000   1.0000
     1.0000   1.0000   1.0000   1.0000   1.0000   1.0000   1.0000   1.0000
     1.0000   1.0000   1.0000   1.0000   1.0000   1.0000   1.0000   1.0000
     1.0000   1.0000   1.0000   1.0000   1.0000   1.0000   1.0000   1.0000
     1.0138   1.0547   1.0666   1.0803   1.0805   1.0832   0.3334   0.3200
     0.0027   0.0000   0.0000   0.0000   0.0000   0.0000   0.0000   0.0000
     0.0000   0.0000   0.0000   0.0000   0.0000   0.0000   0.0000   0.0000

          k = 0.1667 0.4811 0.0000 (  7898 PWs)   bands (ev):

   -90.7540 -90.7527 -90.7248 -54.0809 -54.0710 -54.0571 -54.0443 -54.0325
   -54.0273 -53.8840 -53.8817 -53.8568 -47.0697 -18.9964 -18.9827 -18.9821
   -14.2355 -13.8303 -13.5512 -13.0987 -13.0270 -12.9870  -1.6880  -1.1844
    -1.0014  -0.6118  -0.4691  -0.3637  -0.1857   0.0469   0.1003   0.5694
     0.6877   0.8757   1.1911   1.3861   1.6470   2.2758   2.6540   3.0089
     3.8146   3.8593   3.8919   3.9414   4.2018   4.2226   4.3114   4.4646
     4.6765   5.9565   6.0650   6.2189   6.5065   6.6400   6.7101   9.3953
    10.6849  11.8446  14.0107  14.7596  15.1045  15.2087  15.5623  16.2704

     occupation numbers 
     1.0000   1.0000   1.0000   1.0000   1.0000   1.0000   1.0000   1.0000
     1.0000   1.0000   1.0000   1.0000   1.0000   1.0000   1.0000   1.0000
     1.0000   1.0000   1.0000   1.0000   1.0000   1.0000   1.0000   1.0000
     1.0000   1.0000   1.0000   1.0000   1.0000   1.0000   1.0000   1.0000
     1.0000   1.0000   1.0000   1.0000   1.0000   1.0000   1.0000   1.0000
     1.0261   1.0389   1.0496   1.0665   0.9322   0.8905   0.6697   0.2765
     0.0321   0.0000   0.0000   0.0000   0.0000   0.0000   0.0000   0.0000
     0.0000   0.0000   0.0000   0.0000   0.0000   0.0000   0.0000   0.0000

          k = 0.1667 0.4811 0.2417 (  7912 PWs)   bands (ev):

   -90.7540 -90.7527 -90.7248 -54.0810 -54.0710 -54.0571 -54.0443 -54.0325
   -54.0273 -53.8839 -53.8818 -53.8568 -47.0697 -18.9966 -18.9827 -18.9822
   -14.2345 -13.8298 -13.5510 -13.0990 -13.0276 -12.9882  -1.6888  -1.1904
    -1.0134  -0.6159  -0.4751  -0.3527  -0.1813   0.0471   0.0994   0.5908
     0.7031   0.8836   1.1916   1.3863   1.6472   2.2885   2.6550   2.9841
     3.8116   3.8526   3.8906   3.9412   4.1964   4.2192   4.3115   4.4671
     4.6995   5.8882   6.0270   6.2006   6.5159   6.6462   6.7112   9.5964
    10.7637  11.8888  13.3395  14.4512  14.9085  15.2565  16.0839  16.7919

     occupation numbers 
     1.0000   1.0000   1.0000   1.0000   1.0000   1.0000   1.0000   1.0000
     1.0000   1.0000   1.0000   1.0000   1.0000   1.0000   1.0000   1.0000
     1.0000   1.0000   1.0000   1.0000   1.0000   1.0000   1.0000   1.0000
     1.0000   1.0000   1.0000   1.0000   1.0000   1.0000   1.0000   1.0000
     1.0000   1.0000   1.0000   1.0000   1.0000   1.0000   1.0000   1.0000
     1.0254   1.0368   1.0492   1.0664   0.9421   0.8977   0.6695   0.2714
     0.0238   0.0000   0.0000   0.0000   0.0000   0.0000   0.0000   0.0000
     0.0000   0.0000   0.0000   0.0000   0.0000   0.0000   0.0000   0.0000

          k = 0.3333 0.5774 0.0000 (  7920 PWs)   bands (ev):

   -90.7533 -90.7533 -90.7248 -54.0757 -54.0682 -54.0682 -54.0431 -54.0292
   -54.0292 -53.8828 -53.8828 -53.8569 -47.0697 -18.9964 -18.9826 -18.9826
   -13.9000 -13.8845 -13.8845 -13.0267 -13.0267 -13.0257  -1.3089  -1.2768
    -1.2768  -0.5027  -0.4479  -0.4479  -0.0523  -0.0523  -0.0220   0.5028
     0.6331   0.6331   1.5392   1.5392   1.5670   2.6477   2.6477   2.7130
     3.8400   3.8784   3.8784   4.0848   4.0848   4.0863   4.4539   4.4966
     4.4966   5.9753   6.0229   6.0229   6.7136   6.7136   6.7137  10.0457
    10.6532  10.6532  14.3752  14.7222  14.7222  15.8686  16.0194  16.0194

     occupation numbers 
     1.0000   1.0000   1.0000   1.0000   1.0000   1.0000   1.0000   1.0000
     1.0000   1.0000   1.0000   1.0000   1.0000   1.0000   1.0000   1.0000
     1.0000   1.0000   1.0000   1.0000   1.0000   1.0000   1.0000   1.0000
     1.0000   1.0000   1.0000   1.0000   1.0000   1.0000   1.0000   1.0000
     1.0000   1.0000   1.0000   1.0000   1.0000   1.0000   1.0000   1.0000
     1.0330   1.0451   1.0451   1.0698   1.0698   1.0691   0.2995   0.2147
     0.2147   0.0000   0.0000   0.0000   0.0000   0.0000   0.0000   0.0000
     0.0000   0.0000   0.0000   0.0000   0.0000   0.0000   0.0000   0.0000

          k = 0.3333 0.5774 0.2417 (  7899 PWs)   bands (ev):

   -90.7533 -90.7533 -90.7248 -54.0757 -54.0682 -54.0682 -54.0430 -54.0291
   -54.0291 -53.8828 -53.8828 -53.8569 -47.0697 -18.9964 -18.9825 -18.9825
   -13.8985 -13.8843 -13.8843 -13.0272 -13.0270 -13.0270  -1.3164  -1.2815
    -1.2815  -0.5088  -0.4509  -0.4509  -0.0522  -0.0522  -0.0221   0.5311
     0.6505   0.6505   1.5391   1.5391   1.5672   2.6499   2.6499   2.7149
     3.8340   3.8734   3.8734   4.0848   4.0848   4.0864   4.4626   4.5038
     4.5038   5.9126   5.9791   5.9791   6.7133   6.7134   6.7134  10.1861
    10.7829  10.7829  13.9793  14.2752  14.2752  16.4388  16.4451  16.4451

     occupation numbers 
     1.0000   1.0000   1.0000   1.0000   1.0000   1.0000   1.0000   1.0000
     1.0000   1.0000   1.0000   1.0000   1.0000   1.0000   1.0000   1.0000
     1.0000   1.0000   1.0000   1.0000   1.0000   1.0000   1.0000   1.0000
     1.0000   1.0000   1.0000   1.0000   1.0000   1.0000   1.0000   1.0000
     1.0000   1.0000   1.0000   1.0000   1.0000   1.0000   1.0000   1.0000
     1.0313   1.0434   1.0434   1.0698   1.0698   1.0690   0.2809   0.2020
     0.2020   0.0000   0.0000   0.0000   0.0000   0.0000   0.0000   0.0000
     0.0000   0.0000   0.0000   0.0000   0.0000   0.0000   0.0000   0.0000

          k =-0.1667-0.2887 0.2417 (  7926 PWs)   bands (ev):

   -90.7547 -90.7521 -90.7247 -54.0790 -54.0767 -54.0507 -54.0493 -54.0324
   -54.0251 -53.8853 -53.8808 -53.8566 -47.0697 -18.9970 -18.9824 -18.9820
   -14.5776 -13.4835 -13.4789 -13.0853 -13.0841 -12.9692  -1.4321  -1.4289
    -0.8641  -0.7384  -0.6890  -0.5670  -0.3724   0.1829   0.2373   0.7770
     0.7999   1.0012   1.0657   1.4269   2.1106   2.1667   2.1770   2.8739
     3.7508   3.9076   3.9426   3.9939   3.9954   4.0198   4.4359   4.4415
     4.8338   6.2077   6.2458   6.2471   6.4019   6.4195   6.7821   8.7779
    11.9132  12.2946  12.5216  15.1665  15.2838  15.4833  16.1718  16.2034

     occupation numbers 
     1.0000   1.0000   1.0000   1.0000   1.0000   1.0000   1.0000   1.0000
     1.0000   1.0000   1.0000   1.0000   1.0000   1.0000   1.0000   1.0000
     1.0000   1.0000   1.0000   1.0000   1.0000   1.0000   1.0000   1.0000
     1.0000   1.0000   1.0000   1.0000   1.0000   1.0000   1.0000   1.0000
     1.0000   1.0000   1.0000   1.0000   1.0000   1.0000   1.0000   1.0000
     1.0133   1.0551   1.0669   1.0803   1.0806   1.0832   0.3401   0.3272
     0.0031   0.0000   0.0000   0.0000   0.0000   0.0000   0.0000   0.0000
     0.0000   0.0000   0.0000   0.0000   0.0000   0.0000   0.0000   0.0000

          k =-0.1667-0.4811 0.2417 (  7912 PWs)   bands (ev):

   -90.7540 -90.7527 -90.7248 -54.0810 -54.0710 -54.0571 -54.0443 -54.0325
   -54.0273 -53.8839 -53.8818 -53.8568 -47.0697 -18.9966 -18.9827 -18.9822
   -14.2345 -13.8299 -13.5511 -13.0988 -13.0275 -12.9881  -1.6900  -1.1914
    -1.0105  -0.6156  -0.4745  -0.3563  -0.1826   0.0459   0.0995   0.5957
     0.7073   0.8884   1.1906   1.3862   1.6470   2.2787   2.6467   2.9776
     3.8133   3.8525   3.8920   3.9410   4.1973   4.2216   4.3075   4.4554
     4.6840   5.9522   6.0694   6.2256   6.5072   6.6425   6.7102   9.4747
    10.6496  11.7195  13.5281  14.7146  15.0917  15.6623  16.0120  16.5688

     occupation numbers 
     1.0000   1.0000   1.0000   1.0000   1.0000   1.0000   1.0000   1.0000
     1.0000   1.0000   1.0000   1.0000   1.0000   1.0000   1.0000   1.0000
     1.0000   1.0000   1.0000   1.0000   1.0000   1.0000   1.0000   1.0000
     1.0000   1.0000   1.0000   1.0000   1.0000   1.0000   1.0000   1.0000
     1.0000   1.0000   1.0000   1.0000   1.0000   1.0000   1.0000   1.0000
     1.0258   1.0367   1.0497   1.0664   0.9405   0.8927   0.6803   0.2963
     0.0292   0.0000   0.0000   0.0000   0.0000   0.0000   0.0000   0.0000
     0.0000   0.0000   0.0000   0.0000   0.0000   0.0000   0.0000   0.0000

          k =-0.3333-0.5774 0.2417 (  7899 PWs)   bands (ev):

   -90.7533 -90.7533 -90.7248 -54.0757 -54.0682 -54.0682 -54.0430 -54.0291
   -54.0291 -53.8828 -53.8828 -53.8569 -47.0697 -18.9964 -18.9825 -18.9825
   -13.8986 -13.8844 -13.8844 -13.0271 -13.0268 -13.0268  -1.3187  -1.2810
    -1.2810  -0.5089  -0.4530  -0.4530  -0.0522  -0.0522  -0.0219   0.5382
     0.6554   0.6554   1.5392   1.5392   1.5670   2.6390   2.6390   2.7013
     3.8348   3.8739   3.8739   4.0848   4.0848   4.0864   4.4480   4.4935
     4.4935   5.9823   6.0286   6.0286   6.7136   6.7136   6.7136   9.9969
    10.6144  10.6144  14.3927  14.6272  14.6272  16.1706  16.3580  16.3580

     occupation numbers 
     1.0000   1.0000   1.0000   1.0000   1.0000   1.0000   1.0000   1.0000
     1.0000   1.0000   1.0000   1.0000   1.0000   1.0000   1.0000   1.0000
     1.0000   1.0000   1.0000   1.0000   1.0000   1.0000   1.0000   1.0000
     1.0000   1.0000   1.0000   1.0000   1.0000   1.0000   1.0000   1.0000
     1.0000   1.0000   1.0000   1.0000   1.0000   1.0000   1.0000   1.0000
     1.0316   1.0436   1.0436   1.0698   1.0698   1.0690   0.3125   0.2201
     0.2201   0.0000   0.0000   0.0000   0.0000   0.0000   0.0000   0.0000
     0.0000   0.0000   0.0000   0.0000   0.0000   0.0000   0.0000   0.0000

     the Fermi energy is     4.4110 ev

!    total energy              =   -1489.31924514 Ry
     total all-electron energy =     -9588.554053 Ry
     estimated scf accuracy    <       0.00000003 Ry
     smearing contrib. (-TS)   =       0.00976314 Ry
     internal energy E=F+TS    =   -1489.32900828 Ry

     The total energy is F=E-TS. E is the sum of the following terms:
     one-electron contribution =   -1507.56933428 Ry
     hartree contribution      =     788.34930252 Ry
     xc contribution           =    -150.63023025 Ry
     ewald contribution        =    -283.96547410 Ry
     one-center paw contrib.   =    -335.51327217 Ry
      -> PAW hartree energy AE =     884.97823868 Ry
      -> PAW hartree energy PS =    -882.69755950 Ry
      -> PAW xc energy AE      =    -480.37751582 Ry
      -> PAW xc energy PS      =     142.58356447 Ry
      -> total E_H with PAW    =     790.62998169 Ry
      -> total E_XC with PAW   =    -488.42418159 Ry

     total magnetization       =     2.30 Bohr mag/cell
     absolute magnetization    =     2.34 Bohr mag/cell

     convergence has been achieved in  21 iterations

     Forces acting on atoms (cartesian axes, Ry/au):

     atom    1 type  1   force =     0.00000000    0.00000000    0.04541105
     atom    2 type  1   force =     0.00000000    0.00000000    0.01568816
     atom    3 type  1   force =    -0.00000000   -0.00000000    0.01568816
     atom    4 type  2   force =     0.00015929    0.00027590   -0.02818907
     atom    5 type  2   force =    -0.00031859   -0.00000000   -0.02818907
     atom    6 type  2   force =     0.00015929   -0.00027590   -0.02818907
     atom    7 type  2   force =    -0.00397114   -0.00000000    0.00836417
     atom    8 type  2   force =     0.00198557    0.00343911    0.00836417
     atom    9 type  2   force =     0.00198557   -0.00343911    0.00836417
     atom   10 type  3   force =     0.00000000    0.00000000   -0.01731267
     The non-local contrib.  to forces
     atom    1 type  1   force =     0.00000000    0.00000000   -0.09972199
     atom    2 type  1   force =     0.00000000   -0.00000000    0.01248663
     atom    3 type  1   force =     0.00000000    0.00000000    0.01248663
     atom    4 type  2   force =    -0.00480935   -0.00833004   -1.19454150
     atom    5 type  2   force =     0.00961870   -0.00000000   -1.19454150
     atom    6 type  2   force =    -0.00480935    0.00833004   -1.19454150
     atom    7 type  2   force =    -0.10495128    0.00000000    0.99751413
     atom    8 type  2   force =     0.05247564    0.09089048    0.99751413
     atom    9 type  2   force =     0.05247564   -0.09089048    0.99751413
     atom   10 type  3   force =     0.00000000    0.00000000   -0.37809370
     The ionic contribution  to forces
     atom    1 type  1   force =    -0.00000000   -0.00000000    8.26806984
     atom    2 type  1   force =     0.00000002   -0.00000001    4.21749559
     atom    3 type  1   force =    -0.00000002    0.00000001    4.21749559
     atom    4 type  2   force =     0.18339275    0.31764556   32.44221619
     atom    5 type  2   force =    -0.36678549   -0.00000000   32.44221620
     atom    6 type  2   force =     0.18339274   -0.31764556   32.44221620
     atom    7 type  2   force =     1.94652731    0.00000000  -28.93439780
     atom    8 type  2   force =    -0.97326366   -1.68574210  -28.93439779
     atom    9 type  2   force =    -0.97326365    1.68574210  -28.93439780
     atom   10 type  3   force =    -0.00000000    0.00000000  -27.22651621
     The local contribution  to forces
     atom    1 type  1   force =     0.00000000    0.00000000   -8.12339917
     atom    2 type  1   force =     0.00000021   -0.00000012   -4.21416165
     atom    3 type  1   force =    -0.00000021    0.00000012   -4.21416165
     atom    4 type  2   force =    -0.17844328   -0.30907283  -31.28664127
     atom    5 type  2   force =     0.35688656   -0.00000000  -31.28664127
     atom    6 type  2   force =    -0.17844328    0.30907283  -31.28664127
     atom    7 type  2   force =    -1.84639793   -0.00000000   27.95424691
     atom    8 type  2   force =     0.92319896    1.59902751   27.95424691
     atom    9 type  2   force =     0.92319896   -1.59902751   27.95424691
     atom   10 type  3   force =     0.00000000    0.00000000   27.58716253
     The core correction contribution to forces
     atom    1 type  1   force =    -0.00000000   -0.00000000    0.00030201
     atom    2 type  1   force =     0.00000000   -0.00000000   -0.00019792
     atom    3 type  1   force =    -0.00000000    0.00000000   -0.00019792
     atom    4 type  2   force =     0.00003816    0.00006610    0.01057088
     atom    5 type  2   force =    -0.00007633    0.00000000    0.01057088
     atom    6 type  2   force =     0.00003816   -0.00006610    0.01057088
     atom    7 type  2   force =     0.00086667   -0.00000000   -0.00877853
     atom    8 type  2   force =    -0.00043334   -0.00075056   -0.00877853
     atom    9 type  2   force =    -0.00043334    0.00075056   -0.00877853
     atom   10 type  3   force =    -0.00000000   -0.00000000    0.00020539
     The Hubbard contrib.    to forces
     atom    1 type  1   force =     0.00000000    0.00000000    0.00000000
     atom    2 type  1   force =     0.00000000    0.00000000    0.00000000
     atom    3 type  1   force =     0.00000000    0.00000000    0.00000000
     atom    4 type  2   force =     0.00000000    0.00000000    0.00000000
     atom    5 type  2   force =     0.00000000    0.00000000    0.00000000
     atom    6 type  2   force =     0.00000000    0.00000000    0.00000000
     atom    7 type  2   force =     0.00000000    0.00000000    0.00000000
     atom    8 type  2   force =     0.00000000    0.00000000    0.00000000
     atom    9 type  2   force =     0.00000000    0.00000000    0.00000000
     atom   10 type  3   force =     0.00000000    0.00000000    0.00000000
     The SCF correction term to forces
     atom    1 type  1   force =     0.00000000    0.00000000    0.00015879
     atom    2 type  1   force =    -0.00000000    0.00000000    0.00006393
     atom    3 type  1   force =     0.00000000   -0.00000000    0.00006393
     atom    4 type  2   force =    -0.00001899   -0.00003289    0.00020505
     atom    5 type  2   force =     0.00003798    0.00000000    0.00020505
     atom    6 type  2   force =    -0.00001899    0.00003289    0.00020505
     atom    7 type  2   force =    -0.00001592   -0.00000000   -0.00022212
     atom    8 type  2   force =     0.00000796    0.00001378   -0.00022212
     atom    9 type  2   force =     0.00000796   -0.00001378   -0.00022212
     atom   10 type  3   force =     0.00000000    0.00000000   -0.00007228

     Total force =     0.074132     Total SCF correction =     0.000564

     Writing all to output data dir ./out/pw.save/ :
     XML data file, charge density, pseudopotentials, collected wavefunctions
 
     init_run     :     21.42s CPU      4.87s WALL (       1 calls)
     electrons    :    268.71s CPU     63.90s WALL (       1 calls)
     forces       :      1.05s CPU      0.92s WALL (       1 calls)

     Called by init_run:
     wfcinit      :      0.51s CPU      0.61s WALL (       1 calls)
     wfcinit:atom :      0.06s CPU      0.06s WALL (      34 calls)
     wfcinit:wfcr :      0.31s CPU      0.33s WALL (      34 calls)
     potinit      :     20.27s CPU      3.56s WALL (       1 calls)
     hinit0       :      0.52s CPU      0.51s WALL (       1 calls)

     Called by electrons:
     c_bands      :     27.39s CPU     27.37s WALL (      21 calls)
     sum_band     :      4.19s CPU      4.19s WALL (      21 calls)
     v_of_rho     :      0.50s CPU      0.31s WALL (      22 calls)
     v_h          :      0.32s CPU      0.07s WALL (      22 calls)
     v_xc         :      0.20s CPU      0.25s WALL (      23 calls)
     newd         :      0.53s CPU      0.45s WALL (      22 calls)
                                        0.45s GPU  (      22 calls)
     PAW_pot      :    244.95s CPU     31.61s WALL (      22 calls)
     mix_rho      :      1.13s CPU      1.11s WALL (      21 calls)

     Called by c_bands:
     init_us_2    :      0.93s CPU      0.89s WALL (    1496 calls)
     cegterg      :     22.86s CPU     22.89s WALL (     714 calls)

     Called by sum_band:
     sum_band:wei :      0.04s CPU      0.04s WALL (      21 calls)
                                        0.04s GPU  (      21 calls)
     sum_band:loo :      2.96s CPU      2.92s WALL (      21 calls)
                                        2.92s GPU  (      21 calls)
     sum_band:buf :      0.79s CPU      0.81s WALL (     714 calls)
                                        0.80s GPU  (     714 calls)
     sum_band:ini :      0.44s CPU      0.44s WALL (     714 calls)
                                        0.43s GPU  (     714 calls)
     sum_band:cal :      0.07s CPU      0.10s WALL (     714 calls)
                                        0.07s GPU  (     714 calls)
     sum_band:bec :      0.36s CPU      0.37s WALL (     714 calls)
                                        0.36s GPU  (     714 calls)
     addusdens    :      0.85s CPU      0.86s WALL (      21 calls)
                                        0.86s GPU  (      21 calls)
     addusd:skk   :      0.01s CPU      0.01s WALL (      63 calls)
                                        0.01s GPU  (      63 calls)

     Called by *egterg:
     cdiaghg      :      9.40s CPU      9.51s WALL (    4186 calls)
                                        9.46s GPU  (    4186 calls)
     cegterg:over :      1.25s CPU      1.27s WALL (    3472 calls)
     cegterg:upda :      1.26s CPU      1.26s WALL (    3472 calls)
     cegterg:last :      0.20s CPU      0.20s WALL (    1538 calls)
     h_psi        :      8.47s CPU      8.52s WALL (    4220 calls)
                                        8.46s GPU  (    4220 calls)
     s_psi        :      1.34s CPU      1.38s WALL (    4220 calls)
     g_psi        :      0.02s CPU      0.13s WALL (    3472 calls)
                                        0.08s GPU  (    3472 calls)

     Called by h_psi:
     h_psi:calbec :      0.18s CPU      0.39s WALL (    4220 calls)
                                        0.33s GPU  (    4220 calls)
     vloc_psi     :      6.38s CPU      6.34s WALL (    4220 calls)
                                        6.28s GPU  (    4220 calls)
     add_vuspsi   :      1.28s CPU      1.48s WALL (    4220 calls)
                                        1.42s GPU  (    4220 calls)

     General routines
     calbec       :      0.20s CPU      0.23s WALL (    5070 calls)
     fft          :      6.81s CPU      1.34s WALL (     563 calls)
                                        0.03s GPU  (     519 calls)
     ffts         :      2.88s CPU      0.78s WALL (    1124 calls)
                                        0.03s GPU  (    1080 calls)
     fftw         :      0.41s CPU      3.73s WALL (   21390 calls)
                                        3.48s GPU  (   21390 calls)
     interpolate  :      9.97s CPU      2.12s WALL (      44 calls)
 
     Parallel routines

     PAW routines
     PAW_pot      :    244.95s CPU     31.61s WALL (      22 calls)
     PAW_symme    :      0.04s CPU      0.01s WALL (      43 calls)
 
     PWSCF        :   4m52.01s CPU   1m10.33s WALL

 
   This run was terminated on:   3:58:15  12Jul2026            

=------------------------------------------------------------------------------=
   JOB DONE.
=------------------------------------------------------------------------------=
Warning: ieee_divide_by_zero is signaling
Warning: ieee_inexact is signaling
FORTRAN STOP
