
     Program PWSCF v.7.3.1 starts on 12Jul2026 at  3:54:52 

     This program is part of the open-source Quantum ESPRESSO suite
     for quantum simulation of materials; please cite
         "P. Giannozzi et al., J. Phys.:Condens. Matter 21 395502 (2009);
         "P. Giannozzi et al., J. Phys.:Condens. Matter 29 465901 (2017);
         "P. Giannozzi et al., J. Chem. Phys. 152 154105 (2020);
          URL http://www.quantum-espresso.org", 
     in publications or presentations arising from this work. More details at
     http://www.quantum-espresso.org/quote

     Parallel version (MPI & OpenMP), running on      14 processor cores
     Number of MPI processes:                 1
     Threads/MPI process:                    14

     MPI processes distributed on     1 nodes
     840192 MiB available memory on the printing compute node when the environment starts
 
     Reading input from pw.in

     Current dimensions of program PWSCF are:
     Max number of different atomic species (ntypx) = 10
     Max number of k-points (npk) =  40000
     Max angular momentum in pseudopotentials (lmaxx) =  4
     file Co.pbe-spn-kjpaw_psl.0.3.1.UPF: wavefunction(s)  3P 3D renormalized
     file O.pbe-n-kjpaw_psl.1.0.0.UPF: wavefunction(s)  2S 2P renormalized
 
     Subspace diagonalization in iterative solution of the eigenvalue problem:
     a serial algorithm will be used

 
     G-vector sticks info
     --------------------
     sticks:   dense  smooth     PW     G-vecs:    dense   smooth      PW
     Sum         931     475    139                81725    28863    4749
 
     Using Slab Decomposition
 


     bravais-lattice index     =            4
     lattice parameter (alat)  =       5.3290  a.u.
     unit-cell volume          =     460.1089 (a.u.)^3
     number of atoms/cell      =            4
     number of atomic types    =            3
     number of electrons       =        32.00
     number of Kohn-Sham states=           24
     kinetic-energy cutoff     =      60.0000  Ry
     charge density cutoff     =     480.0000  Ry
     scf convergence threshold =      1.0E-07
     mixing beta               =       0.3000
     number of iterations used =            8  local-TF  mixing
     Exchange-correlation= SLA  PW   PBX  PBC
                           (   1   4   3   4   0   0   0)

     GPU acceleration is ACTIVE.  1 visible GPUs per MPI rank
     GPU-aware MPI enabled


     GPU used by master process:

        Device Number: 0
        Device name: NVIDIA A100-SXM4-80GB
        Compute capability : 80
        Ratio of single to double precision performance  : 2
        Memory Clock Rate (KHz): 1593000
        Memory Bus Width (bits): 5120
        Peak Memory Bandwidth (GB/s): ******

     celldm(1)=   5.329028  celldm(2)=   0.000000  celldm(3)=   3.510638
     celldm(4)=   0.000000  celldm(5)=   0.000000  celldm(6)=   0.000000

     crystal axes: (cart. coord. in units of alat)
               a(1) = (   1.000000   0.000000   0.000000 )  
               a(2) = (  -0.500000   0.866025   0.000000 )  
               a(3) = (   0.000000   0.000000   3.510638 )  

     reciprocal axes: (cart. coord. in units 2 pi/alat)
               b(1) = (  1.000000  0.577350 -0.000000 )  
               b(2) = (  0.000000  1.154701  0.000000 )  
               b(3) = (  0.000000 -0.000000  0.284848 )  


     PseudoPot. # 1 for Co read from file:
     ../../pseudo/Co.pbe-spn-kjpaw_psl.0.3.1.UPF
     MD5 check sum: 3c0a43779828c046024e4f3be63f8e67
     Pseudo is Projector augmented-wave + core cor, Zval = 17.0
     Generated using &quot;atomic&quot; code by A. Dal Corso  v.6.2.2
     Shape of augmentation charge: PSQ
     Using radial grid of 1193 points,  6 beta functions with: 
                l(1) =   0
                l(2) =   0
                l(3) =   1
                l(4) =   1
                l(5) =   2
                l(6) =   2
     Q(r) pseudized with 0 coefficients 


     PseudoPot. # 2 for O  read from file:
     ../../pseudo/O.pbe-n-kjpaw_psl.1.0.0.UPF
     MD5 check sum: e99d9cef9b487d1ca56f5b95ecd0fd7a
     Pseudo is Projector augmented-wave + core cor, Zval =  6.0
     Generated using &quot;atomic&quot; code by A. Dal Corso  v.6.3
     Shape of augmentation charge: PSQ
     Using radial grid of 1095 points,  4 beta functions with: 
                l(1) =   0
                l(2) =   0
                l(3) =   1
                l(4) =   1
     Q(r) pseudized with 0 coefficients 


     PseudoPot. # 3 for Li read from file:
     ../../pseudo/Li.pbe-s-kjpaw_psl.1.0.0.UPF
     MD5 check sum: 3974953fb0fea6c4f83fb01d64ffc134
     Pseudo is Projector augmented-wave, Zval =  3.0
     Generated using &quot;atomic&quot; code by A. Dal Corso  v.6.3
     Shape of augmentation charge: PSQ
     Using radial grid of 1017 points,  4 beta functions with: 
                l(1) =   0
                l(2) =   0
                l(3) =   1
                l(4) =   1
     Q(r) pseudized with 0 coefficients 


     atomic species   valence    mass     pseudopotential
     Co               17.00    58.93300     Co( 1.00)
     O                 6.00    15.99900     O ( 1.00)
     Li                3.00     6.94100     Li( 1.00)

     Starting magnetic structure 
     atomic species   magnetization
     Co              0.300
     O               0.000
     Li              0.000

      6 Sym. Ops. (no inversion) found


                                    s                        frac. trans.

      isym =  1     identity                                     

 cryst.   s( 1) = (     1          0          0      )
                  (     0          1          0      )
                  (     0          0          1      )

 cart.    s( 1) = (  1.0000000  0.0000000  0.0000000 )
                  (  0.0000000  1.0000000  0.0000000 )
                  (  0.0000000  0.0000000  1.0000000 )


      isym =  2     120 deg rotation - cryst. axis [0,0,1]       

 cryst.   s( 2) = (     0          1          0      )
                  (    -1         -1          0      )
                  (     0          0          1      )

 cart.    s( 2) = ( -0.5000000 -0.8660254  0.0000000 )
                  (  0.8660254 -0.5000000  0.0000000 )
                  (  0.0000000  0.0000000  1.0000000 )


      isym =  3     120 deg rotation - cryst. axis [0,0,-1]      

 cryst.   s( 3) = (    -1         -1          0      )
                  (     1          0          0      )
                  (     0          0          1      )

 cart.    s( 3) = ( -0.5000000  0.8660254  0.0000000 )
                  ( -0.8660254 -0.5000000  0.0000000 )
                  (  0.0000000  0.0000000  1.0000000 )


      isym =  4     inv. 180 deg rotation - cart. axis [1,0,0]   

 cryst.   s( 4) = (    -1          0          0      )
                  (     1          1          0      )
                  (     0          0          1      )

 cart.    s( 4) = ( -1.0000000  0.0000000  0.0000000 )
                  (  0.0000000  1.0000000  0.0000000 )
                  (  0.0000000  0.0000000  1.0000000 )


      isym =  5     inv. 180 deg rotation - cryst. axis [0,1,0]  

 cryst.   s( 5) = (     1          1          0      )
                  (     0         -1          0      )
                  (     0          0          1      )

 cart.    s( 5) = (  0.5000000  0.8660254  0.0000000 )
                  (  0.8660254 -0.5000000  0.0000000 )
                  (  0.0000000  0.0000000  1.0000000 )


      isym =  6     inv. 180 deg rotation - cryst. axis [1,1,0]  

 cryst.   s( 6) = (     0         -1          0      )
                  (    -1          0          0      )
                  (     0          0          1      )

 cart.    s( 6) = (  0.5000000 -0.8660254  0.0000000 )
                  ( -0.8660254 -0.5000000  0.0000000 )
                  (  0.0000000  0.0000000  1.0000000 )


     point group C_3v (3m)  
     there are  3 classes
     the character table:

       E     2C3   3s_v 
A_1    1.00  1.00  1.00
A_2    1.00  1.00 -1.00
E      2.00 -1.00  0.00

     the symmetry operations in each class and the name of the first element:

     E        1
          identity                                               
     2C3      2    3
          120 deg rotation - cryst. axis [0,0,1]                 
     3s_v     4    5    6
          inv. 180 deg rotation - cart. axis [1,0,0]             

   Cartesian axes

     site n.     atom                  positions (alat units)
         1        Co     tau(   1) = (   0.0000000   0.0000000   0.0000000  )
         2        O      tau(   2) = (  -0.0000000   0.5773503   0.3404255  )
         3        O      tau(   3) = (   0.5000000   0.2886751   3.1702128  )
         4        Li     tau(   4) = (   0.0000000   0.0000000   1.8085106  )

   Crystallographic axes

     site n.     atom                  positions (cryst. coord.)
         1        Co     tau(   1) = (  0.0000000  0.0000000  0.0000000  )
         2        O      tau(   2) = (  0.3333333  0.6666667  0.0969697  )
         3        O      tau(   3) = (  0.6666667  0.3333333  0.9030303  )
         4        Li     tau(   4) = (  0.0000000  0.0000000  0.5151515  )

     number of k points=    25  Marzari-Vanderbilt smearing, width (Ry)=  0.0200
                       cart. coord. in units 2pi/alat
        k(    1) = (   0.0000000   0.0000000   0.0000000), wk =   0.0052083
        k(    2) = (   0.0000000   0.0000000   0.0949495), wk =   0.0104167
        k(    3) = (   0.0000000   0.1443376   0.0000000), wk =   0.0312500
        k(    4) = (   0.0000000   0.1443376   0.0949495), wk =   0.0312500
        k(    5) = (   0.0000000   0.2886751   0.0000000), wk =   0.0312500
        k(    6) = (   0.0000000   0.2886751   0.0949495), wk =   0.0312500
        k(    7) = (   0.0000000   0.4330127   0.0000000), wk =   0.0312500
        k(    8) = (   0.0000000   0.4330127   0.0949495), wk =   0.0312500
        k(    9) = (   0.0000000  -0.5773503   0.0000000), wk =   0.0156250
        k(   10) = (   0.0000000  -0.5773503   0.0949495), wk =   0.0312500
        k(   11) = (   0.1250000   0.2165064   0.0000000), wk =   0.0312500
        k(   12) = (   0.1250000   0.2165064   0.0949495), wk =   0.0625000
        k(   13) = (   0.1250000   0.3608439   0.0000000), wk =   0.0625000
        k(   14) = (   0.1250000   0.3608439   0.0949495), wk =   0.0625000
        k(   15) = (   0.1250000   0.5051815   0.0000000), wk =   0.0625000
        k(   16) = (   0.1250000   0.5051815   0.0949495), wk =   0.0625000
        k(   17) = (   0.2500000   0.4330127   0.0000000), wk =   0.0312500
        k(   18) = (   0.2500000   0.4330127   0.0949495), wk =   0.0625000
        k(   19) = (   0.2500000   0.5773503   0.0000000), wk =   0.0312500
        k(   20) = (   0.2500000   0.5773503   0.0949495), wk =   0.0625000
        k(   21) = (   0.0000000  -0.1443376   0.0949495), wk =   0.0312500
        k(   22) = (   0.0000000  -0.2886751   0.0949495), wk =   0.0312500
        k(   23) = (   0.0000000  -0.4330127   0.0949495), wk =   0.0312500
        k(   24) = (  -0.1250000  -0.3608439   0.0949495), wk =   0.0625000
        k(   25) = (  -0.1250000  -0.5051815   0.0949495), wk =   0.0625000

                       cryst. coord.
        k(    1) = (   0.0000000   0.0000000   0.0000000), wk =   0.0052083
        k(    2) = (   0.0000000   0.0000000   0.3333333), wk =   0.0104167
        k(    3) = (   0.0000000   0.1250000   0.0000000), wk =   0.0312500
        k(    4) = (   0.0000000   0.1250000   0.3333333), wk =   0.0312500
        k(    5) = (   0.0000000   0.2500000   0.0000000), wk =   0.0312500
        k(    6) = (   0.0000000   0.2500000   0.3333333), wk =   0.0312500
        k(    7) = (   0.0000000   0.3750000   0.0000000), wk =   0.0312500
        k(    8) = (   0.0000000   0.3750000   0.3333333), wk =   0.0312500
        k(    9) = (   0.0000000  -0.5000000   0.0000000), wk =   0.0156250
        k(   10) = (   0.0000000  -0.5000000   0.3333333), wk =   0.0312500
        k(   11) = (   0.1250000   0.1250000   0.0000000), wk =   0.0312500
        k(   12) = (   0.1250000   0.1250000   0.3333333), wk =   0.0625000
        k(   13) = (   0.1250000   0.2500000   0.0000000), wk =   0.0625000
        k(   14) = (   0.1250000   0.2500000   0.3333333), wk =   0.0625000
        k(   15) = (   0.1250000   0.3750000   0.0000000), wk =   0.0625000
        k(   16) = (   0.1250000   0.3750000   0.3333333), wk =   0.0625000
        k(   17) = (   0.2500000   0.2500000   0.0000000), wk =   0.0312500
        k(   18) = (   0.2500000   0.2500000   0.3333333), wk =   0.0625000
        k(   19) = (   0.2500000   0.3750000   0.0000000), wk =   0.0312500
        k(   20) = (   0.2500000   0.3750000   0.3333333), wk =   0.0625000
        k(   21) = (   0.0000000  -0.1250000   0.3333333), wk =   0.0312500
        k(   22) = (   0.0000000  -0.2500000   0.3333333), wk =   0.0312500
        k(   23) = (   0.0000000  -0.3750000   0.3333333), wk =   0.0312500
        k(   24) = (  -0.1250000  -0.2500000   0.3333333), wk =   0.0625000
        k(   25) = (  -0.1250000  -0.3750000   0.3333333), wk =   0.0625000

     Dense  grid:    81725 G-vectors     FFT dimensions: (  40,  40, 135)

     Smooth grid:    28863 G-vectors     FFT dimensions: (  27,  27,  96)

     Dynamical RAM for                 wfc:       1.32 MB

     Dynamical RAM for     wfc (w. buffer):      67.44 MB

     Dynamical RAM for           str. fact:       3.74 MB

     Dynamical RAM for           local pot:       0.00 MB

     Dynamical RAM for          nlocal pot:       2.31 MB

     Dynamical RAM for                qrad:       5.27 MB

     Dynamical RAM for          rho,v,vnew:      17.37 MB

     Dynamical RAM for               rhoin:       5.79 MB

     Dynamical RAM for            rho*nmix:      39.90 MB

     Dynamical RAM for           G-vectors:       4.90 MB

     Dynamical RAM for          h,s,v(r/c):       0.11 MB

     Dynamical RAM for          <psi|beta>:       0.02 MB

     Dynamical RAM for                 psi:       2.64 MB

     Dynamical RAM for                hpsi:       2.64 MB

     Dynamical RAM for                spsi:       2.64 MB

     Dynamical RAM for      wfcinit/wfcrot:       2.66 MB

     Dynamical RAM for           addusdens:     235.69 MB

     Dynamical RAM for          addusforce:     238.20 MB

     Estimated static dynamical RAM per process >     121.70 MB

     Estimated max dynamical RAM per process >     399.80 MB

     Check: negative core charge=   -0.000006
     Generating pointlists ...
     new r_m :   0.2765 (alat units)  1.4733 (a.u.) for type    1
     new r_m :   0.2765 (alat units)  1.4733 (a.u.) for type    2
     new r_m :   0.4125 (alat units)  2.1982 (a.u.) for type    3

     Initial potential from superposition of free atoms

     starting charge      31.9951, renormalised to      32.0000
     Starting wfcs are   23 randomized atomic wfcs +    1 random wfcs
     Checking if some PAW data can be deallocated... 

     total cpu time spent up to now is        3.5 secs

     Self-consistent Calculation
[tb_dev] Currently allocated     6.36E-01 Mbytes, locked:    0 /   6
[tb_pin] Currently allocated     0.00E+00 Mbytes, locked:    0 /   0

     iteration #  1     ecut=    60.00 Ry     beta= 0.30
     Davidson diagonalization with overlap

---- Real-time Memory Report at c_bands before calling an iterative solver
           695 MiB given to the printing process from OS
             0 MiB allocation reported by mallinfo(arena+hblkhd)
        839856 MiB available memory on the node where the printing process lives
     GPU memory used/free/total (MiB): 1094 / 80056 / 81151
------------------
     ethr =  1.00E-02,  avg # of iterations =  8.3

     total cpu time spent up to now is        5.5 secs

     total energy              =    -474.67082499 Ry
     estimated scf accuracy    <       1.92949985 Ry

     total magnetization       =     4.49 Bohr mag/cell
     absolute magnetization    =     4.50 Bohr mag/cell
[tb_dev] Currently allocated     3.05E-05 Mbytes, locked:    0 /   2
[tb_pin] Currently allocated     0.00E+00 Mbytes, locked:    0 /   0

     iteration #  2     ecut=    60.00 Ry     beta= 0.30
     Davidson diagonalization with overlap

---- Real-time Memory Report at c_bands before calling an iterative solver
           739 MiB given to the printing process from OS
             0 MiB allocation reported by mallinfo(arena+hblkhd)
        839844 MiB available memory on the node where the printing process lives
     GPU memory used/free/total (MiB): 1114 / 80036 / 81151
------------------
     ethr =  6.03E-03,  avg # of iterations =  1.9

     total cpu time spent up to now is        6.7 secs

     total energy              =    -474.77898501 Ry
     estimated scf accuracy    <       1.02122180 Ry

     total magnetization       =     3.28 Bohr mag/cell
     absolute magnetization    =     3.29 Bohr mag/cell
[tb_dev] Currently allocated     3.05E-05 Mbytes, locked:    0 /   2
[tb_pin] Currently allocated     0.00E+00 Mbytes, locked:    0 /   0

     iteration #  3     ecut=    60.00 Ry     beta= 0.30
     Davidson diagonalization with overlap

---- Real-time Memory Report at c_bands before calling an iterative solver
           741 MiB given to the printing process from OS
             0 MiB allocation reported by mallinfo(arena+hblkhd)
        839887 MiB available memory on the node where the printing process lives
     GPU memory used/free/total (MiB): 1114 / 80036 / 81151
------------------
     ethr =  3.19E-03,  avg # of iterations =  1.6

     total cpu time spent up to now is        7.8 secs

     total energy              =    -474.85847452 Ry
     estimated scf accuracy    <       0.62495601 Ry

     total magnetization       =     2.13 Bohr mag/cell
     absolute magnetization    =     2.18 Bohr mag/cell
[tb_dev] Currently allocated     3.05E-05 Mbytes, locked:    0 /   2
[tb_pin] Currently allocated     0.00E+00 Mbytes, locked:    0 /   0

     iteration #  4     ecut=    60.00 Ry     beta= 0.30
     Davidson diagonalization with overlap

---- Real-time Memory Report at c_bands before calling an iterative solver
           745 MiB given to the printing process from OS
             0 MiB allocation reported by mallinfo(arena+hblkhd)
        839893 MiB available memory on the node where the printing process lives
     GPU memory used/free/total (MiB): 1114 / 80036 / 81151
------------------
     ethr =  1.95E-03,  avg # of iterations =  1.2

     total cpu time spent up to now is        8.9 secs

     total energy              =    -474.90298741 Ry
     estimated scf accuracy    <       0.19989781 Ry

     total magnetization       =     1.75 Bohr mag/cell
     absolute magnetization    =     1.91 Bohr mag/cell
[tb_dev] Currently allocated     3.05E-05 Mbytes, locked:    0 /   2
[tb_pin] Currently allocated     0.00E+00 Mbytes, locked:    0 /   0

     iteration #  5     ecut=    60.00 Ry     beta= 0.30
     Davidson diagonalization with overlap

---- Real-time Memory Report at c_bands before calling an iterative solver
           747 MiB given to the printing process from OS
             0 MiB allocation reported by mallinfo(arena+hblkhd)
        839870 MiB available memory on the node where the printing process lives
     GPU memory used/free/total (MiB): 1114 / 80036 / 81151
------------------
     ethr =  6.25E-04,  avg # of iterations =  3.7

     total cpu time spent up to now is       10.3 secs

     total energy              =    -474.96631834 Ry
     estimated scf accuracy    <       0.02646750 Ry

     total magnetization       =     0.81 Bohr mag/cell
     absolute magnetization    =     1.06 Bohr mag/cell
[tb_dev] Currently allocated     3.05E-05 Mbytes, locked:    0 /   2
[tb_pin] Currently allocated     0.00E+00 Mbytes, locked:    0 /   0

     iteration #  6     ecut=    60.00 Ry     beta= 0.30
     Davidson diagonalization with overlap

---- Real-time Memory Report at c_bands before calling an iterative solver
           749 MiB given to the printing process from OS
             0 MiB allocation reported by mallinfo(arena+hblkhd)
        839848 MiB available memory on the node where the printing process lives
     GPU memory used/free/total (MiB): 1114 / 80036 / 81151
------------------
     c_bands:  1 eigenvalues not converged
     c_bands:  2 eigenvalues not converged
     c_bands:  1 eigenvalues not converged
     ethr =  8.27E-05,  avg # of iterations =  9.0

     total cpu time spent up to now is       12.3 secs

     total energy              =    -474.97124961 Ry
     estimated scf accuracy    <       0.02824118 Ry

     total magnetization       =     0.82 Bohr mag/cell
     absolute magnetization    =     0.89 Bohr mag/cell
[tb_dev] Currently allocated     3.05E-05 Mbytes, locked:    0 /   2
[tb_pin] Currently allocated     0.00E+00 Mbytes, locked:    0 /   0

     iteration #  7     ecut=    60.00 Ry     beta= 0.30
     Davidson diagonalization with overlap

---- Real-time Memory Report at c_bands before calling an iterative solver
           751 MiB given to the printing process from OS
             0 MiB allocation reported by mallinfo(arena+hblkhd)
        839808 MiB available memory on the node where the printing process lives
     GPU memory used/free/total (MiB): 1114 / 80036 / 81151
------------------
     ethr =  8.27E-05,  avg # of iterations =  1.6

     total cpu time spent up to now is       13.4 secs

     total energy              =    -474.97247178 Ry
     estimated scf accuracy    <       0.03343325 Ry

     total magnetization       =     0.96 Bohr mag/cell
     absolute magnetization    =     1.00 Bohr mag/cell
[tb_dev] Currently allocated     3.05E-05 Mbytes, locked:    0 /   2
[tb_pin] Currently allocated     0.00E+00 Mbytes, locked:    0 /   0

     iteration #  8     ecut=    60.00 Ry     beta= 0.30
     Davidson diagonalization with overlap

---- Real-time Memory Report at c_bands before calling an iterative solver
           753 MiB given to the printing process from OS
             0 MiB allocation reported by mallinfo(arena+hblkhd)
        839810 MiB available memory on the node where the printing process lives
     GPU memory used/free/total (MiB): 1114 / 80036 / 81151
------------------
     ethr =  8.27E-05,  avg # of iterations =  1.1

     total cpu time spent up to now is       14.5 secs

     total energy              =    -474.97472260 Ry
     estimated scf accuracy    <       0.00713011 Ry

     total magnetization       =     0.83 Bohr mag/cell
     absolute magnetization    =     0.87 Bohr mag/cell
[tb_dev] Currently allocated     3.05E-05 Mbytes, locked:    0 /   2
[tb_pin] Currently allocated     0.00E+00 Mbytes, locked:    0 /   0

     iteration #  9     ecut=    60.00 Ry     beta= 0.30
     Davidson diagonalization with overlap

---- Real-time Memory Report at c_bands before calling an iterative solver
           756 MiB given to the printing process from OS
             0 MiB allocation reported by mallinfo(arena+hblkhd)
        839811 MiB available memory on the node where the printing process lives
     GPU memory used/free/total (MiB): 1114 / 80036 / 81151
------------------
     ethr =  2.23E-05,  avg # of iterations =  2.6

     total cpu time spent up to now is       15.8 secs

     total energy              =    -474.97634678 Ry
     estimated scf accuracy    <       0.00937327 Ry

     total magnetization       =     0.94 Bohr mag/cell
     absolute magnetization    =     0.98 Bohr mag/cell
[tb_dev] Currently allocated     3.05E-05 Mbytes, locked:    0 /   2
[tb_pin] Currently allocated     0.00E+00 Mbytes, locked:    0 /   0

     iteration # 10     ecut=    60.00 Ry     beta= 0.30
     Davidson diagonalization with overlap

---- Real-time Memory Report at c_bands before calling an iterative solver
           759 MiB given to the printing process from OS
             0 MiB allocation reported by mallinfo(arena+hblkhd)
        840316 MiB available memory on the node where the printing process lives
     GPU memory used/free/total (MiB): 1114 / 80036 / 81151
------------------
     ethr =  2.23E-05,  avg # of iterations =  1.4

     total cpu time spent up to now is       16.9 secs

     total energy              =    -474.97669690 Ry
     estimated scf accuracy    <       0.00828971 Ry

     total magnetization       =     0.95 Bohr mag/cell
     absolute magnetization    =     1.00 Bohr mag/cell
[tb_dev] Currently allocated     3.05E-05 Mbytes, locked:    0 /   2
[tb_pin] Currently allocated     0.00E+00 Mbytes, locked:    0 /   0

     iteration # 11     ecut=    60.00 Ry     beta= 0.30
     Davidson diagonalization with overlap

---- Real-time Memory Report at c_bands before calling an iterative solver
           759 MiB given to the printing process from OS
             0 MiB allocation reported by mallinfo(arena+hblkhd)
        840063 MiB available memory on the node where the printing process lives
     GPU memory used/free/total (MiB): 1114 / 80036 / 81151
------------------
     ethr =  2.23E-05,  avg # of iterations =  1.1

     total cpu time spent up to now is       18.0 secs

     total energy              =    -474.97620548 Ry
     estimated scf accuracy    <       0.01078089 Ry

     total magnetization       =     0.95 Bohr mag/cell
     absolute magnetization    =     1.01 Bohr mag/cell
[tb_dev] Currently allocated     3.05E-05 Mbytes, locked:    0 /   2
[tb_pin] Currently allocated     0.00E+00 Mbytes, locked:    0 /   0

     iteration # 12     ecut=    60.00 Ry     beta= 0.30
     Davidson diagonalization with overlap

---- Real-time Memory Report at c_bands before calling an iterative solver
           759 MiB given to the printing process from OS
             0 MiB allocation reported by mallinfo(arena+hblkhd)
        839907 MiB available memory on the node where the printing process lives
     GPU memory used/free/total (MiB): 1114 / 80036 / 81151
------------------
     ethr =  2.23E-05,  avg # of iterations =  1.1

     total cpu time spent up to now is       19.1 secs

     total energy              =    -474.97645133 Ry
     estimated scf accuracy    <       0.00082241 Ry

     total magnetization       =     0.89 Bohr mag/cell
     absolute magnetization    =     0.96 Bohr mag/cell
[tb_dev] Currently allocated     3.05E-05 Mbytes, locked:    0 /   2
[tb_pin] Currently allocated     0.00E+00 Mbytes, locked:    0 /   0

     iteration # 13     ecut=    60.00 Ry     beta= 0.30
     Davidson diagonalization with overlap

---- Real-time Memory Report at c_bands before calling an iterative solver
           759 MiB given to the printing process from OS
             0 MiB allocation reported by mallinfo(arena+hblkhd)
        839886 MiB available memory on the node where the printing process lives
     GPU memory used/free/total (MiB): 1114 / 80036 / 81151
------------------
     ethr =  2.57E-06,  avg # of iterations =  3.9

     total cpu time spent up to now is       20.5 secs

     total energy              =    -474.97656708 Ry
     estimated scf accuracy    <       0.00006585 Ry

     total magnetization       =     0.86 Bohr mag/cell
     absolute magnetization    =     0.95 Bohr mag/cell
[tb_dev] Currently allocated     3.05E-05 Mbytes, locked:    0 /   2
[tb_pin] Currently allocated     0.00E+00 Mbytes, locked:    0 /   0

     iteration # 14     ecut=    60.00 Ry     beta= 0.30
     Davidson diagonalization with overlap

---- Real-time Memory Report at c_bands before calling an iterative solver
           759 MiB given to the printing process from OS
             0 MiB allocation reported by mallinfo(arena+hblkhd)
        839686 MiB available memory on the node where the printing process lives
     GPU memory used/free/total (MiB): 1114 / 80036 / 81151
------------------
     ethr =  2.06E-07,  avg # of iterations =  7.9

     total cpu time spent up to now is       22.5 secs

     total energy              =    -474.97662838 Ry
     estimated scf accuracy    <       0.00000331 Ry

     total magnetization       =     0.86 Bohr mag/cell
     absolute magnetization    =     0.96 Bohr mag/cell
[tb_dev] Currently allocated     3.05E-05 Mbytes, locked:    0 /   2
[tb_pin] Currently allocated     0.00E+00 Mbytes, locked:    0 /   0

     iteration # 15     ecut=    60.00 Ry     beta= 0.30
     Davidson diagonalization with overlap

---- Real-time Memory Report at c_bands before calling an iterative solver
           759 MiB given to the printing process from OS
             0 MiB allocation reported by mallinfo(arena+hblkhd)
        840108 MiB available memory on the node where the printing process lives
     GPU memory used/free/total (MiB): 1114 / 80036 / 81151
------------------
     ethr =  1.03E-08,  avg # of iterations =  6.7

     total cpu time spent up to now is       24.2 secs

     total energy              =    -474.97663428 Ry
     estimated scf accuracy    <       0.00000224 Ry

     total magnetization       =     0.86 Bohr mag/cell
     absolute magnetization    =     0.96 Bohr mag/cell
[tb_dev] Currently allocated     3.05E-05 Mbytes, locked:    0 /   2
[tb_pin] Currently allocated     0.00E+00 Mbytes, locked:    0 /   0

     iteration # 16     ecut=    60.00 Ry     beta= 0.30
     Davidson diagonalization with overlap

---- Real-time Memory Report at c_bands before calling an iterative solver
           760 MiB given to the printing process from OS
             0 MiB allocation reported by mallinfo(arena+hblkhd)
        839768 MiB available memory on the node where the printing process lives
     GPU memory used/free/total (MiB): 1114 / 80036 / 81151
------------------
     ethr =  7.00E-09,  avg # of iterations =  2.0

     total cpu time spent up to now is       25.4 secs

     total energy              =    -474.97664182 Ry
     estimated scf accuracy    <       0.00000096 Ry

     total magnetization       =     0.85 Bohr mag/cell
     absolute magnetization    =     0.97 Bohr mag/cell
[tb_dev] Currently allocated     3.05E-05 Mbytes, locked:    0 /   2
[tb_pin] Currently allocated     0.00E+00 Mbytes, locked:    0 /   0

     iteration # 17     ecut=    60.00 Ry     beta= 0.30
     Davidson diagonalization with overlap

---- Real-time Memory Report at c_bands before calling an iterative solver
           760 MiB given to the printing process from OS
             0 MiB allocation reported by mallinfo(arena+hblkhd)
        839771 MiB available memory on the node where the printing process lives
     GPU memory used/free/total (MiB): 1114 / 80036 / 81151
------------------
     ethr =  2.99E-09,  avg # of iterations =  3.0

     total cpu time spent up to now is       26.7 secs

     total energy              =    -474.97664483 Ry
     estimated scf accuracy    <       0.00000036 Ry

     total magnetization       =     0.85 Bohr mag/cell
     absolute magnetization    =     0.98 Bohr mag/cell
[tb_dev] Currently allocated     3.05E-05 Mbytes, locked:    0 /   2
[tb_pin] Currently allocated     0.00E+00 Mbytes, locked:    0 /   0

     iteration # 18     ecut=    60.00 Ry     beta= 0.30
     Davidson diagonalization with overlap

---- Real-time Memory Report at c_bands before calling an iterative solver
           760 MiB given to the printing process from OS
             0 MiB allocation reported by mallinfo(arena+hblkhd)
        839577 MiB available memory on the node where the printing process lives
     GPU memory used/free/total (MiB): 1114 / 80036 / 81151
------------------
     ethr =  1.11E-09,  avg # of iterations =  3.3

     total cpu time spent up to now is       28.0 secs

     total energy              =    -474.97664831 Ry
     estimated scf accuracy    <       0.00000027 Ry

     total magnetization       =     0.84 Bohr mag/cell
     absolute magnetization    =     0.98 Bohr mag/cell
[tb_dev] Currently allocated     3.05E-05 Mbytes, locked:    0 /   2
[tb_pin] Currently allocated     0.00E+00 Mbytes, locked:    0 /   0

     iteration # 19     ecut=    60.00 Ry     beta= 0.30
     Davidson diagonalization with overlap

---- Real-time Memory Report at c_bands before calling an iterative solver
           760 MiB given to the printing process from OS
             0 MiB allocation reported by mallinfo(arena+hblkhd)
        839542 MiB available memory on the node where the printing process lives
     GPU memory used/free/total (MiB): 1114 / 80036 / 81151
------------------
     ethr =  8.38E-10,  avg # of iterations =  2.9

     total cpu time spent up to now is       29.3 secs

     total energy              =    -474.97665264 Ry
     estimated scf accuracy    <       0.00000026 Ry

     total magnetization       =     0.84 Bohr mag/cell
     absolute magnetization    =     0.98 Bohr mag/cell
[tb_dev] Currently allocated     3.05E-05 Mbytes, locked:    0 /   2
[tb_pin] Currently allocated     0.00E+00 Mbytes, locked:    0 /   0

     iteration # 20     ecut=    60.00 Ry     beta= 0.30
     Davidson diagonalization with overlap

---- Real-time Memory Report at c_bands before calling an iterative solver
           760 MiB given to the printing process from OS
             0 MiB allocation reported by mallinfo(arena+hblkhd)
        839537 MiB available memory on the node where the printing process lives
     GPU memory used/free/total (MiB): 1114 / 80036 / 81151
------------------
     ethr =  8.11E-10,  avg # of iterations =  2.7

     total cpu time spent up to now is       30.6 secs

     total energy              =    -474.97665634 Ry
     estimated scf accuracy    <       0.00000026 Ry

     total magnetization       =     0.83 Bohr mag/cell
     absolute magnetization    =     0.99 Bohr mag/cell
[tb_dev] Currently allocated     3.05E-05 Mbytes, locked:    0 /   2
[tb_pin] Currently allocated     0.00E+00 Mbytes, locked:    0 /   0

     iteration # 21     ecut=    60.00 Ry     beta= 0.30
     Davidson diagonalization with overlap

---- Real-time Memory Report at c_bands before calling an iterative solver
           760 MiB given to the printing process from OS
             0 MiB allocation reported by mallinfo(arena+hblkhd)
        839504 MiB available memory on the node where the printing process lives
     GPU memory used/free/total (MiB): 1114 / 80036 / 81151
------------------
     ethr =  7.99E-10,  avg # of iterations =  2.7

     total cpu time spent up to now is       31.8 secs

     total energy              =    -474.97665136 Ry
     estimated scf accuracy    <       0.00000025 Ry

     total magnetization       =     0.83 Bohr mag/cell
     absolute magnetization    =     0.99 Bohr mag/cell
[tb_dev] Currently allocated     3.05E-05 Mbytes, locked:    0 /   2
[tb_pin] Currently allocated     0.00E+00 Mbytes, locked:    0 /   0

     iteration # 22     ecut=    60.00 Ry     beta= 0.30
     Davidson diagonalization with overlap

---- Real-time Memory Report at c_bands before calling an iterative solver
           761 MiB given to the printing process from OS
             0 MiB allocation reported by mallinfo(arena+hblkhd)
        839478 MiB available memory on the node where the printing process lives
     GPU memory used/free/total (MiB): 1114 / 80036 / 81151
------------------
     ethr =  7.97E-10,  avg # of iterations =  2.0

     total cpu time spent up to now is       33.0 secs

     total energy              =    -474.97663378 Ry
     estimated scf accuracy    <       0.00000025 Ry

     total magnetization       =     0.84 Bohr mag/cell
     absolute magnetization    =     0.99 Bohr mag/cell
[tb_dev] Currently allocated     3.05E-05 Mbytes, locked:    0 /   2
[tb_pin] Currently allocated     0.00E+00 Mbytes, locked:    0 /   0

     iteration # 23     ecut=    60.00 Ry     beta= 0.30
     Davidson diagonalization with overlap

---- Real-time Memory Report at c_bands before calling an iterative solver
           761 MiB given to the printing process from OS
             0 MiB allocation reported by mallinfo(arena+hblkhd)
        839953 MiB available memory on the node where the printing process lives
     GPU memory used/free/total (MiB): 1114 / 80036 / 81151
------------------
     ethr =  7.93E-10,  avg # of iterations =  3.6

     total cpu time spent up to now is       34.4 secs

     total energy              =    -474.97661078 Ry
     estimated scf accuracy    <       0.00000024 Ry

     total magnetization       =     0.85 Bohr mag/cell
     absolute magnetization    =     0.97 Bohr mag/cell
[tb_dev] Currently allocated     3.05E-05 Mbytes, locked:    0 /   2
[tb_pin] Currently allocated     0.00E+00 Mbytes, locked:    0 /   0

     iteration # 24     ecut=    60.00 Ry     beta= 0.30
     Davidson diagonalization with overlap

---- Real-time Memory Report at c_bands before calling an iterative solver
           761 MiB given to the printing process from OS
             0 MiB allocation reported by mallinfo(arena+hblkhd)
        839643 MiB available memory on the node where the printing process lives
     GPU memory used/free/total (MiB): 1114 / 80036 / 81151
------------------
     ethr =  7.43E-10,  avg # of iterations =  4.3

     total cpu time spent up to now is       35.8 secs

     total energy              =    -474.97626142 Ry
     estimated scf accuracy    <       0.00000020 Ry

     total magnetization       =     0.87 Bohr mag/cell
     absolute magnetization    =     0.95 Bohr mag/cell
[tb_dev] Currently allocated     3.05E-05 Mbytes, locked:    0 /   2
[tb_pin] Currently allocated     0.00E+00 Mbytes, locked:    0 /   0

     iteration # 25     ecut=    60.00 Ry     beta= 0.30
     Davidson diagonalization with overlap

---- Real-time Memory Report at c_bands before calling an iterative solver
           761 MiB given to the printing process from OS
             0 MiB allocation reported by mallinfo(arena+hblkhd)
        839642 MiB available memory on the node where the printing process lives
     GPU memory used/free/total (MiB): 1114 / 80036 / 81151
------------------
     ethr =  6.23E-10,  avg # of iterations =  6.7

     total cpu time spent up to now is       37.6 secs

     total energy              =    -474.97659625 Ry
     estimated scf accuracy    <       0.00000032 Ry

     total magnetization       =     0.96 Bohr mag/cell
     absolute magnetization    =     0.98 Bohr mag/cell
[tb_dev] Currently allocated     3.05E-05 Mbytes, locked:    0 /   2
[tb_pin] Currently allocated     0.00E+00 Mbytes, locked:    0 /   0

     iteration # 26     ecut=    60.00 Ry     beta= 0.30
     Davidson diagonalization with overlap

---- Real-time Memory Report at c_bands before calling an iterative solver
           761 MiB given to the printing process from OS
             0 MiB allocation reported by mallinfo(arena+hblkhd)
        839479 MiB available memory on the node where the printing process lives
     GPU memory used/free/total (MiB): 1114 / 80036 / 81151
------------------
     ethr =  6.23E-10,  avg # of iterations =  3.3
 
     Magnetic moment per site  (integrated on atomic sphere of radius R)
     atom   1 (R=0.276)  charge= 14.0087  magn=  0.6753
     atom   2 (R=0.276)  charge=  5.1567  magn=  0.0819
     atom   3 (R=0.276)  charge=  5.1593  magn=  0.0795
     atom   4 (R=0.413)  charge=  2.3495  magn=  0.0209

     total cpu time spent up to now is       38.9 secs

     End of self-consistent calculation

 ------ SPIN UP ------------


          k = 0.0000 0.0000 0.0000 (  3635 PWs)   bands (ev):

   -93.2200 -56.4434 -56.4164 -56.4164 -44.2601 -16.7969 -14.7249  -2.9814
    -2.5578  -2.5578   0.7531   1.0022   1.0022   1.0091   1.4600   1.4600
     2.4899   4.3247   5.2904   5.2904   8.9848  11.9372  12.7008  14.6539

     occupation numbers 
     1.0000   1.0000   1.0000   1.0000   1.0000   1.0000   1.0000   1.0000
     1.0000   1.0000   1.0000   1.0000   1.0000   1.0000   1.0000   1.0000
     1.0827   0.0000   0.0000   0.0000   0.0000   0.0000   0.0000   0.0000

          k = 0.0000 0.0000 0.0949 (  3682 PWs)   bands (ev):

   -93.2201 -56.4436 -56.4166 -56.4166 -44.2602 -16.7969 -14.7249  -2.9799
    -2.5579  -2.5579   0.5782   1.0022   1.0022   1.2539   1.4599   1.4599
     2.4387   4.2517   5.2903   5.2903   9.4247  10.8839  13.4181  14.7464

     occupation numbers 
     1.0000   1.0000   1.0000   1.0000   1.0000   1.0000   1.0000   1.0000
     1.0000   1.0000   1.0000   1.0000   1.0000   1.0000   1.0000   1.0000
     1.0726   0.0000   0.0000   0.0000   0.0000   0.0000   0.0000   0.0000

          k = 0.0000 0.1443 0.0000 (  3637 PWs)   bands (ev):

   -93.2190 -56.4419 -56.4271 -56.4190 -44.2558 -16.6056 -14.7313  -2.7754
    -2.7213  -2.4329   0.0718   0.4367   1.0939   1.2616   1.5814   1.9142
     2.5685   4.5675   4.9437   5.1859   9.4201  12.3581  13.1507  15.2765

     occupation numbers 
     1.0000   1.0000   1.0000   1.0000   1.0000   1.0000   1.0000   1.0000
     1.0000   1.0000   1.0000   1.0000   1.0000   1.0000   1.0000   1.0001
     1.0666   0.0000   0.0000   0.0000   0.0000   0.0000   0.0000   0.0000

          k = 0.0000 0.1443 0.0949 (  3638 PWs)   bands (ev):

   -93.2190 -56.4419 -56.4271 -56.4190 -44.2558 -16.6056 -14.7313  -2.7745
    -2.7210  -2.4329   0.0724   0.4367   0.9248   1.4451   1.6296   1.9142
     2.5156   4.6280   4.8268   5.1859   9.7932  11.3890  13.9976  15.1585

     occupation numbers 
     1.0000   1.0000   1.0000   1.0000   1.0000   1.0000   1.0000   1.0000
     1.0000   1.0000   1.0000   1.0000   1.0000   1.0000   1.0000   1.0001
     1.0828   0.0000   0.0000   0.0000   0.0000   0.0000   0.0000   0.0000

          k = 0.0000 0.2887 0.0000 (  3607 PWs)   bands (ev):

   -93.2165 -56.4530 -56.4379 -56.4250 -44.2454 -16.1026 -14.7605  -2.9786
    -2.2556  -2.1429  -1.3130  -0.1113   1.2709   1.7261   1.9770   2.0975
     2.4493   4.1665   5.0630   5.8223  10.3135  12.9166  13.3078  14.6303

     occupation numbers 
     1.0000   1.0000   1.0000   1.0000   1.0000   1.0000   1.0000   1.0000
     1.0000   1.0000   1.0000   1.0000   1.0000   1.0000   1.0003   1.0022
     1.0754   0.0000   0.0000   0.0000   0.0000   0.0000   0.0000   0.0000

          k = 0.0000 0.2887 0.0949 (  3619 PWs)   bands (ev):

   -93.2165 -56.4530 -56.4380 -56.4250 -44.2454 -16.1026 -14.7605  -2.9789
    -2.2548  -2.1429  -1.3124  -0.1113   1.2624   1.6784   2.0804   2.0975
     2.3891   4.2228   5.0630   5.7450  10.5082  12.5551  13.1706  15.3311

     occupation numbers 
     1.0000   1.0000   1.0000   1.0000   1.0000   1.0000   1.0000   1.0000
     1.0000   1.0000   1.0000   1.0000   1.0000   1.0000   1.0017   1.0022
     1.0564   0.0000   0.0000   0.0000   0.0000   0.0000   0.0000   0.0000

          k = 0.0000 0.4330 0.0000 (  3602 PWs)   bands (ev):

   -93.2140 -56.4788 -56.4341 -56.4311 -44.2351 -15.4972 -14.8421  -3.4408
    -2.2682  -1.9390  -1.2576  -0.2081   0.7388   1.5408   1.7728   2.1053
     3.1570   4.3946   5.1087   7.6123   9.3310  12.5606  13.7035  14.7737

     occupation numbers 
     1.0000   1.0000   1.0000   1.0000   1.0000   1.0000   1.0000   1.0000
     1.0000   1.0000   1.0000   1.0000   1.0000   1.0000   1.0000   1.0025
     0.0310   0.0000   0.0000   0.0000   0.0000   0.0000   0.0000   0.0000

          k = 0.0000 0.4330 0.0949 (  3600 PWs)   bands (ev):

   -93.2140 -56.4788 -56.4340 -56.4311 -44.2351 -15.4972 -14.8421  -3.4408
    -2.2683  -1.9389  -1.2573  -0.2081   0.7399   1.5401   1.7728   2.1071
     3.1397   4.4198   5.1087   7.5887   9.3347  12.6785  13.6411  14.2307

     occupation numbers 
     1.0000   1.0000   1.0000   1.0000   1.0000   1.0000   1.0000   1.0000
     1.0000   1.0000   1.0000   1.0000   1.0000   1.0000   1.0000   1.0026
     0.0386   0.0000   0.0000   0.0000   0.0000   0.0000   0.0000   0.0000

          k = 0.0000-0.5774 0.0000 (  3610 PWs)   bands (ev):

   -93.2129 -56.4896 -56.4337 -56.4325 -44.2308 -15.0605 -15.0422  -3.8513
    -2.0419  -1.9098  -1.1233  -0.0620   0.5160   1.2470   1.4792   2.0026
     3.9515   4.6137   5.1621   8.0021   9.6288  11.0059  14.1091  14.4146

     occupation numbers 
     1.0000   1.0000   1.0000   1.0000   1.0000   1.0000   1.0000   1.0000
     1.0000   1.0000   1.0000   1.0000   1.0000   1.0000   1.0000   1.0004
     0.0000   0.0000   0.0000   0.0000   0.0000   0.0000   0.0000   0.0000

          k = 0.0000-0.5774 0.0949 (  3582 PWs)   bands (ev):

   -93.2129 -56.4895 -56.4336 -56.4324 -44.2307 -15.0605 -15.0422  -3.8513
    -2.0418  -1.9097  -1.1234  -0.0619   0.5173   1.2468   1.4792   2.0021
     3.9433   4.6227   5.1622   7.9937   9.6547  11.0109  14.0485  14.4605

     occupation numbers 
     1.0000   1.0000   1.0000   1.0000   1.0000   1.0000   1.0000   1.0000
     1.0000   1.0000   1.0000   1.0000   1.0000   1.0000   1.0000   1.0004
     0.0000   0.0000   0.0000   0.0000   0.0000   0.0000   0.0000   0.0000

          k = 0.1250 0.2165 0.0000 (  3623 PWs)   bands (ev):

   -93.2172 -56.4441 -56.4392 -56.4245 -44.2485 -16.2581 -14.7483  -2.8863
    -2.3937  -2.2655  -0.7826  -0.2883   1.4215   1.5784   1.7466   2.2203
     2.4956   4.3632   4.9154   5.4782  10.1185  13.0055  13.8640  14.1582

     occupation numbers 
     1.0000   1.0000   1.0000   1.0000   1.0000   1.0000   1.0000   1.0000
     1.0000   1.0000   1.0000   1.0000   1.0000   1.0000   1.0000   1.0120
     1.0831   0.0000   0.0000   0.0000   0.0000   0.0000   0.0000   0.0000

          k = 0.1250 0.2165 0.0949 (  3623 PWs)   bands (ev):

   -93.2172 -56.4441 -56.4392 -56.4244 -44.2485 -16.2581 -14.7483  -2.8867
    -2.3927  -2.2654  -0.7820  -0.2883   1.3484   1.5806   1.8354   2.2466
     2.4539   4.4115   4.8815   5.4330  10.3249  12.3255  14.1553  14.6707

     occupation numbers 
     1.0000   1.0000   1.0000   1.0000   1.0000   1.0000   1.0000   1.0000
     1.0000   1.0000   1.0000   1.0000   1.0000   1.0000   1.0000   1.0163
     1.0766   0.0000   0.0000   0.0000   0.0000   0.0000   0.0000   0.0000

          k = 0.1250 0.3608 0.0000 (  3612 PWs)   bands (ev):

   -93.2147 -56.4674 -56.4355 -56.4330 -44.2381 -15.7039 -14.7957  -3.0139
    -2.4624  -1.8471  -1.3527  -0.6836   1.0580   1.6123   1.9866   2.3622
     2.7706   4.3390   4.8011   6.8977  10.4656  11.6790  13.9305  14.3505

     occupation numbers 
     1.0000   1.0000   1.0000   1.0000   1.0000   1.0000   1.0000   1.0000
     1.0000   1.0000   1.0000   1.0000   1.0000   1.0000   1.0003   1.0472
     0.7196   0.0000   0.0000   0.0000   0.0000   0.0000   0.0000   0.0000

          k = 0.1250 0.3608 0.0949 (  3609 PWs)   bands (ev):

   -93.2147 -56.4674 -56.4355 -56.4330 -44.2381 -15.7039 -14.7957  -3.0141
    -2.4624  -1.8469  -1.3521  -0.6836   1.0573   1.6121   1.9908   2.3531
     2.7668   4.3698   4.7906   6.8740  10.4865  11.7286  13.6396  14.4742

     occupation numbers 
     1.0000   1.0000   1.0000   1.0000   1.0000   1.0000   1.0000   1.0000
     1.0000   1.0000   1.0000   1.0000   1.0000   1.0000   1.0004   1.0441
     0.7297   0.0000   0.0000   0.0000   0.0000   0.0000   0.0000   0.0000

          k = 0.1250 0.5052 0.0000 (  3591 PWs)   bands (ev):

   -93.2129 -56.4837 -56.4395 -56.4324 -44.2308 -15.1946 -14.9096  -3.5422
    -2.4781  -1.5707  -1.0766  -0.6487   0.4358   1.3717   1.6616   2.2334
     3.9573   4.5657   4.8982   8.2404   9.0345  12.3312  12.5764  14.2928

     occupation numbers 
     1.0000   1.0000   1.0000   1.0000   1.0000   1.0000   1.0000   1.0000
     1.0000   1.0000   1.0000   1.0000   1.0000   1.0000   1.0000   1.0140
     0.0000   0.0000   0.0000   0.0000   0.0000   0.0000   0.0000   0.0000

          k = 0.1250 0.5052 0.0949 (  3600 PWs)   bands (ev):

   -93.2129 -56.4837 -56.4396 -56.4325 -44.2308 -15.1946 -14.9096  -3.5423
    -2.4782  -1.5708  -1.0765  -0.6487   0.4365   1.3716   1.6618   2.2327
     3.9495   4.5779   4.8942   8.2372   9.0356  12.3612  12.5622  14.3827

     occupation numbers 
     1.0000   1.0000   1.0000   1.0000   1.0000   1.0000   1.0000   1.0000
     1.0000   1.0000   1.0000   1.0000   1.0000   1.0000   1.0000   1.0139
     0.0000   0.0000   0.0000   0.0000   0.0000   0.0000   0.0000   0.0000

          k = 0.2500 0.4330 0.0000 (  3605 PWs)   bands (ev):

   -93.2129 -56.4756 -56.4478 -56.4324 -44.2308 -15.2541 -14.8516  -2.9386
    -2.8436  -1.7403  -1.0665  -0.9821   0.4315   1.4389   1.7935   2.4493
     3.9556   4.5410   4.5982   8.5722   8.7093  11.5199  14.2318  14.4494

     occupation numbers 
     1.0000   1.0000   1.0000   1.0000   1.0000   1.0000   1.0000   1.0000
     1.0000   1.0000   1.0000   1.0000   1.0000   1.0000   1.0000   1.0754
     0.0000   0.0000   0.0000   0.0000   0.0000   0.0000   0.0000   0.0000

          k = 0.2500 0.4330 0.0949 (  3614 PWs)   bands (ev):

   -93.2129 -56.4756 -56.4478 -56.4325 -44.2308 -15.2541 -14.8517  -2.9386
    -2.8437  -1.7404  -1.0666  -0.9817   0.4314   1.4390   1.7939   2.4471
     3.9649   4.5201   4.6089   8.5720   8.7217  11.4982  14.2100  14.4305

     occupation numbers 
     1.0000   1.0000   1.0000   1.0000   1.0000   1.0000   1.0000   1.0000
     1.0000   1.0000   1.0000   1.0000   1.0000   1.0000   1.0000   1.0749
     0.0000   0.0000   0.0000   0.0000   0.0000   0.0000   0.0000   0.0000

          k = 0.2500 0.5774 0.0000 (  3600 PWs)   bands (ev):

   -93.2122 -56.4762 -56.4565 -56.4314 -44.2278 -14.9918 -14.9397  -3.1171
    -2.7507  -1.9014  -0.9044  -0.7307  -0.0308   1.1146   2.0296   2.3208
     4.5606   4.5727   5.1240   6.9649  10.6649  11.5391  12.1549  14.7199

     occupation numbers 
     1.0000   1.0000   1.0000   1.0000   1.0000   1.0000   1.0000   1.0000
     1.0000   1.0000   1.0000   1.0000   1.0000   1.0000   1.0007   1.0340
     0.0000   0.0000   0.0000   0.0000   0.0000   0.0000   0.0000   0.0000

          k = 0.2500 0.5774 0.0949 (  3599 PWs)   bands (ev):

   -93.2122 -56.4761 -56.4565 -56.4313 -44.2278 -14.9918 -14.9397  -3.1172
    -2.7507  -1.9014  -0.9043  -0.7308  -0.0307   1.1146   2.0297   2.3203
     4.5675   4.5731   5.1156   6.9617  10.6727  11.5347  12.1811  14.7124

     occupation numbers 
     1.0000   1.0000   1.0000   1.0000   1.0000   1.0000   1.0000   1.0000
     1.0000   1.0000   1.0000   1.0000   1.0000   1.0000   1.0007   1.0338
     0.0000   0.0000   0.0000   0.0000   0.0000   0.0000   0.0000   0.0000

          k = 0.0000-0.1443 0.0949 (  3638 PWs)   bands (ev):

   -93.2190 -56.4419 -56.4271 -56.4190 -44.2558 -16.6056 -14.7313  -2.7740
    -2.7215  -2.4329   0.0714   0.4367   0.9272   1.4486   1.6228   1.9141
     2.5213   4.5523   4.9045   5.1859   9.7583  11.4328  13.9875  15.1554

     occupation numbers 
     1.0000   1.0000   1.0000   1.0000   1.0000   1.0000   1.0000   1.0000
     1.0000   1.0000   1.0000   1.0000   1.0000   1.0000   1.0000   1.0001
     1.0822   0.0000   0.0000   0.0000   0.0000   0.0000   0.0000   0.0000

          k = 0.0000-0.2887 0.0949 (  3619 PWs)   bands (ev):

   -93.2165 -56.4530 -56.4380 -56.4250 -44.2454 -16.1026 -14.7605  -2.9788
    -2.2551  -2.1429  -1.3122  -0.1113   1.2556   1.6905   2.0464   2.0975
     2.4377   4.1639   5.0630   5.8059  10.3917  12.6964  13.2245  15.2298

     occupation numbers 
     1.0000   1.0000   1.0000   1.0000   1.0000   1.0000   1.0000   1.0000
     1.0000   1.0000   1.0000   1.0000   1.0000   1.0000   1.0010   1.0022
     1.0722   0.0000   0.0000   0.0000   0.0000   0.0000   0.0000   0.0000

          k = 0.0000-0.4330 0.0949 (  3600 PWs)   bands (ev):

   -93.2140 -56.4789 -56.4341 -56.4311 -44.2351 -15.4972 -14.8421  -3.4409
    -2.2683  -1.9389  -1.2570  -0.2081   0.7385   1.5414   1.7728   2.1023
     3.1601   4.3907   5.1086   7.6361   9.3131  12.4553  13.6232  14.7740

     occupation numbers 
     1.0000   1.0000   1.0000   1.0000   1.0000   1.0000   1.0000   1.0000
     1.0000   1.0000   1.0000   1.0000   1.0000   1.0000   1.0000   1.0024
     0.0297   0.0000   0.0000   0.0000   0.0000   0.0000   0.0000   0.0000

          k =-0.1250-0.3608 0.0949 (  3609 PWs)   bands (ev):

   -93.2147 -56.4674 -56.4355 -56.4330 -44.2381 -15.7039 -14.7957  -3.0141
    -2.4624  -1.8470  -1.3518  -0.6837   1.0559   1.6130   1.9926   2.3384
     2.7919   4.3381   4.8002   6.9003  10.4532  11.6821  13.7891  14.4528

     occupation numbers 
     1.0000   1.0000   1.0000   1.0000   1.0000   1.0000   1.0000   1.0000
     1.0000   1.0000   1.0000   1.0000   1.0000   1.0000   1.0004   1.0393
     0.6619   0.0000   0.0000   0.0000   0.0000   0.0000   0.0000   0.0000

          k =-0.1250-0.5052 0.0949 (  3600 PWs)   bands (ev):

   -93.2129 -56.4837 -56.4396 -56.4325 -44.2308 -15.1946 -14.9096  -3.5423
    -2.4781  -1.5708  -1.0764  -0.6486   0.4360   1.3718   1.6618   2.2320
     3.9595   4.5630   4.8971   8.2332   9.0639  12.3285  12.4965  14.2481

     occupation numbers 
     1.0000   1.0000   1.0000   1.0000   1.0000   1.0000   1.0000   1.0000
     1.0000   1.0000   1.0000   1.0000   1.0000   1.0000   1.0000   1.0138
     0.0000   0.0000   0.0000   0.0000   0.0000   0.0000   0.0000   0.0000

 ------ SPIN DOWN ----------


          k = 0.0000 0.0000 0.0000 (  3635 PWs)   bands (ev):

   -92.3853 -55.6580 -55.6580 -55.5202 -44.2469 -16.6651 -14.5808  -2.5987
    -2.2785  -2.2785   0.9467   1.1327   1.5683   1.5683   1.7206   1.7206
     3.4103   4.4025   5.6510   5.6510   9.0601  12.0319  12.8443  14.7364

     occupation numbers 
     1.0000   1.0000   1.0000   1.0000   1.0000   1.0000   1.0000   1.0000
     1.0000   1.0000   1.0000   1.0000   1.0000   1.0000   1.0000   1.0000
     0.0005   0.0000   0.0000   0.0000   0.0000   0.0000   0.0000   0.0000

          k = 0.0000 0.0000 0.0949 (  3682 PWs)   bands (ev):

   -92.3854 -55.6581 -55.6581 -55.5204 -44.2470 -16.6651 -14.5808  -2.5966
    -2.2785  -2.2785   0.7357   1.4101   1.5682   1.5682   1.7206   1.7206
     3.3383   4.3516   5.6508   5.6508   9.5049  10.9842  13.5378  14.8575

     occupation numbers 
     1.0000   1.0000   1.0000   1.0000   1.0000   1.0000   1.0000   1.0000
     1.0000   1.0000   1.0000   1.0000   1.0000   1.0000   1.0000   1.0000
     0.0019   0.0000   0.0000   0.0000   0.0000   0.0000   0.0000   0.0000

          k = 0.0000 0.1443 0.0000 (  3637 PWs)   bands (ev):

   -92.3842 -55.6691 -55.6606 -55.5185 -44.2426 -16.4727 -14.5862  -2.4703
    -2.3793  -2.1620   0.3709   0.8257   1.2847   1.3977   2.1565   2.3757
     3.4390   4.6939   5.2628   5.5370   9.4920  12.4466  13.2926  15.3689

     occupation numbers 
     1.0000   1.0000   1.0000   1.0000   1.0000   1.0000   1.0000   1.0000
     1.0000   1.0000   1.0000   1.0000   1.0000   1.0000   1.0053   1.0518
     0.0003   0.0000   0.0000   0.0000   0.0000   0.0000   0.0000   0.0000

          k = 0.0000 0.1443 0.0949 (  3638 PWs)   bands (ev):

   -92.3842 -55.6690 -55.6607 -55.5186 -44.2426 -16.4727 -14.5862  -2.4707
    -2.3772  -2.1620   0.3726   0.8257   1.0787   1.6465   2.1677   2.3757
     3.3791   4.7193   5.1921   5.5370   9.8721  11.4834  14.1216  15.2728

     occupation numbers 
     1.0000   1.0000   1.0000   1.0000   1.0000   1.0000   1.0000   1.0000
     1.0000   1.0000   1.0000   1.0000   1.0000   1.0000   1.0062   1.0518
     0.0009   0.0000   0.0000   0.0000   0.0000   0.0000   0.0000   0.0000

          k = 0.0000 0.2887 0.0000 (  3607 PWs)   bands (ev):

   -92.3816 -55.6960 -55.6669 -55.5143 -44.2323 -15.9668 -14.6135  -2.7305
    -1.9324  -1.8920  -1.0406   0.2074   1.5410   2.1145   2.3310   2.6838
     3.2816   4.5560   5.3947   5.9127  10.3792  13.0051  13.3854  14.7766

     occupation numbers 
     1.0000   1.0000   1.0000   1.0000   1.0000   1.0000   1.0000   1.0000
     1.0000   1.0000   1.0000   1.0000   1.0000   1.0029   1.0370   0.9238
     0.0051   0.0000   0.0000   0.0000   0.0000   0.0000   0.0000   0.0000

          k = 0.0000 0.2887 0.0949 (  3619 PWs)   bands (ev):

   -92.3816 -55.6960 -55.6669 -55.5144 -44.2323 -15.9668 -14.6136  -2.7309
    -1.9316  -1.8920  -1.0395   0.2074   1.5163   2.1046   2.3801   2.6837
     3.2525   4.6299   5.3947   5.8157  10.5818  12.6338  13.2618  15.4747

     occupation numbers 
     1.0000   1.0000   1.0000   1.0000   1.0000   1.0000   1.0000   1.0000
     1.0000   1.0000   1.0000   1.0000   1.0000   1.0025   1.0533   0.9238
     0.0080   0.0000   0.0000   0.0000   0.0000   0.0000   0.0000   0.0000

          k = 0.0000 0.4330 0.0000 (  3602 PWs)   bands (ev):

   -92.3790 -55.7229 -55.6732 -55.5103 -44.2220 -15.3569 -14.6944  -3.2243
    -2.1097  -1.6933  -0.8678  -0.0005   0.9779   2.2997   2.4925   2.9077
     3.2714   4.8256   5.4391   7.6784   9.4163  12.6291  13.7663  14.8440

     occupation numbers 
     1.0000   1.0000   1.0000   1.0000   1.0000   1.0000   1.0000   1.0000
     1.0000   1.0000   1.0000   1.0000   1.0000   1.0281   1.0829   0.3538
     0.0060   0.0000   0.0000   0.0000   0.0000   0.0000   0.0000   0.0000

          k = 0.0000 0.4330 0.0949 (  3600 PWs)   bands (ev):

   -92.3790 -55.7229 -55.6732 -55.5102 -44.2220 -15.3569 -14.6944  -3.2244
    -2.1097  -1.6933  -0.8673  -0.0004   0.9792   2.2973   2.4925   2.9148
     3.2522   4.8518   5.4392   7.6500   9.4206  12.7501  13.6977  14.3117

     occupation numbers 
     1.0000   1.0000   1.0000   1.0000   1.0000   1.0000   1.0000   1.0000
     1.0000   1.0000   1.0000   1.0000   1.0000   1.0275   1.0829   0.3371
     0.0081   0.0000   0.0000   0.0000   0.0000   0.0000   0.0000   0.0000

          k = 0.0000-0.5774 0.0000 (  3610 PWs)   bands (ev):

   -92.3779 -55.7340 -55.6759 -55.5086 -44.2178 -14.9181 -14.8941  -3.6553
    -1.9238  -1.6575  -0.7306   0.0424   0.7161   2.1589   2.2974   2.7550
     4.0614   5.0553   5.4974   8.0909   9.6707  11.0889  14.1729  14.4862

     occupation numbers 
     1.0000   1.0000   1.0000   1.0000   1.0000   1.0000   1.0000   1.0000
     1.0000   1.0000   1.0000   1.0000   1.0000   1.0055   1.0275   0.7605
     0.0000   0.0000   0.0000   0.0000   0.0000   0.0000   0.0000   0.0000

          k = 0.0000-0.5774 0.0949 (  3582 PWs)   bands (ev):

   -92.3779 -55.7340 -55.6758 -55.5085 -44.2177 -14.9181 -14.8941  -3.6553
    -1.9237  -1.6575  -0.7307   0.0425   0.7175   2.1584   2.2974   2.7546
     4.0553   5.0628   5.4975   8.0816   9.6980  11.0929  14.1122  14.4865

     occupation numbers 
     1.0000   1.0000   1.0000   1.0000   1.0000   1.0000   1.0000   1.0000
     1.0000   1.0000   1.0000   1.0000   1.0000   1.0054   1.0275   0.7617
     0.0000   0.0000   0.0000   0.0000   0.0000   0.0000   0.0000   0.0000

          k = 0.1250 0.2165 0.0000 (  3623 PWs)   bands (ev):

   -92.3824 -55.6868 -55.6663 -55.5156 -44.2354 -16.1233 -14.6018  -2.6363
    -2.0512  -1.9874  -0.5300   0.0311   1.6213   1.8769   2.2867   2.7407
     3.3511   4.7019   5.2607   5.5863  10.1859  13.0825  13.9955  14.2515

     occupation numbers 
     1.0000   1.0000   1.0000   1.0000   1.0000   1.0000   1.0000   1.0000
     1.0000   1.0000   1.0000   1.0000   1.0000   1.0000   1.0248   0.7967
     0.0015   0.0000   0.0000   0.0000   0.0000   0.0000   0.0000   0.0000

          k = 0.1250 0.2165 0.0949 (  3623 PWs)   bands (ev):

   -92.3824 -55.6868 -55.6663 -55.5156 -44.2354 -16.1233 -14.6019  -2.6367
    -2.0506  -1.9867  -0.5290   0.0311   1.5249   1.9871   2.2866   2.7576
     3.3200   4.7720   5.1958   5.5500  10.3987  12.4118  14.2487  14.7787

     occupation numbers 
     1.0000   1.0000   1.0000   1.0000   1.0000   1.0000   1.0000   1.0000
     1.0000   1.0000   1.0000   1.0000   1.0000   1.0003   1.0248   0.7538
     0.0027   0.0000   0.0000   0.0000   0.0000   0.0000   0.0000   0.0000

          k = 0.1250 0.3608 0.0000 (  3612 PWs)   bands (ev):

   -92.3798 -55.7110 -55.6754 -55.5115 -44.2251 -15.5654 -14.6478  -2.7783
    -2.2662  -1.5954  -0.9993  -0.4337   1.2908   2.3561   2.7903   2.8721
     3.0598   4.7316   5.1411   6.9707  10.5464  11.7593  13.9917  14.4257

     occupation numbers 
     1.0000   1.0000   1.0000   1.0000   1.0000   1.0000   1.0000   1.0000
     1.0000   1.0000   1.0000   1.0000   1.0000   1.0451   0.6661   0.4428
     0.0963   0.0000   0.0000   0.0000   0.0000   0.0000   0.0000   0.0000

          k = 0.1250 0.3608 0.0949 (  3609 PWs)   bands (ev):

   -92.3798 -55.7110 -55.6754 -55.5115 -44.2251 -15.5654 -14.6478  -2.7785
    -2.2662  -1.5953  -0.9983  -0.4337   1.2895   2.3551   2.7618   2.9119
     3.0420   4.7671   5.1286   6.9413  10.5698  11.8099  13.7080  14.5433

     occupation numbers 
     1.0000   1.0000   1.0000   1.0000   1.0000   1.0000   1.0000   1.0000
     1.0000   1.0000   1.0000   1.0000   1.0000   1.0448   0.7429   0.3438
     0.1155   0.0000   0.0000   0.0000   0.0000   0.0000   0.0000   0.0000

          k = 0.1250 0.5052 0.0000 (  3591 PWs)   bands (ev):

   -92.3779 -55.7279 -55.6820 -55.5085 -44.2177 -15.0516 -14.7621  -3.3439
    -2.2985  -1.3562  -0.7472  -0.4451   0.6682   2.3374   2.4306   2.8988
     4.0683   4.9829   5.2421   8.3353   9.0900  12.3983  12.6415  14.3568

     occupation numbers 
     1.0000   1.0000   1.0000   1.0000   1.0000   1.0000   1.0000   1.0000
     1.0000   1.0000   1.0000   1.0000   1.0000   1.0390   1.0702   0.3752
     0.0000   0.0000   0.0000   0.0000   0.0000   0.0000   0.0000   0.0000

          k = 0.1250 0.5052 0.0949 (  3600 PWs)   bands (ev):

   -92.3779 -55.7279 -55.6820 -55.5085 -44.2178 -15.0516 -14.7621  -3.3440
    -2.2985  -1.3562  -0.7472  -0.4452   0.6691   2.3370   2.4309   2.8980
     4.0628   4.9929   5.2385   8.3319   9.0908  12.4278  12.6263  14.4466

     occupation numbers 
     1.0000   1.0000   1.0000   1.0000   1.0000   1.0000   1.0000   1.0000
     1.0000   1.0000   1.0000   1.0000   1.0000   1.0389   1.0702   0.3773
     0.0000   0.0000   0.0000   0.0000   0.0000   0.0000   0.0000   0.0000

          k = 0.2500 0.4330 0.0000 (  3605 PWs)   bands (ev):

   -92.3779 -55.7195 -55.6906 -55.5085 -44.2178 -15.1118 -14.7032  -2.7601
    -2.6166  -1.5807  -0.8398  -0.6100   0.6614   2.4438   2.5400   3.0773
     4.0699   4.9018   4.9775   8.6773   8.7694  11.5744  14.2852  14.5048

     occupation numbers 
     1.0000   1.0000   1.0000   1.0000   1.0000   1.0000   1.0000   1.0000
     1.0000   1.0000   1.0000   1.0000   1.0000   1.0740   1.0785   0.0799
     0.0000   0.0000   0.0000   0.0000   0.0000   0.0000   0.0000   0.0000

          k = 0.2500 0.4330 0.0949 (  3614 PWs)   bands (ev):

   -92.3779 -55.7196 -55.6906 -55.5085 -44.2178 -15.1118 -14.7033  -2.7601
    -2.6168  -1.5807  -0.8399  -0.6096   0.6612   2.4438   2.5407   3.0736
     4.0778   4.8851   4.9867   8.6775   8.7814  11.5518  14.2638  14.4835

     occupation numbers 
     1.0000   1.0000   1.0000   1.0000   1.0000   1.0000   1.0000   1.0000
     1.0000   1.0000   1.0000   1.0000   1.0000   1.0740   1.0783   0.0832
     0.0000   0.0000   0.0000   0.0000   0.0000   0.0000   0.0000   0.0000

          k = 0.2500 0.5774 0.0000 (  3600 PWs)   bands (ev):

   -92.3771 -55.7201 -55.6996 -55.5073 -44.2147 -14.8474 -14.7916  -2.9248
    -2.5602  -1.7506  -0.6649  -0.3954   0.1673   2.1987   2.7474   2.9929
     4.9138   4.9579   5.2435   7.0709  10.7016  11.5923  12.2353  14.7864

     occupation numbers 
     1.0000   1.0000   1.0000   1.0000   1.0000   1.0000   1.0000   1.0000
     1.0000   1.0000   1.0000   1.0000   1.0000   1.0092   0.7800   0.1830
     0.0000   0.0000   0.0000   0.0000   0.0000   0.0000   0.0000   0.0000

          k = 0.2500 0.5774 0.0949 (  3599 PWs)   bands (ev):

   -92.3771 -55.7201 -55.6997 -55.5073 -44.2147 -14.8474 -14.7916  -2.9248
    -2.5602  -1.7507  -0.6649  -0.3955   0.1675   2.1986   2.7476   2.9922
     4.9278   4.9572   5.2292   7.0673  10.7104  11.5868  12.2627  14.7784

     occupation numbers 
     1.0000   1.0000   1.0000   1.0000   1.0000   1.0000   1.0000   1.0000
     1.0000   1.0000   1.0000   1.0000   1.0000   1.0092   0.7796   0.1840
     0.0000   0.0000   0.0000   0.0000   0.0000   0.0000   0.0000   0.0000

          k = 0.0000-0.1443 0.0949 (  3638 PWs)   bands (ev):

   -92.3842 -55.6690 -55.6607 -55.5186 -44.2426 -16.4727 -14.5862  -2.4703
    -2.3775  -2.1620   0.3702   0.8257   1.0867   1.6374   2.1718   2.3757
     3.3840   4.6746   5.2379   5.5370   9.8356  11.5292  14.1085  15.2715

     occupation numbers 
     1.0000   1.0000   1.0000   1.0000   1.0000   1.0000   1.0000   1.0000
     1.0000   1.0000   1.0000   1.0000   1.0000   1.0000   1.0065   1.0518
     0.0008   0.0000   0.0000   0.0000   0.0000   0.0000   0.0000   0.0000

          k = 0.0000-0.2887 0.0949 (  3619 PWs)   bands (ev):

   -92.3816 -55.6960 -55.6669 -55.5144 -44.2323 -15.9669 -14.6136  -2.7308
    -1.9318  -1.8920  -1.0393   0.2074   1.5082   2.1151   2.3800   2.6838
     3.2725   4.5529   5.3947   5.8938  10.4610  12.7817  13.3166  15.3505

     occupation numbers 
     1.0000   1.0000   1.0000   1.0000   1.0000   1.0000   1.0000   1.0000
     1.0000   1.0000   1.0000   1.0000   1.0000   1.0029   1.0532   0.9238
     0.0059   0.0000   0.0000   0.0000   0.0000   0.0000   0.0000   0.0000

          k = 0.0000-0.4330 0.0949 (  3600 PWs)   bands (ev):

   -92.3790 -55.7229 -55.6732 -55.5102 -44.2220 -15.3569 -14.6943  -3.2244
    -2.1097  -1.6932  -0.8669  -0.0004   0.9771   2.2986   2.4925   2.9017
     3.2794   4.8218   5.4391   7.7022   9.3975  12.5229  13.6855  14.8445

     occupation numbers 
     1.0000   1.0000   1.0000   1.0000   1.0000   1.0000   1.0000   1.0000
     1.0000   1.0000   1.0000   1.0000   1.0000   1.0278   1.0829   0.3682
     0.0053   0.0000   0.0000   0.0000   0.0000   0.0000   0.0000   0.0000

          k =-0.1250-0.3608 0.0949 (  3609 PWs)   bands (ev):

   -92.3798 -55.7110 -55.6754 -55.5115 -44.2251 -15.5654 -14.6478  -2.7785
    -2.2662  -1.5954  -0.9980  -0.4337   1.2875   2.3571   2.7842   2.8520
     3.0907   4.7310   5.1402   6.9712  10.5342  11.7633  13.8627  14.5201

     occupation numbers 
     1.0000   1.0000   1.0000   1.0000   1.0000   1.0000   1.0000   1.0000
     1.0000   1.0000   1.0000   1.0000   1.0000   1.0454   0.6830   0.4963
     0.0689   0.0000   0.0000   0.0000   0.0000   0.0000   0.0000   0.0000

          k =-0.1250-0.5052 0.0949 (  3600 PWs)   bands (ev):

   -92.3779 -55.7279 -55.6820 -55.5085 -44.2178 -15.0516 -14.7621  -3.3440
    -2.2985  -1.3562  -0.7470  -0.4451   0.6684   2.3374   2.4308   2.8968
     4.0703   4.9806   5.2414   8.3274   9.1203  12.3956  12.5597  14.3107

     occupation numbers 
     1.0000   1.0000   1.0000   1.0000   1.0000   1.0000   1.0000   1.0000
     1.0000   1.0000   1.0000   1.0000   1.0000   1.0390   1.0702   0.3802
     0.0000   0.0000   0.0000   0.0000   0.0000   0.0000   0.0000   0.0000

     the Fermi energy is     2.8886 ev

!    total energy              =    -474.97659963 Ry
     total all-electron energy =     -3102.848737 Ry
     estimated scf accuracy    <       0.00000009 Ry
     smearing contrib. (-TS)   =       0.00152401 Ry
     internal energy E=F+TS    =    -474.97812364 Ry

     The total energy is F=E-TS. E is the sum of the following terms:
     one-electron contribution =    -808.20280998 Ry
     hartree contribution      =     411.71056118 Ry
     xc contribution           =     -48.89178501 Ry
     ewald contribution        =      77.11724522 Ry
     one-center paw contrib.   =    -106.71133506 Ry
      -> PAW hartree energy AE =     278.00358548 Ry
      -> PAW hartree energy PS =    -276.65786518 Ry
      -> PAW xc energy AE      =    -154.11575390 Ry
      -> PAW xc energy PS      =      46.05869854 Ry
      -> total E_H with PAW    =     413.05628147 Ry
      -> total E_XC with PAW   =    -156.94884036 Ry

     total magnetization       =     0.95 Bohr mag/cell
     absolute magnetization    =     0.97 Bohr mag/cell

     convergence has been achieved in  26 iterations

     Forces acting on atoms (cartesian axes, Ry/au):

     atom    1 type  1   force =    -0.00000000   -0.00000000    0.00234902
     atom    2 type  2   force =     0.00000000    0.00000000   -0.00928065
     atom    3 type  2   force =    -0.00000000   -0.00000000    0.00537418
     atom    4 type  3   force =     0.00000000    0.00000000    0.00155745
     The non-local contrib.  to forces
     atom    1 type  1   force =     0.00000000    0.00000000    0.00083691
     atom    2 type  2   force =     0.00000000    0.00000000   -1.27661116
     atom    3 type  2   force =     0.00000000    0.00000000    1.24705773
     atom    4 type  3   force =     0.00000000    0.00000000    0.00183432
     The ionic contribution  to forces
     atom    1 type  1   force =    -0.00000000   -0.00000000    0.79002329
     atom    2 type  2   force =     0.00000000   -0.00000000   41.12536137
     atom    3 type  2   force =    -0.00000000    0.00000000  -40.56871916
     atom    4 type  3   force =     0.00000000   -0.00000000   -1.34666551
     The local contribution  to forces
     atom    1 type  1   force =    -0.00000000   -0.00000000   -0.78883335
     atom    2 type  2   force =     0.00000001   -0.00000001  -39.86926472
     atom    3 type  2   force =    -0.00000001    0.00000001   39.33786670
     atom    4 type  3   force =    -0.00000000   -0.00000000    1.34636319
     The core correction contribution to forces
     atom    1 type  1   force =    -0.00000000    0.00000000    0.00000174
     atom    2 type  2   force =    -0.00000000    0.00000000    0.01104255
     atom    3 type  2   force =     0.00000000   -0.00000000   -0.01075229
     atom    4 type  3   force =     0.00000000    0.00000000    0.00000000
     The Hubbard contrib.    to forces
     atom    1 type  1   force =     0.00000000    0.00000000    0.00000000
     atom    2 type  2   force =     0.00000000    0.00000000    0.00000000
     atom    3 type  2   force =     0.00000000    0.00000000    0.00000000
     atom    4 type  3   force =     0.00000000    0.00000000    0.00000000
     The SCF correction term to forces
     atom    1 type  1   force =     0.00000000   -0.00000000    0.00033817
     atom    2 type  2   force =     0.00000000   -0.00000000    0.00020906
     atom    3 type  2   force =    -0.00000000    0.00000000   -0.00006105
     atom    4 type  3   force =     0.00000000   -0.00000000    0.00004319

     Total force =     0.011089     Total SCF correction =     0.000405

     Writing all to output data dir ./out/pw.save/ :
     XML data file, charge density, pseudopotentials, collected wavefunctions
 
     init_run     :     13.79s CPU      3.09s WALL (       1 calls)
     electrons    :    137.15s CPU     35.37s WALL (       1 calls)
     forces       :      0.54s CPU      0.50s WALL (       1 calls)

     Called by init_run:
     wfcinit      :      0.33s CPU      0.40s WALL (       1 calls)
     wfcinit:atom :      0.06s CPU      0.07s WALL (      50 calls)
     wfcinit:wfcr :      0.20s CPU      0.24s WALL (      50 calls)
     potinit      :     12.94s CPU      2.14s WALL (       1 calls)
     hinit0       :      0.42s CPU      0.41s WALL (       1 calls)

     Called by electrons:
     c_bands      :     16.64s CPU     16.54s WALL (      26 calls)
     sum_band     :      3.01s CPU      2.94s WALL (      26 calls)
     v_of_rho     :      0.47s CPU      0.22s WALL (      27 calls)
     v_h          :      0.32s CPU      0.05s WALL (      27 calls)
     v_xc         :      0.15s CPU      0.18s WALL (      28 calls)
     newd         :      0.64s CPU      0.49s WALL (      27 calls)
                                        0.49s GPU  (      27 calls)
     PAW_pot      :    118.84s CPU     14.75s WALL (      27 calls)
     mix_rho      :      0.93s CPU      0.88s WALL (      26 calls)

     Called by c_bands:
     init_us_2    :      1.13s CPU      1.06s WALL (    2700 calls)
     cegterg      :     14.39s CPU     14.37s WALL (    1300 calls)

     Called by sum_band:
     sum_band:wei :      0.03s CPU      0.03s WALL (      26 calls)
                                        0.03s GPU  (      26 calls)
     sum_band:loo :      1.88s CPU      1.80s WALL (      26 calls)
                                        1.80s GPU  (      26 calls)
     sum_band:buf :      0.24s CPU      0.27s WALL (    1300 calls)
                                        0.25s GPU  (    1300 calls)
     sum_band:ini :      0.53s CPU      0.52s WALL (    1300 calls)
                                        0.51s GPU  (    1300 calls)
     sum_band:cal :      0.05s CPU      0.08s WALL (    1300 calls)
                                        0.06s GPU  (    1300 calls)
     sum_band:bec :      0.28s CPU      0.30s WALL (    1300 calls)
                                        0.28s GPU  (    1300 calls)
     addusdens    :      0.88s CPU      0.89s WALL (      26 calls)
                                        0.89s GPU  (      26 calls)
     addusd:skk   :      0.00s CPU      0.01s WALL (      78 calls)
                                        0.00s GPU  (      78 calls)

     Called by *egterg:
     cdiaghg      :      4.32s CPU      4.47s WALL (    5776 calls)
                                        4.40s GPU  (    5776 calls)
     cegterg:over :      1.26s CPU      1.31s WALL (    4476 calls)
     cegterg:upda :      0.79s CPU      0.79s WALL (    4476 calls)
     cegterg:last :      0.17s CPU      0.16s WALL (    2488 calls)
     h_psi        :      5.44s CPU      5.42s WALL (    5826 calls)
                                        5.34s GPU  (    5826 calls)
     s_psi        :      0.89s CPU      0.94s WALL (    5826 calls)
     g_psi        :      0.02s CPU      0.11s WALL (    4476 calls)
                                        0.06s GPU  (    4476 calls)

     Called by h_psi:
     h_psi:calbec :      0.17s CPU      0.33s WALL (    5826 calls)
                                        0.26s GPU  (    5826 calls)
     vloc_psi     :      3.83s CPU      3.70s WALL (    5826 calls)
                                        3.63s GPU  (    5826 calls)
     add_vuspsi   :      0.81s CPU      0.97s WALL (    5826 calls)
                                        0.89s GPU  (    5826 calls)

     General routines
     calbec       :      0.19s CPU      0.23s WALL (    7326 calls)
     fft          :      3.70s CPU      0.66s WALL (     688 calls)
                                        0.02s GPU  (     634 calls)
     ffts         :      5.47s CPU      0.94s WALL (    1099 calls)
                                        0.03s GPU  (    1045 calls)
     fftw         :      0.37s CPU      1.29s WALL (   19610 calls)
                                        1.06s GPU  (   19610 calls)
     interpolate  :      9.37s CPU      1.58s WALL (      54 calls)
 
     Parallel routines

     PAW routines
     PAW_pot      :    118.84s CPU     14.75s WALL (      27 calls)
     PAW_symme    :      0.03s CPU      0.01s WALL (      53 calls)
 
     PWSCF        :   2m32.37s CPU     39.47s WALL

 
   This run was terminated on:   3:55:31  12Jul2026            

=------------------------------------------------------------------------------=
   JOB DONE.
=------------------------------------------------------------------------------=
Warning: ieee_divide_by_zero is signaling
Warning: ieee_inexact is signaling
FORTRAN STOP
