
     Program PWSCF v.7.3.1 starts on 12Jul2026 at  5:39:26 

     This program is part of the open-source Quantum ESPRESSO suite
     for quantum simulation of materials; please cite
         "P. Giannozzi et al., J. Phys.:Condens. Matter 21 395502 (2009);
         "P. Giannozzi et al., J. Phys.:Condens. Matter 29 465901 (2017);
         "P. Giannozzi et al., J. Chem. Phys. 152 154105 (2020);
          URL http://www.quantum-espresso.org", 
     in publications or presentations arising from this work. More details at
     http://www.quantum-espresso.org/quote

     Parallel version (MPI & OpenMP), running on      14 processor cores
     Number of MPI processes:                 1
     Threads/MPI process:                    14

     MPI processes distributed on     1 nodes
     1355766 MiB available memory on the printing compute node when the environment starts
 
     Reading input from pw.in

     Current dimensions of program PWSCF are:
     Max number of different atomic species (ntypx) = 10
     Max number of k-points (npk) =  40000
     Max angular momentum in pseudopotentials (lmaxx) =  4
     file Co.pbe-spn-kjpaw_psl.0.3.1.UPF: wavefunction(s)  3P 3D renormalized
     file O.pbe-n-kjpaw_psl.1.0.0.UPF: wavefunction(s)  2S 2P renormalized
     file K.pbe-spn-kjpaw_psl.1.0.0.UPF: wavefunction(s)  3S renormalized
 
     Subspace diagonalization in iterative solution of the eigenvalue problem:
     a serial algorithm will be used

 
     G-vector sticks info
     --------------------
     sticks:   dense  smooth     PW     G-vecs:    dense   smooth      PW
     Sum        1003     499    151                86309    30591    5001
 
     Using Slab Decomposition
 


     bravais-lattice index     =            4
     lattice parameter (alat)  =       5.4802  a.u.
     unit-cell volume          =     486.5847 (a.u.)^3
     number of atoms/cell      =            4
     number of atomic types    =            3
     number of electrons       =        38.00
     number of Kohn-Sham states=           27
     kinetic-energy cutoff     =      60.0000  Ry
     charge density cutoff     =     480.0000  Ry
     scf convergence threshold =      1.0E-07
     mixing beta               =       0.3000
     number of iterations used =            8  local-TF  mixing
     Exchange-correlation= SLA  PW   PBX  PBC
                           (   1   4   3   4   0   0   0)

     GPU acceleration is ACTIVE.  1 visible GPUs per MPI rank
     GPU-aware MPI enabled


     GPU used by master process:

        Device Number: 0
        Device name: NVIDIA A100-SXM4-80GB
        Compute capability : 80
        Ratio of single to double precision performance  : 2
        Memory Clock Rate (KHz): 1593000
        Memory Bus Width (bits): 5120
        Peak Memory Bandwidth (GB/s): ******

     celldm(1)=   5.480206  celldm(2)=   0.000000  celldm(3)=   3.413793
     celldm(4)=   0.000000  celldm(5)=   0.000000  celldm(6)=   0.000000

     crystal axes: (cart. coord. in units of alat)
               a(1) = (   1.000000   0.000000   0.000000 )  
               a(2) = (  -0.500000   0.866025   0.000000 )  
               a(3) = (   0.000000   0.000000   3.413793 )  

     reciprocal axes: (cart. coord. in units 2 pi/alat)
               b(1) = (  1.000000  0.577350 -0.000000 )  
               b(2) = (  0.000000  1.154701  0.000000 )  
               b(3) = (  0.000000 -0.000000  0.292929 )  


     PseudoPot. # 1 for Co read from file:
     ../../pseudo/Co.pbe-spn-kjpaw_psl.0.3.1.UPF
     MD5 check sum: 3c0a43779828c046024e4f3be63f8e67
     Pseudo is Projector augmented-wave + core cor, Zval = 17.0
     Generated using &quot;atomic&quot; code by A. Dal Corso  v.6.2.2
     Shape of augmentation charge: PSQ
     Using radial grid of 1193 points,  6 beta functions with: 
                l(1) =   0
                l(2) =   0
                l(3) =   1
                l(4) =   1
                l(5) =   2
                l(6) =   2
     Q(r) pseudized with 0 coefficients 


     PseudoPot. # 2 for O  read from file:
     ../../pseudo/O.pbe-n-kjpaw_psl.1.0.0.UPF
     MD5 check sum: e99d9cef9b487d1ca56f5b95ecd0fd7a
     Pseudo is Projector augmented-wave + core cor, Zval =  6.0
     Generated using &quot;atomic&quot; code by A. Dal Corso  v.6.3
     Shape of augmentation charge: PSQ
     Using radial grid of 1095 points,  4 beta functions with: 
                l(1) =   0
                l(2) =   0
                l(3) =   1
                l(4) =   1
     Q(r) pseudized with 0 coefficients 


     PseudoPot. # 3 for K  read from file:
     ../../pseudo/K.pbe-spn-kjpaw_psl.1.0.0.UPF
     MD5 check sum: 34cc42130a09071ebe376fd42eb21491
     Pseudo is Projector augmented-wave + core cor, Zval =  9.0
     Generated using &quot;atomic&quot; code by A. Dal Corso  v.6.2.2
     Shape of augmentation charge: PSQ
     Using radial grid of 1165 points,  6 beta functions with: 
                l(1) =   0
                l(2) =   0
                l(3) =   1
                l(4) =   1
                l(5) =   2
                l(6) =   2
     Q(r) pseudized with 0 coefficients 


     atomic species   valence    mass     pseudopotential
     Co               17.00    58.93300     Co( 1.00)
     O                 6.00    15.99900     O ( 1.00)
     K                 9.00    39.09830     K ( 1.00)

     Starting magnetic structure 
     atomic species   magnetization
     Co              0.300
     O               0.000
     K               0.000

      6 Sym. Ops. (no inversion) found


                                    s                        frac. trans.

      isym =  1     identity                                     

 cryst.   s( 1) = (     1          0          0      )
                  (     0          1          0      )
                  (     0          0          1      )

 cart.    s( 1) = (  1.0000000  0.0000000  0.0000000 )
                  (  0.0000000  1.0000000  0.0000000 )
                  (  0.0000000  0.0000000  1.0000000 )


      isym =  2     120 deg rotation - cryst. axis [0,0,1]       

 cryst.   s( 2) = (     0          1          0      )
                  (    -1         -1          0      )
                  (     0          0          1      )

 cart.    s( 2) = ( -0.5000000 -0.8660254  0.0000000 )
                  (  0.8660254 -0.5000000  0.0000000 )
                  (  0.0000000  0.0000000  1.0000000 )


      isym =  3     120 deg rotation - cryst. axis [0,0,-1]      

 cryst.   s( 3) = (    -1         -1          0      )
                  (     1          0          0      )
                  (     0          0          1      )

 cart.    s( 3) = ( -0.5000000  0.8660254  0.0000000 )
                  ( -0.8660254 -0.5000000  0.0000000 )
                  (  0.0000000  0.0000000  1.0000000 )


      isym =  4     inv. 180 deg rotation - cart. axis [1,0,0]   

 cryst.   s( 4) = (    -1          0          0      )
                  (     1          1          0      )
                  (     0          0          1      )

 cart.    s( 4) = ( -1.0000000  0.0000000  0.0000000 )
                  (  0.0000000  1.0000000  0.0000000 )
                  (  0.0000000  0.0000000  1.0000000 )


      isym =  5     inv. 180 deg rotation - cryst. axis [0,1,0]  

 cryst.   s( 5) = (     1          1          0      )
                  (     0         -1          0      )
                  (     0          0          1      )

 cart.    s( 5) = (  0.5000000  0.8660254  0.0000000 )
                  (  0.8660254 -0.5000000  0.0000000 )
                  (  0.0000000  0.0000000  1.0000000 )


      isym =  6     inv. 180 deg rotation - cryst. axis [1,1,0]  

 cryst.   s( 6) = (     0         -1          0      )
                  (    -1          0          0      )
                  (     0          0          1      )

 cart.    s( 6) = (  0.5000000 -0.8660254  0.0000000 )
                  ( -0.8660254 -0.5000000  0.0000000 )
                  (  0.0000000  0.0000000  1.0000000 )


     point group C_3v (3m)  
     there are  3 classes
     the character table:

       E     2C3   3s_v 
A_1    1.00  1.00  1.00
A_2    1.00  1.00 -1.00
E      2.00 -1.00  0.00

     the symmetry operations in each class and the name of the first element:

     E        1
          identity                                               
     2C3      2    3
          120 deg rotation - cryst. axis [0,0,1]                 
     3s_v     4    5    6
          inv. 180 deg rotation - cart. axis [1,0,0]             

   Cartesian axes

     site n.     atom                  positions (alat units)
         1        Co     tau(   1) = (   0.0000000   0.0000000   0.0000000  )
         2        O      tau(   2) = (  -0.0000000   0.5773503   0.3310345  )
         3        O      tau(   3) = (   0.5000000   0.2886751   3.0827586  )
         4        K      tau(   4) = (   0.0000000   0.0000000   1.8103448  )

   Crystallographic axes

     site n.     atom                  positions (cryst. coord.)
         1        Co     tau(   1) = (  0.0000000  0.0000000  0.0000000  )
         2        O      tau(   2) = (  0.3333333  0.6666667  0.0969697  )
         3        O      tau(   3) = (  0.6666667  0.3333333  0.9030303  )
         4        K      tau(   4) = (  0.0000000  0.0000000  0.5303030  )

     number of k points=    25  Marzari-Vanderbilt smearing, width (Ry)=  0.0200
                       cart. coord. in units 2pi/alat
        k(    1) = (   0.0000000   0.0000000   0.0000000), wk =   0.0052083
        k(    2) = (   0.0000000   0.0000000   0.0976431), wk =   0.0104167
        k(    3) = (   0.0000000   0.1443376   0.0000000), wk =   0.0312500
        k(    4) = (   0.0000000   0.1443376   0.0976431), wk =   0.0312500
        k(    5) = (   0.0000000   0.2886751   0.0000000), wk =   0.0312500
        k(    6) = (   0.0000000   0.2886751   0.0976431), wk =   0.0312500
        k(    7) = (   0.0000000   0.4330127   0.0000000), wk =   0.0312500
        k(    8) = (   0.0000000   0.4330127   0.0976431), wk =   0.0312500
        k(    9) = (   0.0000000  -0.5773503   0.0000000), wk =   0.0156250
        k(   10) = (   0.0000000  -0.5773503   0.0976431), wk =   0.0312500
        k(   11) = (   0.1250000   0.2165064   0.0000000), wk =   0.0312500
        k(   12) = (   0.1250000   0.2165064   0.0976431), wk =   0.0625000
        k(   13) = (   0.1250000   0.3608439   0.0000000), wk =   0.0625000
        k(   14) = (   0.1250000   0.3608439   0.0976431), wk =   0.0625000
        k(   15) = (   0.1250000   0.5051815   0.0000000), wk =   0.0625000
        k(   16) = (   0.1250000   0.5051815   0.0976431), wk =   0.0625000
        k(   17) = (   0.2500000   0.4330127   0.0000000), wk =   0.0312500
        k(   18) = (   0.2500000   0.4330127   0.0976431), wk =   0.0625000
        k(   19) = (   0.2500000   0.5773503   0.0000000), wk =   0.0312500
        k(   20) = (   0.2500000   0.5773503   0.0976431), wk =   0.0625000
        k(   21) = (   0.0000000  -0.1443376   0.0976431), wk =   0.0312500
        k(   22) = (   0.0000000  -0.2886751   0.0976431), wk =   0.0312500
        k(   23) = (   0.0000000  -0.4330127   0.0976431), wk =   0.0312500
        k(   24) = (  -0.1250000  -0.3608439   0.0976431), wk =   0.0625000
        k(   25) = (  -0.1250000  -0.5051815   0.0976431), wk =   0.0625000

                       cryst. coord.
        k(    1) = (   0.0000000   0.0000000   0.0000000), wk =   0.0052083
        k(    2) = (   0.0000000   0.0000000   0.3333333), wk =   0.0104167
        k(    3) = (   0.0000000   0.1250000   0.0000000), wk =   0.0312500
        k(    4) = (   0.0000000   0.1250000   0.3333333), wk =   0.0312500
        k(    5) = (   0.0000000   0.2500000   0.0000000), wk =   0.0312500
        k(    6) = (   0.0000000   0.2500000   0.3333333), wk =   0.0312500
        k(    7) = (   0.0000000   0.3750000   0.0000000), wk =   0.0312500
        k(    8) = (   0.0000000   0.3750000   0.3333333), wk =   0.0312500
        k(    9) = (   0.0000000  -0.5000000   0.0000000), wk =   0.0156250
        k(   10) = (   0.0000000  -0.5000000   0.3333333), wk =   0.0312500
        k(   11) = (   0.1250000   0.1250000   0.0000000), wk =   0.0312500
        k(   12) = (   0.1250000   0.1250000   0.3333333), wk =   0.0625000
        k(   13) = (   0.1250000   0.2500000   0.0000000), wk =   0.0625000
        k(   14) = (   0.1250000   0.2500000   0.3333333), wk =   0.0625000
        k(   15) = (   0.1250000   0.3750000   0.0000000), wk =   0.0625000
        k(   16) = (   0.1250000   0.3750000   0.3333333), wk =   0.0625000
        k(   17) = (   0.2500000   0.2500000   0.0000000), wk =   0.0312500
        k(   18) = (   0.2500000   0.2500000   0.3333333), wk =   0.0625000
        k(   19) = (   0.2500000   0.3750000   0.0000000), wk =   0.0312500
        k(   20) = (   0.2500000   0.3750000   0.3333333), wk =   0.0625000
        k(   21) = (   0.0000000  -0.1250000   0.3333333), wk =   0.0312500
        k(   22) = (   0.0000000  -0.2500000   0.3333333), wk =   0.0312500
        k(   23) = (   0.0000000  -0.3750000   0.3333333), wk =   0.0312500
        k(   24) = (  -0.1250000  -0.2500000   0.3333333), wk =   0.0625000
        k(   25) = (  -0.1250000  -0.3750000   0.3333333), wk =   0.0625000

     Dense  grid:    86309 G-vectors     FFT dimensions: (  40,  40, 135)

     Smooth grid:    30591 G-vectors     FFT dimensions: (  27,  27,  96)

     Dynamical RAM for                 wfc:       1.57 MB

     Dynamical RAM for     wfc (w. buffer):      80.24 MB

     Dynamical RAM for           str. fact:       3.95 MB

     Dynamical RAM for           local pot:       0.00 MB

     Dynamical RAM for          nlocal pot:       3.03 MB

     Dynamical RAM for                qrad:       5.27 MB

     Dynamical RAM for          rho,v,vnew:      17.79 MB

     Dynamical RAM for               rhoin:       5.93 MB

     Dynamical RAM for            rho*nmix:      42.14 MB

     Dynamical RAM for           G-vectors:       5.17 MB

     Dynamical RAM for          h,s,v(r/c):       0.13 MB

     Dynamical RAM for          <psi|beta>:       0.02 MB

     Dynamical RAM for                 psi:       3.15 MB

     Dynamical RAM for                hpsi:       3.15 MB

     Dynamical RAM for                spsi:       3.15 MB

     Dynamical RAM for      wfcinit/wfcrot:       3.16 MB

     Dynamical RAM for           addusdens:     248.91 MB

     Dynamical RAM for          addusforce:     251.56 MB

     Estimated static dynamical RAM per process >     136.54 MB

     Estimated max dynamical RAM per process >     430.24 MB

     Check: negative core charge=   -0.000006
     Generating pointlists ...
     new r_m :   0.2745 (alat units)  1.5045 (a.u.) for type    1
     new r_m :   0.2745 (alat units)  1.5045 (a.u.) for type    2
     new r_m :   0.4125 (alat units)  2.2606 (a.u.) for type    3

     Initial potential from superposition of free atoms

     starting charge      37.9809, renormalised to      38.0000
     Starting wfcs are   26 randomized atomic wfcs +    1 random wfcs
     Checking if some PAW data can be deallocated... 

     total cpu time spent up to now is        3.7 secs

     Self-consistent Calculation
[tb_dev] Currently allocated     6.58E-01 Mbytes, locked:    0 /   6
[tb_pin] Currently allocated     0.00E+00 Mbytes, locked:    0 /   0

     iteration #  1     ecut=    60.00 Ry     beta= 0.30
     Davidson diagonalization with overlap

---- Real-time Memory Report at c_bands before calling an iterative solver
           715 MiB given to the printing process from OS
             0 MiB allocation reported by mallinfo(arena+hblkhd)
       1352478 MiB available memory on the node where the printing process lives
     GPU memory used/free/total (MiB): 1110 / 80040 / 81151
------------------
     ethr =  1.00E-02,  avg # of iterations =  8.0

     total cpu time spent up to now is        5.9 secs

     total energy              =    -572.69101035 Ry
     estimated scf accuracy    <       2.13883043 Ry

     total magnetization       =     4.02 Bohr mag/cell
     absolute magnetization    =     4.02 Bohr mag/cell
[tb_dev] Currently allocated     3.05E-05 Mbytes, locked:    0 /   2
[tb_pin] Currently allocated     0.00E+00 Mbytes, locked:    0 /   0

     iteration #  2     ecut=    60.00 Ry     beta= 0.30
     Davidson diagonalization with overlap

---- Real-time Memory Report at c_bands before calling an iterative solver
           760 MiB given to the printing process from OS
             0 MiB allocation reported by mallinfo(arena+hblkhd)
       1351716 MiB available memory on the node where the printing process lives
     GPU memory used/free/total (MiB): 1130 / 80020 / 81151
------------------
     ethr =  5.63E-03,  avg # of iterations =  1.9

     total cpu time spent up to now is        7.3 secs

     total energy              =    -572.66382689 Ry
     estimated scf accuracy    <       1.11956070 Ry

     total magnetization       =     3.84 Bohr mag/cell
     absolute magnetization    =     3.84 Bohr mag/cell
[tb_dev] Currently allocated     3.05E-05 Mbytes, locked:    0 /   2
[tb_pin] Currently allocated     0.00E+00 Mbytes, locked:    0 /   0

     iteration #  3     ecut=    60.00 Ry     beta= 0.30
     Davidson diagonalization with overlap

---- Real-time Memory Report at c_bands before calling an iterative solver
           762 MiB given to the printing process from OS
             0 MiB allocation reported by mallinfo(arena+hblkhd)
       1350366 MiB available memory on the node where the printing process lives
     GPU memory used/free/total (MiB): 1130 / 80020 / 81151
------------------
     ethr =  2.95E-03,  avg # of iterations =  2.3

     total cpu time spent up to now is        8.7 secs

     total energy              =    -572.84278026 Ry
     estimated scf accuracy    <       1.50476000 Ry

     total magnetization       =     1.41 Bohr mag/cell
     absolute magnetization    =     1.54 Bohr mag/cell
[tb_dev] Currently allocated     3.05E-05 Mbytes, locked:    0 /   2
[tb_pin] Currently allocated     0.00E+00 Mbytes, locked:    0 /   0

     iteration #  4     ecut=    60.00 Ry     beta= 0.30
     Davidson diagonalization with overlap

---- Real-time Memory Report at c_bands before calling an iterative solver
           763 MiB given to the printing process from OS
             0 MiB allocation reported by mallinfo(arena+hblkhd)
       1347993 MiB available memory on the node where the printing process lives
     GPU memory used/free/total (MiB): 1130 / 80020 / 81151
------------------
     ethr =  2.95E-03,  avg # of iterations =  1.2

     total cpu time spent up to now is       10.0 secs

     total energy              =    -572.86651823 Ry
     estimated scf accuracy    <       1.91146050 Ry

     total magnetization       =     1.19 Bohr mag/cell
     absolute magnetization    =     1.39 Bohr mag/cell
[tb_dev] Currently allocated     3.05E-05 Mbytes, locked:    0 /   2
[tb_pin] Currently allocated     0.00E+00 Mbytes, locked:    0 /   0

     iteration #  5     ecut=    60.00 Ry     beta= 0.30
     Davidson diagonalization with overlap

---- Real-time Memory Report at c_bands before calling an iterative solver
           765 MiB given to the printing process from OS
             0 MiB allocation reported by mallinfo(arena+hblkhd)
       1345335 MiB available memory on the node where the printing process lives
     GPU memory used/free/total (MiB): 1130 / 80020 / 81151
------------------
     ethr =  2.95E-03,  avg # of iterations =  2.2

     total cpu time spent up to now is       11.4 secs

     total energy              =    -572.71004235 Ry
     estimated scf accuracy    <       1.23227750 Ry

     total magnetization       =     0.38 Bohr mag/cell
     absolute magnetization    =     0.93 Bohr mag/cell
[tb_dev] Currently allocated     3.05E-05 Mbytes, locked:    0 /   2
[tb_pin] Currently allocated     0.00E+00 Mbytes, locked:    0 /   0

     iteration #  6     ecut=    60.00 Ry     beta= 0.30
     Davidson diagonalization with overlap

---- Real-time Memory Report at c_bands before calling an iterative solver
           766 MiB given to the printing process from OS
             0 MiB allocation reported by mallinfo(arena+hblkhd)
       1360890 MiB available memory on the node where the printing process lives
     GPU memory used/free/total (MiB): 1130 / 80020 / 81151
------------------
     ethr =  2.95E-03,  avg # of iterations =  1.4

     total cpu time spent up to now is       12.7 secs

     total energy              =    -572.80518207 Ry
     estimated scf accuracy    <       0.82694475 Ry

     total magnetization       =     1.26 Bohr mag/cell
     absolute magnetization    =     1.38 Bohr mag/cell
[tb_dev] Currently allocated     3.05E-05 Mbytes, locked:    0 /   2
[tb_pin] Currently allocated     0.00E+00 Mbytes, locked:    0 /   0

     iteration #  7     ecut=    60.00 Ry     beta= 0.30
     Davidson diagonalization with overlap

---- Real-time Memory Report at c_bands before calling an iterative solver
           768 MiB given to the printing process from OS
             0 MiB allocation reported by mallinfo(arena+hblkhd)
       1360757 MiB available memory on the node where the printing process lives
     GPU memory used/free/total (MiB): 1130 / 80020 / 81151
------------------
     ethr =  2.18E-03,  avg # of iterations =  1.1

     total cpu time spent up to now is       14.0 secs

     total energy              =    -572.83587573 Ry
     estimated scf accuracy    <       0.06737380 Ry

     total magnetization       =     0.62 Bohr mag/cell
     absolute magnetization    =     0.97 Bohr mag/cell
[tb_dev] Currently allocated     3.05E-05 Mbytes, locked:    0 /   2
[tb_pin] Currently allocated     0.00E+00 Mbytes, locked:    0 /   0

     iteration #  8     ecut=    60.00 Ry     beta= 0.30
     Davidson diagonalization with overlap

---- Real-time Memory Report at c_bands before calling an iterative solver
           771 MiB given to the printing process from OS
             0 MiB allocation reported by mallinfo(arena+hblkhd)
       1359394 MiB available memory on the node where the printing process lives
     GPU memory used/free/total (MiB): 1130 / 80020 / 81151
------------------
     c_bands:  2 eigenvalues not converged
     c_bands:  1 eigenvalues not converged
     ethr =  1.77E-04,  avg # of iterations =  7.6

     total cpu time spent up to now is       16.1 secs

     total energy              =    -572.84070350 Ry
     estimated scf accuracy    <       0.05015773 Ry

     total magnetization       =     0.69 Bohr mag/cell
     absolute magnetization    =     0.97 Bohr mag/cell
[tb_dev] Currently allocated     3.05E-05 Mbytes, locked:    0 /   2
[tb_pin] Currently allocated     0.00E+00 Mbytes, locked:    0 /   0

     iteration #  9     ecut=    60.00 Ry     beta= 0.30
     Davidson diagonalization with overlap

---- Real-time Memory Report at c_bands before calling an iterative solver
           773 MiB given to the printing process from OS
             0 MiB allocation reported by mallinfo(arena+hblkhd)
       1357487 MiB available memory on the node where the printing process lives
     GPU memory used/free/total (MiB): 1130 / 80020 / 81151
------------------
     c_bands:  1 eigenvalues not converged
     ethr =  1.32E-04,  avg # of iterations =  2.6

     total cpu time spent up to now is       17.5 secs

     total energy              =    -572.83448274 Ry
     estimated scf accuracy    <       0.07220598 Ry

     total magnetization       =     0.58 Bohr mag/cell
     absolute magnetization    =     0.71 Bohr mag/cell
[tb_dev] Currently allocated     3.05E-05 Mbytes, locked:    0 /   2
[tb_pin] Currently allocated     0.00E+00 Mbytes, locked:    0 /   0

     iteration # 10     ecut=    60.00 Ry     beta= 0.30
     Davidson diagonalization with overlap

---- Real-time Memory Report at c_bands before calling an iterative solver
           775 MiB given to the printing process from OS
             0 MiB allocation reported by mallinfo(arena+hblkhd)
       1355959 MiB available memory on the node where the printing process lives
     GPU memory used/free/total (MiB): 1130 / 80020 / 81151
------------------
     ethr =  1.32E-04,  avg # of iterations =  3.2

     total cpu time spent up to now is       19.1 secs

     total energy              =    -572.84654650 Ry
     estimated scf accuracy    <       0.09783495 Ry

     total magnetization       =     0.76 Bohr mag/cell
     absolute magnetization    =     0.83 Bohr mag/cell
[tb_dev] Currently allocated     3.05E-05 Mbytes, locked:    0 /   2
[tb_pin] Currently allocated     0.00E+00 Mbytes, locked:    0 /   0

     iteration # 11     ecut=    60.00 Ry     beta= 0.30
     Davidson diagonalization with overlap

---- Real-time Memory Report at c_bands before calling an iterative solver
           776 MiB given to the printing process from OS
             0 MiB allocation reported by mallinfo(arena+hblkhd)
       1354662 MiB available memory on the node where the printing process lives
     GPU memory used/free/total (MiB): 1130 / 80020 / 81151
------------------
     ethr =  1.32E-04,  avg # of iterations =  1.0

     total cpu time spent up to now is       20.3 secs

     total energy              =    -572.84948465 Ry
     estimated scf accuracy    <       0.01323655 Ry

     total magnetization       =     0.67 Bohr mag/cell
     absolute magnetization    =     0.74 Bohr mag/cell
[tb_dev] Currently allocated     3.05E-05 Mbytes, locked:    0 /   2
[tb_pin] Currently allocated     0.00E+00 Mbytes, locked:    0 /   0

     iteration # 12     ecut=    60.00 Ry     beta= 0.30
     Davidson diagonalization with overlap

---- Real-time Memory Report at c_bands before calling an iterative solver
           776 MiB given to the printing process from OS
             0 MiB allocation reported by mallinfo(arena+hblkhd)
       1353733 MiB available memory on the node where the printing process lives
     GPU memory used/free/total (MiB): 1130 / 80020 / 81151
------------------
     c_bands:  1 eigenvalues not converged
     c_bands:  1 eigenvalues not converged
     c_bands:  1 eigenvalues not converged
     ethr =  3.48E-05,  avg # of iterations =  4.4

     total cpu time spent up to now is       22.0 secs

     total energy              =    -572.84964302 Ry
     estimated scf accuracy    <       0.01500483 Ry

     total magnetization       =     0.73 Bohr mag/cell
     absolute magnetization    =     0.82 Bohr mag/cell
[tb_dev] Currently allocated     3.05E-05 Mbytes, locked:    0 /   2
[tb_pin] Currently allocated     0.00E+00 Mbytes, locked:    0 /   0

     iteration # 13     ecut=    60.00 Ry     beta= 0.30
     Davidson diagonalization with overlap

---- Real-time Memory Report at c_bands before calling an iterative solver
           776 MiB given to the printing process from OS
             0 MiB allocation reported by mallinfo(arena+hblkhd)
       1352247 MiB available memory on the node where the printing process lives
     GPU memory used/free/total (MiB): 1130 / 80020 / 81151
------------------
     ethr =  3.48E-05,  avg # of iterations =  1.2

     total cpu time spent up to now is       23.3 secs

     total energy              =    -572.85010556 Ry
     estimated scf accuracy    <       0.00039269 Ry

     total magnetization       =     0.66 Bohr mag/cell
     absolute magnetization    =     0.77 Bohr mag/cell
[tb_dev] Currently allocated     3.05E-05 Mbytes, locked:    0 /   2
[tb_pin] Currently allocated     0.00E+00 Mbytes, locked:    0 /   0

     iteration # 14     ecut=    60.00 Ry     beta= 0.30
     Davidson diagonalization with overlap

---- Real-time Memory Report at c_bands before calling an iterative solver
           776 MiB given to the printing process from OS
             0 MiB allocation reported by mallinfo(arena+hblkhd)
       1351218 MiB available memory on the node where the printing process lives
     GPU memory used/free/total (MiB): 1130 / 80020 / 81151
------------------
     c_bands:  1 eigenvalues not converged
     c_bands:  1 eigenvalues not converged
     c_bands:  1 eigenvalues not converged
     c_bands:  1 eigenvalues not converged
     c_bands:  1 eigenvalues not converged
     c_bands:  1 eigenvalues not converged
     c_bands:  1 eigenvalues not converged
     c_bands:  1 eigenvalues not converged
     c_bands:  1 eigenvalues not converged
     c_bands:  1 eigenvalues not converged
     c_bands:  1 eigenvalues not converged
     c_bands:  1 eigenvalues not converged
     ethr =  1.03E-06,  avg # of iterations = 11.7

     total cpu time spent up to now is       25.9 secs

     total energy              =    -572.85038421 Ry
     estimated scf accuracy    <       0.00040693 Ry

     total magnetization       =     0.63 Bohr mag/cell
     absolute magnetization    =     0.75 Bohr mag/cell
[tb_dev] Currently allocated     3.05E-05 Mbytes, locked:    0 /   2
[tb_pin] Currently allocated     0.00E+00 Mbytes, locked:    0 /   0

     iteration # 15     ecut=    60.00 Ry     beta= 0.30
     Davidson diagonalization with overlap

---- Real-time Memory Report at c_bands before calling an iterative solver
           776 MiB given to the printing process from OS
             0 MiB allocation reported by mallinfo(arena+hblkhd)
       1347955 MiB available memory on the node where the printing process lives
     GPU memory used/free/total (MiB): 1130 / 80020 / 81151
------------------
     c_bands:  1 eigenvalues not converged
     c_bands:  1 eigenvalues not converged
     c_bands:  1 eigenvalues not converged
     c_bands:  1 eigenvalues not converged
     c_bands:  1 eigenvalues not converged
     ethr =  1.03E-06,  avg # of iterations =  4.2

     total cpu time spent up to now is       27.6 secs

     total energy              =    -572.85040691 Ry
     estimated scf accuracy    <       0.00005877 Ry

     total magnetization       =     0.63 Bohr mag/cell
     absolute magnetization    =     0.76 Bohr mag/cell
[tb_dev] Currently allocated     3.05E-05 Mbytes, locked:    0 /   2
[tb_pin] Currently allocated     0.00E+00 Mbytes, locked:    0 /   0

     iteration # 16     ecut=    60.00 Ry     beta= 0.30
     Davidson diagonalization with overlap

---- Real-time Memory Report at c_bands before calling an iterative solver
           776 MiB given to the printing process from OS
             0 MiB allocation reported by mallinfo(arena+hblkhd)
       1345801 MiB available memory on the node where the printing process lives
     GPU memory used/free/total (MiB): 1130 / 80020 / 81151
------------------
     ethr =  1.55E-07,  avg # of iterations =  4.1

     total cpu time spent up to now is       29.3 secs

     total energy              =    -572.85044057 Ry
     estimated scf accuracy    <       0.00007908 Ry

     total magnetization       =     0.62 Bohr mag/cell
     absolute magnetization    =     0.78 Bohr mag/cell
[tb_dev] Currently allocated     3.05E-05 Mbytes, locked:    0 /   2
[tb_pin] Currently allocated     0.00E+00 Mbytes, locked:    0 /   0

     iteration # 17     ecut=    60.00 Ry     beta= 0.30
     Davidson diagonalization with overlap

---- Real-time Memory Report at c_bands before calling an iterative solver
           776 MiB given to the printing process from OS
             0 MiB allocation reported by mallinfo(arena+hblkhd)
       1360595 MiB available memory on the node where the printing process lives
     GPU memory used/free/total (MiB): 1130 / 80020 / 81151
------------------
     ethr =  1.55E-07,  avg # of iterations =  1.3

     total cpu time spent up to now is       30.6 secs

     total energy              =    -572.85045759 Ry
     estimated scf accuracy    <       0.00003087 Ry

     total magnetization       =     0.62 Bohr mag/cell
     absolute magnetization    =     0.78 Bohr mag/cell
[tb_dev] Currently allocated     3.05E-05 Mbytes, locked:    0 /   2
[tb_pin] Currently allocated     0.00E+00 Mbytes, locked:    0 /   0

     iteration # 18     ecut=    60.00 Ry     beta= 0.30
     Davidson diagonalization with overlap

---- Real-time Memory Report at c_bands before calling an iterative solver
           777 MiB given to the printing process from OS
             0 MiB allocation reported by mallinfo(arena+hblkhd)
       1360106 MiB available memory on the node where the printing process lives
     GPU memory used/free/total (MiB): 1130 / 80020 / 81151
------------------
     ethr =  8.12E-08,  avg # of iterations =  2.6

     total cpu time spent up to now is       32.1 secs

     total energy              =    -572.85046736 Ry
     estimated scf accuracy    <       0.00001081 Ry

     total magnetization       =     0.60 Bohr mag/cell
     absolute magnetization    =     0.79 Bohr mag/cell
[tb_dev] Currently allocated     3.05E-05 Mbytes, locked:    0 /   2
[tb_pin] Currently allocated     0.00E+00 Mbytes, locked:    0 /   0

     iteration # 19     ecut=    60.00 Ry     beta= 0.30
     Davidson diagonalization with overlap

---- Real-time Memory Report at c_bands before calling an iterative solver
           777 MiB given to the printing process from OS
             0 MiB allocation reported by mallinfo(arena+hblkhd)
       1358813 MiB available memory on the node where the printing process lives
     GPU memory used/free/total (MiB): 1130 / 80020 / 81151
------------------
     ethr =  2.84E-08,  avg # of iterations =  2.5

     total cpu time spent up to now is       33.5 secs

     total energy              =    -572.85046816 Ry
     estimated scf accuracy    <       0.00001031 Ry

     total magnetization       =     0.60 Bohr mag/cell
     absolute magnetization    =     0.79 Bohr mag/cell
[tb_dev] Currently allocated     3.05E-05 Mbytes, locked:    0 /   2
[tb_pin] Currently allocated     0.00E+00 Mbytes, locked:    0 /   0

     iteration # 20     ecut=    60.00 Ry     beta= 0.30
     Davidson diagonalization with overlap

---- Real-time Memory Report at c_bands before calling an iterative solver
           777 MiB given to the printing process from OS
             0 MiB allocation reported by mallinfo(arena+hblkhd)
       1357656 MiB available memory on the node where the printing process lives
     GPU memory used/free/total (MiB): 1130 / 80020 / 81151
------------------
     ethr =  2.71E-08,  avg # of iterations =  1.7

     total cpu time spent up to now is       34.9 secs

     total energy              =    -572.85047372 Ry
     estimated scf accuracy    <       0.00000954 Ry

     total magnetization       =     0.60 Bohr mag/cell
     absolute magnetization    =     0.79 Bohr mag/cell
[tb_dev] Currently allocated     3.05E-05 Mbytes, locked:    0 /   2
[tb_pin] Currently allocated     0.00E+00 Mbytes, locked:    0 /   0

     iteration # 21     ecut=    60.00 Ry     beta= 0.30
     Davidson diagonalization with overlap

---- Real-time Memory Report at c_bands before calling an iterative solver
           777 MiB given to the printing process from OS
             0 MiB allocation reported by mallinfo(arena+hblkhd)
       1356830 MiB available memory on the node where the printing process lives
     GPU memory used/free/total (MiB): 1130 / 80020 / 81151
------------------
     ethr =  2.51E-08,  avg # of iterations =  1.6

     total cpu time spent up to now is       36.2 secs

     total energy              =    -572.85047972 Ry
     estimated scf accuracy    <       0.00000585 Ry

     total magnetization       =     0.60 Bohr mag/cell
     absolute magnetization    =     0.80 Bohr mag/cell
[tb_dev] Currently allocated     3.05E-05 Mbytes, locked:    0 /   2
[tb_pin] Currently allocated     0.00E+00 Mbytes, locked:    0 /   0

     iteration # 22     ecut=    60.00 Ry     beta= 0.30
     Davidson diagonalization with overlap

---- Real-time Memory Report at c_bands before calling an iterative solver
           777 MiB given to the printing process from OS
             0 MiB allocation reported by mallinfo(arena+hblkhd)
       1355596 MiB available memory on the node where the printing process lives
     GPU memory used/free/total (MiB): 1130 / 80020 / 81151
------------------
     ethr =  1.54E-08,  avg # of iterations =  4.1

     total cpu time spent up to now is       37.9 secs

     total energy              =    -572.85049755 Ry
     estimated scf accuracy    <       0.00000114 Ry

     total magnetization       =     0.58 Bohr mag/cell
     absolute magnetization    =     0.82 Bohr mag/cell
[tb_dev] Currently allocated     3.05E-05 Mbytes, locked:    0 /   2
[tb_pin] Currently allocated     0.00E+00 Mbytes, locked:    0 /   0

     iteration # 23     ecut=    60.00 Ry     beta= 0.30
     Davidson diagonalization with overlap

---- Real-time Memory Report at c_bands before calling an iterative solver
           777 MiB given to the printing process from OS
             0 MiB allocation reported by mallinfo(arena+hblkhd)
       1354144 MiB available memory on the node where the printing process lives
     GPU memory used/free/total (MiB): 1130 / 80020 / 81151
------------------
     ethr =  3.00E-09,  avg # of iterations =  4.9

     total cpu time spent up to now is       39.7 secs

     total energy              =    -572.85050158 Ry
     estimated scf accuracy    <       0.00000071 Ry

     total magnetization       =     0.57 Bohr mag/cell
     absolute magnetization    =     0.82 Bohr mag/cell
[tb_dev] Currently allocated     3.05E-05 Mbytes, locked:    0 /   2
[tb_pin] Currently allocated     0.00E+00 Mbytes, locked:    0 /   0

     iteration # 24     ecut=    60.00 Ry     beta= 0.30
     Davidson diagonalization with overlap

---- Real-time Memory Report at c_bands before calling an iterative solver
           777 MiB given to the printing process from OS
             0 MiB allocation reported by mallinfo(arena+hblkhd)
       1352842 MiB available memory on the node where the printing process lives
     GPU memory used/free/total (MiB): 1130 / 80020 / 81151
------------------
     ethr =  1.86E-09,  avg # of iterations =  2.2

     total cpu time spent up to now is       41.1 secs

     total energy              =    -572.85050745 Ry
     estimated scf accuracy    <       0.00000060 Ry

     total magnetization       =     0.57 Bohr mag/cell
     absolute magnetization    =     0.83 Bohr mag/cell
[tb_dev] Currently allocated     3.05E-05 Mbytes, locked:    0 /   2
[tb_pin] Currently allocated     0.00E+00 Mbytes, locked:    0 /   0

     iteration # 25     ecut=    60.00 Ry     beta= 0.30
     Davidson diagonalization with overlap

---- Real-time Memory Report at c_bands before calling an iterative solver
           777 MiB given to the printing process from OS
             0 MiB allocation reported by mallinfo(arena+hblkhd)
       1352172 MiB available memory on the node where the printing process lives
     GPU memory used/free/total (MiB): 1130 / 80020 / 81151
------------------
     ethr =  1.59E-09,  avg # of iterations =  5.3

     total cpu time spent up to now is       42.9 secs

     total energy              =    -572.85051855 Ry
     estimated scf accuracy    <       0.00000047 Ry

     total magnetization       =     0.55 Bohr mag/cell
     absolute magnetization    =     0.84 Bohr mag/cell
[tb_dev] Currently allocated     3.05E-05 Mbytes, locked:    0 /   2
[tb_pin] Currently allocated     0.00E+00 Mbytes, locked:    0 /   0

     iteration # 26     ecut=    60.00 Ry     beta= 0.30
     Davidson diagonalization with overlap

---- Real-time Memory Report at c_bands before calling an iterative solver
           777 MiB given to the printing process from OS
             0 MiB allocation reported by mallinfo(arena+hblkhd)
       1350690 MiB available memory on the node where the printing process lives
     GPU memory used/free/total (MiB): 1130 / 80020 / 81151
------------------
     ethr =  1.23E-09,  avg # of iterations =  5.4

     total cpu time spent up to now is       44.8 secs

     total energy              =    -572.85051816 Ry
     estimated scf accuracy    <       0.00000039 Ry

     total magnetization       =     0.54 Bohr mag/cell
     absolute magnetization    =     0.85 Bohr mag/cell
[tb_dev] Currently allocated     3.05E-05 Mbytes, locked:    0 /   2
[tb_pin] Currently allocated     0.00E+00 Mbytes, locked:    0 /   0

     iteration # 27     ecut=    60.00 Ry     beta= 0.30
     Davidson diagonalization with overlap

---- Real-time Memory Report at c_bands before calling an iterative solver
           777 MiB given to the printing process from OS
             0 MiB allocation reported by mallinfo(arena+hblkhd)
       1347453 MiB available memory on the node where the printing process lives
     GPU memory used/free/total (MiB): 1130 / 80020 / 81151
------------------
     ethr =  1.01E-09,  avg # of iterations =  5.7

     total cpu time spent up to now is       46.7 secs

     total energy              =    -572.85051836 Ry
     estimated scf accuracy    <       0.00000019 Ry

     total magnetization       =     0.52 Bohr mag/cell
     absolute magnetization    =     0.88 Bohr mag/cell
[tb_dev] Currently allocated     3.05E-05 Mbytes, locked:    0 /   2
[tb_pin] Currently allocated     0.00E+00 Mbytes, locked:    0 /   0

     iteration # 28     ecut=    60.00 Ry     beta= 0.30
     Davidson diagonalization with overlap

---- Real-time Memory Report at c_bands before calling an iterative solver
           777 MiB given to the printing process from OS
             0 MiB allocation reported by mallinfo(arena+hblkhd)
       1343878 MiB available memory on the node where the printing process lives
     GPU memory used/free/total (MiB): 1130 / 80020 / 81151
------------------
     ethr =  5.13E-10,  avg # of iterations =  6.6

     total cpu time spent up to now is       48.7 secs

     total energy              =    -572.85053548 Ry
     estimated scf accuracy    <       0.00000026 Ry

     total magnetization       =     0.49 Bohr mag/cell
     absolute magnetization    =     0.90 Bohr mag/cell
[tb_dev] Currently allocated     3.05E-05 Mbytes, locked:    0 /   2
[tb_pin] Currently allocated     0.00E+00 Mbytes, locked:    0 /   0

     iteration # 29     ecut=    60.00 Ry     beta= 0.30
     Davidson diagonalization with overlap

---- Real-time Memory Report at c_bands before calling an iterative solver
           778 MiB given to the printing process from OS
             0 MiB allocation reported by mallinfo(arena+hblkhd)
       1359984 MiB available memory on the node where the printing process lives
     GPU memory used/free/total (MiB): 1130 / 80020 / 81151
------------------
     ethr =  5.13E-10,  avg # of iterations =  5.4

     total cpu time spent up to now is       50.7 secs

     total energy              =    -572.85054389 Ry
     estimated scf accuracy    <       0.00000017 Ry

     total magnetization       =     0.51 Bohr mag/cell
     absolute magnetization    =     0.89 Bohr mag/cell
[tb_dev] Currently allocated     3.05E-05 Mbytes, locked:    0 /   2
[tb_pin] Currently allocated     0.00E+00 Mbytes, locked:    0 /   0

     iteration # 30     ecut=    60.00 Ry     beta= 0.30
     Davidson diagonalization with overlap

---- Real-time Memory Report at c_bands before calling an iterative solver
           778 MiB given to the printing process from OS
             0 MiB allocation reported by mallinfo(arena+hblkhd)
       1358373 MiB available memory on the node where the printing process lives
     GPU memory used/free/total (MiB): 1130 / 80020 / 81151
------------------
     ethr =  4.35E-10,  avg # of iterations =  5.5
 
     Magnetic moment per site  (integrated on atomic sphere of radius R)
     atom   1 (R=0.275)  charge= 14.1116  magn=  0.5444
     atom   2 (R=0.275)  charge=  5.2231  magn=  0.0522
     atom   3 (R=0.275)  charge=  5.2329  magn=  0.0434
     atom   4 (R=0.413)  charge=  7.8306  magn= -0.0838

     total cpu time spent up to now is       52.9 secs

     End of self-consistent calculation

 ------ SPIN UP ------------


          k = 0.0000 0.0000 0.0000 (  3827 PWs)   bands (ev):

   -89.3352 -52.5558 -52.5431 -52.5431 -27.8761 -12.8422 -11.1638 -10.9616
    -9.8056  -9.8056   0.8656   1.3541   1.3541   4.2023   4.8300   4.8684
     4.8684   4.9796   4.9796   6.1181   7.8755   8.6038   8.6949   8.6949
    10.6016  10.6016  13.3341

     occupation numbers 
     1.0000   1.0000   1.0000   1.0000   1.0000   1.0000   1.0000   1.0000
     1.0000   1.0000   1.0000   1.0000   1.0000   1.0000   1.0000   1.0000
     1.0000   1.0000   1.0000   1.0790   0.0000   0.0000   0.0000   0.0000
     0.0000   0.0000   0.0000

          k = 0.0000 0.0000 0.0976 (  3838 PWs)   bands (ev):

   -89.3352 -52.5559 -52.5431 -52.5431 -27.8761 -12.8423 -11.1610 -10.9644
    -9.8056  -9.8056   0.8758   1.3541   1.3541   4.0116   4.8684   4.8684
     4.9796   4.9796   5.1063   6.0628   7.8876   8.5013   8.6949   8.6949
    10.6015  10.6015  13.5832

     occupation numbers 
     1.0000   1.0000   1.0000   1.0000   1.0000   1.0000   1.0000   1.0000
     1.0000   1.0000   1.0000   1.0000   1.0000   1.0000   1.0000   1.0000
     1.0000   1.0000   1.0000   1.0820   0.0000   0.0000   0.0000   0.0000
     0.0000   0.0000   0.0000

          k = 0.0000 0.1443 0.0000 (  3809 PWs)   bands (ev):

   -89.3345 -52.5547 -52.5507 -52.5449 -27.7896 -12.6741 -11.0867 -10.9646
   -10.2523  -9.8967   1.0565   1.1883   1.4661   3.8028   4.2051   4.5569
     5.2801   5.3787   5.5374   6.2312   8.0243   8.3034   8.5980   8.7382
     9.9638  11.1614  13.1586

     occupation numbers 
     1.0000   1.0000   1.0000   1.0000   1.0000   1.0000   1.0000   1.0000
     1.0000   1.0000   1.0000   1.0000   1.0000   1.0000   1.0000   1.0000
     1.0000   1.0000   1.0002   0.9806   0.0000   0.0000   0.0000   0.0000
     0.0000   0.0000   0.0000

          k = 0.0000 0.1443 0.0976 (  3828 PWs)   bands (ev):

   -89.3345 -52.5548 -52.5508 -52.5449 -27.7896 -12.6743 -11.0829 -10.9684
   -10.2523  -9.8967   1.0630   1.1879   1.4661   3.8051   4.2051   4.4330
     5.2616   5.5374   5.6362   6.1328   8.0759   8.2139   8.5981   8.7354
     9.9644  11.1614  12.9589

     occupation numbers 
     1.0000   1.0000   1.0000   1.0000   1.0000   1.0000   1.0000   1.0000
     1.0000   1.0000   1.0000   1.0000   1.0000   1.0000   1.0000   1.0000
     1.0000   1.0002   1.0011   1.0741   0.0000   0.0000   0.0000   0.0000
     0.0000   0.0000   0.0000

          k = 0.0000 0.2887 0.0000 (  3822 PWs)   bands (ev):

   -89.3328 -52.5695 -52.5521 -52.5494 -27.5723 -12.2330 -11.2410 -11.0021
   -10.8779 -10.1084   0.9262   1.5188   1.7338   2.5065   3.6479   4.8288
     5.4115   5.7444   5.9395   6.6358   7.4595   8.1334   8.4817   8.6921
    10.2046  12.6995  12.7135

     occupation numbers 
     1.0000   1.0000   1.0000   1.0000   1.0000   1.0000   1.0000   1.0000
     1.0000   1.0000   1.0000   1.0000   1.0000   1.0000   1.0000   1.0000
     1.0000   1.0059   1.0462   0.1004   0.0000   0.0000   0.0000   0.0000
     0.0000   0.0000   0.0000

          k = 0.0000 0.2887 0.0976 (  3809 PWs)   bands (ev):

   -89.3328 -52.5694 -52.5520 -52.5494 -27.5723 -12.2330 -11.2411 -11.0001
   -10.8797 -10.1084   0.9246   1.5217   1.7338   2.5088   3.6479   4.8169
     5.3987   5.7444   5.9818   6.5666   7.6267   7.9581   8.4818   8.7618
    10.2199  12.5807  12.6992

     occupation numbers 
     1.0000   1.0000   1.0000   1.0000   1.0000   1.0000   1.0000   1.0000
     1.0000   1.0000   1.0000   1.0000   1.0000   1.0000   1.0000   1.0000
     1.0000   1.0059   1.0608   0.1933   0.0000   0.0000   0.0000   0.0000
     0.0000   0.0000   0.0000

          k = 0.0000 0.4330 0.0000 (  3818 PWs)   bands (ev):

   -89.3312 -52.5881 -52.5540 -52.5493 -27.3414 -12.1415 -11.7002 -11.0776
   -10.6744 -10.3098   0.4760   1.5310   1.9487   2.5467   3.4635   4.3570
     5.2783   5.4998   5.7610   6.5617   7.3312   7.8719   8.5200   9.5608
    11.6754  12.8285  13.0577

     occupation numbers 
     1.0000   1.0000   1.0000   1.0000   1.0000   1.0000   1.0000   1.0000
     1.0000   1.0000   1.0000   1.0000   1.0000   1.0000   1.0000   1.0000
     1.0000   1.0001   1.0074   0.2016   0.0000   0.0000   0.0000   0.0000
     0.0000   0.0000   0.0000

          k = 0.0000 0.4330 0.0976 (  3823 PWs)   bands (ev):

   -89.3312 -52.5882 -52.5540 -52.5493 -27.3414 -12.1415 -11.7003 -11.0774
   -10.6746 -10.3098   0.4761   1.5299   1.9487   2.5485   3.4635   4.3535
     5.2800   5.4998   5.7596   6.5545   7.4433   7.7354   8.5201   9.6128
    11.6715  12.8282  13.0193

     occupation numbers 
     1.0000   1.0000   1.0000   1.0000   1.0000   1.0000   1.0000   1.0000
     1.0000   1.0000   1.0000   1.0000   1.0000   1.0000   1.0000   1.0000
     1.0000   1.0001   1.0072   0.2142   0.0000   0.0000   0.0000   0.0000
     0.0000   0.0000   0.0000

          k = 0.0000-0.5774 0.0000 (  3830 PWs)   bands (ev):

   -89.3305 -52.5959 -52.5558 -52.5482 -27.2413 -12.4962 -11.3421 -11.2330
   -10.5859 -10.3905   0.0994   1.7174   1.9951   2.7116   3.5201   4.1032
     5.0292   5.2818   5.6926   6.3102   7.1675   8.0000   8.5682  10.9733
    11.4998  12.6644  13.5118

     occupation numbers 
     1.0000   1.0000   1.0000   1.0000   1.0000   1.0000   1.0000   1.0000
     1.0000   1.0000   1.0000   1.0000   1.0000   1.0000   1.0000   1.0000
     1.0000   1.0000   1.0028   0.8226   0.0000   0.0000   0.0000   0.0000
     0.0000   0.0000   0.0000

          k = 0.0000-0.5774 0.0976 (  3834 PWs)   bands (ev):

   -89.3305 -52.5960 -52.5558 -52.5482 -27.2413 -12.4962 -11.3421 -11.2330
   -10.5859 -10.3905   0.0997   1.7165   1.9951   2.7134   3.5201   4.0968
     5.0303   5.2818   5.6952   6.3112   7.1942   7.9733   8.5682  10.9462
    11.4985  12.6641  13.5954

     occupation numbers 
     1.0000   1.0000   1.0000   1.0000   1.0000   1.0000   1.0000   1.0000
     1.0000   1.0000   1.0000   1.0000   1.0000   1.0000   1.0000   1.0000
     1.0000   1.0000   1.0029   0.8202   0.0000   0.0000   0.0000   0.0000
     0.0000   0.0000   0.0000

          k = 0.1250 0.2165 0.0000 (  3807 PWs)   bands (ev):

   -89.3333 -52.5632 -52.5528 -52.5489 -27.6374 -12.3694 -10.9971 -10.9314
   -10.9099 -10.1078   1.0184   1.4034   1.6210   2.9628   3.5122   4.9028
     5.3333   5.8275   5.9312   6.5734   7.6696   8.3149   8.3638   9.1083
     9.1780  12.3937  12.8833

     occupation numbers 
     1.0000   1.0000   1.0000   1.0000   1.0000   1.0000   1.0000   1.0000
     1.0000   1.0000   1.0000   1.0000   1.0000   1.0000   1.0000   1.0000
     1.0000   1.0165   1.0435   0.1822   0.0000   0.0000   0.0000   0.0000
     0.0000   0.0000   0.0000

          k = 0.1250 0.2165 0.0976 (  3820 PWs)   bands (ev):

   -89.3333 -52.5632 -52.5529 -52.5489 -27.6374 -12.3695 -10.9927 -10.9360
   -10.9098 -10.1078   1.0166   1.4073   1.6211   2.9652   3.5122   4.8663
     5.3333   5.8068   6.0048   6.5514   7.7784   8.0974   8.4432   9.1082
     9.2223  12.3930  12.7546

     occupation numbers 
     1.0000   1.0000   1.0000   1.0000   1.0000   1.0000   1.0000   1.0000
     1.0000   1.0000   1.0000   1.0000   1.0000   1.0000   1.0000   1.0000
     1.0000   1.0130   1.0683   0.2199   0.0000   0.0000   0.0000   0.0000
     0.0000   0.0000   0.0000

          k = 0.1250 0.3608 0.0000 (  3816 PWs)   bands (ev):

   -89.3316 -52.5799 -52.5554 -52.5501 -27.4111 -11.8839 -11.7435 -11.0326
   -10.7362 -10.4341   0.8844   1.3804   1.9580   2.4497   3.0904   4.6506
     5.3709   5.6481   5.9782   7.3342   7.5335   7.9942   8.2190   8.8933
    10.4721  12.1018  13.2666

     occupation numbers 
     1.0000   1.0000   1.0000   1.0000   1.0000   1.0000   1.0000   1.0000
     1.0000   1.0000   1.0000   1.0000   1.0000   1.0000   1.0000   1.0000
     1.0000   1.0014   1.0595   0.0000   0.0000   0.0000   0.0000   0.0000
     0.0000   0.0000   0.0000

          k = 0.1250 0.3608 0.0976 (  3805 PWs)   bands (ev):

   -89.3316 -52.5799 -52.5553 -52.5500 -27.4111 -11.8838 -11.7437 -11.0321
   -10.7366 -10.4341   0.8840   1.3802   1.9581   2.4516   3.0904   4.6498
     5.3710   5.6492   5.9771   7.2872   7.6695   7.8282   8.2780   8.9172
    10.4823  12.0974  13.2189

     occupation numbers 
     1.0000   1.0000   1.0000   1.0000   1.0000   1.0000   1.0000   1.0000
     1.0000   1.0000   1.0000   1.0000   1.0000   1.0000   1.0000   1.0000
     1.0000   1.0014   1.0591   0.0000   0.0000   0.0000   0.0000   0.0000
     0.0000   0.0000   0.0000

          k = 0.1250 0.5052 0.0000 (  3825 PWs)   bands (ev):

   -89.3305 -52.5917 -52.5600 -52.5482 -27.2425 -12.3024 -11.4347 -11.1408
   -10.6562 -10.5871   0.3844   1.3916   2.2308   2.7049   3.0504   4.0737
     5.1209   5.4177   5.8893   7.0429   7.4275   7.9714   8.3124  10.4116
    11.3902  11.4762  14.1899

     occupation numbers 
     1.0000   1.0000   1.0000   1.0000   1.0000   1.0000   1.0000   1.0000
     1.0000   1.0000   1.0000   1.0000   1.0000   1.0000   1.0000   1.0000
     1.0000   1.0000   1.0307   0.0002   0.0000   0.0000   0.0000   0.0000
     0.0000   0.0000   0.0000

          k = 0.1250 0.5052 0.0976 (  3819 PWs)   bands (ev):

   -89.3305 -52.5917 -52.5600 -52.5482 -27.2425 -12.3023 -11.4347 -11.1407
   -10.6562 -10.5871   0.3848   1.3912   2.2302   2.7063   3.0505   4.0702
     5.1215   5.4171   5.8913   7.0432   7.4566   7.9251   8.3292  10.4122
    11.3922  11.4703  14.2114

     occupation numbers 
     1.0000   1.0000   1.0000   1.0000   1.0000   1.0000   1.0000   1.0000
     1.0000   1.0000   1.0000   1.0000   1.0000   1.0000   1.0000   1.0000
     1.0000   1.0000   1.0312   0.0002   0.0000   0.0000   0.0000   0.0000
     0.0000   0.0000   0.0000

          k = 0.2500 0.4330 0.0000 (  3819 PWs)   bands (ev):

   -89.3305 -52.5859 -52.5657 -52.5483 -27.2438 -12.0202 -11.4884 -11.0876
   -11.0083 -10.5883   0.9408   1.0697   2.0025   2.7162   2.8027   4.0915
     5.1782   5.5236   6.0737   7.7485   7.9377   8.0491   8.5193   9.2817
    10.5293  11.0298  14.3397

     occupation numbers 
     1.0000   1.0000   1.0000   1.0000   1.0000   1.0000   1.0000   1.0000
     1.0000   1.0000   1.0000   1.0000   1.0000   1.0000   1.0000   1.0000
     1.0000   1.0001   1.0830   0.0000   0.0000   0.0000   0.0000   0.0000
     0.0000   0.0000   0.0000

          k = 0.2500 0.4330 0.0976 (  3817 PWs)   bands (ev):

   -89.3305 -52.5858 -52.5658 -52.5482 -27.2438 -12.0202 -11.4884 -11.0874
   -11.0083 -10.5884   0.9409   1.0698   2.0025   2.7159   2.8025   4.0920
     5.1780   5.5228   6.0776   7.6972   7.9545   8.0946   8.5162   9.2682
    10.5326  11.0253  14.3890

     occupation numbers 
     1.0000   1.0000   1.0000   1.0000   1.0000   1.0000   1.0000   1.0000
     1.0000   1.0000   1.0000   1.0000   1.0000   1.0000   1.0000   1.0000
     1.0000   1.0001   1.0832   0.0000   0.0000   0.0000   0.0000   0.0000
     0.0000   0.0000   0.0000

          k = 0.2500 0.5774 0.0000 (  3813 PWs)   bands (ev):

   -89.3300 -52.5863 -52.5721 -52.5473 -27.1725 -12.0487 -11.3344 -11.2665
   -11.1599 -10.5257   0.7877   1.1640   1.8411   2.8395   3.0478   3.6489
     4.9109   5.7205   5.9769   7.9324   7.9783   8.1354   8.5497   9.6544
    10.1980  11.4855  15.4218

     occupation numbers 
     1.0000   1.0000   1.0000   1.0000   1.0000   1.0000   1.0000   1.0000
     1.0000   1.0000   1.0000   1.0000   1.0000   1.0000   1.0000   1.0000
     1.0000   1.0042   1.0591   0.0000   0.0000   0.0000   0.0000   0.0000
     0.0000   0.0000   0.0000

          k = 0.2500 0.5774 0.0976 (  3823 PWs)   bands (ev):

   -89.3300 -52.5864 -52.5721 -52.5474 -27.1725 -12.0487 -11.3345 -11.2665
   -11.1600 -10.5257   0.7879   1.1640   1.8415   2.8387   3.0481   3.6479
     4.9110   5.7197   5.9791   7.8963   7.9551   8.2049   8.5411   9.6649
    10.1906  11.4828  15.4023

     occupation numbers 
     1.0000   1.0000   1.0000   1.0000   1.0000   1.0000   1.0000   1.0000
     1.0000   1.0000   1.0000   1.0000   1.0000   1.0000   1.0000   1.0000
     1.0000   1.0042   1.0598   0.0000   0.0000   0.0000   0.0000   0.0000
     0.0000   0.0000   0.0000

          k = 0.0000-0.1443 0.0976 (  3828 PWs)   bands (ev):

   -89.3345 -52.5548 -52.5508 -52.5449 -27.7896 -12.6742 -11.0829 -10.9684
   -10.2523  -9.8967   1.0640   1.1868   1.4661   3.8010   4.2051   4.4412
     5.2596   5.5374   5.6264   6.1476   7.9998   8.2814   8.5981   8.7373
     9.9642  11.1614  12.9725

     occupation numbers 
     1.0000   1.0000   1.0000   1.0000   1.0000   1.0000   1.0000   1.0000
     1.0000   1.0000   1.0000   1.0000   1.0000   1.0000   1.0000   1.0000
     1.0000   1.0002   1.0010   1.0671   0.0000   0.0000   0.0000   0.0000
     0.0000   0.0000   0.0000

          k = 0.0000-0.2887 0.0976 (  3809 PWs)   bands (ev):

   -89.3328 -52.5695 -52.5520 -52.5494 -27.5723 -12.2330 -11.2411 -11.0001
   -10.8797 -10.1084   0.9251   1.5202   1.7338   2.5097   3.6479   4.8166
     5.4027   5.7444   5.9523   6.6583   7.4399   8.1235   8.4817   8.7069
    10.2076  12.6662  12.6992

     occupation numbers 
     1.0000   1.0000   1.0000   1.0000   1.0000   1.0000   1.0000   1.0000
     1.0000   1.0000   1.0000   1.0000   1.0000   1.0000   1.0000   1.0000
     1.0000   1.0059   1.0506   0.0791   0.0000   0.0000   0.0000   0.0000
     0.0000   0.0000   0.0000

          k = 0.0000-0.4330 0.0976 (  3823 PWs)   bands (ev):

   -89.3312 -52.5882 -52.5540 -52.5493 -27.3414 -12.1414 -11.7003 -11.0774
   -10.6745 -10.3098   0.4759   1.5301   1.9487   2.5478   3.4635   4.3572
     5.2782   5.4998   5.7612   6.5663   7.3301   7.8743   8.5201   9.5313
    11.6726  12.8283  13.1530

     occupation numbers 
     1.0000   1.0000   1.0000   1.0000   1.0000   1.0000   1.0000   1.0000
     1.0000   1.0000   1.0000   1.0000   1.0000   1.0000   1.0000   1.0000
     1.0000   1.0001   1.0074   0.1938   0.0000   0.0000   0.0000   0.0000
     0.0000   0.0000   0.0000

          k =-0.1250-0.3608 0.0976 (  3805 PWs)   bands (ev):

   -89.3316 -52.5799 -52.5553 -52.5500 -27.4111 -11.8838 -11.7437 -11.0321
   -10.7365 -10.4341   0.8838   1.3801   1.9578   2.4521   3.0902   4.6513
     5.3706   5.6485   5.9768   7.3429   7.5213   7.9684   8.2448   8.8949
    10.4691  12.1066  13.2828

     occupation numbers 
     1.0000   1.0000   1.0000   1.0000   1.0000   1.0000   1.0000   1.0000
     1.0000   1.0000   1.0000   1.0000   1.0000   1.0000   1.0000   1.0000
     1.0000   1.0014   1.0590   0.0000   0.0000   0.0000   0.0000   0.0000
     0.0000   0.0000   0.0000

          k =-0.1250-0.5052 0.0976 (  3819 PWs)   bands (ev):

   -89.3305 -52.5917 -52.5600 -52.5482 -27.2425 -12.3023 -11.4347 -11.1407
   -10.6562 -10.5871   0.3846   1.3914   2.2307   2.7050   3.0504   4.0725
     5.1205   5.4166   5.8937   7.0474   7.4274   7.9627   8.3209  10.3836
    11.3961  11.4749  14.2962

     occupation numbers 
     1.0000   1.0000   1.0000   1.0000   1.0000   1.0000   1.0000   1.0000
     1.0000   1.0000   1.0000   1.0000   1.0000   1.0000   1.0000   1.0000
     1.0000   1.0000   1.0319   0.0002   0.0000   0.0000   0.0000   0.0000
     0.0000   0.0000   0.0000

 ------ SPIN DOWN ----------


          k = 0.0000 0.0000 0.0000 (  3827 PWs)   bands (ev):

   -88.6704 -51.9448 -51.9448 -51.8079 -27.9507 -12.7626 -11.2149 -10.8780
    -9.8776  -9.8776   1.1321   1.5565   1.5565   4.3053   4.5495   5.0346
     5.0346   5.4195   5.4195   6.8401   7.7136   8.4894   8.9774   8.9774
    10.4332  10.4332  13.4100

     occupation numbers 
     1.0000   1.0000   1.0000   1.0000   1.0000   1.0000   1.0000   1.0000
     1.0000   1.0000   1.0000   1.0000   1.0000   1.0000   1.0000   1.0000
     1.0000   1.0000   1.0000   0.0071   0.0000   0.0000   0.0000   0.0000
     0.0000   0.0000   0.0000

          k = 0.0000 0.0000 0.0976 (  3838 PWs)   bands (ev):

   -88.6704 -51.9448 -51.9448 -51.8080 -27.9507 -12.7627 -11.2132 -10.8798
    -9.8776  -9.8776   1.1457   1.5565   1.5565   4.0011   4.9148   5.0347
     5.0347   5.4195   5.4195   6.7952   7.7218   8.4085   8.9774   8.9774
    10.4332  10.4332  13.6304

     occupation numbers 
     1.0000   1.0000   1.0000   1.0000   1.0000   1.0000   1.0000   1.0000
     1.0000   1.0000   1.0000   1.0000   1.0000   1.0000   1.0000   1.0000
     1.0000   1.0000   1.0000   0.0140   0.0000   0.0000   0.0000   0.0000
     0.0000   0.0000   0.0000

          k = 0.0000 0.1443 0.0000 (  3809 PWs)   bands (ev):

   -88.6697 -51.9527 -51.9467 -51.8066 -27.8628 -12.5941 -11.1344 -10.8822
   -10.3353  -9.9700   1.3074   1.3926   1.6619   3.9801   4.4397   4.6794
     5.1299   5.7528   5.9277   6.8909   7.9187   8.3748   8.7622   8.8729
     9.7536  10.9982  13.1259

     occupation numbers 
     1.0000   1.0000   1.0000   1.0000   1.0000   1.0000   1.0000   1.0000
     1.0000   1.0000   1.0000   1.0000   1.0000   1.0000   1.0000   1.0000
     1.0000   1.0066   1.0423   0.0031   0.0000   0.0000   0.0000   0.0000
     0.0000   0.0000   0.0000

          k = 0.0000 0.1443 0.0976 (  3828 PWs)   bands (ev):

   -88.6697 -51.9528 -51.9467 -51.8067 -27.8628 -12.5943 -11.1325 -10.8841
   -10.3353  -9.9700   1.3127   1.3954   1.6619   3.9858   4.4397   4.4753
     5.3843   5.7699   5.9277   6.8188   7.9207   8.3537   8.7609   8.8730
     9.7544  10.9982  12.9316

     occupation numbers 
     1.0000   1.0000   1.0000   1.0000   1.0000   1.0000   1.0000   1.0000
     1.0000   1.0000   1.0000   1.0000   1.0000   1.0000   1.0000   1.0000
     1.0000   1.0083   1.0423   0.0099   0.0000   0.0000   0.0000   0.0000
     0.0000   0.0000   0.0000

          k = 0.0000 0.2887 0.0000 (  3822 PWs)   bands (ev):

   -88.6680 -51.9721 -51.9513 -51.8039 -27.6415 -12.1519 -11.3450 -10.9436
   -10.8962 -10.1848   1.0981   1.7370   1.9141   2.6923   3.8454   4.9828
     5.9059   6.2164   6.2191   6.7761   7.5428   8.1134   8.5838   8.7392
     9.9867  12.5520  12.6720

     occupation numbers 
     1.0000   1.0000   1.0000   1.0000   1.0000   1.0000   1.0000   1.0000
     1.0000   1.0000   1.0000   1.0000   1.0000   1.0000   1.0000   1.0000
     1.0355   1.0022   0.9984   0.0183   0.0000   0.0000   0.0000   0.0000
     0.0000   0.0000   0.0000

          k = 0.0000 0.2887 0.0976 (  3809 PWs)   bands (ev):

   -88.6680 -51.9720 -51.9513 -51.8038 -27.6415 -12.1520 -11.3451 -10.9376
   -10.9021 -10.1848   1.0963   1.7400   1.9142   2.6961   3.8453   4.9607
     5.8795   6.2164   6.3108   6.6910   7.7629   7.8539   8.6692   8.7392
    10.0099  12.5395  12.5519

     occupation numbers 
     1.0000   1.0000   1.0000   1.0000   1.0000   1.0000   1.0000   1.0000
     1.0000   1.0000   1.0000   1.0000   1.0000   1.0000   1.0000   1.0000
     1.0280   1.0021   0.8211   0.0546   0.0000   0.0000   0.0000   0.0000
     0.0000   0.0000   0.0000

          k = 0.0000 0.4330 0.0000 (  3818 PWs)   bands (ev):

   -88.6663 -51.9914 -51.9560 -51.8009 -27.4062 -12.2621 -11.6176 -10.9889
   -10.7174 -10.3890   0.6187   1.6352   2.1239   2.8196   3.5843   4.5114
     5.9021   6.0706   6.2480   6.4138   7.1861   8.1462   8.7726   9.4122
    11.4567  12.7619  12.9791

     occupation numbers 
     1.0000   1.0000   1.0000   1.0000   1.0000   1.0000   1.0000   1.0000
     1.0000   1.0000   1.0000   1.0000   1.0000   1.0000   1.0000   1.0000
     1.0343   1.0828   0.9530   0.5462   0.0000   0.0000   0.0000   0.0000
     0.0000   0.0000   0.0000

          k = 0.0000 0.4330 0.0976 (  3823 PWs)   bands (ev):

   -88.6663 -51.9914 -51.9560 -51.8010 -27.4062 -12.2621 -11.6177 -10.9886
   -10.7176 -10.3890   0.6189   1.6341   2.1239   2.8218   3.5842   4.5069
     5.9053   6.0706   6.2468   6.4055   7.2490   8.0416   8.7726   9.4827
    11.4535  12.7616  12.9402

     occupation numbers 
     1.0000   1.0000   1.0000   1.0000   1.0000   1.0000   1.0000   1.0000
     1.0000   1.0000   1.0000   1.0000   1.0000   1.0000   1.0000   1.0000
     1.0353   1.0828   0.9551   0.5692   0.0000   0.0000   0.0000   0.0000
     0.0000   0.0000   0.0000

          k = 0.0000-0.5774 0.0000 (  3830 PWs)   bands (ev):

   -88.6656 -51.9994 -51.9579 -51.7998 -27.3041 -12.6230 -11.2627 -11.1398
   -10.6270 -10.4707   0.2284   1.7901   2.1754   2.9936   3.5756   4.2302
     5.7858   5.9155   6.0003   6.2743   6.9758   8.3371   8.8230  10.9177
    11.1997  12.5954  13.3873

     occupation numbers 
     1.0000   1.0000   1.0000   1.0000   1.0000   1.0000   1.0000   1.0000
     1.0000   1.0000   1.0000   1.0000   1.0000   1.0000   1.0000   1.0000
     1.0101   1.0384   1.0669   0.9028   0.0007   0.0000   0.0000   0.0000
     0.0000   0.0000   0.0000

          k = 0.0000-0.5774 0.0976 (  3834 PWs)   bands (ev):

   -88.6656 -51.9994 -51.9580 -51.7998 -27.3041 -12.6230 -11.2627 -11.1398
   -10.6270 -10.4707   0.2287   1.7892   2.1755   2.9960   3.5756   4.2222
     5.7894   5.9155   6.0008   6.2778   6.9929   8.3168   8.8230  10.8893
    11.2010  12.5951  13.4661

     occupation numbers 
     1.0000   1.0000   1.0000   1.0000   1.0000   1.0000   1.0000   1.0000
     1.0000   1.0000   1.0000   1.0000   1.0000   1.0000   1.0000   1.0000
     1.0106   1.0384   1.0671   0.8957   0.0005   0.0000   0.0000   0.0000
     0.0000   0.0000   0.0000

          k = 0.1250 0.2165 0.0000 (  3807 PWs)   bands (ev):

   -88.6685 -51.9656 -51.9508 -51.8046 -27.7078 -12.2887 -11.0093 -10.9947
   -10.8932 -10.1851   1.1932   1.6503   1.8086   3.1240   3.7205   5.0251
     5.8886   6.0688   6.2461   6.8629   7.7411   8.3738   8.5767   8.8603
     9.0763  12.2366  12.8533

     occupation numbers 
     1.0000   1.0000   1.0000   1.0000   1.0000   1.0000   1.0000   1.0000
     1.0000   1.0000   1.0000   1.0000   1.0000   1.0000   1.0000   1.0000
     1.0305   1.0826   0.9563   0.0050   0.0000   0.0000   0.0000   0.0000
     0.0000   0.0000   0.0000

          k = 0.1250 0.2165 0.0976 (  3820 PWs)   bands (ev):

   -88.6685 -51.9656 -51.9509 -51.8047 -27.7078 -12.2888 -11.0094 -10.9917
   -10.8961 -10.1851   1.1911   1.6547   1.8091   3.1278   3.7205   4.9703
     5.8885   6.0887   6.3555   6.7774   7.8260   8.1887   8.6505   8.8604
     9.1236  12.2365  12.7260

     occupation numbers 
     1.0000   1.0000   1.0000   1.0000   1.0000   1.0000   1.0000   1.0000
     1.0000   1.0000   1.0000   1.0000   1.0000   1.0000   1.0000   1.0000
     1.0304   1.0832   0.7065   0.0180   0.0000   0.0000   0.0000   0.0000
     0.0000   0.0000   0.0000

          k = 0.1250 0.3608 0.0000 (  3816 PWs)   bands (ev):

   -88.6668 -51.9828 -51.9575 -51.8018 -27.4773 -11.8579 -11.8007 -10.9446
   -10.7801 -10.5176   1.0427   1.5119   2.1327   2.6933   3.2536   4.7981
     5.9564   6.3358   6.4970   7.0636   7.4761   8.1249   8.4218   8.7594
    10.3049  11.9953  13.2333

     occupation numbers 
     1.0000   1.0000   1.0000   1.0000   1.0000   1.0000   1.0000   1.0000
     1.0000   1.0000   1.0000   1.0000   1.0000   1.0000   1.0000   1.0000
     1.0520   0.7586   0.3322   0.0001   0.0000   0.0000   0.0000   0.0000
     0.0000   0.0000   0.0000

          k = 0.1250 0.3608 0.0976 (  3805 PWs)   bands (ev):

   -88.6668 -51.9828 -51.9574 -51.8018 -27.4773 -11.8577 -11.8010 -10.9438
   -10.7807 -10.5175   1.0422   1.5116   2.1327   2.6958   3.2537   4.7970
     5.9567   6.3362   6.4961   7.0447   7.5408   7.9851   8.5094   8.7691
    10.3199  11.9909  13.1845

     occupation numbers 
     1.0000   1.0000   1.0000   1.0000   1.0000   1.0000   1.0000   1.0000
     1.0000   1.0000   1.0000   1.0000   1.0000   1.0000   1.0000   1.0000
     1.0521   0.7576   0.3341   0.0002   0.0000   0.0000   0.0000   0.0000
     0.0000   0.0000   0.0000

          k = 0.1250 0.5052 0.0000 (  3825 PWs)   bands (ev):

   -88.6656 -51.9951 -51.9622 -51.7998 -27.3054 -12.4255 -11.3520 -11.0509
   -10.7435 -10.6283   0.5140   1.5065   2.3815   2.9177   3.2010   4.2210
     5.9283   6.0196   6.4013   6.7421   7.2473   8.2782   8.5731  10.2215
    11.2292  11.3419  14.1361

     occupation numbers 
     1.0000   1.0000   1.0000   1.0000   1.0000   1.0000   1.0000   1.0000
     1.0000   1.0000   1.0000   1.0000   1.0000   1.0000   1.0000   1.0000
     1.0425   1.0728   0.5807   0.0290   0.0000   0.0000   0.0000   0.0000
     0.0000   0.0000   0.0000

          k = 0.1250 0.5052 0.0976 (  3819 PWs)   bands (ev):

   -88.6656 -51.9950 -51.9622 -51.7998 -27.3054 -12.4255 -11.3520 -11.0508
   -10.7435 -10.6283   0.5143   1.5061   2.3809   2.9191   3.2015   4.2164
     5.9305   6.0186   6.4037   6.7429   7.2622   8.2452   8.5878  10.2238
    11.2289  11.3388  14.1569

     occupation numbers 
     1.0000   1.0000   1.0000   1.0000   1.0000   1.0000   1.0000   1.0000
     1.0000   1.0000   1.0000   1.0000   1.0000   1.0000   1.0000   1.0000
     1.0432   1.0725   0.5742   0.0287   0.0000   0.0000   0.0000   0.0000
     0.0000   0.0000   0.0000

          k = 0.2500 0.4330 0.0000 (  3819 PWs)   bands (ev):

   -88.6656 -51.9890 -51.9681 -51.7999 -27.3066 -12.1380 -11.4054 -11.1047
   -10.9977 -10.6295   1.0573   1.2179   2.1072   2.8832   3.0487   4.2431
     6.0157   6.1082   6.5574   7.6020   8.1952   8.2054   8.3190   9.0327
    10.3779  10.9429  14.3001

     occupation numbers 
     1.0000   1.0000   1.0000   1.0000   1.0000   1.0000   1.0000   1.0000
     1.0000   1.0000   1.0000   1.0000   1.0000   1.0000   1.0000   1.0000
     1.0717   1.0812   0.2091   0.0000   0.0000   0.0000   0.0000   0.0000
     0.0000   0.0000   0.0000

          k = 0.2500 0.4330 0.0976 (  3817 PWs)   bands (ev):

   -88.6656 -51.9890 -51.9682 -51.7998 -27.3066 -12.1380 -11.4054 -11.1046
   -10.9977 -10.6296   1.0574   1.2179   2.1073   2.8828   3.0482   4.2439
     6.0155   6.1065   6.5653   7.5720   8.2031   8.2498   8.3040   9.0165
    10.3816  10.9379  14.3484

     occupation numbers 
     1.0000   1.0000   1.0000   1.0000   1.0000   1.0000   1.0000   1.0000
     1.0000   1.0000   1.0000   1.0000   1.0000   1.0000   1.0000   1.0000
     1.0716   1.0815   0.1955   0.0000   0.0000   0.0000   0.0000   0.0000
     0.0000   0.0000   0.0000

          k = 0.2500 0.5774 0.0000 (  3813 PWs)   bands (ev):

   -88.6651 -51.9895 -51.9747 -51.7989 -27.2339 -12.1667 -11.4374 -11.1860
   -11.0670 -10.5656   0.9107   1.2887   1.9370   3.0052   3.2861   3.7751
     5.8081   6.2820   6.4970   7.8858   8.1753   8.2804   8.3397   9.4852
     9.9092  11.4471  15.3098

     occupation numbers 
     1.0000   1.0000   1.0000   1.0000   1.0000   1.0000   1.0000   1.0000
     1.0000   1.0000   1.0000   1.0000   1.0000   1.0000   1.0000   1.0000
     1.0132   0.8866   0.3321   0.0000   0.0000   0.0000   0.0000   0.0000
     0.0000   0.0000   0.0000

          k = 0.2500 0.5774 0.0976 (  3823 PWs)   bands (ev):

   -88.6651 -51.9895 -51.9748 -51.7989 -27.2339 -12.1667 -11.4374 -11.1860
   -11.0670 -10.5656   0.9110   1.2888   1.9373   3.0043   3.2865   3.7738
     5.8083   6.2807   6.5007   7.8524   8.2034   8.2925   8.3326   9.4986
     9.9006  11.4435  15.2717

     occupation numbers 
     1.0000   1.0000   1.0000   1.0000   1.0000   1.0000   1.0000   1.0000
     1.0000   1.0000   1.0000   1.0000   1.0000   1.0000   1.0000   1.0000
     1.0132   0.8895   0.3235   0.0000   0.0000   0.0000   0.0000   0.0000
     0.0000   0.0000   0.0000

          k = 0.0000-0.1443 0.0976 (  3828 PWs)   bands (ev):

   -88.6697 -51.9528 -51.9467 -51.8067 -27.8628 -12.5943 -11.1325 -10.8841
   -10.3353  -9.9700   1.3143   1.3938   1.6619   3.9767   4.4397   4.4933
     5.3656   5.7814   5.9277   6.8242   7.8903   8.3742   8.7638   8.8730
     9.7543  10.9982  12.9453

     occupation numbers 
     1.0000   1.0000   1.0000   1.0000   1.0000   1.0000   1.0000   1.0000
     1.0000   1.0000   1.0000   1.0000   1.0000   1.0000   1.0000   1.0000
     1.0000   1.0096   1.0423   0.0091   0.0000   0.0000   0.0000   0.0000
     0.0000   0.0000   0.0000

          k = 0.0000-0.2887 0.0976 (  3809 PWs)   bands (ev):

   -88.6680 -51.9720 -51.9513 -51.8038 -27.6415 -12.1520 -11.3451 -10.9377
   -10.9019 -10.1848   1.0967   1.7385   1.9142   2.6971   3.8454   4.9610
     5.8772   6.2164   6.3026   6.7527   7.5140   8.1161   8.5980   8.7392
     9.9920  12.5519  12.6244

     occupation numbers 
     1.0000   1.0000   1.0000   1.0000   1.0000   1.0000   1.0000   1.0000
     1.0000   1.0000   1.0000   1.0000   1.0000   1.0000   1.0000   1.0000
     1.0274   1.0021   0.8407   0.0252   0.0000   0.0000   0.0000   0.0000
     0.0000   0.0000   0.0000

          k = 0.0000-0.4330 0.0976 (  3823 PWs)   bands (ev):

   -88.6663 -51.9914 -51.9560 -51.8010 -27.4062 -12.2620 -11.6177 -10.9886
   -10.7175 -10.3890   0.6187   1.6343   2.1239   2.8207   3.5843   4.5120
     5.9041   6.0706   6.2390   6.4270   7.1810   8.1510   8.7726   9.3845
    11.4521  12.7619  13.0685

     occupation numbers 
     1.0000   1.0000   1.0000   1.0000   1.0000   1.0000   1.0000   1.0000
     1.0000   1.0000   1.0000   1.0000   1.0000   1.0000   1.0000   1.0000
     1.0349   1.0828   0.9682   0.5099   0.0000   0.0000   0.0000   0.0000
     0.0000   0.0000   0.0000

          k =-0.1250-0.3608 0.0976 (  3805 PWs)   bands (ev):

   -88.6668 -51.9828 -51.9574 -51.8018 -27.4773 -11.8576 -11.8012 -10.9438
   -10.7807 -10.5176   1.0420   1.5116   2.1325   2.6962   3.2534   4.7991
     5.9562   6.3367   6.4910   7.0779   7.4560   8.1059   8.4496   8.7585
    10.3028  12.0000  13.2472

     occupation numbers 
     1.0000   1.0000   1.0000   1.0000   1.0000   1.0000   1.0000   1.0000
     1.0000   1.0000   1.0000   1.0000   1.0000   1.0000   1.0000   1.0000
     1.0519   0.7563   0.3461   0.0001   0.0000   0.0000   0.0000   0.0000
     0.0000   0.0000   0.0000

          k =-0.1250-0.5052 0.0976 (  3819 PWs)   bands (ev):

   -88.6656 -51.9950 -51.9622 -51.7998 -27.3054 -12.4255 -11.3520 -11.0508
   -10.7435 -10.6283   0.5142   1.5062   2.3814   2.9177   3.2011   4.2195
     5.9284   6.0183   6.4087   6.7455   7.2434   8.2742   8.5794  10.1961
    11.2319  11.3410  14.2369

     occupation numbers 
     1.0000   1.0000   1.0000   1.0000   1.0000   1.0000   1.0000   1.0000
     1.0000   1.0000   1.0000   1.0000   1.0000   1.0000   1.0000   1.0000
     1.0426   1.0724   0.5602   0.0278   0.0000   0.0000   0.0000   0.0000
     0.0000   0.0000   0.0000

     the Fermi energy is     6.4686 ev

!    total energy              =    -572.85054866 Ry
     total all-electron energy =     -4291.961385 Ry
     estimated scf accuracy    <       0.00000003 Ry
     smearing contrib. (-TS)   =       0.00261953 Ry
     internal energy E=F+TS    =    -572.85316819 Ry

     The total energy is F=E-TS. E is the sum of the following terms:
     one-electron contribution =    -616.66775967 Ry
     hartree contribution      =     323.14946359 Ry
     xc contribution           =     -56.59554567 Ry
     ewald contribution        =     -60.53494408 Ry
     one-center paw contrib.   =    -162.20438235 Ry
      -> PAW hartree energy AE =     308.74267601 Ry
      -> PAW hartree energy PS =    -307.39570333 Ry
      -> PAW xc energy AE      =    -216.91047079 Ry
      -> PAW xc energy PS      =      53.35911576 Ry
      -> total E_H with PAW    =     324.49643626 Ry
      -> total E_XC with PAW   =    -220.14690070 Ry

     total magnetization       =     0.49 Bohr mag/cell
     absolute magnetization    =     0.90 Bohr mag/cell

     convergence has been achieved in  30 iterations

     Forces acting on atoms (cartesian axes, Ry/au):

     atom    1 type  1   force =    -0.00000000   -0.00000000    0.00895697
     atom    2 type  2   force =     0.00000000    0.00000000   -0.02316512
     atom    3 type  2   force =     0.00000000    0.00000000    0.00474066
     atom    4 type  3   force =     0.00000000    0.00000000    0.00946748
     The non-local contrib.  to forces
     atom    1 type  1   force =     0.00000000    0.00000000    0.00673989
     atom    2 type  2   force =     0.00000000    0.00000000   -1.11403212
     atom    3 type  2   force =     0.00000000    0.00000000    0.97447384
     atom    4 type  3   force =     0.00000000    0.00000000    0.03745894
     The ionic contribution  to forces
     atom    1 type  1   force =    -0.00000000    0.00000000    4.48321099
     atom    2 type  2   force =     0.00000000   -0.00000000   36.21801277
     atom    3 type  2   force =    -0.00000000    0.00000000  -33.06153834
     atom    4 type  3   force =     0.00000000   -0.00000000   -7.63968543
     The local contribution  to forces
     atom    1 type  1   force =    -0.00000000   -0.00000000   -4.48098529
     atom    2 type  2   force =     0.00000001   -0.00000001  -35.13682233
     atom    3 type  2   force =    -0.00000001    0.00000001   32.10008202
     atom    4 type  3   force =    -0.00000000   -0.00000000    7.61271826
     The core correction contribution to forces
     atom    1 type  1   force =     0.00000000   -0.00000000   -0.00006506
     atom    2 type  2   force =    -0.00000000    0.00000000    0.00980531
     atom    3 type  2   force =     0.00000000   -0.00000000   -0.00839861
     atom    4 type  3   force =    -0.00000000    0.00000000   -0.00109663
     The Hubbard contrib.    to forces
     atom    1 type  1   force =     0.00000000    0.00000000    0.00000000
     atom    2 type  2   force =     0.00000000    0.00000000    0.00000000
     atom    3 type  2   force =     0.00000000    0.00000000    0.00000000
     atom    4 type  3   force =     0.00000000    0.00000000    0.00000000
     The SCF correction term to forces
     atom    1 type  1   force =    -0.00000000   -0.00000000    0.00006161
     atom    2 type  2   force =     0.00000000   -0.00000000   -0.00012358
     atom    3 type  2   force =    -0.00000000    0.00000000    0.00012692
     atom    4 type  3   force =     0.00000000   -0.00000000    0.00007751

     Total force =     0.026999     Total SCF correction =     0.000203

     Writing all to output data dir ./out/pw.save/ :
     XML data file, charge density, pseudopotentials, collected wavefunctions
 
     init_run     :     12.40s CPU      3.18s WALL (       1 calls)
     electrons    :    177.00s CPU     49.14s WALL (       1 calls)
     forces       :      0.61s CPU      0.58s WALL (       1 calls)

     Called by init_run:
     wfcinit      :      0.27s CPU      0.35s WALL (       1 calls)
     wfcinit:atom :      0.05s CPU      0.05s WALL (      50 calls)
     wfcinit:wfcr :      0.16s CPU      0.20s WALL (      50 calls)
     potinit      :     11.49s CPU      2.16s WALL (       1 calls)
     hinit0       :      0.52s CPU      0.52s WALL (       1 calls)

     Called by electrons:
     c_bands      :     21.19s CPU     21.51s WALL (      30 calls)
     sum_band     :      4.04s CPU      4.07s WALL (      30 calls)
     v_of_rho     :      0.52s CPU      0.29s WALL (      31 calls)
     v_h          :      0.36s CPU      0.05s WALL (      31 calls)
     v_xc         :      0.16s CPU      0.24s WALL (      32 calls)
     newd         :      1.00s CPU      0.82s WALL (      31 calls)
                                        0.82s GPU  (      31 calls)
     PAW_pot      :    153.26s CPU     22.05s WALL (      31 calls)
     mix_rho      :      1.00s CPU      1.03s WALL (      30 calls)

     Called by c_bands:
     init_us_2    :      1.26s CPU      1.25s WALL (    3100 calls)
     cegterg      :     18.49s CPU     18.81s WALL (    1500 calls)

     Called by sum_band:
     sum_band:wei :      0.04s CPU      0.04s WALL (      30 calls)
                                        0.04s GPU  (      30 calls)
     sum_band:loo :      2.14s CPU      2.15s WALL (      30 calls)
                                        2.15s GPU  (      30 calls)
     sum_band:buf :      0.30s CPU      0.34s WALL (    1500 calls)
                                        0.32s GPU  (    1500 calls)
     sum_band:ini :      0.59s CPU      0.61s WALL (    1500 calls)
                                        0.59s GPU  (    1500 calls)
     sum_band:cal :      0.06s CPU      0.09s WALL (    1500 calls)
                                        0.08s GPU  (    1500 calls)
     sum_band:bec :      0.32s CPU      0.35s WALL (    1500 calls)
                                        0.33s GPU  (    1500 calls)
     addusdens    :      1.62s CPU      1.63s WALL (      30 calls)
                                        1.63s GPU  (      30 calls)
     addusd:skk   :      0.00s CPU      0.01s WALL (      90 calls)
                                        0.01s GPU  (      90 calls)

     Called by *egterg:
     cdiaghg      :      6.32s CPU      6.52s WALL (    7148 calls)
                                        6.43s GPU  (    7148 calls)
     cegterg:over :      1.71s CPU      1.78s WALL (    5648 calls)
     cegterg:upda :      1.07s CPU      1.08s WALL (    5648 calls)
     cegterg:last :      0.19s CPU      0.19s WALL (    2779 calls)
     h_psi        :      6.54s CPU      6.80s WALL (    7198 calls)
                                        6.71s GPU  (    7198 calls)
     s_psi        :      1.13s CPU      1.20s WALL (    7198 calls)
     g_psi        :      0.03s CPU      0.15s WALL (    5648 calls)
                                        0.07s GPU  (    5648 calls)

     Called by h_psi:
     h_psi:calbec :      0.21s CPU      0.41s WALL (    7198 calls)
                                        0.32s GPU  (    7198 calls)
     vloc_psi     :      4.49s CPU      4.61s WALL (    7198 calls)
                                        4.52s GPU  (    7198 calls)
     add_vuspsi   :      1.03s CPU      1.24s WALL (    7198 calls)
                                        1.15s GPU  (    7198 calls)

     General routines
     calbec       :      0.23s CPU      0.27s WALL (    8898 calls)
     fft          :      3.27s CPU      0.62s WALL (     788 calls)
                                        0.03s GPU  (     726 calls)
     ffts         :      3.82s CPU      0.80s WALL (    1229 calls)
                                        0.03s GPU  (    1167 calls)
     fftw         :      0.41s CPU      1.62s WALL (   23508 calls)
                                        1.35s GPU  (   23508 calls)
     interpolate  :      7.33s CPU      1.39s WALL (      62 calls)
 
     Parallel routines

     PAW routines
     PAW_pot      :    153.26s CPU     22.05s WALL (      31 calls)
     PAW_symme    :      0.01s CPU      0.01s WALL (      61 calls)
 
     PWSCF        :   3m10.94s CPU     53.53s WALL

 
   This run was terminated on:   5:40:19  12Jul2026            

=------------------------------------------------------------------------------=
   JOB DONE.
=------------------------------------------------------------------------------=
Warning: ieee_divide_by_zero is signaling
Warning: ieee_inexact is signaling
FORTRAN STOP
