
     Program PWSCF v.7.3.1 starts on 12Jul2026 at  2:15: 5 

     This program is part of the open-source Quantum ESPRESSO suite
     for quantum simulation of materials; please cite
         "P. Giannozzi et al., J. Phys.:Condens. Matter 21 395502 (2009);
         "P. Giannozzi et al., J. Phys.:Condens. Matter 29 465901 (2017);
         "P. Giannozzi et al., J. Chem. Phys. 152 154105 (2020);
          URL http://www.quantum-espresso.org", 
     in publications or presentations arising from this work. More details at
     http://www.quantum-espresso.org/quote

     Parallel version (MPI & OpenMP), running on      14 processor cores
     Number of MPI processes:                 1
     Threads/MPI process:                    14

     MPI processes distributed on     1 nodes
     851227 MiB available memory on the printing compute node when the environment starts
 
     Reading input from pw.in

     Current dimensions of program PWSCF are:
     Max number of different atomic species (ntypx) = 10
     Max number of k-points (npk) =  40000
     Max angular momentum in pseudopotentials (lmaxx) =  4
     file Co.pbe-spn-kjpaw_psl.0.3.1.UPF: wavefunction(s)  3P 3D renormalized
     file O.pbe-n-kjpaw_psl.1.0.0.UPF: wavefunction(s)  2S 2P renormalized
     file Na.pbe-spn-kjpaw_psl.1.0.0.UPF: wavefunction(s)  2P renormalized
 
     Subspace diagonalization in iterative solution of the eigenvalue problem:
     a serial algorithm will be used

 
     G-vector sticks info
     --------------------
     sticks:   dense  smooth     PW     G-vecs:    dense   smooth      PW
     Sum         979     499    151                59641    21167    3485
 
     Using Slab Decomposition
 


     bravais-lattice index     =            4
     lattice parameter (alat)  =       5.4575  a.u.
     unit-cell volume          =     336.3339 (a.u.)^3
     number of atoms/cell      =            4
     number of atomic types    =            3
     number of electrons       =        38.00
     number of Kohn-Sham states=           27
     kinetic-energy cutoff     =      60.0000  Ry
     charge density cutoff     =     480.0000  Ry
     scf convergence threshold =      1.0E-08
     mixing beta               =       0.3000
     number of iterations used =            8  plain     mixing
     Exchange-correlation= SLA  PW   PBX  PBC
                           (   1   4   3   4   0   0   0)

     GPU acceleration is ACTIVE.  1 visible GPUs per MPI rank
     GPU-aware MPI enabled


     GPU used by master process:

        Device Number: 0
        Device name: NVIDIA A100-SXM4-80GB
        Compute capability : 80
        Ratio of single to double precision performance  : 2
        Memory Clock Rate (KHz): 1593000
        Memory Bus Width (bits): 5120
        Peak Memory Bandwidth (GB/s): ******

     celldm(1)=   5.457529  celldm(2)=   0.000000  celldm(3)=   2.389197
     celldm(4)=   0.000000  celldm(5)=   0.000000  celldm(6)=   0.000000

     crystal axes: (cart. coord. in units of alat)
               a(1) = (   1.000000   0.000000   0.000000 )  
               a(2) = (  -0.500000   0.866025   0.000000 )  
               a(3) = (   0.000000   0.000000   2.389197 )  

     reciprocal axes: (cart. coord. in units 2 pi/alat)
               b(1) = (  1.000000  0.577350 -0.000000 )  
               b(2) = (  0.000000  1.154701  0.000000 )  
               b(3) = (  0.000000 -0.000000  0.418551 )  


     PseudoPot. # 1 for Co read from file:
     ../../pseudo/Co.pbe-spn-kjpaw_psl.0.3.1.UPF
     MD5 check sum: 3c0a43779828c046024e4f3be63f8e67
     Pseudo is Projector augmented-wave + core cor, Zval = 17.0
     Generated using &quot;atomic&quot; code by A. Dal Corso  v.6.2.2
     Shape of augmentation charge: PSQ
     Using radial grid of 1193 points,  6 beta functions with: 
                l(1) =   0
                l(2) =   0
                l(3) =   1
                l(4) =   1
                l(5) =   2
                l(6) =   2
     Q(r) pseudized with 0 coefficients 


     PseudoPot. # 2 for O  read from file:
     ../../pseudo/O.pbe-n-kjpaw_psl.1.0.0.UPF
     MD5 check sum: e99d9cef9b487d1ca56f5b95ecd0fd7a
     Pseudo is Projector augmented-wave + core cor, Zval =  6.0
     Generated using &quot;atomic&quot; code by A. Dal Corso  v.6.3
     Shape of augmentation charge: PSQ
     Using radial grid of 1095 points,  4 beta functions with: 
                l(1) =   0
                l(2) =   0
                l(3) =   1
                l(4) =   1
     Q(r) pseudized with 0 coefficients 


     PseudoPot. # 3 for Na read from file:
     ../../pseudo/Na.pbe-spn-kjpaw_psl.1.0.0.UPF
     MD5 check sum: 05b4deb74e3932c23ab016979dc8b5d4
     Pseudo is Projector augmented-wave + core cor, Zval =  9.0
     Generated using &quot;atomic&quot; code by A. Dal Corso  v.6.3
     Shape of augmentation charge: PSQ
     Using radial grid of 1121 points,  4 beta functions with: 
                l(1) =   0
                l(2) =   0
                l(3) =   1
                l(4) =   1
     Q(r) pseudized with 0 coefficients 


     atomic species   valence    mass     pseudopotential
     Co               17.00    58.93300     Co( 1.00)
     O                 6.00    15.99900     O ( 1.00)
     Na                9.00    22.98977     Na( 1.00)

     Starting magnetic structure 
     atomic species   magnetization
     Co              0.300
     O               0.000
     Na              0.000

      6 Sym. Ops. (no inversion) found


                                    s                        frac. trans.

      isym =  1     identity                                     

 cryst.   s( 1) = (     1          0          0      )
                  (     0          1          0      )
                  (     0          0          1      )

 cart.    s( 1) = (  1.0000000  0.0000000  0.0000000 )
                  (  0.0000000  1.0000000  0.0000000 )
                  (  0.0000000  0.0000000  1.0000000 )


      isym =  2     120 deg rotation - cryst. axis [0,0,1]       

 cryst.   s( 2) = (     0          1          0      )
                  (    -1         -1          0      )
                  (     0          0          1      )

 cart.    s( 2) = ( -0.5000000 -0.8660254  0.0000000 )
                  (  0.8660254 -0.5000000  0.0000000 )
                  (  0.0000000  0.0000000  1.0000000 )


      isym =  3     120 deg rotation - cryst. axis [0,0,-1]      

 cryst.   s( 3) = (    -1         -1          0      )
                  (     1          0          0      )
                  (     0          0          1      )

 cart.    s( 3) = ( -0.5000000  0.8660254  0.0000000 )
                  ( -0.8660254 -0.5000000  0.0000000 )
                  (  0.0000000  0.0000000  1.0000000 )


      isym =  4     inv. 180 deg rotation - cart. axis [1,0,0]   

 cryst.   s( 4) = (    -1          0          0      )
                  (     1          1          0      )
                  (     0          0          1      )

 cart.    s( 4) = ( -1.0000000  0.0000000  0.0000000 )
                  (  0.0000000  1.0000000  0.0000000 )
                  (  0.0000000  0.0000000  1.0000000 )


      isym =  5     inv. 180 deg rotation - cryst. axis [0,1,0]  

 cryst.   s( 5) = (     1          1          0      )
                  (     0         -1          0      )
                  (     0          0          1      )

 cart.    s( 5) = (  0.5000000  0.8660254  0.0000000 )
                  (  0.8660254 -0.5000000  0.0000000 )
                  (  0.0000000  0.0000000  1.0000000 )


      isym =  6     inv. 180 deg rotation - cryst. axis [1,1,0]  

 cryst.   s( 6) = (     0         -1          0      )
                  (    -1          0          0      )
                  (     0          0          1      )

 cart.    s( 6) = (  0.5000000 -0.8660254  0.0000000 )
                  ( -0.8660254 -0.5000000  0.0000000 )
                  (  0.0000000  0.0000000  1.0000000 )


     point group C_3v (3m)  
     there are  3 classes
     the character table:

       E     2C3   3s_v 
A_1    1.00  1.00  1.00
A_2    1.00  1.00 -1.00
E      2.00 -1.00  0.00

     the symmetry operations in each class and the name of the first element:

     E        1
          identity                                               
     2C3      2    3
          120 deg rotation - cryst. axis [0,0,1]                 
     3s_v     4    5    6
          inv. 180 deg rotation - cart. axis [1,0,0]             

   Cartesian axes

     site n.     atom                  positions (alat units)
         1        Co     tau(   1) = (   0.0000000   0.0000000   0.0000000  )
         2        O      tau(   2) = (  -0.0000000   0.5773503   0.3324100  )
         3        O      tau(   3) = (   0.5000000   0.2886751   2.0567867  )
         4        Na     tau(   4) = (  -0.0000000   0.5773503   1.5408587  )

   Crystallographic axes

     site n.     atom                  positions (cryst. coord.)
         1        Co     tau(   1) = (  0.0000000  0.0000000  0.0000000  )
         2        O      tau(   2) = (  0.3333333  0.6666667  0.1391304  )
         3        O      tau(   3) = (  0.6666667  0.3333333  0.8608696  )
         4        Na     tau(   4) = (  0.3333333  0.6666667  0.6449275  )

     number of k points=    25  Marzari-Vanderbilt smearing, width (Ry)=  0.0200
                       cart. coord. in units 2pi/alat
        k(    1) = (   0.0000000   0.0000000   0.0000000), wk =   0.0052083
        k(    2) = (   0.0000000   0.0000000   0.1395169), wk =   0.0104167
        k(    3) = (   0.0000000   0.1443376   0.0000000), wk =   0.0312500
        k(    4) = (   0.0000000   0.1443376   0.1395169), wk =   0.0312500
        k(    5) = (   0.0000000   0.2886751   0.0000000), wk =   0.0312500
        k(    6) = (   0.0000000   0.2886751   0.1395169), wk =   0.0312500
        k(    7) = (   0.0000000   0.4330127   0.0000000), wk =   0.0312500
        k(    8) = (   0.0000000   0.4330127   0.1395169), wk =   0.0312500
        k(    9) = (   0.0000000  -0.5773503   0.0000000), wk =   0.0156250
        k(   10) = (   0.0000000  -0.5773503   0.1395169), wk =   0.0312500
        k(   11) = (   0.1250000   0.2165064   0.0000000), wk =   0.0312500
        k(   12) = (   0.1250000   0.2165064   0.1395169), wk =   0.0625000
        k(   13) = (   0.1250000   0.3608439   0.0000000), wk =   0.0625000
        k(   14) = (   0.1250000   0.3608439   0.1395169), wk =   0.0625000
        k(   15) = (   0.1250000   0.5051815   0.0000000), wk =   0.0625000
        k(   16) = (   0.1250000   0.5051815   0.1395169), wk =   0.0625000
        k(   17) = (   0.2500000   0.4330127   0.0000000), wk =   0.0312500
        k(   18) = (   0.2500000   0.4330127   0.1395169), wk =   0.0625000
        k(   19) = (   0.2500000   0.5773503   0.0000000), wk =   0.0312500
        k(   20) = (   0.2500000   0.5773503   0.1395169), wk =   0.0625000
        k(   21) = (   0.0000000  -0.1443376   0.1395169), wk =   0.0312500
        k(   22) = (   0.0000000  -0.2886751   0.1395169), wk =   0.0312500
        k(   23) = (   0.0000000  -0.4330127   0.1395169), wk =   0.0312500
        k(   24) = (  -0.1250000  -0.3608439   0.1395169), wk =   0.0625000
        k(   25) = (  -0.1250000  -0.5051815   0.1395169), wk =   0.0625000

                       cryst. coord.
        k(    1) = (   0.0000000   0.0000000   0.0000000), wk =   0.0052083
        k(    2) = (   0.0000000   0.0000000   0.3333333), wk =   0.0104167
        k(    3) = (   0.0000000   0.1250000   0.0000000), wk =   0.0312500
        k(    4) = (   0.0000000   0.1250000   0.3333333), wk =   0.0312500
        k(    5) = (   0.0000000   0.2500000   0.0000000), wk =   0.0312500
        k(    6) = (   0.0000000   0.2500000   0.3333333), wk =   0.0312500
        k(    7) = (   0.0000000   0.3750000   0.0000000), wk =   0.0312500
        k(    8) = (   0.0000000   0.3750000   0.3333333), wk =   0.0312500
        k(    9) = (   0.0000000  -0.5000000   0.0000000), wk =   0.0156250
        k(   10) = (   0.0000000  -0.5000000   0.3333333), wk =   0.0312500
        k(   11) = (   0.1250000   0.1250000   0.0000000), wk =   0.0312500
        k(   12) = (   0.1250000   0.1250000   0.3333333), wk =   0.0625000
        k(   13) = (   0.1250000   0.2500000   0.0000000), wk =   0.0625000
        k(   14) = (   0.1250000   0.2500000   0.3333333), wk =   0.0625000
        k(   15) = (   0.1250000   0.3750000   0.0000000), wk =   0.0625000
        k(   16) = (   0.1250000   0.3750000   0.3333333), wk =   0.0625000
        k(   17) = (   0.2500000   0.2500000   0.0000000), wk =   0.0312500
        k(   18) = (   0.2500000   0.2500000   0.3333333), wk =   0.0625000
        k(   19) = (   0.2500000   0.3750000   0.0000000), wk =   0.0312500
        k(   20) = (   0.2500000   0.3750000   0.3333333), wk =   0.0625000
        k(   21) = (   0.0000000  -0.1250000   0.3333333), wk =   0.0312500
        k(   22) = (   0.0000000  -0.2500000   0.3333333), wk =   0.0312500
        k(   23) = (   0.0000000  -0.3750000   0.3333333), wk =   0.0312500
        k(   24) = (  -0.1250000  -0.2500000   0.3333333), wk =   0.0625000
        k(   25) = (  -0.1250000  -0.3750000   0.3333333), wk =   0.0625000

     Dense  grid:    59641 G-vectors     FFT dimensions: (  40,  40,  96)

     Smooth grid:    21167 G-vectors     FFT dimensions: (  27,  27,  72)

     Dynamical RAM for                 wfc:       1.09 MB

     Dynamical RAM for     wfc (w. buffer):      55.47 MB

     Dynamical RAM for           str. fact:       2.73 MB

     Dynamical RAM for           local pot:       0.00 MB

     Dynamical RAM for          nlocal pot:       1.69 MB

     Dynamical RAM for                qrad:       5.27 MB

     Dynamical RAM for          rho,v,vnew:      12.49 MB

     Dynamical RAM for               rhoin:       4.16 MB

     Dynamical RAM for            rho*nmix:      29.12 MB

     Dynamical RAM for           G-vectors:       3.57 MB

     Dynamical RAM for          h,s,v(r/c):       0.13 MB

     Dynamical RAM for          <psi|beta>:       0.02 MB

     Dynamical RAM for                 psi:       2.18 MB

     Dynamical RAM for                hpsi:       2.18 MB

     Dynamical RAM for                spsi:       2.18 MB

     Dynamical RAM for      wfcinit/wfcrot:       2.19 MB

     Dynamical RAM for           addusdens:     172.00 MB

     Dynamical RAM for          addusforce:     173.84 MB

     Estimated static dynamical RAM per process >      96.07 MB

     Estimated max dynamical RAM per process >     299.02 MB

     Check: negative core charge=   -0.000008
     Generating pointlists ...
     new r_m :   0.2748 (alat units)  1.4998 (a.u.) for type    1
     new r_m :   0.2748 (alat units)  1.4998 (a.u.) for type    2
     new r_m :   0.3194 (alat units)  1.7431 (a.u.) for type    3

     Initial potential from superposition of free atoms

     starting charge      37.9934, renormalised to      38.0000
     Starting wfcs are   23 randomized atomic wfcs +    4 random wfcs
     Checking if some PAW data can be deallocated... 

     total cpu time spent up to now is        4.3 secs

     Self-consistent Calculation
[tb_dev] Currently allocated     6.54E-01 Mbytes, locked:    0 /   6
[tb_pin] Currently allocated     0.00E+00 Mbytes, locked:    0 /   0

     iteration #  1     ecut=    60.00 Ry     beta= 0.30
     Davidson diagonalization with overlap

---- Real-time Memory Report at c_bands before calling an iterative solver
           667 MiB given to the printing process from OS
             0 MiB allocation reported by mallinfo(arena+hblkhd)
        851780 MiB available memory on the node where the printing process lives
     GPU memory used/free/total (MiB): 998 / 80152 / 81151
------------------
     ethr =  1.00E-02,  avg # of iterations =  9.7

     total cpu time spent up to now is        6.4 secs

     total energy              =    -568.74166052 Ry
     estimated scf accuracy    <       1.51829892 Ry

     total magnetization       =     4.00 Bohr mag/cell
     absolute magnetization    =     4.00 Bohr mag/cell
[tb_dev] Currently allocated     3.05E-05 Mbytes, locked:    0 /   2
[tb_pin] Currently allocated     0.00E+00 Mbytes, locked:    0 /   0

     iteration #  2     ecut=    60.00 Ry     beta= 0.30
     Davidson diagonalization with overlap

---- Real-time Memory Report at c_bands before calling an iterative solver
           708 MiB given to the printing process from OS
             0 MiB allocation reported by mallinfo(arena+hblkhd)
        851546 MiB available memory on the node where the printing process lives
     GPU memory used/free/total (MiB): 1012 / 80138 / 81151
------------------
     ethr =  4.00E-03,  avg # of iterations =  2.0

     total cpu time spent up to now is        7.6 secs

     total energy              =    -568.76692901 Ry
     estimated scf accuracy    <       3.22999678 Ry

     total magnetization       =     0.67 Bohr mag/cell
     absolute magnetization    =     1.31 Bohr mag/cell
[tb_dev] Currently allocated     3.05E-05 Mbytes, locked:    0 /   2
[tb_pin] Currently allocated     0.00E+00 Mbytes, locked:    0 /   0

     iteration #  3     ecut=    60.00 Ry     beta= 0.30
     Davidson diagonalization with overlap

---- Real-time Memory Report at c_bands before calling an iterative solver
           710 MiB given to the printing process from OS
             0 MiB allocation reported by mallinfo(arena+hblkhd)
        851437 MiB available memory on the node where the printing process lives
     GPU memory used/free/total (MiB): 1012 / 80138 / 81151
------------------
     ethr =  4.00E-03,  avg # of iterations =  1.3

     total cpu time spent up to now is        8.6 secs

     total energy              =    -569.10885823 Ry
     estimated scf accuracy    <       0.32736798 Ry

     total magnetization       =     3.61 Bohr mag/cell
     absolute magnetization    =     3.62 Bohr mag/cell
[tb_dev] Currently allocated     3.05E-05 Mbytes, locked:    0 /   2
[tb_pin] Currently allocated     0.00E+00 Mbytes, locked:    0 /   0

     iteration #  4     ecut=    60.00 Ry     beta= 0.30
     Davidson diagonalization with overlap

---- Real-time Memory Report at c_bands before calling an iterative solver
           710 MiB given to the printing process from OS
             0 MiB allocation reported by mallinfo(arena+hblkhd)
        851320 MiB available memory on the node where the printing process lives
     GPU memory used/free/total (MiB): 1012 / 80138 / 81151
------------------
     ethr =  8.61E-04,  avg # of iterations =  2.9

     total cpu time spent up to now is        9.9 secs

     total energy              =    -569.16674468 Ry
     estimated scf accuracy    <       0.14163370 Ry

     total magnetization       =     2.45 Bohr mag/cell
     absolute magnetization    =     2.46 Bohr mag/cell
[tb_dev] Currently allocated     3.05E-05 Mbytes, locked:    0 /   2
[tb_pin] Currently allocated     0.00E+00 Mbytes, locked:    0 /   0

     iteration #  5     ecut=    60.00 Ry     beta= 0.30
     Davidson diagonalization with overlap

---- Real-time Memory Report at c_bands before calling an iterative solver
           711 MiB given to the printing process from OS
             0 MiB allocation reported by mallinfo(arena+hblkhd)
        851254 MiB available memory on the node where the printing process lives
     GPU memory used/free/total (MiB): 1012 / 80138 / 81151
------------------
     ethr =  3.73E-04,  avg # of iterations =  2.8

     total cpu time spent up to now is       11.1 secs

     total energy              =    -569.19567695 Ry
     estimated scf accuracy    <       0.11782761 Ry

     total magnetization       =     2.31 Bohr mag/cell
     absolute magnetization    =     2.37 Bohr mag/cell
[tb_dev] Currently allocated     3.05E-05 Mbytes, locked:    0 /   2
[tb_pin] Currently allocated     0.00E+00 Mbytes, locked:    0 /   0

     iteration #  6     ecut=    60.00 Ry     beta= 0.30
     Davidson diagonalization with overlap

---- Real-time Memory Report at c_bands before calling an iterative solver
           713 MiB given to the printing process from OS
             0 MiB allocation reported by mallinfo(arena+hblkhd)
        851296 MiB available memory on the node where the printing process lives
     GPU memory used/free/total (MiB): 1012 / 80138 / 81151
------------------
     ethr =  3.10E-04,  avg # of iterations =  2.1

     total cpu time spent up to now is       12.2 secs

     total energy              =    -569.22187190 Ry
     estimated scf accuracy    <       0.13532415 Ry

     total magnetization       =     1.54 Bohr mag/cell
     absolute magnetization    =     1.73 Bohr mag/cell
[tb_dev] Currently allocated     3.05E-05 Mbytes, locked:    0 /   2
[tb_pin] Currently allocated     0.00E+00 Mbytes, locked:    0 /   0

     iteration #  7     ecut=    60.00 Ry     beta= 0.30
     Davidson diagonalization with overlap

---- Real-time Memory Report at c_bands before calling an iterative solver
           714 MiB given to the printing process from OS
             0 MiB allocation reported by mallinfo(arena+hblkhd)
        851330 MiB available memory on the node where the printing process lives
     GPU memory used/free/total (MiB): 1012 / 80138 / 81151
------------------
     ethr =  3.10E-04,  avg # of iterations =  1.4

     total cpu time spent up to now is       13.3 secs

     total energy              =    -569.18879372 Ry
     estimated scf accuracy    <       0.08162723 Ry

     total magnetization       =     0.68 Bohr mag/cell
     absolute magnetization    =     1.03 Bohr mag/cell
[tb_dev] Currently allocated     3.05E-05 Mbytes, locked:    0 /   2
[tb_pin] Currently allocated     0.00E+00 Mbytes, locked:    0 /   0

     iteration #  8     ecut=    60.00 Ry     beta= 0.30
     Davidson diagonalization with overlap

---- Real-time Memory Report at c_bands before calling an iterative solver
           715 MiB given to the printing process from OS
             0 MiB allocation reported by mallinfo(arena+hblkhd)
        851347 MiB available memory on the node where the printing process lives
     GPU memory used/free/total (MiB): 1012 / 80138 / 81151
------------------
     ethr =  2.15E-04,  avg # of iterations =  1.6

     total cpu time spent up to now is       14.4 secs

     total energy              =    -569.12304040 Ry
     estimated scf accuracy    <       0.07272299 Ry

     total magnetization       =     2.14 Bohr mag/cell
     absolute magnetization    =     2.24 Bohr mag/cell
[tb_dev] Currently allocated     3.05E-05 Mbytes, locked:    0 /   2
[tb_pin] Currently allocated     0.00E+00 Mbytes, locked:    0 /   0

     iteration #  9     ecut=    60.00 Ry     beta= 0.30
     Davidson diagonalization with overlap

---- Real-time Memory Report at c_bands before calling an iterative solver
           716 MiB given to the printing process from OS
             0 MiB allocation reported by mallinfo(arena+hblkhd)
        851368 MiB available memory on the node where the printing process lives
     GPU memory used/free/total (MiB): 1012 / 80138 / 81151
------------------
     ethr =  1.91E-04,  avg # of iterations =  1.5

     total cpu time spent up to now is       15.5 secs

     total energy              =    -569.18461965 Ry
     estimated scf accuracy    <       0.11117638 Ry

     total magnetization       =     3.34 Bohr mag/cell
     absolute magnetization    =     3.36 Bohr mag/cell
[tb_dev] Currently allocated     3.05E-05 Mbytes, locked:    0 /   2
[tb_pin] Currently allocated     0.00E+00 Mbytes, locked:    0 /   0

     iteration # 10     ecut=    60.00 Ry     beta= 0.30
     Davidson diagonalization with overlap

---- Real-time Memory Report at c_bands before calling an iterative solver
           718 MiB given to the printing process from OS
             0 MiB allocation reported by mallinfo(arena+hblkhd)
        851389 MiB available memory on the node where the printing process lives
     GPU memory used/free/total (MiB): 1012 / 80138 / 81151
------------------
     ethr =  1.91E-04,  avg # of iterations =  1.4

     total cpu time spent up to now is       16.6 secs

     total energy              =    -569.18902225 Ry
     estimated scf accuracy    <       0.07039354 Ry

     total magnetization       =     1.48 Bohr mag/cell
     absolute magnetization    =     1.69 Bohr mag/cell
[tb_dev] Currently allocated     3.05E-05 Mbytes, locked:    0 /   2
[tb_pin] Currently allocated     0.00E+00 Mbytes, locked:    0 /   0

     iteration # 11     ecut=    60.00 Ry     beta= 0.30
     Davidson diagonalization with overlap

---- Real-time Memory Report at c_bands before calling an iterative solver
           718 MiB given to the printing process from OS
             0 MiB allocation reported by mallinfo(arena+hblkhd)
        851403 MiB available memory on the node where the printing process lives
     GPU memory used/free/total (MiB): 1012 / 80138 / 81151
------------------
     ethr =  1.85E-04,  avg # of iterations =  4.0

     total cpu time spent up to now is       18.0 secs

     total energy              =    -569.24931551 Ry
     estimated scf accuracy    <       0.20938734 Ry

     total magnetization       =    -0.11 Bohr mag/cell
     absolute magnetization    =     0.27 Bohr mag/cell
[tb_dev] Currently allocated     3.05E-05 Mbytes, locked:    0 /   2
[tb_pin] Currently allocated     0.00E+00 Mbytes, locked:    0 /   0

     iteration # 12     ecut=    60.00 Ry     beta= 0.30
     Davidson diagonalization with overlap

---- Real-time Memory Report at c_bands before calling an iterative solver
           718 MiB given to the printing process from OS
             0 MiB allocation reported by mallinfo(arena+hblkhd)
        851463 MiB available memory on the node where the printing process lives
     GPU memory used/free/total (MiB): 1012 / 80138 / 81151
------------------
     ethr =  1.85E-04,  avg # of iterations =  3.6

     total cpu time spent up to now is       19.3 secs

     total energy              =    -569.27757032 Ry
     estimated scf accuracy    <       1.54598785 Ry

     total magnetization       =    -2.60 Bohr mag/cell
     absolute magnetization    =     2.64 Bohr mag/cell
[tb_dev] Currently allocated     3.05E-05 Mbytes, locked:    0 /   2
[tb_pin] Currently allocated     0.00E+00 Mbytes, locked:    0 /   0

     iteration # 13     ecut=    60.00 Ry     beta= 0.30
     Davidson diagonalization with overlap

---- Real-time Memory Report at c_bands before calling an iterative solver
           718 MiB given to the printing process from OS
             0 MiB allocation reported by mallinfo(arena+hblkhd)
        851398 MiB available memory on the node where the printing process lives
     GPU memory used/free/total (MiB): 1012 / 80138 / 81151
------------------
     ethr =  1.85E-04,  avg # of iterations =  1.1

     total cpu time spent up to now is       20.4 secs

     total energy              =    -569.31455751 Ry
     estimated scf accuracy    <       0.82387797 Ry

     total magnetization       =    -0.75 Bohr mag/cell
     absolute magnetization    =     0.80 Bohr mag/cell
[tb_dev] Currently allocated     3.05E-05 Mbytes, locked:    0 /   2
[tb_pin] Currently allocated     0.00E+00 Mbytes, locked:    0 /   0

     iteration # 14     ecut=    60.00 Ry     beta= 0.30
     Davidson diagonalization with overlap

---- Real-time Memory Report at c_bands before calling an iterative solver
           718 MiB given to the printing process from OS
             0 MiB allocation reported by mallinfo(arena+hblkhd)
        851830 MiB available memory on the node where the printing process lives
     GPU memory used/free/total (MiB): 1012 / 80138 / 81151
------------------
     ethr =  1.85E-04,  avg # of iterations =  1.2

     total cpu time spent up to now is       21.5 secs

     total energy              =    -569.22743403 Ry
     estimated scf accuracy    <       0.80333917 Ry

     total magnetization       =    -0.84 Bohr mag/cell
     absolute magnetization    =     0.90 Bohr mag/cell
[tb_dev] Currently allocated     3.05E-05 Mbytes, locked:    0 /   2
[tb_pin] Currently allocated     0.00E+00 Mbytes, locked:    0 /   0

     iteration # 15     ecut=    60.00 Ry     beta= 0.30
     Davidson diagonalization with overlap

---- Real-time Memory Report at c_bands before calling an iterative solver
           718 MiB given to the printing process from OS
             0 MiB allocation reported by mallinfo(arena+hblkhd)
        851730 MiB available memory on the node where the printing process lives
     GPU memory used/free/total (MiB): 1012 / 80138 / 81151
------------------
     ethr =  1.85E-04,  avg # of iterations =  2.4

     total cpu time spent up to now is       22.7 secs

     total energy              =    -569.28429877 Ry
     estimated scf accuracy    <       0.03520815 Ry

     total magnetization       =    -0.11 Bohr mag/cell
     absolute magnetization    =     0.21 Bohr mag/cell
[tb_dev] Currently allocated     3.05E-05 Mbytes, locked:    0 /   2
[tb_pin] Currently allocated     0.00E+00 Mbytes, locked:    0 /   0

     iteration # 16     ecut=    60.00 Ry     beta= 0.30
     Davidson diagonalization with overlap

---- Real-time Memory Report at c_bands before calling an iterative solver
           718 MiB given to the printing process from OS
             0 MiB allocation reported by mallinfo(arena+hblkhd)
        851641 MiB available memory on the node where the printing process lives
     GPU memory used/free/total (MiB): 1012 / 80138 / 81151
------------------
     ethr =  9.27E-05,  avg # of iterations =  1.4

     total cpu time spent up to now is       23.8 secs

     total energy              =    -569.27664043 Ry
     estimated scf accuracy    <       0.02884135 Ry

     total magnetization       =    -0.14 Bohr mag/cell
     absolute magnetization    =     0.21 Bohr mag/cell
[tb_dev] Currently allocated     3.05E-05 Mbytes, locked:    0 /   2
[tb_pin] Currently allocated     0.00E+00 Mbytes, locked:    0 /   0

     iteration # 17     ecut=    60.00 Ry     beta= 0.30
     Davidson diagonalization with overlap

---- Real-time Memory Report at c_bands before calling an iterative solver
           718 MiB given to the printing process from OS
             0 MiB allocation reported by mallinfo(arena+hblkhd)
        851650 MiB available memory on the node where the printing process lives
     GPU memory used/free/total (MiB): 1012 / 80138 / 81151
------------------
     ethr =  7.59E-05,  avg # of iterations =  2.5

     total cpu time spent up to now is       25.0 secs

     total energy              =    -569.28300886 Ry
     estimated scf accuracy    <       0.00625533 Ry

     total magnetization       =     0.18 Bohr mag/cell
     absolute magnetization    =     0.33 Bohr mag/cell
[tb_dev] Currently allocated     3.05E-05 Mbytes, locked:    0 /   2
[tb_pin] Currently allocated     0.00E+00 Mbytes, locked:    0 /   0

     iteration # 18     ecut=    60.00 Ry     beta= 0.30
     Davidson diagonalization with overlap

---- Real-time Memory Report at c_bands before calling an iterative solver
           718 MiB given to the printing process from OS
             0 MiB allocation reported by mallinfo(arena+hblkhd)
        851423 MiB available memory on the node where the printing process lives
     GPU memory used/free/total (MiB): 1012 / 80138 / 81151
------------------
     ethr =  1.65E-05,  avg # of iterations =  6.4

     total cpu time spent up to now is       26.7 secs

     total energy              =    -569.28238454 Ry
     estimated scf accuracy    <       0.00342874 Ry

     total magnetization       =     0.15 Bohr mag/cell
     absolute magnetization    =     0.28 Bohr mag/cell
[tb_dev] Currently allocated     3.05E-05 Mbytes, locked:    0 /   2
[tb_pin] Currently allocated     0.00E+00 Mbytes, locked:    0 /   0

     iteration # 19     ecut=    60.00 Ry     beta= 0.30
     Davidson diagonalization with overlap

---- Real-time Memory Report at c_bands before calling an iterative solver
           718 MiB given to the printing process from OS
             0 MiB allocation reported by mallinfo(arena+hblkhd)
        851393 MiB available memory on the node where the printing process lives
     GPU memory used/free/total (MiB): 1012 / 80138 / 81151
------------------
     ethr =  9.02E-06,  avg # of iterations =  3.0

     total cpu time spent up to now is       27.9 secs

     total energy              =    -569.28256775 Ry
     estimated scf accuracy    <       0.00308490 Ry

     total magnetization       =     0.15 Bohr mag/cell
     absolute magnetization    =     0.32 Bohr mag/cell
[tb_dev] Currently allocated     3.05E-05 Mbytes, locked:    0 /   2
[tb_pin] Currently allocated     0.00E+00 Mbytes, locked:    0 /   0

     iteration # 20     ecut=    60.00 Ry     beta= 0.30
     Davidson diagonalization with overlap

---- Real-time Memory Report at c_bands before calling an iterative solver
           718 MiB given to the printing process from OS
             0 MiB allocation reported by mallinfo(arena+hblkhd)
        851393 MiB available memory on the node where the printing process lives
     GPU memory used/free/total (MiB): 1012 / 80138 / 81151
------------------
     ethr =  8.12E-06,  avg # of iterations =  1.4

     total cpu time spent up to now is       29.0 secs

     total energy              =    -569.28233361 Ry
     estimated scf accuracy    <       0.00313371 Ry

     total magnetization       =     0.13 Bohr mag/cell
     absolute magnetization    =     0.32 Bohr mag/cell
[tb_dev] Currently allocated     3.05E-05 Mbytes, locked:    0 /   2
[tb_pin] Currently allocated     0.00E+00 Mbytes, locked:    0 /   0

     iteration # 21     ecut=    60.00 Ry     beta= 0.30
     Davidson diagonalization with overlap

---- Real-time Memory Report at c_bands before calling an iterative solver
           719 MiB given to the printing process from OS
             0 MiB allocation reported by mallinfo(arena+hblkhd)
        851387 MiB available memory on the node where the printing process lives
     GPU memory used/free/total (MiB): 1012 / 80138 / 81151
------------------
     ethr =  8.12E-06,  avg # of iterations =  1.1

     total cpu time spent up to now is       30.1 secs

     total energy              =    -569.28316742 Ry
     estimated scf accuracy    <       0.00390994 Ry

     total magnetization       =     0.11 Bohr mag/cell
     absolute magnetization    =     0.32 Bohr mag/cell
[tb_dev] Currently allocated     3.05E-05 Mbytes, locked:    0 /   2
[tb_pin] Currently allocated     0.00E+00 Mbytes, locked:    0 /   0

     iteration # 22     ecut=    60.00 Ry     beta= 0.30
     Davidson diagonalization with overlap

---- Real-time Memory Report at c_bands before calling an iterative solver
           719 MiB given to the printing process from OS
             0 MiB allocation reported by mallinfo(arena+hblkhd)
        851388 MiB available memory on the node where the printing process lives
     GPU memory used/free/total (MiB): 1012 / 80138 / 81151
------------------
     ethr =  8.12E-06,  avg # of iterations =  1.8

     total cpu time spent up to now is       31.2 secs

     total energy              =    -569.28400116 Ry
     estimated scf accuracy    <       0.00684505 Ry

     total magnetization       =     0.17 Bohr mag/cell
     absolute magnetization    =     0.33 Bohr mag/cell
[tb_dev] Currently allocated     3.05E-05 Mbytes, locked:    0 /   2
[tb_pin] Currently allocated     0.00E+00 Mbytes, locked:    0 /   0

     iteration # 23     ecut=    60.00 Ry     beta= 0.30
     Davidson diagonalization with overlap

---- Real-time Memory Report at c_bands before calling an iterative solver
           719 MiB given to the printing process from OS
             0 MiB allocation reported by mallinfo(arena+hblkhd)
        851361 MiB available memory on the node where the printing process lives
     GPU memory used/free/total (MiB): 1012 / 80138 / 81151
------------------
     ethr =  8.12E-06,  avg # of iterations =  1.3

     total cpu time spent up to now is       32.3 secs

     total energy              =    -569.28198306 Ry
     estimated scf accuracy    <       0.01594232 Ry

     total magnetization       =     0.16 Bohr mag/cell
     absolute magnetization    =     0.31 Bohr mag/cell
[tb_dev] Currently allocated     3.05E-05 Mbytes, locked:    0 /   2
[tb_pin] Currently allocated     0.00E+00 Mbytes, locked:    0 /   0

     iteration # 24     ecut=    60.00 Ry     beta= 0.30
     Davidson diagonalization with overlap

---- Real-time Memory Report at c_bands before calling an iterative solver
           719 MiB given to the printing process from OS
             0 MiB allocation reported by mallinfo(arena+hblkhd)
        851315 MiB available memory on the node where the printing process lives
     GPU memory used/free/total (MiB): 1012 / 80138 / 81151
------------------
     ethr =  8.12E-06,  avg # of iterations =  1.4

     total cpu time spent up to now is       33.4 secs

     total energy              =    -569.28378147 Ry
     estimated scf accuracy    <       0.00203415 Ry

     total magnetization       =     0.15 Bohr mag/cell
     absolute magnetization    =     0.30 Bohr mag/cell
[tb_dev] Currently allocated     3.05E-05 Mbytes, locked:    0 /   2
[tb_pin] Currently allocated     0.00E+00 Mbytes, locked:    0 /   0

     iteration # 25     ecut=    60.00 Ry     beta= 0.30
     Davidson diagonalization with overlap

---- Real-time Memory Report at c_bands before calling an iterative solver
           719 MiB given to the printing process from OS
             0 MiB allocation reported by mallinfo(arena+hblkhd)
        851839 MiB available memory on the node where the printing process lives
     GPU memory used/free/total (MiB): 1012 / 80138 / 81151
------------------
     ethr =  5.35E-06,  avg # of iterations =  1.0

     total cpu time spent up to now is       34.5 secs

     total energy              =    -569.28425175 Ry
     estimated scf accuracy    <       0.00110366 Ry

     total magnetization       =     0.16 Bohr mag/cell
     absolute magnetization    =     0.27 Bohr mag/cell
[tb_dev] Currently allocated     3.05E-05 Mbytes, locked:    0 /   2
[tb_pin] Currently allocated     0.00E+00 Mbytes, locked:    0 /   0

     iteration # 26     ecut=    60.00 Ry     beta= 0.30
     Davidson diagonalization with overlap

---- Real-time Memory Report at c_bands before calling an iterative solver
           719 MiB given to the printing process from OS
             0 MiB allocation reported by mallinfo(arena+hblkhd)
        851635 MiB available memory on the node where the printing process lives
     GPU memory used/free/total (MiB): 1012 / 80138 / 81151
------------------
     ethr =  2.90E-06,  avg # of iterations =  1.6

     total cpu time spent up to now is       35.6 secs

     total energy              =    -569.28430999 Ry
     estimated scf accuracy    <       0.00093203 Ry

     total magnetization       =     0.17 Bohr mag/cell
     absolute magnetization    =     0.22 Bohr mag/cell
[tb_dev] Currently allocated     3.05E-05 Mbytes, locked:    0 /   2
[tb_pin] Currently allocated     0.00E+00 Mbytes, locked:    0 /   0

     iteration # 27     ecut=    60.00 Ry     beta= 0.30
     Davidson diagonalization with overlap

---- Real-time Memory Report at c_bands before calling an iterative solver
           720 MiB given to the printing process from OS
             0 MiB allocation reported by mallinfo(arena+hblkhd)
        851531 MiB available memory on the node where the printing process lives
     GPU memory used/free/total (MiB): 1012 / 80138 / 81151
------------------
     ethr =  2.45E-06,  avg # of iterations =  1.6

     total cpu time spent up to now is       36.7 secs

     total energy              =    -569.28449252 Ry
     estimated scf accuracy    <       0.00007506 Ry

     total magnetization       =     0.15 Bohr mag/cell
     absolute magnetization    =     0.19 Bohr mag/cell
[tb_dev] Currently allocated     3.05E-05 Mbytes, locked:    0 /   2
[tb_pin] Currently allocated     0.00E+00 Mbytes, locked:    0 /   0

     iteration # 28     ecut=    60.00 Ry     beta= 0.30
     Davidson diagonalization with overlap

---- Real-time Memory Report at c_bands before calling an iterative solver
           720 MiB given to the printing process from OS
             0 MiB allocation reported by mallinfo(arena+hblkhd)
        851518 MiB available memory on the node where the printing process lives
     GPU memory used/free/total (MiB): 1012 / 80138 / 81151
------------------
     ethr =  1.98E-07,  avg # of iterations =  4.8

     total cpu time spent up to now is       38.3 secs

     total energy              =    -569.28454752 Ry
     estimated scf accuracy    <       0.00001617 Ry

     total magnetization       =     0.15 Bohr mag/cell
     absolute magnetization    =     0.17 Bohr mag/cell
[tb_dev] Currently allocated     3.05E-05 Mbytes, locked:    0 /   2
[tb_pin] Currently allocated     0.00E+00 Mbytes, locked:    0 /   0

     iteration # 29     ecut=    60.00 Ry     beta= 0.30
     Davidson diagonalization with overlap

---- Real-time Memory Report at c_bands before calling an iterative solver
           720 MiB given to the printing process from OS
             0 MiB allocation reported by mallinfo(arena+hblkhd)
        851327 MiB available memory on the node where the printing process lives
     GPU memory used/free/total (MiB): 1012 / 80138 / 81151
------------------
     c_bands:  1 eigenvalues not converged
     ethr =  4.26E-08,  avg # of iterations =  5.6

     total cpu time spent up to now is       39.9 secs

     total energy              =    -569.28456229 Ry
     estimated scf accuracy    <       0.00002253 Ry

     total magnetization       =     0.14 Bohr mag/cell
     absolute magnetization    =     0.17 Bohr mag/cell
[tb_dev] Currently allocated     3.05E-05 Mbytes, locked:    0 /   2
[tb_pin] Currently allocated     0.00E+00 Mbytes, locked:    0 /   0

     iteration # 30     ecut=    60.00 Ry     beta= 0.30
     Davidson diagonalization with overlap

---- Real-time Memory Report at c_bands before calling an iterative solver
           720 MiB given to the printing process from OS
             0 MiB allocation reported by mallinfo(arena+hblkhd)
        851285 MiB available memory on the node where the printing process lives
     GPU memory used/free/total (MiB): 1012 / 80138 / 81151
------------------
     ethr =  4.26E-08,  avg # of iterations =  2.1

     total cpu time spent up to now is       41.0 secs

     total energy              =    -569.28456802 Ry
     estimated scf accuracy    <       0.00000118 Ry

     total magnetization       =     0.14 Bohr mag/cell
     absolute magnetization    =     0.16 Bohr mag/cell
[tb_dev] Currently allocated     3.05E-05 Mbytes, locked:    0 /   2
[tb_pin] Currently allocated     0.00E+00 Mbytes, locked:    0 /   0

     iteration # 31     ecut=    60.00 Ry     beta= 0.30
     Davidson diagonalization with overlap

---- Real-time Memory Report at c_bands before calling an iterative solver
           720 MiB given to the printing process from OS
             0 MiB allocation reported by mallinfo(arena+hblkhd)
        851276 MiB available memory on the node where the printing process lives
     GPU memory used/free/total (MiB): 1012 / 80138 / 81151
------------------
     ethr =  3.11E-09,  avg # of iterations =  7.5

     total cpu time spent up to now is       42.9 secs

     total energy              =    -569.28456934 Ry
     estimated scf accuracy    <       0.00000063 Ry

     total magnetization       =     0.14 Bohr mag/cell
     absolute magnetization    =     0.16 Bohr mag/cell
[tb_dev] Currently allocated     3.05E-05 Mbytes, locked:    0 /   2
[tb_pin] Currently allocated     0.00E+00 Mbytes, locked:    0 /   0

     iteration # 32     ecut=    60.00 Ry     beta= 0.30
     Davidson diagonalization with overlap

---- Real-time Memory Report at c_bands before calling an iterative solver
           720 MiB given to the printing process from OS
             0 MiB allocation reported by mallinfo(arena+hblkhd)
        851248 MiB available memory on the node where the printing process lives
     GPU memory used/free/total (MiB): 1012 / 80138 / 81151
------------------
     ethr =  1.66E-09,  avg # of iterations =  2.7

     total cpu time spent up to now is       44.2 secs

     total energy              =    -569.28456990 Ry
     estimated scf accuracy    <       0.00000010 Ry

     total magnetization       =     0.14 Bohr mag/cell
     absolute magnetization    =     0.16 Bohr mag/cell
[tb_dev] Currently allocated     3.05E-05 Mbytes, locked:    0 /   2
[tb_pin] Currently allocated     0.00E+00 Mbytes, locked:    0 /   0

     iteration # 33     ecut=    60.00 Ry     beta= 0.30
     Davidson diagonalization with overlap

---- Real-time Memory Report at c_bands before calling an iterative solver
           720 MiB given to the printing process from OS
             0 MiB allocation reported by mallinfo(arena+hblkhd)
        851233 MiB available memory on the node where the printing process lives
     GPU memory used/free/total (MiB): 1012 / 80138 / 81151
------------------
     ethr =  2.73E-10,  avg # of iterations =  5.9

     total cpu time spent up to now is       45.9 secs

     total energy              =    -569.28457002 Ry
     estimated scf accuracy    <       0.00000004 Ry

     total magnetization       =     0.14 Bohr mag/cell
     absolute magnetization    =     0.16 Bohr mag/cell
[tb_dev] Currently allocated     3.05E-05 Mbytes, locked:    0 /   2
[tb_pin] Currently allocated     0.00E+00 Mbytes, locked:    0 /   0

     iteration # 34     ecut=    60.00 Ry     beta= 0.30
     Davidson diagonalization with overlap

---- Real-time Memory Report at c_bands before calling an iterative solver
           720 MiB given to the printing process from OS
             0 MiB allocation reported by mallinfo(arena+hblkhd)
        851658 MiB available memory on the node where the printing process lives
     GPU memory used/free/total (MiB): 1012 / 80138 / 81151
------------------
     ethr =  9.41E-11,  avg # of iterations =  2.1

     total cpu time spent up to now is       47.1 secs

     total energy              =    -569.28457006 Ry
     estimated scf accuracy    <       0.00000002 Ry

     total magnetization       =     0.14 Bohr mag/cell
     absolute magnetization    =     0.16 Bohr mag/cell
[tb_dev] Currently allocated     3.05E-05 Mbytes, locked:    0 /   2
[tb_pin] Currently allocated     0.00E+00 Mbytes, locked:    0 /   0

     iteration # 35     ecut=    60.00 Ry     beta= 0.30
     Davidson diagonalization with overlap

---- Real-time Memory Report at c_bands before calling an iterative solver
           720 MiB given to the printing process from OS
             0 MiB allocation reported by mallinfo(arena+hblkhd)
        851429 MiB available memory on the node where the printing process lives
     GPU memory used/free/total (MiB): 1012 / 80138 / 81151
------------------
     ethr =  4.17E-11,  avg # of iterations =  5.3
 
     Magnetic moment per site  (integrated on atomic sphere of radius R)
     atom   1 (R=0.275)  charge= 14.1593  magn=  0.1207
     atom   2 (R=0.275)  charge=  5.2173  magn=  0.0112
     atom   3 (R=0.275)  charge=  5.3408  magn=  0.0069
     atom   4 (R=0.319)  charge=  7.9355  magn= -0.0013

     total cpu time spent up to now is       48.7 secs

     End of self-consistent calculation

 ------ SPIN UP ------------


          k = 0.0000 0.0000 0.0000 (  2625 PWs)   bands (ev):

   -87.4932 -50.7461 -50.7461 -50.7241 -45.5714 -17.5024 -17.3794 -17.3794
   -12.3278 -10.2617   1.1884   2.3026   2.3026   4.8409   5.5923   5.5923
     6.4885   6.4885   6.8578   7.8828   9.9513   9.9513  13.8560  15.2183
    17.5482  23.3236  24.4517

     occupation numbers 
     1.0000   1.0000   1.0000   1.0000   1.0000   1.0000   1.0000   1.0000
     1.0000   1.0000   1.0000   1.0000   1.0000   1.0000   1.0000   1.0000
     1.0000   1.0000   1.0004   0.1348   0.0000   0.0000   0.0000   0.0000
     0.0000   0.0000   0.0000

          k = 0.0000 0.0000 0.1395 (  2666 PWs)   bands (ev):

   -87.4932 -50.7464 -50.7464 -50.7243 -45.5715 -17.5030 -17.3798 -17.3798
   -12.3242 -10.2673   1.2816   2.3025   2.3025   4.3985   5.5924   5.5924
     6.4885   6.4885   7.4081   7.9233   9.9509   9.9509  12.8684  16.0446
    17.7664  23.0873  24.5351

     occupation numbers 
     1.0000   1.0000   1.0000   1.0000   1.0000   1.0000   1.0000   1.0000
     1.0000   1.0000   1.0000   1.0000   1.0000   1.0000   1.0000   1.0000
     1.0000   1.0000   1.0746   0.0896   0.0000   0.0000   0.0000   0.0000
     0.0000   0.0000   0.0000

          k = 0.0000 0.1443 0.0000 (  2643 PWs)   bands (ev):

   -87.4924 -50.7548 -50.7483 -50.7229 -45.5661 -17.4925 -17.4251 -17.3895
   -12.1713 -10.2450   1.3528   2.0820   2.3903   4.5711   5.1266   5.2167
     6.7100   6.8802   7.0859   8.1139   9.5186   9.8525  14.2074  15.7983
    18.2111  21.8093  23.6493

     occupation numbers 
     1.0000   1.0000   1.0000   1.0000   1.0000   1.0000   1.0000   1.0000
     1.0000   1.0000   1.0000   1.0000   1.0000   1.0000   1.0000   1.0000
     1.0000   1.0006   1.0134   0.0074   0.0000   0.0000   0.0000   0.0000
     0.0000   0.0000   0.0000

          k = 0.0000 0.1443 0.1395 (  2651 PWs)   bands (ev):

   -87.4924 -50.7549 -50.7483 -50.7230 -45.5661 -17.4928 -17.4252 -17.3895
   -12.1682 -10.2496   1.4189   2.0735   2.3902   4.5740   4.8934   5.1268
     6.6919   6.8802   7.5140   8.0486   9.6480   9.8522  13.3757  16.6269
    18.2114  21.8816  23.3253

     occupation numbers 
     1.0000   1.0000   1.0000   1.0000   1.0000   1.0000   1.0000   1.0000
     1.0000   1.0000   1.0000   1.0000   1.0000   1.0000   1.0000   1.0000
     1.0000   1.0007   0.9708   0.0194   0.0000   0.0000   0.0000   0.0000
     0.0000   0.0000   0.0000

          k = 0.0000 0.2887 0.0000 (  2620 PWs)   bands (ev):

   -87.4905 -50.7755 -50.7532 -50.7198 -45.5530 -17.5576 -17.4427 -17.4133
   -11.7737 -10.2039   1.4605   1.9582   2.5873   3.3058   4.5595   5.4412
     6.8263   7.1916   7.4014   8.4956   9.2604   9.7282  14.8584  17.1729
    18.5685  19.7645  22.0361

     occupation numbers 
     1.0000   1.0000   1.0000   1.0000   1.0000   1.0000   1.0000   1.0000
     1.0000   1.0000   1.0000   1.0000   1.0000   1.0000   1.0000   1.0000
     1.0002   1.0383   1.0770   0.0000   0.0000   0.0000   0.0000   0.0000
     0.0000   0.0000   0.0000

          k = 0.0000 0.2887 0.1395 (  2636 PWs)   bands (ev):

   -87.4906 -50.7755 -50.7533 -50.7198 -45.5530 -17.5578 -17.4429 -17.4135
   -11.7719 -10.2061   1.4388   1.9871   2.5872   3.3462   4.5596   5.3548
     6.7748   7.1916   7.5507   8.1369   9.7026   9.7279  14.4193  17.7118
    18.5527  19.5075  21.6478

     occupation numbers 
     1.0000   1.0000   1.0000   1.0000   1.0000   1.0000   1.0000   1.0000
     1.0000   1.0000   1.0000   1.0000   1.0000   1.0000   1.0000   1.0000
     1.0001   1.0383   0.9033   0.0052   0.0000   0.0000   0.0000   0.0000
     0.0000   0.0000   0.0000

          k = 0.0000 0.4330 0.0000 (  2652 PWs)   bands (ev):

   -87.4887 -50.7963 -50.7583 -50.7167 -45.5400 -17.6699 -17.4376 -17.4108
   -11.3469 -10.1545   0.9378   1.9232   2.7259   3.3124   4.3027   4.9250
     6.7581   7.1178   7.3431   9.0303   9.7628  10.3486  14.9579  16.1608
    18.4437  20.1743  20.5507

     occupation numbers 
     1.0000   1.0000   1.0000   1.0000   1.0000   1.0000   1.0000   1.0000
     1.0000   1.0000   1.0000   1.0000   1.0000   1.0000   1.0000   1.0000
     1.0001   1.0191   1.0824   0.0000   0.0000   0.0000   0.0000   0.0000
     0.0000   0.0000   0.0000

          k = 0.0000 0.4330 0.1395 (  2641 PWs)   bands (ev):

   -87.4887 -50.7962 -50.7582 -50.7167 -45.5399 -17.6698 -17.4374 -17.4108
   -11.3464 -10.1548   0.9277   1.9166   2.7260   3.3384   4.3026   4.9494
     6.7451   7.1178   7.3498   8.8418   9.7628  10.5635  14.8405  16.1650
    18.7875  19.7080  20.5925

     occupation numbers 
     1.0000   1.0000   1.0000   1.0000   1.0000   1.0000   1.0000   1.0000
     1.0000   1.0000   1.0000   1.0000   1.0000   1.0000   1.0000   1.0000
     1.0000   1.0191   1.0830   0.0000   0.0000   0.0000   0.0000   0.0000
     0.0000   0.0000   0.0000

          k = 0.0000-0.5774 0.0000 (  2642 PWs)   bands (ev):

   -87.4880 -50.8049 -50.7603 -50.7153 -45.5345 -17.7162 -17.4473 -17.3966
   -11.1630 -10.1266   0.5487   2.0178   2.7503   3.5568   4.2796   4.5722
     6.6228   7.0083   7.2824   9.3122   9.8126  11.8519  13.1694  16.2275
    18.7422  19.7710  20.2086

     occupation numbers 
     1.0000   1.0000   1.0000   1.0000   1.0000   1.0000   1.0000   1.0000
     1.0000   1.0000   1.0000   1.0000   1.0000   1.0000   1.0000   1.0000
     1.0000   1.0049   1.0686   0.0000   0.0000   0.0000   0.0000   0.0000
     0.0000   0.0000   0.0000

          k = 0.0000-0.5774 0.1395 (  2638 PWs)   bands (ev):

   -87.4880 -50.8048 -50.7603 -50.7154 -45.5345 -17.7159 -17.4472 -17.3967
   -11.1630 -10.1264   0.5432   2.0101   2.7504   3.5578   4.2795   4.6102
     6.6168   7.0083   7.2785   9.3116   9.8125  11.7395  13.1359  16.7693
    18.5261  19.4352  20.3460

     occupation numbers 
     1.0000   1.0000   1.0000   1.0000   1.0000   1.0000   1.0000   1.0000
     1.0000   1.0000   1.0000   1.0000   1.0000   1.0000   1.0000   1.0000
     1.0000   1.0050   1.0674   0.0000   0.0000   0.0000   0.0000   0.0000
     0.0000   0.0000   0.0000

          k = 0.1250 0.2165 0.0000 (  2659 PWs)   bands (ev):

   -87.4911 -50.7686 -50.7528 -50.7209 -45.5569 -17.5218 -17.4501 -17.4120
   -11.8940 -10.2156   1.5085   1.9679   2.4991   3.6690   4.4853   5.4960
     6.8745   7.1551   7.3616   8.4281   9.1453   9.7115  14.7070  16.7970
    19.1256  19.9232  22.6459

     occupation numbers 
     1.0000   1.0000   1.0000   1.0000   1.0000   1.0000   1.0000   1.0000
     1.0000   1.0000   1.0000   1.0000   1.0000   1.0000   1.0000   1.0000
     1.0006   1.0278   1.0833   0.0000   0.0000   0.0000   0.0000   0.0000
     0.0000   0.0000   0.0000

          k = 0.1250 0.2165 0.1395 (  2634 PWs)   bands (ev):

   -87.4911 -50.7684 -50.7528 -50.7207 -45.5568 -17.5215 -17.4498 -17.4119
   -11.8917 -10.2186   1.5081   1.9915   2.5017   3.6989   4.4863   5.3277
     6.8702   7.0970   7.5346   8.2911   9.4371   9.6826  14.2412  17.4087
    18.7956  20.2136  22.0359

     occupation numbers 
     1.0000   1.0000   1.0000   1.0000   1.0000   1.0000   1.0000   1.0000
     1.0000   1.0000   1.0000   1.0000   1.0000   1.0000   1.0000   1.0000
     1.0005   1.0152   0.9348   0.0003   0.0000   0.0000   0.0000   0.0000
     0.0000   0.0000   0.0000

          k = 0.1250 0.3608 0.0000 (  2630 PWs)   bands (ev):

   -87.4893 -50.7870 -50.7598 -50.7176 -45.5437 -17.6191 -17.4492 -17.4196
   -11.4811 -10.1648   1.3344   1.9089   2.6417   3.1430   4.0634   5.2434
     6.9090   7.2347   7.4159   8.8996   9.3335   9.9864  15.2990  17.1953
    18.2686  19.9250  21.2774

     occupation numbers 
     1.0000   1.0000   1.0000   1.0000   1.0000   1.0000   1.0000   1.0000
     1.0000   1.0000   1.0000   1.0000   1.0000   1.0000   1.0000   1.0000
     1.0011   1.0526   1.0713   0.0000   0.0000   0.0000   0.0000   0.0000
     0.0000   0.0000   0.0000

          k = 0.1250 0.3608 0.1395 (  2633 PWs)   bands (ev):

   -87.4893 -50.7870 -50.7598 -50.7176 -45.5438 -17.6192 -17.4493 -17.4196
   -11.4801 -10.1658   1.3162   1.9098   2.6444   3.1833   4.0649   5.2344
     6.9028   7.2268   7.4088   8.6587   9.4870  10.1331  15.1961  17.0115
    18.8446  19.6759  21.0381

     occupation numbers 
     1.0000   1.0000   1.0000   1.0000   1.0000   1.0000   1.0000   1.0000
     1.0000   1.0000   1.0000   1.0000   1.0000   1.0000   1.0000   1.0000
     1.0010   1.0499   1.0744   0.0000   0.0000   0.0000   0.0000   0.0000
     0.0000   0.0000   0.0000

          k = 0.1250 0.5052 0.0000 (  2636 PWs)   bands (ev):

   -87.4880 -50.8001 -50.7649 -50.7153 -45.5345 -17.6889 -17.4753 -17.3964
   -11.1799 -10.1105   0.8100   1.9477   2.6207   3.5700   3.8765   4.6980
     6.7379   7.0812   7.3931   9.2474   9.5584  11.4491  14.1016  16.4614
    18.8653  19.7642  20.2976

     occupation numbers 
     1.0000   1.0000   1.0000   1.0000   1.0000   1.0000   1.0000   1.0000
     1.0000   1.0000   1.0000   1.0000   1.0000   1.0000   1.0000   1.0000
     1.0000   1.0127   1.0794   0.0000   0.0000   0.0000   0.0000   0.0000
     0.0000   0.0000   0.0000

          k = 0.1250 0.5052 0.1395 (  2647 PWs)   bands (ev):

   -87.4880 -50.8002 -50.7649 -50.7154 -45.5346 -17.6890 -17.4753 -17.3967
   -11.1799 -10.1104   0.8046   1.9399   2.6209   3.5792   3.8751   4.7237
     6.7326   7.0827   7.3857   9.2131   9.5786  11.4491  14.0077  16.6939
    18.8211  19.8453  20.2177

     occupation numbers 
     1.0000   1.0000   1.0000   1.0000   1.0000   1.0000   1.0000   1.0000
     1.0000   1.0000   1.0000   1.0000   1.0000   1.0000   1.0000   1.0000
     1.0000   1.0129   1.0810   0.0000   0.0000   0.0000   0.0000   0.0000
     0.0000   0.0000   0.0000

          k = 0.2500 0.4330 0.0000 (  2639 PWs)   bands (ev):

   -87.4880 -50.7936 -50.7714 -50.7154 -45.5345 -17.6517 -17.5132 -17.3966
   -11.1963 -10.0950   1.2061   1.8608   2.3693   3.2956   3.8661   4.7669
     6.8268   7.1302   7.5278   9.1732   9.3044  11.2278  15.0681  16.8433
    18.0031  19.7963  20.5235

     occupation numbers 
     1.0000   1.0000   1.0000   1.0000   1.0000   1.0000   1.0000   1.0000
     1.0000   1.0000   1.0000   1.0000   1.0000   1.0000   1.0000   1.0000
     1.0002   1.0217   0.9473   0.0000   0.0000   0.0000   0.0000   0.0000
     0.0000   0.0000   0.0000

          k = 0.2500 0.4330 0.1395 (  2630 PWs)   bands (ev):

   -87.4880 -50.7935 -50.7713 -50.7154 -45.5345 -17.6515 -17.5131 -17.3966
   -11.1960 -10.0952   1.2000   1.8522   2.3699   3.3134   3.8722   4.7675
     6.8281   7.1323   7.5045   9.2146   9.2954  11.1785  15.0921  16.8283
    18.1651  19.8158  20.4282

     occupation numbers 
     1.0000   1.0000   1.0000   1.0000   1.0000   1.0000   1.0000   1.0000
     1.0000   1.0000   1.0000   1.0000   1.0000   1.0000   1.0000   1.0000
     1.0002   1.0222   0.9857   0.0000   0.0000   0.0000   0.0000   0.0000
     0.0000   0.0000   0.0000

          k = 0.2500 0.5774 0.0000 (  2630 PWs)   bands (ev):

   -87.4874 -50.7941 -50.7783 -50.7144 -45.5307 -17.6522 -17.5523 -17.3868
   -11.0867 -10.0496   1.1329   1.8631   2.1928   3.3993   3.9752   4.4163
     6.6269   7.2673   7.4956   9.2517   9.3195  12.6271  13.8361  16.6641
    17.8391  19.9569  20.8034

     occupation numbers 
     1.0000   1.0000   1.0000   1.0000   1.0000   1.0000   1.0000   1.0000
     1.0000   1.0000   1.0000   1.0000   1.0000   1.0000   1.0000   1.0000
     1.0000   1.0638   0.9985   0.0000   0.0000   0.0000   0.0000   0.0000
     0.0000   0.0000   0.0000

          k = 0.2500 0.5774 0.1395 (  2649 PWs)   bands (ev):

   -87.4874 -50.7941 -50.7784 -50.7146 -45.5307 -17.6523 -17.5525 -17.3872
   -11.0867 -10.0494   1.1286   1.8607   2.1897   3.4068   3.9721   4.4239
     6.6279   7.2670   7.4881   9.2696   9.3431  12.5817  13.7684  16.6749
    18.0542  19.8249  20.6040

     occupation numbers 
     1.0000   1.0000   1.0000   1.0000   1.0000   1.0000   1.0000   1.0000
     1.0000   1.0000   1.0000   1.0000   1.0000   1.0000   1.0000   1.0000
     1.0000   1.0637   1.0087   0.0000   0.0000   0.0000   0.0000   0.0000
     0.0000   0.0000   0.0000

          k = 0.0000-0.1443 0.1395 (  2651 PWs)   bands (ev):

   -87.4924 -50.7549 -50.7483 -50.7230 -45.5661 -17.4928 -17.4252 -17.3895
   -12.1682 -10.2496   1.4205   2.0742   2.3902   4.5319   4.9368   5.1268
     6.6846   6.8803   7.4750   8.1443   9.5674   9.8522  13.4327  16.5795
    18.2163  21.9804  23.2132

     occupation numbers 
     1.0000   1.0000   1.0000   1.0000   1.0000   1.0000   1.0000   1.0000
     1.0000   1.0000   1.0000   1.0000   1.0000   1.0000   1.0000   1.0000
     1.0000   1.0007   1.0246   0.0046   0.0000   0.0000   0.0000   0.0000
     0.0000   0.0000   0.0000

          k = 0.0000-0.2887 0.1395 (  2636 PWs)   bands (ev):

   -87.4906 -50.7755 -50.7533 -50.7198 -45.5530 -17.5577 -17.4429 -17.4135
   -11.7717 -10.2065   1.4464   1.9814   2.5872   3.3491   4.5597   5.3259
     6.7838   7.1917   7.4485   8.5305   9.3352   9.7278  14.6732  17.4164
    18.5298  19.8349  21.6584

     occupation numbers 
     1.0000   1.0000   1.0000   1.0000   1.0000   1.0000   1.0000   1.0000
     1.0000   1.0000   1.0000   1.0000   1.0000   1.0000   1.0000   1.0000
     1.0001   1.0383   1.0506   0.0000   0.0000   0.0000   0.0000   0.0000
     0.0000   0.0000   0.0000

          k = 0.0000-0.4330 0.1395 (  2641 PWs)   bands (ev):

   -87.4887 -50.7962 -50.7582 -50.7167 -45.5399 -17.6698 -17.4373 -17.4108
   -11.3460 -10.1553   0.9271   1.9163   2.7260   3.3575   4.3028   4.9146
     6.7512   7.1178   7.3251   9.0685   9.7626  10.2477  15.0222  16.5046
    18.1972  19.9442  20.6452

     occupation numbers 
     1.0000   1.0000   1.0000   1.0000   1.0000   1.0000   1.0000   1.0000
     1.0000   1.0000   1.0000   1.0000   1.0000   1.0000   1.0000   1.0000
     1.0001   1.0191   1.0797   0.0000   0.0000   0.0000   0.0000   0.0000
     0.0000   0.0000   0.0000

          k =-0.1250-0.3608 0.1395 (  2633 PWs)   bands (ev):

   -87.4893 -50.7870 -50.7598 -50.7176 -45.5438 -17.6192 -17.4493 -17.4196
   -11.4799 -10.1661   1.3175   1.9081   2.6435   3.1915   4.0657   5.2131
     6.9148   7.2402   7.3587   8.8896   9.3715   9.9951  15.3799  17.0158
    18.6050  20.2253  20.5017

     occupation numbers 
     1.0000   1.0000   1.0000   1.0000   1.0000   1.0000   1.0000   1.0000
     1.0000   1.0000   1.0000   1.0000   1.0000   1.0000   1.0000   1.0000
     1.0012   1.0545   1.0833   0.0000   0.0000   0.0000   0.0000   0.0000
     0.0000   0.0000   0.0000

          k =-0.1250-0.5052 0.1395 (  2647 PWs)   bands (ev):

   -87.4880 -50.8002 -50.7649 -50.7154 -45.5345 -17.6890 -17.4753 -17.3967
   -11.1797 -10.1106   0.8037   1.9406   2.6216   3.5892   3.8751   4.7084
     6.7366   7.0822   7.3785   9.2828   9.5617  11.3234  14.0868  16.9494
    18.5912  19.6478  20.3790

     occupation numbers 
     1.0000   1.0000   1.0000   1.0000   1.0000   1.0000   1.0000   1.0000
     1.0000   1.0000   1.0000   1.0000   1.0000   1.0000   1.0000   1.0000
     1.0000   1.0128   1.0822   0.0000   0.0000   0.0000   0.0000   0.0000
     0.0000   0.0000   0.0000

 ------ SPIN DOWN ----------


          k = 0.0000 0.0000 0.0000 (  2625 PWs)   bands (ev):

   -87.3479 -50.6231 -50.6231 -50.5453 -45.5732 -17.5045 -17.3811 -17.3811
   -12.3145 -10.2441   1.2267   2.3382   2.3382   4.8773   5.6039   5.6039
     6.6026   6.6026   6.8808   8.0011  10.0123  10.0123  13.8612  15.2374
    17.5603  23.3401  24.4483

     occupation numbers 
     1.0000   1.0000   1.0000   1.0000   1.0000   1.0000   1.0000   1.0000
     1.0000   1.0000   1.0000   1.0000   1.0000   1.0000   1.0000   1.0000
     1.0000   1.0000   1.0007   0.0363   0.0000   0.0000   0.0000   0.0000
     0.0000   0.0000   0.0000

          k = 0.0000 0.0000 0.1395 (  2666 PWs)   bands (ev):

   -87.3480 -50.6234 -50.6234 -50.5455 -45.5733 -17.5051 -17.3816 -17.3816
   -12.3109 -10.2497   1.3225   2.3381   2.3381   4.4200   5.6040   5.6040
     6.6026   6.6026   7.5083   7.9768  10.0119  10.0119  12.8753  16.0645
    17.7779  23.0949  24.5320

     occupation numbers 
     1.0000   1.0000   1.0000   1.0000   1.0000   1.0000   1.0000   1.0000
     1.0000   1.0000   1.0000   1.0000   1.0000   1.0000   1.0000   1.0000
     1.0000   1.0000   0.9798   0.0490   0.0000   0.0000   0.0000   0.0000
     0.0000   0.0000   0.0000

          k = 0.0000 0.1443 0.0000 (  2643 PWs)   bands (ev):

   -87.3472 -50.6319 -50.6253 -50.5441 -45.5678 -17.4946 -17.4270 -17.3913
   -12.1580 -10.2272   1.3889   2.1176   2.4246   4.5982   5.1552   5.2501
     6.8133   6.9807   7.1513   8.1892   9.5807   9.9124  14.2123  15.8166
    18.2245  21.7913  23.6631

     occupation numbers 
     1.0000   1.0000   1.0000   1.0000   1.0000   1.0000   1.0000   1.0000
     1.0000   1.0000   1.0000   1.0000   1.0000   1.0000   1.0000   1.0000
     1.0002   1.0033   1.0268   0.0022   0.0000   0.0000   0.0000   0.0000
     0.0000   0.0000   0.0000

          k = 0.0000 0.1443 0.1395 (  2651 PWs)   bands (ev):

   -87.3472 -50.6319 -50.6253 -50.5442 -45.5678 -17.4949 -17.4271 -17.3913
   -12.1549 -10.2317   1.4560   2.1098   2.4244   4.6045   4.9129   5.1554
     6.7976   6.9808   7.6393   8.0752   9.7061   9.9122  13.3812  16.6466
    18.2232  21.8646  23.3222

     occupation numbers 
     1.0000   1.0000   1.0000   1.0000   1.0000   1.0000   1.0000   1.0000
     1.0000   1.0000   1.0000   1.0000   1.0000   1.0000   1.0000   1.0000
     1.0001   1.0033   0.6871   0.0133   0.0000   0.0000   0.0000   0.0000
     0.0000   0.0000   0.0000

          k = 0.0000 0.2887 0.0000 (  2620 PWs)   bands (ev):

   -87.3453 -50.6526 -50.6302 -50.5409 -45.5547 -17.5595 -17.4449 -17.4150
   -11.7606 -10.1854   1.4871   1.9912   2.6186   3.3397   4.5889   5.4764
     6.9403   7.2994   7.5524   8.5052   9.2965   9.7860  14.8608  17.1897
    18.5380  19.7755  22.0420

     occupation numbers 
     1.0000   1.0000   1.0000   1.0000   1.0000   1.0000   1.0000   1.0000
     1.0000   1.0000   1.0000   1.0000   1.0000   1.0000   1.0000   1.0000
     1.0018   1.0737   0.8998   0.0000   0.0000   0.0000   0.0000   0.0000
     0.0000   0.0000   0.0000

          k = 0.0000 0.2887 0.1395 (  2636 PWs)   bands (ev):

   -87.3453 -50.6527 -50.6303 -50.5409 -45.5547 -17.5596 -17.4451 -17.4153
   -11.7588 -10.1877   1.4649   2.0205   2.6185   3.3827   4.5889   5.3854
     6.8873   7.2994   7.7237   8.1384   9.7297   9.7857  14.4216  17.7195
    18.5415  19.5057  21.6622

     occupation numbers 
     1.0000   1.0000   1.0000   1.0000   1.0000   1.0000   1.0000   1.0000
     1.0000   1.0000   1.0000   1.0000   1.0000   1.0000   1.0000   1.0000
     1.0007   1.0737   0.4560   0.0051   0.0000   0.0000   0.0000   0.0000
     0.0000   0.0000   0.0000

          k = 0.0000 0.4330 0.0000 (  2652 PWs)   bands (ev):

   -87.3435 -50.6736 -50.6354 -50.5378 -45.5417 -17.6719 -17.4394 -17.4130
   -11.3340 -10.1353   0.9597   1.9433   2.7559   3.3533   4.3229   4.9627
     6.8998   7.2388   7.4969   9.0942   9.8206  10.3098  14.9318  16.1437
    18.4620  20.1887  20.5633

     occupation numbers 
     1.0000   1.0000   1.0000   1.0000   1.0000   1.0000   1.0000   1.0000
     1.0000   1.0000   1.0000   1.0000   1.0000   1.0000   1.0000   1.0000
     1.0009   1.0540   0.9967   0.0000   0.0000   0.0000   0.0000   0.0000
     0.0000   0.0000   0.0000

          k = 0.0000 0.4330 0.1395 (  2641 PWs)   bands (ev):

   -87.3435 -50.6735 -50.6353 -50.5378 -45.5417 -17.6717 -17.4392 -17.4130
   -11.3336 -10.1356   0.9496   1.9365   2.7560   3.3803   4.3229   4.9875
     6.8856   7.2389   7.5035   8.8912   9.8205  10.5400  14.8151  16.1489
    18.8082  19.7149  20.6107

     occupation numbers 
     1.0000   1.0000   1.0000   1.0000   1.0000   1.0000   1.0000   1.0000
     1.0000   1.0000   1.0000   1.0000   1.0000   1.0000   1.0000   1.0000
     1.0007   1.0540   0.9871   0.0000   0.0000   0.0000   0.0000   0.0000
     0.0000   0.0000   0.0000

          k = 0.0000-0.5774 0.0000 (  2642 PWs)   bands (ev):

   -87.3427 -50.6823 -50.6374 -50.5364 -45.5363 -17.7182 -17.4491 -17.3988
   -11.1504 -10.1070   0.5693   2.0339   2.7807   3.5944   4.2927   4.6112
     6.7875   7.1364   7.4208   9.3893   9.8712  11.7942  13.1331  16.2234
    18.7583  19.7812  20.2297

     occupation numbers 
     1.0000   1.0000   1.0000   1.0000   1.0000   1.0000   1.0000   1.0000
     1.0000   1.0000   1.0000   1.0000   1.0000   1.0000   1.0000   1.0000
     1.0001   1.0231   1.0689   0.0000   0.0000   0.0000   0.0000   0.0000
     0.0000   0.0000   0.0000

          k = 0.0000-0.5774 0.1395 (  2638 PWs)   bands (ev):

   -87.3427 -50.6822 -50.6373 -50.5365 -45.5362 -17.7180 -17.4490 -17.3990
   -11.1503 -10.1068   0.5639   2.0260   2.7809   3.5957   4.2927   4.6495
     6.7810   7.1364   7.4175   9.3883   9.8710  11.6812  13.1010  16.7652
    18.5361  19.4502  20.3696

     occupation numbers 
     1.0000   1.0000   1.0000   1.0000   1.0000   1.0000   1.0000   1.0000
     1.0000   1.0000   1.0000   1.0000   1.0000   1.0000   1.0000   1.0000
     1.0001   1.0231   1.0706   0.0000   0.0000   0.0000   0.0000   0.0000
     0.0000   0.0000   0.0000

          k = 0.1250 0.2165 0.0000 (  2659 PWs)   bands (ev):

   -87.3459 -50.6458 -50.6298 -50.5420 -45.5586 -17.5236 -17.4523 -17.4138
   -11.8808 -10.1973   1.5374   2.0042   2.5312   3.6980   4.5185   5.5293
     6.9955   7.2520   7.4914   8.4335   9.2097   9.7655  14.7105  16.8146
    19.1308  19.9005  22.6419

     occupation numbers 
     1.0000   1.0000   1.0000   1.0000   1.0000   1.0000   1.0000   1.0000
     1.0000   1.0000   1.0000   1.0000   1.0000   1.0000   1.0000   1.0000
     1.0041   1.0586   1.0042   0.0000   0.0000   0.0000   0.0000   0.0000
     0.0000   0.0000   0.0000

          k = 0.1250 0.2165 0.1395 (  2634 PWs)   bands (ev):

   -87.3459 -50.6456 -50.6298 -50.5418 -45.5586 -17.5232 -17.4521 -17.4137
   -11.8785 -10.2003   1.5362   2.0290   2.5340   3.7303   4.5194   5.3543
     6.9906   7.1848   7.6985   8.2926   9.4883   9.7344  14.2448  17.4251
    18.8012  20.1886  22.0436

     occupation numbers 
     1.0000   1.0000   1.0000   1.0000   1.0000   1.0000   1.0000   1.0000
     1.0000   1.0000   1.0000   1.0000   1.0000   1.0000   1.0000   1.0000
     1.0038   1.0362   0.5239   0.0003   0.0000   0.0000   0.0000   0.0000
     0.0000   0.0000   0.0000

          k = 0.1250 0.3608 0.0000 (  2630 PWs)   bands (ev):

   -87.3440 -50.6643 -50.6368 -50.5387 -45.5455 -17.6210 -17.4510 -17.4218
   -11.4681 -10.1458   1.3579   1.9324   2.6689   3.1838   4.0929   5.2778
     7.0436   7.3809   7.5445   8.9351   9.3807   9.9841  15.2942  17.1611
    18.2831  19.9272  21.2834

     occupation numbers 
     1.0000   1.0000   1.0000   1.0000   1.0000   1.0000   1.0000   1.0000
     1.0000   1.0000   1.0000   1.0000   1.0000   1.0000   1.0000   1.0000
     1.0080   1.0818   0.9157   0.0000   0.0000   0.0000   0.0000   0.0000
     0.0000   0.0000   0.0000

          k = 0.1250 0.3608 0.1395 (  2633 PWs)   bands (ev):

   -87.3440 -50.6643 -50.6369 -50.5387 -45.5455 -17.6211 -17.4511 -17.4218
   -11.4672 -10.1469   1.3396   1.9330   2.6715   3.2260   4.0945   5.2681
     7.0355   7.3603   7.5492   8.6871   9.5473  10.1282  15.1924  16.9785
    18.8602  19.6789  21.0583

     occupation numbers 
     1.0000   1.0000   1.0000   1.0000   1.0000   1.0000   1.0000   1.0000
     1.0000   1.0000   1.0000   1.0000   1.0000   1.0000   1.0000   1.0000
     1.0072   1.0833   0.9063   0.0000   0.0000   0.0000   0.0000   0.0000
     0.0000   0.0000   0.0000

          k = 0.1250 0.5052 0.0000 (  2636 PWs)   bands (ev):

   -87.3427 -50.6775 -50.6420 -50.5364 -45.5363 -17.6909 -17.4771 -17.3987
   -11.1672 -10.0910   0.8306   1.9667   2.6468   3.6048   3.9015   4.7344
     6.9196   7.2089   7.5120   9.3194   9.6181  11.3983  14.0610  16.4556
    18.8728  19.7721  20.3022

     occupation numbers 
     1.0000   1.0000   1.0000   1.0000   1.0000   1.0000   1.0000   1.0000
     1.0000   1.0000   1.0000   1.0000   1.0000   1.0000   1.0000   1.0000
     1.0013   1.0438   0.9740   0.0000   0.0000   0.0000   0.0000   0.0000
     0.0000   0.0000   0.0000

          k = 0.1250 0.5052 0.1395 (  2647 PWs)   bands (ev):

   -87.3427 -50.6775 -50.6421 -50.5365 -45.5363 -17.6910 -17.4771 -17.3989
   -11.1672 -10.0909   0.8252   1.9587   2.6470   3.6144   3.8999   4.7605
     6.9136   7.2107   7.5047   9.2823   9.6390  11.4001  13.9682  16.6889
    18.8261  19.8518  20.2321

     occupation numbers 
     1.0000   1.0000   1.0000   1.0000   1.0000   1.0000   1.0000   1.0000
     1.0000   1.0000   1.0000   1.0000   1.0000   1.0000   1.0000   1.0000
     1.0012   1.0444   0.9853   0.0000   0.0000   0.0000   0.0000   0.0000
     0.0000   0.0000   0.0000

          k = 0.2500 0.4330 0.0000 (  2639 PWs)   bands (ev):

   -87.3427 -50.6710 -50.6485 -50.5365 -45.5363 -17.6537 -17.5151 -17.3988
   -11.1836 -10.0755   1.2266   1.8826   2.3891   3.3297   3.8983   4.8030
     7.0234   7.2551   7.6342   9.2342   9.3707  11.1805  15.0287  16.8316
    17.9834  19.8163  20.5260

     occupation numbers 
     1.0000   1.0000   1.0000   1.0000   1.0000   1.0000   1.0000   1.0000
     1.0000   1.0000   1.0000   1.0000   1.0000   1.0000   1.0000   1.0000
     1.0061   1.0596   0.7009   0.0000   0.0000   0.0000   0.0000   0.0000
     0.0000   0.0000   0.0000

          k = 0.2500 0.4330 0.1395 (  2630 PWs)   bands (ev):

   -87.3427 -50.6709 -50.6484 -50.5365 -45.5362 -17.6535 -17.5149 -17.3989
   -11.1833 -10.0757   1.2205   1.8738   2.3897   3.3478   3.9047   4.8037
     7.0247   7.2572   7.6099   9.2781   9.3595  11.1322  15.0504  16.8198
    18.1446  19.8230  20.4446

     occupation numbers 
     1.0000   1.0000   1.0000   1.0000   1.0000   1.0000   1.0000   1.0000
     1.0000   1.0000   1.0000   1.0000   1.0000   1.0000   1.0000   1.0000
     1.0062   1.0603   0.7651   0.0000   0.0000   0.0000   0.0000   0.0000
     0.0000   0.0000   0.0000

          k = 0.2500 0.5774 0.0000 (  2630 PWs)   bands (ev):

   -87.3422 -50.6714 -50.6555 -50.5355 -45.5324 -17.6541 -17.5542 -17.3891
   -11.0740 -10.0299   1.1530   1.8828   2.2124   3.4270   4.0010   4.4582
     6.8359   7.3849   7.6081   9.3215   9.3822  12.5704  13.7897  16.6542
    17.8215  19.9627  20.8270

     occupation numbers 
     1.0000   1.0000   1.0000   1.0000   1.0000   1.0000   1.0000   1.0000
     1.0000   1.0000   1.0000   1.0000   1.0000   1.0000   1.0000   1.0000
     1.0003   1.0812   0.7696   0.0000   0.0000   0.0000   0.0000   0.0000
     0.0000   0.0000   0.0000

          k = 0.2500 0.5774 0.1395 (  2649 PWs)   bands (ev):

   -87.3422 -50.6715 -50.6556 -50.5356 -45.5325 -17.6543 -17.5544 -17.3894
   -11.0740 -10.0297   1.1487   1.8804   2.2092   3.4346   3.9976   4.4662
     6.8372   7.3846   7.6006   9.3397   9.4064  12.5240  13.7218  16.6636
    18.0379  19.8306  20.6205

     occupation numbers 
     1.0000   1.0000   1.0000   1.0000   1.0000   1.0000   1.0000   1.0000
     1.0000   1.0000   1.0000   1.0000   1.0000   1.0000   1.0000   1.0000
     1.0003   1.0812   0.7886   0.0000   0.0000   0.0000   0.0000   0.0000
     0.0000   0.0000   0.0000

          k = 0.0000-0.1443 0.1395 (  2651 PWs)   bands (ev):

   -87.3472 -50.6319 -50.6253 -50.5442 -45.5678 -17.4949 -17.4271 -17.3913
   -12.1549 -10.2318   1.4576   2.1105   2.4244   4.5594   4.9596   5.1554
     6.7861   6.9808   7.6041   8.1681   9.6281   9.9122  13.4385  16.5984
    18.2286  21.9618  23.2145

     occupation numbers 
     1.0000   1.0000   1.0000   1.0000   1.0000   1.0000   1.0000   1.0000
     1.0000   1.0000   1.0000   1.0000   1.0000   1.0000   1.0000   1.0000
     1.0001   1.0033   0.7799   0.0031   0.0000   0.0000   0.0000   0.0000
     0.0000   0.0000   0.0000

          k = 0.0000-0.2887 0.1395 (  2636 PWs)   bands (ev):

   -87.3453 -50.6527 -50.6303 -50.5409 -45.5547 -17.5596 -17.4451 -17.4153
   -11.7585 -10.1881   1.4723   2.0150   2.6184   3.3859   4.5890   5.3560
     6.8904   7.2994   7.6088   8.5465   9.3665   9.7856  14.6757  17.4252
    18.5159  19.8314  21.6736

     occupation numbers 
     1.0000   1.0000   1.0000   1.0000   1.0000   1.0000   1.0000   1.0000
     1.0000   1.0000   1.0000   1.0000   1.0000   1.0000   1.0000   1.0000
     1.0008   1.0737   0.7678   0.0000   0.0000   0.0000   0.0000   0.0000
     0.0000   0.0000   0.0000

          k = 0.0000-0.4330 0.1395 (  2641 PWs)   bands (ev):

   -87.3435 -50.6735 -50.6353 -50.5378 -45.5417 -17.6717 -17.4392 -17.4130
   -11.3332 -10.1361   0.9489   1.9361   2.7559   3.4002   4.3230   4.9516
     6.8895   7.2389   7.4797   9.1345   9.8204  10.2100  14.9900  16.4948
    18.2059  19.9612  20.6648

     occupation numbers 
     1.0000   1.0000   1.0000   1.0000   1.0000   1.0000   1.0000   1.0000
     1.0000   1.0000   1.0000   1.0000   1.0000   1.0000   1.0000   1.0000
     1.0008   1.0540   1.0191   0.0000   0.0000   0.0000   0.0000   0.0000
     0.0000   0.0000   0.0000

          k =-0.1250-0.3608 0.1395 (  2633 PWs)   bands (ev):

   -87.3440 -50.6643 -50.6369 -50.5387 -45.5455 -17.6211 -17.4511 -17.4218
   -11.4670 -10.1471   1.3407   1.9315   2.6706   3.2345   4.0955   5.2462
     7.0467   7.3720   7.4990   8.9262   9.4228   9.9941  15.3744  16.9880
    18.6108  20.2308  20.5017

     occupation numbers 
     1.0000   1.0000   1.0000   1.0000   1.0000   1.0000   1.0000   1.0000
     1.0000   1.0000   1.0000   1.0000   1.0000   1.0000   1.0000   1.0000
     1.0083   1.0829   0.9938   0.0000   0.0000   0.0000   0.0000   0.0000
     0.0000   0.0000   0.0000

          k =-0.1250-0.5052 0.1395 (  2647 PWs)   bands (ev):

   -87.3427 -50.6775 -50.6421 -50.5365 -45.5363 -17.6910 -17.4771 -17.3989
   -11.1670 -10.0911   0.8242   1.9594   2.6477   3.6246   3.9001   4.7449
     6.9176   7.2096   7.4978   9.3568   9.6209  11.2722  14.0455  16.9441
    18.5964  19.6522  20.3881

     occupation numbers 
     1.0000   1.0000   1.0000   1.0000   1.0000   1.0000   1.0000   1.0000
     1.0000   1.0000   1.0000   1.0000   1.0000   1.0000   1.0000   1.0000
     1.0012   1.0441   0.9954   0.0000   0.0000   0.0000   0.0000   0.0000
     0.0000   0.0000   0.0000

     the Fermi energy is     7.7452 ev

!    total energy              =    -569.28457011 Ry
     total all-electron energy =     -3412.775125 Ry
     estimated scf accuracy    <          8.2E-09 Ry
     smearing contrib. (-TS)   =       0.00622159 Ry
     internal energy E=F+TS    =    -569.29079170 Ry

     The total energy is F=E-TS. E is the sum of the following terms:
     one-electron contribution =    -482.80639837 Ry
     hartree contribution      =     259.27975679 Ry
     xc contribution           =     -60.31669578 Ry
     ewald contribution        =    -163.52046778 Ry
     one-center paw contrib.   =    -121.92698656 Ry
      -> PAW hartree energy AE =     345.76693574 Ry
      -> PAW hartree energy PS =    -345.74659549 Ry
      -> PAW xc energy AE      =    -179.24412321 Ry
      -> PAW xc energy PS      =      57.29679640 Ry
      -> total E_H with PAW    =     259.30009704 Ry
      -> total E_XC with PAW   =    -182.26402259 Ry

     total magnetization       =     0.14 Bohr mag/cell
     absolute magnetization    =     0.17 Bohr mag/cell

     convergence has been achieved in  35 iterations

     Forces acting on atoms (cartesian axes, Ry/au):

     atom    1 type  1   force =    -0.00000000   -0.00000000    0.07674785
     atom    2 type  2   force =     0.00000000    0.00000000   -0.01816840
     atom    3 type  2   force =     0.00000000    0.00000000   -0.04190891
     atom    4 type  3   force =    -0.00000000   -0.00000000   -0.01667054
     The non-local contrib.  to forces
     atom    1 type  1   force =     0.00000000    0.00000000   -0.03582187
     atom    2 type  2   force =     0.00000000    0.00000000   -1.06958552
     atom    3 type  2   force =     0.00000000    0.00000000    0.33234881
     atom    4 type  3   force =     0.00000000   -0.00000000   -0.53516434
     The ionic contribution  to forces
     atom    1 type  1   force =    -0.00000000    0.00000000   21.14306074
     atom    2 type  2   force =     0.00000000   -0.00000000   33.28152563
     atom    3 type  2   force =    -0.00000000    0.00000000  -19.70261946
     atom    4 type  3   force =     0.00000000   -0.00000000  -34.72196692
     The local contribution  to forces
     atom    1 type  1   force =    -0.00000000   -0.00000000  -21.02967246
     atom    2 type  2   force =     0.00000001   -0.00000001  -32.23949783
     atom    3 type  2   force =    -0.00000001    0.00000001   19.33124616
     atom    4 type  3   force =     0.00000006   -0.00000004   35.24018915
     The core correction contribution to forces
     atom    1 type  1   force =     0.00000000   -0.00000000   -0.00060318
     atom    2 type  2   force =    -0.00000000    0.00000000    0.00933413
     atom    3 type  2   force =     0.00000000   -0.00000000   -0.00282438
     atom    4 type  3   force =     0.00000000   -0.00000000    0.00025615
     The Hubbard contrib.    to forces
     atom    1 type  1   force =     0.00000000    0.00000000    0.00000000
     atom    2 type  2   force =     0.00000000    0.00000000    0.00000000
     atom    3 type  2   force =     0.00000000    0.00000000    0.00000000
     atom    4 type  3   force =     0.00000000    0.00000000    0.00000000
     The SCF correction term to forces
     atom    1 type  1   force =     0.00000000    0.00000000   -0.00022746
     atom    2 type  2   force =    -0.00000000    0.00000000    0.00004312
     atom    3 type  2   force =     0.00000000   -0.00000000   -0.00007212
     atom    4 type  3   force =    -0.00000000    0.00000000    0.00000334

     Total force =     0.090855     Total SCF correction =     0.000243

     Writing all to output data dir ./out/pw.save/ :
     XML data file, charge density, pseudopotentials, collected wavefunctions
 
     init_run     :     13.95s CPU      3.86s WALL (       1 calls)
     electrons    :    179.35s CPU     44.33s WALL (       1 calls)
     forces       :      0.83s CPU      0.57s WALL (       1 calls)

     Called by init_run:
     wfcinit      :      0.27s CPU      0.33s WALL (       1 calls)
     wfcinit:atom :      0.04s CPU      0.04s WALL (      50 calls)
     wfcinit:wfcr :      0.17s CPU      0.21s WALL (      50 calls)
     potinit      :     13.14s CPU      2.35s WALL (       1 calls)
     hinit0       :      0.45s CPU      0.94s WALL (       1 calls)

     Called by electrons:
     c_bands      :     19.93s CPU     19.77s WALL (      35 calls)
     sum_band     :      3.92s CPU      3.85s WALL (      35 calls)
     v_of_rho     :      0.58s CPU      0.25s WALL (      36 calls)
     v_h          :      0.41s CPU      0.05s WALL (      36 calls)
     v_xc         :      0.18s CPU      0.20s WALL (      37 calls)
     newd         :      0.84s CPU      0.62s WALL (      36 calls)
                                        0.62s GPU  (      36 calls)
     PAW_pot      :    157.14s CPU     19.72s WALL (      36 calls)
     mix_rho      :      0.59s CPU      0.58s WALL (      35 calls)

     Called by c_bands:
     init_us_2    :      1.50s CPU      1.41s WALL (    3600 calls)
     cegterg      :     17.08s CPU     17.05s WALL (    1750 calls)

     Called by sum_band:
     sum_band:wei :      0.05s CPU      0.05s WALL (      35 calls)
                                        0.05s GPU  (      35 calls)
     sum_band:loo :      2.47s CPU      2.38s WALL (      35 calls)
                                        2.38s GPU  (      35 calls)
     sum_band:buf :      0.29s CPU      0.33s WALL (    1750 calls)
                                        0.31s GPU  (    1750 calls)
     sum_band:ini :      0.71s CPU      0.70s WALL (    1750 calls)
                                        0.68s GPU  (    1750 calls)
     sum_band:cal :      0.07s CPU      0.10s WALL (    1750 calls)
                                        0.08s GPU  (    1750 calls)
     sum_band:bec :      0.38s CPU      0.40s WALL (    1750 calls)
                                        0.38s GPU  (    1750 calls)
     addusdens    :      1.16s CPU      1.17s WALL (      35 calls)
                                        1.17s GPU  (      35 calls)
     addusd:skk   :      0.01s CPU      0.01s WALL (     105 calls)
                                        0.01s GPU  (     105 calls)

     Called by *egterg:
     cdiaghg      :      5.63s CPU      5.82s WALL (    6724 calls)
                                        5.74s GPU  (    6724 calls)
     cegterg:over :      1.04s CPU      1.08s WALL (    4974 calls)
     cegterg:upda :      1.03s CPU      1.03s WALL (    4974 calls)
     cegterg:last :      0.19s CPU      0.18s WALL (    3132 calls)
     h_psi        :      6.41s CPU      6.36s WALL (    6774 calls)
                                        6.28s GPU  (    6774 calls)
     s_psi        :      1.04s CPU      1.10s WALL (    6774 calls)
     g_psi        :      0.02s CPU      0.12s WALL (    4974 calls)
                                        0.06s GPU  (    4974 calls)

     Called by h_psi:
     h_psi:calbec :      0.20s CPU      0.37s WALL (    6774 calls)
                                        0.28s GPU  (    6774 calls)
     vloc_psi     :      4.54s CPU      4.39s WALL (    6774 calls)
                                        4.30s GPU  (    6774 calls)
     add_vuspsi   :      0.94s CPU      1.12s WALL (    6774 calls)
                                        1.03s GPU  (    6774 calls)

     General routines
     calbec       :      0.23s CPU      0.26s WALL (    8724 calls)
     fft          :      4.12s CPU      0.95s WALL (     913 calls)
                                        0.03s GPU  (     841 calls)
     ffts         :      4.96s CPU      0.82s WALL (     142 calls)
                                        0.00s GPU  (      70 calls)
     fftw         :      0.44s CPU      1.49s WALL (   24148 calls)
                                        1.22s GPU  (   24148 calls)
     interpolate  :      9.29s CPU      1.77s WALL (      72 calls)
 
     Parallel routines

     PAW routines
     PAW_pot      :    157.14s CPU     19.72s WALL (      36 calls)
     PAW_symme    :      0.03s CPU      0.01s WALL (      71 calls)
 
     PWSCF        :   3m14.99s CPU     49.30s WALL

 
   This run was terminated on:   2:15:55  12Jul2026            

=------------------------------------------------------------------------------=
   JOB DONE.
=------------------------------------------------------------------------------=
Warning: ieee_divide_by_zero is signaling
Warning: ieee_inexact is signaling
FORTRAN STOP
