
     Program PWSCF v.7.3.1 starts on 12Jul2026 at  5:41:14 

     This program is part of the open-source Quantum ESPRESSO suite
     for quantum simulation of materials; please cite
         "P. Giannozzi et al., J. Phys.:Condens. Matter 21 395502 (2009);
         "P. Giannozzi et al., J. Phys.:Condens. Matter 29 465901 (2017);
         "P. Giannozzi et al., J. Chem. Phys. 152 154105 (2020);
          URL http://www.quantum-espresso.org", 
     in publications or presentations arising from this work. More details at
     http://www.quantum-espresso.org/quote

     Parallel version (MPI & OpenMP), running on      14 processor cores
     Number of MPI processes:                 1
     Threads/MPI process:                    14

     MPI processes distributed on     1 nodes
     1357676 MiB available memory on the printing compute node when the environment starts
 
     Reading input from pw.in

     Current dimensions of program PWSCF are:
     Max number of different atomic species (ntypx) = 10
     Max number of k-points (npk) =  40000
     Max angular momentum in pseudopotentials (lmaxx) =  4
     file Co.pbe-spn-kjpaw_psl.0.3.1.UPF: wavefunction(s)  3P 3D renormalized
     file O.pbe-n-kjpaw_psl.1.0.0.UPF: wavefunction(s)  2S 2P renormalized
 
     Subspace diagonalization in iterative solution of the eigenvalue problem:
     a serial algorithm will be used

 
     G-vector sticks info
     --------------------
     sticks:   dense  smooth     PW     G-vecs:    dense   smooth      PW
     Sum         931     475    151                45403    15993    2651
 
     Using Slab Decomposition
 


     bravais-lattice index     =            4
     lattice parameter (alat)  =       5.3290  a.u.
     unit-cell volume          =     255.6161 (a.u.)^3
     number of atoms/cell      =            4
     number of atomic types    =            3
     number of electrons       =        32.10
     number of Kohn-Sham states=           24
     kinetic-energy cutoff     =      60.0000  Ry
     charge density cutoff     =     480.0000  Ry
     scf convergence threshold =      1.0E-07
     mixing beta               =       0.3000
     number of iterations used =            8  local-TF  mixing
     Exchange-correlation= SLA  PW   PBX  PBC
                           (   1   4   3   4   0   0   0)

     GPU acceleration is ACTIVE.  1 visible GPUs per MPI rank
     GPU-aware MPI enabled


     GPU used by master process:

        Device Number: 0
        Device name: NVIDIA A100-SXM4-80GB
        Compute capability : 80
        Ratio of single to double precision performance  : 2
        Memory Clock Rate (KHz): 1593000
        Memory Bus Width (bits): 5120
        Peak Memory Bandwidth (GB/s): ******

     celldm(1)=   5.329028  celldm(2)=   0.000000  celldm(3)=   1.950355
     celldm(4)=   0.000000  celldm(5)=   0.000000  celldm(6)=   0.000000

     crystal axes: (cart. coord. in units of alat)
               a(1) = (   1.000000   0.000000   0.000000 )  
               a(2) = (  -0.500000   0.866025   0.000000 )  
               a(3) = (   0.000000   0.000000   1.950355 )  

     reciprocal axes: (cart. coord. in units 2 pi/alat)
               b(1) = (  1.000000  0.577350 -0.000000 )  
               b(2) = (  0.000000  1.154701  0.000000 )  
               b(3) = (  0.000000 -0.000000  0.512727 )  


     PseudoPot. # 1 for Co read from file:
     ../../pseudo/Co.pbe-spn-kjpaw_psl.0.3.1.UPF
     MD5 check sum: 3c0a43779828c046024e4f3be63f8e67
     Pseudo is Projector augmented-wave + core cor, Zval = 17.0
     Generated using &quot;atomic&quot; code by A. Dal Corso  v.6.2.2
     Shape of augmentation charge: PSQ
     Using radial grid of 1193 points,  6 beta functions with: 
                l(1) =   0
                l(2) =   0
                l(3) =   1
                l(4) =   1
                l(5) =   2
                l(6) =   2
     Q(r) pseudized with 0 coefficients 


     PseudoPot. # 2 for O  read from file:
     ../../pseudo/O.pbe-n-kjpaw_psl.1.0.0.UPF
     MD5 check sum: e99d9cef9b487d1ca56f5b95ecd0fd7a
     Pseudo is Projector augmented-wave + core cor, Zval =  6.0
     Generated using &quot;atomic&quot; code by A. Dal Corso  v.6.3
     Shape of augmentation charge: PSQ
     Using radial grid of 1095 points,  4 beta functions with: 
                l(1) =   0
                l(2) =   0
                l(3) =   1
                l(4) =   1
     Q(r) pseudized with 0 coefficients 


     PseudoPot. # 3 for Li read from file:
     ../../pseudo/Li.pbe-s-kjpaw_psl.1.0.0.UPF
     MD5 check sum: 3974953fb0fea6c4f83fb01d64ffc134
     Pseudo is Projector augmented-wave, Zval =  3.0
     Generated using &quot;atomic&quot; code by A. Dal Corso  v.6.3
     Shape of augmentation charge: PSQ
     Using radial grid of 1017 points,  4 beta functions with: 
                l(1) =   0
                l(2) =   0
                l(3) =   1
                l(4) =   1
     Q(r) pseudized with 0 coefficients 


     atomic species   valence    mass     pseudopotential
     Co               17.00    58.93300     Co( 1.00)
     O                 6.00    15.99900     O ( 1.00)
     Li                3.00     6.94100     Li( 1.00)

     Starting magnetic structure 
     atomic species   magnetization
     Co              0.300
     O               0.000
     Li              0.000

      6 Sym. Ops. (no inversion) found


                                    s                        frac. trans.

      isym =  1     identity                                     

 cryst.   s( 1) = (     1          0          0      )
                  (     0          1          0      )
                  (     0          0          1      )

 cart.    s( 1) = (  1.0000000  0.0000000  0.0000000 )
                  (  0.0000000  1.0000000  0.0000000 )
                  (  0.0000000  0.0000000  1.0000000 )


      isym =  2     120 deg rotation - cryst. axis [0,0,1]       

 cryst.   s( 2) = (     0          1          0      )
                  (    -1         -1          0      )
                  (     0          0          1      )

 cart.    s( 2) = ( -0.5000000 -0.8660254  0.0000000 )
                  (  0.8660254 -0.5000000  0.0000000 )
                  (  0.0000000  0.0000000  1.0000000 )


      isym =  3     120 deg rotation - cryst. axis [0,0,-1]      

 cryst.   s( 3) = (    -1         -1          0      )
                  (     1          0          0      )
                  (     0          0          1      )

 cart.    s( 3) = ( -0.5000000  0.8660254  0.0000000 )
                  ( -0.8660254 -0.5000000  0.0000000 )
                  (  0.0000000  0.0000000  1.0000000 )


      isym =  4     inv. 180 deg rotation - cart. axis [1,0,0]   

 cryst.   s( 4) = (    -1          0          0      )
                  (     1          1          0      )
                  (     0          0          1      )

 cart.    s( 4) = ( -1.0000000  0.0000000  0.0000000 )
                  (  0.0000000  1.0000000  0.0000000 )
                  (  0.0000000  0.0000000  1.0000000 )


      isym =  5     inv. 180 deg rotation - cryst. axis [0,1,0]  

 cryst.   s( 5) = (     1          1          0      )
                  (     0         -1          0      )
                  (     0          0          1      )

 cart.    s( 5) = (  0.5000000  0.8660254  0.0000000 )
                  (  0.8660254 -0.5000000  0.0000000 )
                  (  0.0000000  0.0000000  1.0000000 )


      isym =  6     inv. 180 deg rotation - cryst. axis [1,1,0]  

 cryst.   s( 6) = (     0         -1          0      )
                  (    -1          0          0      )
                  (     0          0          1      )

 cart.    s( 6) = (  0.5000000 -0.8660254  0.0000000 )
                  ( -0.8660254 -0.5000000  0.0000000 )
                  (  0.0000000  0.0000000  1.0000000 )


     point group C_3v (3m)  
     there are  3 classes
     the character table:

       E     2C3   3s_v 
A_1    1.00  1.00  1.00
A_2    1.00  1.00 -1.00
E      2.00 -1.00  0.00

     the symmetry operations in each class and the name of the first element:

     E        1
          identity                                               
     2C3      2    3
          120 deg rotation - cryst. axis [0,0,1]                 
     3s_v     4    5    6
          inv. 180 deg rotation - cart. axis [1,0,0]             

   Cartesian axes

     site n.     atom                  positions (alat units)
         1        Co     tau(   1) = (   0.0000000   0.0000000   0.0000000  )
         2        O      tau(   2) = (  -0.0000000   0.5773503   0.3404255  )
         3        O      tau(   3) = (   0.5000000   0.2886751   1.6099291  )
         4        Li     tau(   4) = (   0.0000000   0.0000000   1.0815603  )

   Crystallographic axes

     site n.     atom                  positions (cryst. coord.)
         1        Co     tau(   1) = (  0.0000000  0.0000000  0.0000000  )
         2        O      tau(   2) = (  0.3333333  0.6666667  0.1745455  )
         3        O      tau(   3) = (  0.6666667  0.3333333  0.8254545  )
         4        Li     tau(   4) = (  0.0000000  0.0000000  0.5545455  )

     number of k points=    25  Marzari-Vanderbilt smearing, width (Ry)=  0.0200
                       cart. coord. in units 2pi/alat
        k(    1) = (   0.0000000   0.0000000   0.0000000), wk =   0.0052083
        k(    2) = (   0.0000000   0.0000000   0.1709091), wk =   0.0104167
        k(    3) = (   0.0000000   0.1443376   0.0000000), wk =   0.0312500
        k(    4) = (   0.0000000   0.1443376   0.1709091), wk =   0.0312500
        k(    5) = (   0.0000000   0.2886751   0.0000000), wk =   0.0312500
        k(    6) = (   0.0000000   0.2886751   0.1709091), wk =   0.0312500
        k(    7) = (   0.0000000   0.4330127   0.0000000), wk =   0.0312500
        k(    8) = (   0.0000000   0.4330127   0.1709091), wk =   0.0312500
        k(    9) = (   0.0000000  -0.5773503   0.0000000), wk =   0.0156250
        k(   10) = (   0.0000000  -0.5773503   0.1709091), wk =   0.0312500
        k(   11) = (   0.1250000   0.2165064   0.0000000), wk =   0.0312500
        k(   12) = (   0.1250000   0.2165064   0.1709091), wk =   0.0625000
        k(   13) = (   0.1250000   0.3608439   0.0000000), wk =   0.0625000
        k(   14) = (   0.1250000   0.3608439   0.1709091), wk =   0.0625000
        k(   15) = (   0.1250000   0.5051815   0.0000000), wk =   0.0625000
        k(   16) = (   0.1250000   0.5051815   0.1709091), wk =   0.0625000
        k(   17) = (   0.2500000   0.4330127   0.0000000), wk =   0.0312500
        k(   18) = (   0.2500000   0.4330127   0.1709091), wk =   0.0625000
        k(   19) = (   0.2500000   0.5773503   0.0000000), wk =   0.0312500
        k(   20) = (   0.2500000   0.5773503   0.1709091), wk =   0.0625000
        k(   21) = (   0.0000000  -0.1443376   0.1709091), wk =   0.0312500
        k(   22) = (   0.0000000  -0.2886751   0.1709091), wk =   0.0312500
        k(   23) = (   0.0000000  -0.4330127   0.1709091), wk =   0.0312500
        k(   24) = (  -0.1250000  -0.3608439   0.1709091), wk =   0.0625000
        k(   25) = (  -0.1250000  -0.5051815   0.1709091), wk =   0.0625000

                       cryst. coord.
        k(    1) = (   0.0000000   0.0000000   0.0000000), wk =   0.0052083
        k(    2) = (   0.0000000   0.0000000   0.3333333), wk =   0.0104167
        k(    3) = (   0.0000000   0.1250000   0.0000000), wk =   0.0312500
        k(    4) = (   0.0000000   0.1250000   0.3333333), wk =   0.0312500
        k(    5) = (   0.0000000   0.2500000   0.0000000), wk =   0.0312500
        k(    6) = (   0.0000000   0.2500000   0.3333333), wk =   0.0312500
        k(    7) = (   0.0000000   0.3750000   0.0000000), wk =   0.0312500
        k(    8) = (   0.0000000   0.3750000   0.3333333), wk =   0.0312500
        k(    9) = (   0.0000000  -0.5000000   0.0000000), wk =   0.0156250
        k(   10) = (   0.0000000  -0.5000000   0.3333333), wk =   0.0312500
        k(   11) = (   0.1250000   0.1250000   0.0000000), wk =   0.0312500
        k(   12) = (   0.1250000   0.1250000   0.3333333), wk =   0.0625000
        k(   13) = (   0.1250000   0.2500000   0.0000000), wk =   0.0625000
        k(   14) = (   0.1250000   0.2500000   0.3333333), wk =   0.0625000
        k(   15) = (   0.1250000   0.3750000   0.0000000), wk =   0.0625000
        k(   16) = (   0.1250000   0.3750000   0.3333333), wk =   0.0625000
        k(   17) = (   0.2500000   0.2500000   0.0000000), wk =   0.0312500
        k(   18) = (   0.2500000   0.2500000   0.3333333), wk =   0.0625000
        k(   19) = (   0.2500000   0.3750000   0.0000000), wk =   0.0312500
        k(   20) = (   0.2500000   0.3750000   0.3333333), wk =   0.0625000
        k(   21) = (   0.0000000  -0.1250000   0.3333333), wk =   0.0312500
        k(   22) = (   0.0000000  -0.2500000   0.3333333), wk =   0.0312500
        k(   23) = (   0.0000000  -0.3750000   0.3333333), wk =   0.0312500
        k(   24) = (  -0.1250000  -0.2500000   0.3333333), wk =   0.0625000
        k(   25) = (  -0.1250000  -0.3750000   0.3333333), wk =   0.0625000

     Dense  grid:    45403 G-vectors     FFT dimensions: (  40,  40,  75)

     Smooth grid:    15993 G-vectors     FFT dimensions: (  27,  27,  54)

     Dynamical RAM for                 wfc:       0.73 MB

     Dynamical RAM for     wfc (w. buffer):      37.47 MB

     Dynamical RAM for           str. fact:       2.08 MB

     Dynamical RAM for           local pot:       0.00 MB

     Dynamical RAM for          nlocal pot:       1.29 MB

     Dynamical RAM for                qrad:       5.27 MB

     Dynamical RAM for          rho,v,vnew:       9.65 MB

     Dynamical RAM for               rhoin:       3.22 MB

     Dynamical RAM for            rho*nmix:      22.17 MB

     Dynamical RAM for           G-vectors:       2.72 MB

     Dynamical RAM for          h,s,v(r/c):       0.11 MB

     Dynamical RAM for          <psi|beta>:       0.02 MB

     Dynamical RAM for                 psi:       1.47 MB

     Dynamical RAM for                hpsi:       1.47 MB

     Dynamical RAM for                spsi:       1.47 MB

     Dynamical RAM for      wfcinit/wfcrot:       1.48 MB

     Dynamical RAM for           addusdens:     130.94 MB

     Dynamical RAM for          addusforce:     132.34 MB

     Estimated static dynamical RAM per process >      69.95 MB

     Estimated max dynamical RAM per process >     224.46 MB

     Check: negative core charge=   -0.000009
     Generating pointlists ...
     new r_m :   0.2765 (alat units)  1.4733 (a.u.) for type    1
     new r_m :   0.2765 (alat units)  1.4733 (a.u.) for type    2
     new r_m :   0.3228 (alat units)  1.7204 (a.u.) for type    3

     Initial potential from superposition of free atoms

     starting charge      31.9951, renormalised to      32.1000
     Starting wfcs are   23 randomized atomic wfcs +    1 random wfcs
     Checking if some PAW data can be deallocated... 

     total cpu time spent up to now is        2.8 secs

     Self-consistent Calculation
[tb_dev] Currently allocated     6.36E-01 Mbytes, locked:    0 /   6
[tb_pin] Currently allocated     0.00E+00 Mbytes, locked:    0 /   0

     iteration #  1     ecut=    60.00 Ry     beta= 0.30
     Davidson diagonalization with overlap

---- Real-time Memory Report at c_bands before calling an iterative solver
           641 MiB given to the printing process from OS
             0 MiB allocation reported by mallinfo(arena+hblkhd)
       1355032 MiB available memory on the node where the printing process lives
     GPU memory used/free/total (MiB): 916 / 80234 / 81151
------------------
     ethr =  1.00E-02,  avg # of iterations =  8.1

     total cpu time spent up to now is        4.7 secs

     total energy              =    -474.88316875 Ry
     estimated scf accuracy    <       1.29775845 Ry

     total magnetization       =     3.90 Bohr mag/cell
     absolute magnetization    =     3.90 Bohr mag/cell
[tb_dev] Currently allocated     3.05E-05 Mbytes, locked:    0 /   2
[tb_pin] Currently allocated     0.00E+00 Mbytes, locked:    0 /   0

     iteration #  2     ecut=    60.00 Ry     beta= 0.30
     Davidson diagonalization with overlap

---- Real-time Memory Report at c_bands before calling an iterative solver
           684 MiB given to the printing process from OS
             0 MiB allocation reported by mallinfo(arena+hblkhd)
       1353354 MiB available memory on the node where the printing process lives
     GPU memory used/free/total (MiB): 928 / 80222 / 81151
------------------
     ethr =  4.04E-03,  avg # of iterations =  1.9

     total cpu time spent up to now is        5.8 secs

     total energy              =    -474.83838410 Ry
     estimated scf accuracy    <       0.42709421 Ry

     total magnetization       =     3.94 Bohr mag/cell
     absolute magnetization    =     3.94 Bohr mag/cell
[tb_dev] Currently allocated     3.05E-05 Mbytes, locked:    0 /   2
[tb_pin] Currently allocated     0.00E+00 Mbytes, locked:    0 /   0

     iteration #  3     ecut=    60.00 Ry     beta= 0.30
     Davidson diagonalization with overlap

---- Real-time Memory Report at c_bands before calling an iterative solver
           686 MiB given to the printing process from OS
             0 MiB allocation reported by mallinfo(arena+hblkhd)
       1352485 MiB available memory on the node where the printing process lives
     GPU memory used/free/total (MiB): 928 / 80222 / 81151
------------------
     ethr =  1.33E-03,  avg # of iterations =  2.2

     total cpu time spent up to now is        6.9 secs

     total energy              =    -475.02109722 Ry
     estimated scf accuracy    <       0.67824616 Ry

     total magnetization       =     1.70 Bohr mag/cell
     absolute magnetization    =     1.82 Bohr mag/cell
[tb_dev] Currently allocated     3.05E-05 Mbytes, locked:    0 /   2
[tb_pin] Currently allocated     0.00E+00 Mbytes, locked:    0 /   0

     iteration #  4     ecut=    60.00 Ry     beta= 0.30
     Davidson diagonalization with overlap

---- Real-time Memory Report at c_bands before calling an iterative solver
           688 MiB given to the printing process from OS
             0 MiB allocation reported by mallinfo(arena+hblkhd)
       1351584 MiB available memory on the node where the printing process lives
     GPU memory used/free/total (MiB): 928 / 80222 / 81151
------------------
     ethr =  1.33E-03,  avg # of iterations =  1.1

     total cpu time spent up to now is        8.0 secs

     total energy              =    -475.12187365 Ry
     estimated scf accuracy    <       0.73176087 Ry

     total magnetization       =     1.68 Bohr mag/cell
     absolute magnetization    =     1.80 Bohr mag/cell
[tb_dev] Currently allocated     3.05E-05 Mbytes, locked:    0 /   2
[tb_pin] Currently allocated     0.00E+00 Mbytes, locked:    0 /   0

     iteration #  5     ecut=    60.00 Ry     beta= 0.30
     Davidson diagonalization with overlap

---- Real-time Memory Report at c_bands before calling an iterative solver
           689 MiB given to the printing process from OS
             0 MiB allocation reported by mallinfo(arena+hblkhd)
       1350695 MiB available memory on the node where the printing process lives
     GPU memory used/free/total (MiB): 928 / 80222 / 81151
------------------
     ethr =  1.33E-03,  avg # of iterations =  1.5

     total cpu time spent up to now is        9.1 secs

     total energy              =    -475.17424296 Ry
     estimated scf accuracy    <       1.76783553 Ry

     total magnetization       =     0.72 Bohr mag/cell
     absolute magnetization    =     1.15 Bohr mag/cell
[tb_dev] Currently allocated     3.05E-05 Mbytes, locked:    0 /   2
[tb_pin] Currently allocated     0.00E+00 Mbytes, locked:    0 /   0

     iteration #  6     ecut=    60.00 Ry     beta= 0.30
     Davidson diagonalization with overlap

---- Real-time Memory Report at c_bands before calling an iterative solver
           690 MiB given to the printing process from OS
             0 MiB allocation reported by mallinfo(arena+hblkhd)
       1350194 MiB available memory on the node where the printing process lives
     GPU memory used/free/total (MiB): 928 / 80222 / 81151
------------------
     ethr =  1.33E-03,  avg # of iterations =  1.0

     total cpu time spent up to now is       10.1 secs

     total energy              =    -475.17585222 Ry
     estimated scf accuracy    <       1.89349629 Ry

     total magnetization       =     0.59 Bohr mag/cell
     absolute magnetization    =     1.11 Bohr mag/cell
[tb_dev] Currently allocated     3.05E-05 Mbytes, locked:    0 /   2
[tb_pin] Currently allocated     0.00E+00 Mbytes, locked:    0 /   0

     iteration #  7     ecut=    60.00 Ry     beta= 0.30
     Davidson diagonalization with overlap

---- Real-time Memory Report at c_bands before calling an iterative solver
           691 MiB given to the printing process from OS
             0 MiB allocation reported by mallinfo(arena+hblkhd)
       1349215 MiB available memory on the node where the printing process lives
     GPU memory used/free/total (MiB): 928 / 80222 / 81151
------------------
     ethr =  1.33E-03,  avg # of iterations =  1.0

     total cpu time spent up to now is       11.1 secs

     total energy              =    -475.22055105 Ry
     estimated scf accuracy    <       1.11661361 Ry

     total magnetization       =     0.13 Bohr mag/cell
     absolute magnetization    =     0.83 Bohr mag/cell
[tb_dev] Currently allocated     3.05E-05 Mbytes, locked:    0 /   2
[tb_pin] Currently allocated     0.00E+00 Mbytes, locked:    0 /   0

     iteration #  8     ecut=    60.00 Ry     beta= 0.30
     Davidson diagonalization with overlap

---- Real-time Memory Report at c_bands before calling an iterative solver
           692 MiB given to the printing process from OS
             0 MiB allocation reported by mallinfo(arena+hblkhd)
       1348189 MiB available memory on the node where the printing process lives
     GPU memory used/free/total (MiB): 928 / 80222 / 81151
------------------
     ethr =  1.33E-03,  avg # of iterations =  1.0

     total cpu time spent up to now is       12.1 secs

     total energy              =    -475.19649778 Ry
     estimated scf accuracy    <       1.10378116 Ry

     total magnetization       =     0.09 Bohr mag/cell
     absolute magnetization    =     0.74 Bohr mag/cell
[tb_dev] Currently allocated     3.05E-05 Mbytes, locked:    0 /   2
[tb_pin] Currently allocated     0.00E+00 Mbytes, locked:    0 /   0

     iteration #  9     ecut=    60.00 Ry     beta= 0.30
     Davidson diagonalization with overlap

---- Real-time Memory Report at c_bands before calling an iterative solver
           693 MiB given to the printing process from OS
             0 MiB allocation reported by mallinfo(arena+hblkhd)
       1347287 MiB available memory on the node where the printing process lives
     GPU memory used/free/total (MiB): 928 / 80222 / 81151
------------------
     ethr =  1.33E-03,  avg # of iterations =  1.0

     total cpu time spent up to now is       13.2 secs

     total energy              =    -475.12954779 Ry
     estimated scf accuracy    <       0.65459543 Ry

     total magnetization       =     0.10 Bohr mag/cell
     absolute magnetization    =     0.41 Bohr mag/cell
[tb_dev] Currently allocated     3.05E-05 Mbytes, locked:    0 /   2
[tb_pin] Currently allocated     0.00E+00 Mbytes, locked:    0 /   0

     iteration # 10     ecut=    60.00 Ry     beta= 0.30
     Davidson diagonalization with overlap

---- Real-time Memory Report at c_bands before calling an iterative solver
           694 MiB given to the printing process from OS
             0 MiB allocation reported by mallinfo(arena+hblkhd)
       1346217 MiB available memory on the node where the printing process lives
     GPU memory used/free/total (MiB): 928 / 80222 / 81151
------------------
     ethr =  1.33E-03,  avg # of iterations =  1.0

     total cpu time spent up to now is       14.2 secs

     total energy              =    -475.15412400 Ry
     estimated scf accuracy    <       0.48532172 Ry

     total magnetization       =     0.07 Bohr mag/cell
     absolute magnetization    =     0.43 Bohr mag/cell
[tb_dev] Currently allocated     3.05E-05 Mbytes, locked:    0 /   2
[tb_pin] Currently allocated     0.00E+00 Mbytes, locked:    0 /   0

     iteration # 11     ecut=    60.00 Ry     beta= 0.30
     Davidson diagonalization with overlap

---- Real-time Memory Report at c_bands before calling an iterative solver
           694 MiB given to the printing process from OS
             0 MiB allocation reported by mallinfo(arena+hblkhd)
       1345317 MiB available memory on the node where the printing process lives
     GPU memory used/free/total (MiB): 928 / 80222 / 81151
------------------
     ethr =  1.33E-03,  avg # of iterations =  1.0

     total cpu time spent up to now is       15.2 secs

     total energy              =    -475.14529558 Ry
     estimated scf accuracy    <       0.51728732 Ry

     total magnetization       =     0.08 Bohr mag/cell
     absolute magnetization    =     0.42 Bohr mag/cell
[tb_dev] Currently allocated     3.05E-05 Mbytes, locked:    0 /   2
[tb_pin] Currently allocated     0.00E+00 Mbytes, locked:    0 /   0

     iteration # 12     ecut=    60.00 Ry     beta= 0.30
     Davidson diagonalization with overlap

---- Real-time Memory Report at c_bands before calling an iterative solver
           694 MiB given to the printing process from OS
             0 MiB allocation reported by mallinfo(arena+hblkhd)
       1344243 MiB available memory on the node where the printing process lives
     GPU memory used/free/total (MiB): 928 / 80222 / 81151
------------------
     ethr =  1.33E-03,  avg # of iterations =  1.0

     total cpu time spent up to now is       16.2 secs

     total energy              =    -475.07543913 Ry
     estimated scf accuracy    <       0.32579743 Ry

     total magnetization       =     0.10 Bohr mag/cell
     absolute magnetization    =     0.29 Bohr mag/cell
[tb_dev] Currently allocated     3.05E-05 Mbytes, locked:    0 /   2
[tb_pin] Currently allocated     0.00E+00 Mbytes, locked:    0 /   0

     iteration # 13     ecut=    60.00 Ry     beta= 0.30
     Davidson diagonalization with overlap

---- Real-time Memory Report at c_bands before calling an iterative solver
           694 MiB given to the printing process from OS
             0 MiB allocation reported by mallinfo(arena+hblkhd)
       1363556 MiB available memory on the node where the printing process lives
     GPU memory used/free/total (MiB): 928 / 80222 / 81151
------------------
     ethr =  1.01E-03,  avg # of iterations =  1.1

     total cpu time spent up to now is       17.3 secs

     total energy              =    -475.08821446 Ry
     estimated scf accuracy    <       0.02630851 Ry

     total magnetization       =     0.08 Bohr mag/cell
     absolute magnetization    =     0.15 Bohr mag/cell
[tb_dev] Currently allocated     3.05E-05 Mbytes, locked:    0 /   2
[tb_pin] Currently allocated     0.00E+00 Mbytes, locked:    0 /   0

     iteration # 14     ecut=    60.00 Ry     beta= 0.30
     Davidson diagonalization with overlap

---- Real-time Memory Report at c_bands before calling an iterative solver
           694 MiB given to the printing process from OS
             0 MiB allocation reported by mallinfo(arena+hblkhd)
       1364566 MiB available memory on the node where the printing process lives
     GPU memory used/free/total (MiB): 928 / 80222 / 81151
------------------
     ethr =  8.20E-05,  avg # of iterations =  5.1

     total cpu time spent up to now is       18.9 secs

     total energy              =    -475.10274491 Ry
     estimated scf accuracy    <       0.02226902 Ry

     total magnetization       =    -0.06 Bohr mag/cell
     absolute magnetization    =     0.08 Bohr mag/cell
[tb_dev] Currently allocated     3.05E-05 Mbytes, locked:    0 /   2
[tb_pin] Currently allocated     0.00E+00 Mbytes, locked:    0 /   0

     iteration # 15     ecut=    60.00 Ry     beta= 0.30
     Davidson diagonalization with overlap

---- Real-time Memory Report at c_bands before calling an iterative solver
           695 MiB given to the printing process from OS
             0 MiB allocation reported by mallinfo(arena+hblkhd)
       1364517 MiB available memory on the node where the printing process lives
     GPU memory used/free/total (MiB): 928 / 80222 / 81151
------------------
     ethr =  6.94E-05,  avg # of iterations =  1.1

     total cpu time spent up to now is       19.9 secs

     total energy              =    -475.10498334 Ry
     estimated scf accuracy    <       0.00118210 Ry

     total magnetization       =    -0.03 Bohr mag/cell
     absolute magnetization    =     0.04 Bohr mag/cell
[tb_dev] Currently allocated     3.05E-05 Mbytes, locked:    0 /   2
[tb_pin] Currently allocated     0.00E+00 Mbytes, locked:    0 /   0

     iteration # 16     ecut=    60.00 Ry     beta= 0.30
     Davidson diagonalization with overlap

---- Real-time Memory Report at c_bands before calling an iterative solver
           695 MiB given to the printing process from OS
             0 MiB allocation reported by mallinfo(arena+hblkhd)
       1364451 MiB available memory on the node where the printing process lives
     GPU memory used/free/total (MiB): 928 / 80222 / 81151
------------------
     c_bands:  1 eigenvalues not converged
     ethr =  3.68E-06,  avg # of iterations =  7.6

     total cpu time spent up to now is       21.7 secs

     total energy              =    -475.10547398 Ry
     estimated scf accuracy    <       0.00213248 Ry

     total magnetization       =    -0.01 Bohr mag/cell
     absolute magnetization    =     0.02 Bohr mag/cell
[tb_dev] Currently allocated     3.05E-05 Mbytes, locked:    0 /   2
[tb_pin] Currently allocated     0.00E+00 Mbytes, locked:    0 /   0

     iteration # 17     ecut=    60.00 Ry     beta= 0.30
     Davidson diagonalization with overlap

---- Real-time Memory Report at c_bands before calling an iterative solver
           695 MiB given to the printing process from OS
             0 MiB allocation reported by mallinfo(arena+hblkhd)
       1364437 MiB available memory on the node where the printing process lives
     GPU memory used/free/total (MiB): 928 / 80222 / 81151
------------------
     ethr =  3.68E-06,  avg # of iterations =  2.0

     total cpu time spent up to now is       22.8 secs

     total energy              =    -475.10579621 Ry
     estimated scf accuracy    <       0.00002412 Ry

     total magnetization       =    -0.01 Bohr mag/cell
     absolute magnetization    =     0.01 Bohr mag/cell
[tb_dev] Currently allocated     3.05E-05 Mbytes, locked:    0 /   2
[tb_pin] Currently allocated     0.00E+00 Mbytes, locked:    0 /   0

     iteration # 18     ecut=    60.00 Ry     beta= 0.30
     Davidson diagonalization with overlap

---- Real-time Memory Report at c_bands before calling an iterative solver
           695 MiB given to the printing process from OS
             0 MiB allocation reported by mallinfo(arena+hblkhd)
       1364473 MiB available memory on the node where the printing process lives
     GPU memory used/free/total (MiB): 928 / 80222 / 81151
------------------
     ethr =  7.51E-08,  avg # of iterations =  9.6

     total cpu time spent up to now is       24.9 secs

     total energy              =    -475.10586088 Ry
     estimated scf accuracy    <       0.00001916 Ry

     total magnetization       =    -0.00 Bohr mag/cell
     absolute magnetization    =     0.00 Bohr mag/cell
[tb_dev] Currently allocated     3.05E-05 Mbytes, locked:    0 /   2
[tb_pin] Currently allocated     0.00E+00 Mbytes, locked:    0 /   0

     iteration # 19     ecut=    60.00 Ry     beta= 0.30
     Davidson diagonalization with overlap

---- Real-time Memory Report at c_bands before calling an iterative solver
           695 MiB given to the printing process from OS
             0 MiB allocation reported by mallinfo(arena+hblkhd)
       1364587 MiB available memory on the node where the printing process lives
     GPU memory used/free/total (MiB): 928 / 80222 / 81151
------------------
     ethr =  5.97E-08,  avg # of iterations =  1.6

     total cpu time spent up to now is       26.0 secs

     total energy              =    -475.10586158 Ry
     estimated scf accuracy    <       0.00000595 Ry

     total magnetization       =    -0.00 Bohr mag/cell
     absolute magnetization    =     0.00 Bohr mag/cell
[tb_dev] Currently allocated     3.05E-05 Mbytes, locked:    0 /   2
[tb_pin] Currently allocated     0.00E+00 Mbytes, locked:    0 /   0

     iteration # 20     ecut=    60.00 Ry     beta= 0.30
     Davidson diagonalization with overlap

---- Real-time Memory Report at c_bands before calling an iterative solver
           695 MiB given to the printing process from OS
             0 MiB allocation reported by mallinfo(arena+hblkhd)
       1364607 MiB available memory on the node where the printing process lives
     GPU memory used/free/total (MiB): 928 / 80222 / 81151
------------------
     ethr =  1.85E-08,  avg # of iterations =  3.7

     total cpu time spent up to now is       27.3 secs

     total energy              =    -475.10586392 Ry
     estimated scf accuracy    <       0.00000164 Ry

     total magnetization       =    -0.00 Bohr mag/cell
     absolute magnetization    =     0.00 Bohr mag/cell
[tb_dev] Currently allocated     3.05E-05 Mbytes, locked:    0 /   2
[tb_pin] Currently allocated     0.00E+00 Mbytes, locked:    0 /   0

     iteration # 21     ecut=    60.00 Ry     beta= 0.30
     Davidson diagonalization with overlap

---- Real-time Memory Report at c_bands before calling an iterative solver
           695 MiB given to the printing process from OS
             0 MiB allocation reported by mallinfo(arena+hblkhd)
       1364700 MiB available memory on the node where the printing process lives
     GPU memory used/free/total (MiB): 928 / 80222 / 81151
------------------
     ethr =  5.11E-09,  avg # of iterations =  3.5

     total cpu time spent up to now is       28.6 secs

     total energy              =    -475.10586374 Ry
     estimated scf accuracy    <       0.00000088 Ry

     total magnetization       =    -0.00 Bohr mag/cell
     absolute magnetization    =     0.00 Bohr mag/cell
[tb_dev] Currently allocated     3.05E-05 Mbytes, locked:    0 /   2
[tb_pin] Currently allocated     0.00E+00 Mbytes, locked:    0 /   0

     iteration # 22     ecut=    60.00 Ry     beta= 0.30
     Davidson diagonalization with overlap

---- Real-time Memory Report at c_bands before calling an iterative solver
           695 MiB given to the printing process from OS
             0 MiB allocation reported by mallinfo(arena+hblkhd)
       1364748 MiB available memory on the node where the printing process lives
     GPU memory used/free/total (MiB): 928 / 80222 / 81151
------------------
     ethr =  2.73E-09,  avg # of iterations =  3.8

     total cpu time spent up to now is       29.9 secs

     total energy              =    -475.10586402 Ry
     estimated scf accuracy    <       0.00000026 Ry

     total magnetization       =    -0.00 Bohr mag/cell
     absolute magnetization    =     0.00 Bohr mag/cell
[tb_dev] Currently allocated     3.05E-05 Mbytes, locked:    0 /   2
[tb_pin] Currently allocated     0.00E+00 Mbytes, locked:    0 /   0

     iteration # 23     ecut=    60.00 Ry     beta= 0.30
     Davidson diagonalization with overlap

---- Real-time Memory Report at c_bands before calling an iterative solver
           695 MiB given to the printing process from OS
             0 MiB allocation reported by mallinfo(arena+hblkhd)
       1364821 MiB available memory on the node where the printing process lives
     GPU memory used/free/total (MiB): 928 / 80222 / 81151
------------------
     ethr =  8.01E-10,  avg # of iterations =  3.0
 
     Magnetic moment per site  (integrated on atomic sphere of radius R)
     atom   1 (R=0.276)  charge= 14.1108  magn= -0.0001
     atom   2 (R=0.276)  charge=  5.2126  magn=  0.0001
     atom   3 (R=0.276)  charge=  5.2583  magn=  0.0000
     atom   4 (R=0.323)  charge=  2.1605  magn= -0.0000

     total cpu time spent up to now is       31.1 secs

     End of self-consistent calculation

 ------ SPIN UP ------------


          k = 0.0000 0.0000 0.0000 (  2029 PWs)   bands (ev):

   -85.7261 -49.0094 -49.0094 -48.9458 -37.6139 -11.1717  -9.2046   2.2091
     3.6885   3.6885   6.1668   7.0357   7.0357   8.1524   8.1524   9.0128
    11.7534  11.7534  11.8557  16.4562  19.1418  23.0232  24.6396  24.6396

     occupation numbers 
     1.0000   1.0000   1.0000   1.0000   1.0000   1.0000   1.0000   1.0000
     1.0000   1.0000   1.0000   1.0000   1.0000   1.0000   1.0000   1.0000
     0.0000   0.0000   0.0000   0.0000   0.0000   0.0000   0.0000   0.0000

          k = 0.0000 0.0000 0.1709 (  2024 PWs)   bands (ev):

   -85.7261 -49.0093 -49.0093 -48.9458 -37.6138 -11.1615  -9.2261   2.4781
     3.6898   3.6898   5.5010   7.0319   7.0319   8.1510   8.1510   9.2785
    11.7606  11.7606  12.5614  15.7492  18.9072  23.3761  24.7864  24.7864

     occupation numbers 
     1.0000   1.0000   1.0000   1.0000   1.0000   1.0000   1.0000   1.0000
     1.0000   1.0000   1.0000   1.0000   1.0000   1.0000   1.0000   1.0000
     0.0000   0.0000   0.0000   0.0000   0.0000   0.0000   0.0000   0.0000

          k = 0.0000 0.1443 0.0000 (  2019 PWs)   bands (ev):

   -85.7250 -49.0208 -49.0121 -48.9440 -37.6095 -10.9849  -9.1839   2.4273
     3.3380   3.7853   5.9526   6.5430   6.5920   8.3812   8.5602   9.0522
    11.2003  11.6508  12.2722  16.9979  19.5701  23.0080  23.8020  24.1404

     occupation numbers 
     1.0000   1.0000   1.0000   1.0000   1.0000   1.0000   1.0000   1.0000
     1.0000   1.0000   1.0000   1.0000   1.0000   1.0000   1.0000   1.0000
     0.0000   0.0000   0.0000   0.0000   0.0000   0.0000   0.0000   0.0000

          k = 0.0000 0.1443 0.1709 (  2019 PWs)   bands (ev):

   -85.7250 -49.0209 -49.0121 -48.9439 -37.6095 -10.9743  -9.2045   2.6716
     3.2927   3.7841   5.8602   6.1322   6.5464   8.3601   8.5608   9.3400
    11.1014  11.6457  12.9783  16.3129  19.5628  22.8972  23.9694  24.1317

     occupation numbers 
     1.0000   1.0000   1.0000   1.0000   1.0000   1.0000   1.0000   1.0000
     1.0000   1.0000   1.0000   1.0000   1.0000   1.0000   1.0000   1.0000
     0.0000   0.0000   0.0000   0.0000   0.0000   0.0000   0.0000   0.0000

          k = 0.0000 0.2887 0.0000 (  2021 PWs)   bands (ev):

   -85.7223 -49.0488 -49.0186 -48.9397 -37.5992 -10.4976  -9.1415   2.7556
     3.0697   4.0048   4.3512   5.9037   6.7452   8.4420   8.9093   9.1378
    10.6134  11.5319  12.9729  17.7035  20.2856  21.2573  23.0273  23.8221

     occupation numbers 
     1.0000   1.0000   1.0000   1.0000   1.0000   1.0000   1.0000   1.0000
     1.0000   1.0000   1.0000   1.0000   1.0000   1.0000   1.0000   1.0000
     0.1226   0.0000   0.0000   0.0000   0.0000   0.0000   0.0000   0.0000

          k = 0.0000 0.2887 0.1709 (  2008 PWs)   bands (ev):

   -85.7223 -49.0488 -49.0186 -48.9396 -37.5991 -10.4876  -9.1573   2.6377
     3.2715   3.9983   4.3850   5.9164   6.5631   8.3610   8.9150   9.3382
    10.3422  11.5089  13.5281  17.3386  20.3836  20.9993  23.0559  23.4445

     occupation numbers 
     1.0000   1.0000   1.0000   1.0000   1.0000   1.0000   1.0000   1.0000
     1.0000   1.0000   1.0000   1.0000   1.0000   1.0000   1.0000   1.0000
     0.7351   0.0000   0.0000   0.0000   0.0000   0.0000   0.0000   0.0000

          k = 0.0000 0.4330 0.0000 (  2014 PWs)   bands (ev):

   -85.7196 -49.0768 -49.0252 -48.9352 -37.5887  -9.9348  -9.1220   2.1917
     3.1954   4.1240   4.1594   5.5849   5.9539   8.3517   8.8652   9.1179
    10.9232  11.5856  13.5569  17.4263  19.4016  21.0255  22.1117  23.2207

     occupation numbers 
     1.0000   1.0000   1.0000   1.0000   1.0000   1.0000   1.0000   1.0000
     1.0000   1.0000   1.0000   1.0000   1.0000   1.0000   1.0000   1.0000
     0.0017   0.0000   0.0000   0.0000   0.0000   0.0000   0.0000   0.0000

          k = 0.0000 0.4330 0.1709 (  1996 PWs)   bands (ev):

   -85.7196 -49.0768 -49.0251 -48.9351 -37.5886  -9.9303  -9.1267   2.0763
     3.1596   4.1445   4.2593   5.6112   6.1804   8.2429   8.8679   9.1527
    10.6236  11.5499  13.8114  17.4757  19.0497  21.4111  22.2374  22.7567

     occupation numbers 
     1.0000   1.0000   1.0000   1.0000   1.0000   1.0000   1.0000   1.0000
     1.0000   1.0000   1.0000   1.0000   1.0000   1.0000   1.0000   1.0000
     0.1108   0.0000   0.0000   0.0000   0.0000   0.0000   0.0000   0.0000

          k = 0.0000-0.5774 0.0000 (  1982 PWs)   bands (ev):

   -85.7185 -49.0881 -49.0278 -48.9332 -37.5842  -9.6586  -9.1362   1.7558
     3.2501   4.1830   4.5925   5.2970   5.5406   8.2487   8.7717   9.0764
    11.2466  11.6445  13.7921  16.9476  19.0399  20.9528  21.7763  23.0920

     occupation numbers 
     1.0000   1.0000   1.0000   1.0000   1.0000   1.0000   1.0000   1.0000
     1.0000   1.0000   1.0000   1.0000   1.0000   1.0000   1.0000   1.0000
     0.0000   0.0000   0.0000   0.0000   0.0000   0.0000   0.0000   0.0000

          k = 0.0000-0.5774 0.1709 (  2004 PWs)   bands (ev):

   -85.7185 -49.0884 -49.0278 -48.9334 -37.5843  -9.6578  -9.1359   1.6697
     3.2056   4.1679   4.5369   5.5673   5.6882   8.1616   8.7713   9.0496
    11.1195  11.6095  13.7808  16.8764  19.5350  20.6671  21.9424  23.1515

     occupation numbers 
     1.0000   1.0000   1.0000   1.0000   1.0000   1.0000   1.0000   1.0000
     1.0000   1.0000   1.0000   1.0000   1.0000   1.0000   1.0000   1.0000
     0.0000   0.0000   0.0000   0.0000   0.0000   0.0000   0.0000   0.0000

          k = 0.1250 0.2165 0.0000 (  2017 PWs)   bands (ev):

   -85.7231 -49.0393 -49.0181 -48.9409 -37.6022 -10.6474  -9.1517   2.7856
     3.0311   3.8763   4.9110   5.8120   6.8498   8.5307   8.8564   9.1129
    10.9064  11.1761  12.8985  17.6226  20.1900  22.0626  22.5103  24.0122

     occupation numbers 
     1.0000   1.0000   1.0000   1.0000   1.0000   1.0000   1.0000   1.0000
     1.0000   1.0000   1.0000   1.0000   1.0000   1.0000   1.0000   1.0000
     0.0023   0.0000   0.0000   0.0000   0.0000   0.0000   0.0000   0.0000

          k = 0.1250 0.2165 0.1709 (  2012 PWs)   bands (ev):

   -85.7231 -49.0393 -49.0180 -48.9408 -37.6021 -10.6361  -9.1710   2.7986
     3.1713   3.8798   4.9016   5.8025   6.4862   8.5482   8.7997   9.3172
    10.7253  11.3453  13.2870  17.2612  20.2934  21.6518  22.7070  23.7532

     occupation numbers 
     1.0000   1.0000   1.0000   1.0000   1.0000   1.0000   1.0000   1.0000
     1.0000   1.0000   1.0000   1.0000   1.0000   1.0000   1.0000   1.0000
     0.0348   0.0000   0.0000   0.0000   0.0000   0.0000   0.0000   0.0000

          k = 0.1250 0.3608 0.0000 (  2004 PWs)   bands (ev):

   -85.7204 -49.0644 -49.0274 -48.9364 -37.5917 -10.1198  -9.1151   2.6346
     3.1958   3.8483   4.1980   5.2584   6.4346   8.5225   8.9955   9.1281
    10.7400  11.1831  13.5930  17.8264  19.7161  20.9072  22.2025  23.8863

     occupation numbers 
     1.0000   1.0000   1.0000   1.0000   1.0000   1.0000   1.0000   1.0000
     1.0000   1.0000   1.0000   1.0000   1.0000   1.0000   1.0000   1.0000
     0.0288   0.0000   0.0000   0.0000   0.0000   0.0000   0.0000   0.0000

          k = 0.1250 0.3608 0.1709 (  2005 PWs)   bands (ev):

   -85.7204 -49.0644 -49.0274 -48.9365 -37.5917 -10.1109  -9.1268   2.5077
     3.1885   4.0252   4.2295   5.2691   6.4229   8.4889   8.9482   9.1723
    10.5765  11.2660  13.7252  17.9835  19.2584  20.8686  22.5650  23.3426

     occupation numbers 
     1.0000   1.0000   1.0000   1.0000   1.0000   1.0000   1.0000   1.0000
     1.0000   1.0000   1.0000   1.0000   1.0000   1.0000   1.0000   1.0000
     0.1733   0.0000   0.0000   0.0000   0.0000   0.0000   0.0000   0.0000

          k = 0.1250 0.5052 0.0000 (  1995 PWs)   bands (ev):

   -85.7185 -49.0819 -49.0343 -48.9332 -37.5843  -9.6934  -9.1037   2.0594
     3.1445   4.0966   4.5196   5.0304   5.6079   8.4171   8.8346   9.1360
    11.0371  11.2961  14.1327  17.0682  18.9736  20.8627  22.2238  23.2889

     occupation numbers 
     1.0000   1.0000   1.0000   1.0000   1.0000   1.0000   1.0000   1.0000
     1.0000   1.0000   1.0000   1.0000   1.0000   1.0000   1.0000   1.0000
     0.0002   0.0000   0.0000   0.0000   0.0000   0.0000   0.0000   0.0000

          k = 0.1250 0.5052 0.1709 (  1996 PWs)   bands (ev):

   -85.7185 -49.0820 -49.0342 -48.9333 -37.5843  -9.6920  -9.1041   1.9674
     3.0800   4.1021   4.5491   5.0803   5.8663   8.3341   8.8474   9.0963
    10.9615  11.3797  13.9803  16.9804  19.2095  20.7168  22.1622  23.3179

     occupation numbers 
     1.0000   1.0000   1.0000   1.0000   1.0000   1.0000   1.0000   1.0000
     1.0000   1.0000   1.0000   1.0000   1.0000   1.0000   1.0000   1.0000
     0.0008   0.0000   0.0000   0.0000   0.0000   0.0000   0.0000   0.0000

          k = 0.2500 0.4330 0.0000 (  2011 PWs)   bands (ev):

   -85.7185 -49.0733 -49.0432 -48.9333 -37.5844  -9.7247  -9.0747   2.5691
     2.9691   3.8586   4.3269   4.7898   5.8447   8.5292   8.8854   9.2419
    10.6676  11.1453  14.4076  17.1576  18.8669  20.8997  22.7773  23.8189

     occupation numbers 
     1.0000   1.0000   1.0000   1.0000   1.0000   1.0000   1.0000   1.0000
     1.0000   1.0000   1.0000   1.0000   1.0000   1.0000   1.0000   1.0000
     0.0693   0.0000   0.0000   0.0000   0.0000   0.0000   0.0000   0.0000

          k = 0.2500 0.4330 0.1709 (  2010 PWs)   bands (ev):

   -85.7185 -49.0733 -49.0432 -48.9334 -37.5843  -9.7189  -9.0808   2.5033
     2.8617   3.8461   4.5422   4.8229   5.8549   8.5379   8.8947   9.1151
    10.8981  11.1862  14.0669  17.1321  19.0379  20.6939  22.4254  23.8783

     occupation numbers 
     1.0000   1.0000   1.0000   1.0000   1.0000   1.0000   1.0000   1.0000
     1.0000   1.0000   1.0000   1.0000   1.0000   1.0000   1.0000   1.0000
     0.0026   0.0000   0.0000   0.0000   0.0000   0.0000   0.0000   0.0000

          k = 0.2500 0.5774 0.0000 (  1978 PWs)   bands (ev):

   -85.7177 -49.0737 -49.0525 -48.9318 -37.5812  -9.5648  -9.0429   2.4466
     3.0358   3.5837   4.5607   4.9381   5.3093   8.3855   9.0116   9.2132
    10.7952  11.0065  14.9833  16.3625  18.7772  20.9306  23.3172  23.6414

     occupation numbers 
     1.0000   1.0000   1.0000   1.0000   1.0000   1.0000   1.0000   1.0000
     1.0000   1.0000   1.0000   1.0000   1.0000   1.0000   1.0000   1.0000
     0.0135   0.0004   0.0000   0.0000   0.0000   0.0000   0.0000   0.0000

          k = 0.2500 0.5774 0.1709 (  2008 PWs)   bands (ev):

   -85.7177 -49.0739 -49.0526 -48.9321 -37.5813  -9.5638  -9.0428   2.3765
     2.9589   3.5380   4.6746   4.9822   5.4217   8.3652   9.0091   9.1321
    10.9977  11.1734  14.5790  16.0735  19.0262  20.8478  22.6433  23.8686

     occupation numbers 
     1.0000   1.0000   1.0000   1.0000   1.0000   1.0000   1.0000   1.0000
     1.0000   1.0000   1.0000   1.0000   1.0000   1.0000   1.0000   1.0000
     0.0004   0.0000   0.0000   0.0000   0.0000   0.0000   0.0000   0.0000

          k = 0.0000-0.1443 0.1709 (  2019 PWs)   bands (ev):

   -85.7250 -49.0209 -49.0121 -48.9439 -37.6095 -10.9740  -9.2052   2.6843
     3.2911   3.7887   5.7961   6.1761   6.5327   8.3703   8.5610   9.3186
    11.2000  11.6623  12.8453  16.3907  19.5085  22.9790  23.9123  24.2263

     occupation numbers 
     1.0000   1.0000   1.0000   1.0000   1.0000   1.0000   1.0000   1.0000
     1.0000   1.0000   1.0000   1.0000   1.0000   1.0000   1.0000   1.0000
     0.0000   0.0000   0.0000   0.0000   0.0000   0.0000   0.0000   0.0000

          k = 0.0000-0.2887 0.1709 (  2008 PWs)   bands (ev):

   -85.7223 -49.0488 -49.0185 -48.9396 -37.5991 -10.4850  -9.1618   2.7080
     3.2624   4.0084   4.3738   5.8954   6.3845   8.4314   8.9134   9.2332
    10.6912  11.5328  13.1766  17.7193  19.8357  21.7864  23.0779  23.3353

     occupation numbers 
     1.0000   1.0000   1.0000   1.0000   1.0000   1.0000   1.0000   1.0000
     1.0000   1.0000   1.0000   1.0000   1.0000   1.0000   1.0000   1.0000
     0.0529   0.0000   0.0000   0.0000   0.0000   0.0000   0.0000   0.0000

          k = 0.0000-0.4330 0.1709 (  1996 PWs)   bands (ev):

   -85.7196 -49.0767 -49.0251 -48.9351 -37.5886  -9.9233  -9.1363   2.1244
     3.1476   4.1549   4.3810   5.5927   5.8512   8.3290   8.8692   9.0819
    10.9720  11.5651  13.4649  17.7064  19.5267  20.8427  22.2357  23.4874

     occupation numbers 
     1.0000   1.0000   1.0000   1.0000   1.0000   1.0000   1.0000   1.0000
     1.0000   1.0000   1.0000   1.0000   1.0000   1.0000   1.0000   1.0000
     0.0007   0.0000   0.0000   0.0000   0.0000   0.0000   0.0000   0.0000

          k =-0.1250-0.3608 0.1709 (  2005 PWs)   bands (ev):

   -85.7204 -49.0644 -49.0274 -48.9365 -37.5917 -10.1079  -9.1313   2.5543
     3.1753   4.0385   4.2454   5.2620   6.2593   8.5721   8.9517   9.0795
    10.8801  11.1802  13.5380  18.1811  19.4022  20.8126  22.2527  23.7327

     occupation numbers 
     1.0000   1.0000   1.0000   1.0000   1.0000   1.0000   1.0000   1.0000
     1.0000   1.0000   1.0000   1.0000   1.0000   1.0000   1.0000   1.0000
     0.0036   0.0000   0.0000   0.0000   0.0000   0.0000   0.0000   0.0000

          k =-0.1250-0.5052 0.1709 (  1996 PWs)   bands (ev):

   -85.7185 -49.0820 -49.0342 -48.9333 -37.5843  -9.6876  -9.1097   1.9856
     3.0788   4.1017   4.6476   5.0707   5.6847   8.3900   8.8398   9.0588
    11.1668  11.3072  13.8688  16.9968  19.7323  20.3355  21.8917  23.6252

     occupation numbers 
     1.0000   1.0000   1.0000   1.0000   1.0000   1.0000   1.0000   1.0000
     1.0000   1.0000   1.0000   1.0000   1.0000   1.0000   1.0000   1.0000
     0.0000   0.0000   0.0000   0.0000   0.0000   0.0000   0.0000   0.0000

 ------ SPIN DOWN ----------


          k = 0.0000 0.0000 0.0000 (  2029 PWs)   bands (ev):

   -85.7262 -49.0094 -49.0094 -48.9461 -37.6139 -11.1716  -9.2044   2.2092
     3.6885   3.6885   6.1670   7.0359   7.0359   8.1523   8.1523   9.0129
    11.7533  11.7533  11.8555  16.4563  19.1417  23.0231  24.6396  24.6396

     occupation numbers 
     1.0000   1.0000   1.0000   1.0000   1.0000   1.0000   1.0000   1.0000
     1.0000   1.0000   1.0000   1.0000   1.0000   1.0000   1.0000   1.0000
     0.0000   0.0000   0.0000   0.0000   0.0000   0.0000   0.0000   0.0000

          k = 0.0000 0.0000 0.1709 (  2024 PWs)   bands (ev):

   -85.7262 -49.0094 -49.0094 -48.9461 -37.6139 -11.1614  -9.2259   2.4782
     3.6898   3.6898   5.5012   7.0320   7.0320   8.1508   8.1508   9.2786
    11.7605  11.7605  12.5612  15.7493  18.9071  23.3761  24.7863  24.7863

     occupation numbers 
     1.0000   1.0000   1.0000   1.0000   1.0000   1.0000   1.0000   1.0000
     1.0000   1.0000   1.0000   1.0000   1.0000   1.0000   1.0000   1.0000
     0.0000   0.0000   0.0000   0.0000   0.0000   0.0000   0.0000   0.0000

          k = 0.0000 0.1443 0.0000 (  2019 PWs)   bands (ev):

   -85.7251 -49.0209 -49.0122 -48.9443 -37.6096 -10.9848  -9.1836   2.4274
     3.3380   3.7852   5.9527   6.5431   6.5922   8.3811   8.5601   9.0522
    11.2002  11.6506  12.2721  16.9979  19.5700  23.0079  23.8020  24.1403

     occupation numbers 
     1.0000   1.0000   1.0000   1.0000   1.0000   1.0000   1.0000   1.0000
     1.0000   1.0000   1.0000   1.0000   1.0000   1.0000   1.0000   1.0000
     0.0000   0.0000   0.0000   0.0000   0.0000   0.0000   0.0000   0.0000

          k = 0.0000 0.1443 0.1709 (  2019 PWs)   bands (ev):

   -85.7251 -49.0209 -49.0121 -48.9443 -37.6095 -10.9742  -9.2043   2.6717
     3.2927   3.7840   5.8602   6.1323   6.5465   8.3601   8.5607   9.3401
    11.1013  11.6456  12.9781  16.3129  19.5628  22.8971  23.9694  24.1317

     occupation numbers 
     1.0000   1.0000   1.0000   1.0000   1.0000   1.0000   1.0000   1.0000
     1.0000   1.0000   1.0000   1.0000   1.0000   1.0000   1.0000   1.0000
     0.0000   0.0000   0.0000   0.0000   0.0000   0.0000   0.0000   0.0000

          k = 0.0000 0.2887 0.0000 (  2021 PWs)   bands (ev):

   -85.7225 -49.0488 -49.0187 -48.9400 -37.5992 -10.4975  -9.1413   2.7556
     3.0698   4.0047   4.3513   5.9038   6.7454   8.4420   8.9094   9.1379
    10.6132  11.5317  12.9727  17.7035  20.2856  21.2572  23.0272  23.8224

     occupation numbers 
     1.0000   1.0000   1.0000   1.0000   1.0000   1.0000   1.0000   1.0000
     1.0000   1.0000   1.0000   1.0000   1.0000   1.0000   1.0000   1.0000
     0.1228   0.0000   0.0000   0.0000   0.0000   0.0000   0.0000   0.0000

          k = 0.0000 0.2887 0.1709 (  2008 PWs)   bands (ev):

   -85.7224 -49.0489 -49.0186 -48.9399 -37.5991 -10.4875  -9.1571   2.6378
     3.2716   3.9982   4.3850   5.9164   6.5632   8.3610   8.9150   9.3383
    10.3419  11.5087  13.5280  17.3386  20.3835  20.9992  23.0558  23.4444

     occupation numbers 
     1.0000   1.0000   1.0000   1.0000   1.0000   1.0000   1.0000   1.0000
     1.0000   1.0000   1.0000   1.0000   1.0000   1.0000   1.0000   1.0000
     0.7358   0.0000   0.0000   0.0000   0.0000   0.0000   0.0000   0.0000

          k = 0.0000 0.4330 0.0000 (  2014 PWs)   bands (ev):

   -85.7198 -49.0769 -49.0253 -48.9355 -37.5887  -9.9347  -9.1217   2.1917
     3.1955   4.1241   4.1593   5.5850   5.9540   8.3517   8.8653   9.1179
    10.9230  11.5853  13.5567  17.4261  19.4015  21.0255  22.1116  23.2206

     occupation numbers 
     1.0000   1.0000   1.0000   1.0000   1.0000   1.0000   1.0000   1.0000
     1.0000   1.0000   1.0000   1.0000   1.0000   1.0000   1.0000   1.0000
     0.0017   0.0000   0.0000   0.0000   0.0000   0.0000   0.0000   0.0000

          k = 0.0000 0.4330 0.1709 (  1996 PWs)   bands (ev):

   -85.7197 -49.0768 -49.0251 -48.9355 -37.5886  -9.9302  -9.1265   2.0763
     3.1596   4.1444   4.2595   5.6114   6.1806   8.2428   8.8680   9.1528
    10.6233  11.5497  13.8112  17.4756  19.0496  21.4111  22.2373  22.7567

     occupation numbers 
     1.0000   1.0000   1.0000   1.0000   1.0000   1.0000   1.0000   1.0000
     1.0000   1.0000   1.0000   1.0000   1.0000   1.0000   1.0000   1.0000
     0.1111   0.0000   0.0000   0.0000   0.0000   0.0000   0.0000   0.0000

          k = 0.0000-0.5774 0.0000 (  1982 PWs)   bands (ev):

   -85.7186 -49.0882 -49.0279 -48.9336 -37.5842  -9.6586  -9.1359   1.7559
     3.2501   4.1829   4.5926   5.2972   5.5408   8.2487   8.7718   9.0764
    11.2464  11.6442  13.7919  16.9474  19.0399  20.9528  21.7762  23.0920

     occupation numbers 
     1.0000   1.0000   1.0000   1.0000   1.0000   1.0000   1.0000   1.0000
     1.0000   1.0000   1.0000   1.0000   1.0000   1.0000   1.0000   1.0000
     0.0000   0.0000   0.0000   0.0000   0.0000   0.0000   0.0000   0.0000

          k = 0.0000-0.5774 0.1709 (  2004 PWs)   bands (ev):

   -85.7186 -49.0884 -49.0279 -48.9337 -37.5843  -9.6578  -9.1356   1.6698
     3.2057   4.1678   4.5370   5.5675   5.6884   8.1615   8.7714   9.0497
    11.1193  11.6093  13.7806  16.8763  19.5350  20.6670  21.9423  23.1514

     occupation numbers 
     1.0000   1.0000   1.0000   1.0000   1.0000   1.0000   1.0000   1.0000
     1.0000   1.0000   1.0000   1.0000   1.0000   1.0000   1.0000   1.0000
     0.0000   0.0000   0.0000   0.0000   0.0000   0.0000   0.0000   0.0000

          k = 0.1250 0.2165 0.0000 (  2017 PWs)   bands (ev):

   -85.7232 -49.0394 -49.0181 -48.9412 -37.6022 -10.6473  -9.1515   2.7857
     3.0311   3.8762   4.9111   5.8120   6.8500   8.5307   8.8564   9.1129
    10.9061  11.1760  12.8984  17.6226  20.1900  22.0624  22.5103  24.0122

     occupation numbers 
     1.0000   1.0000   1.0000   1.0000   1.0000   1.0000   1.0000   1.0000
     1.0000   1.0000   1.0000   1.0000   1.0000   1.0000   1.0000   1.0000
     0.0023   0.0000   0.0000   0.0000   0.0000   0.0000   0.0000   0.0000

          k = 0.1250 0.2165 0.1709 (  2012 PWs)   bands (ev):

   -85.7232 -49.0393 -49.0181 -48.9412 -37.6022 -10.6360  -9.1708   2.7986
     3.1715   3.8797   4.9017   5.8025   6.4863   8.5481   8.7997   9.3173
    10.7251  11.3451  13.2868  17.2612  20.2934  21.6516  22.7069  23.7532

     occupation numbers 
     1.0000   1.0000   1.0000   1.0000   1.0000   1.0000   1.0000   1.0000
     1.0000   1.0000   1.0000   1.0000   1.0000   1.0000   1.0000   1.0000
     0.0349   0.0000   0.0000   0.0000   0.0000   0.0000   0.0000   0.0000

          k = 0.1250 0.3608 0.0000 (  2004 PWs)   bands (ev):

   -85.7205 -49.0644 -49.0274 -48.9367 -37.5917 -10.1197  -9.1149   2.6346
     3.1958   3.8483   4.1980   5.2584   6.4348   8.5225   8.9956   9.1281
    10.7397  11.1828  13.5928  17.8263  19.7160  20.9072  22.2024  23.8863

     occupation numbers 
     1.0000   1.0000   1.0000   1.0000   1.0000   1.0000   1.0000   1.0000
     1.0000   1.0000   1.0000   1.0000   1.0000   1.0000   1.0000   1.0000
     0.0289   0.0000   0.0000   0.0000   0.0000   0.0000   0.0000   0.0000

          k = 0.1250 0.3608 0.1709 (  2005 PWs)   bands (ev):

   -85.7205 -49.0644 -49.0275 -48.9368 -37.5917 -10.1108  -9.1266   2.5077
     3.1886   4.0252   4.2296   5.2692   6.4231   8.4889   8.9483   9.1723
    10.5762  11.2658  13.7251  17.9834  19.2583  20.8686  22.5650  23.3429

     occupation numbers 
     1.0000   1.0000   1.0000   1.0000   1.0000   1.0000   1.0000   1.0000
     1.0000   1.0000   1.0000   1.0000   1.0000   1.0000   1.0000   1.0000
     0.1738   0.0000   0.0000   0.0000   0.0000   0.0000   0.0000   0.0000

          k = 0.1250 0.5052 0.0000 (  1995 PWs)   bands (ev):

   -85.7186 -49.0820 -49.0343 -48.9335 -37.5843  -9.6934  -9.1035   2.0594
     3.1446   4.0965   4.5197   5.0305   5.6080   8.4171   8.8346   9.1360
    11.0369  11.2958  14.1324  17.0680  18.9735  20.8627  22.2238  23.2887

     occupation numbers 
     1.0000   1.0000   1.0000   1.0000   1.0000   1.0000   1.0000   1.0000
     1.0000   1.0000   1.0000   1.0000   1.0000   1.0000   1.0000   1.0000
     0.0002   0.0000   0.0000   0.0000   0.0000   0.0000   0.0000   0.0000

          k = 0.1250 0.5052 0.1709 (  1996 PWs)   bands (ev):

   -85.7186 -49.0821 -49.0343 -48.9336 -37.5843  -9.6920  -9.1038   1.9675
     3.0800   4.1021   4.5492   5.0804   5.8665   8.3341   8.8475   9.0964
    10.9612  11.3795  13.9801  16.9802  19.2095  20.7168  22.1621  23.3180

     occupation numbers 
     1.0000   1.0000   1.0000   1.0000   1.0000   1.0000   1.0000   1.0000
     1.0000   1.0000   1.0000   1.0000   1.0000   1.0000   1.0000   1.0000
     0.0008   0.0000   0.0000   0.0000   0.0000   0.0000   0.0000   0.0000

          k = 0.2500 0.4330 0.0000 (  2011 PWs)   bands (ev):

   -85.7186 -49.0733 -49.0433 -48.9336 -37.5844  -9.7247  -9.0745   2.5691
     2.9692   3.8586   4.3270   4.7899   5.8449   8.5293   8.8855   9.2419
    10.6673  11.1450  14.4074  17.1573  18.8669  20.8998  22.7773  23.8189

     occupation numbers 
     1.0000   1.0000   1.0000   1.0000   1.0000   1.0000   1.0000   1.0000
     1.0000   1.0000   1.0000   1.0000   1.0000   1.0000   1.0000   1.0000
     0.0695   0.0000   0.0000   0.0000   0.0000   0.0000   0.0000   0.0000

          k = 0.2500 0.4330 0.1709 (  2010 PWs)   bands (ev):

   -85.7186 -49.0733 -49.0432 -48.9337 -37.5843  -9.7189  -9.0805   2.5033
     2.8617   3.8461   4.5423   4.8230   5.8551   8.5379   8.8948   9.1151
    10.8978  11.1859  14.0667  17.1318  19.0379  20.6940  22.4254  23.8782

     occupation numbers 
     1.0000   1.0000   1.0000   1.0000   1.0000   1.0000   1.0000   1.0000
     1.0000   1.0000   1.0000   1.0000   1.0000   1.0000   1.0000   1.0000
     0.0027   0.0000   0.0000   0.0000   0.0000   0.0000   0.0000   0.0000

          k = 0.2500 0.5774 0.0000 (  1978 PWs)   bands (ev):

   -85.7178 -49.0738 -49.0526 -48.9321 -37.5812  -9.5648  -9.0426   2.4466
     3.0358   3.5838   4.5607   4.9382   5.3094   8.3856   9.0117   9.2133
    10.7949  11.0062  14.9831  16.3622  18.7772  20.9306  23.3172  23.6416

     occupation numbers 
     1.0000   1.0000   1.0000   1.0000   1.0000   1.0000   1.0000   1.0000
     1.0000   1.0000   1.0000   1.0000   1.0000   1.0000   1.0000   1.0000
     0.0135   0.0004   0.0000   0.0000   0.0000   0.0000   0.0000   0.0000

          k = 0.2500 0.5774 0.1709 (  2008 PWs)   bands (ev):

   -85.7179 -49.0739 -49.0527 -48.9324 -37.5813  -9.5638  -9.0425   2.3765
     2.9589   3.5380   4.6746   4.9823   5.4218   8.3653   9.0091   9.1321
    10.9974  11.1732  14.5787  16.0732  19.0262  20.8478  22.6433  23.8702

     occupation numbers 
     1.0000   1.0000   1.0000   1.0000   1.0000   1.0000   1.0000   1.0000
     1.0000   1.0000   1.0000   1.0000   1.0000   1.0000   1.0000   1.0000
     0.0004   0.0000   0.0000   0.0000   0.0000   0.0000   0.0000   0.0000

          k = 0.0000-0.1443 0.1709 (  2019 PWs)   bands (ev):

   -85.7251 -49.0209 -49.0121 -48.9443 -37.6095 -10.9739  -9.2050   2.6844
     3.2911   3.7886   5.7961   6.1762   6.5328   8.3702   8.5609   9.3188
    11.1999  11.6622  12.8452  16.3908  19.5085  22.9789  23.9123  24.2263

     occupation numbers 
     1.0000   1.0000   1.0000   1.0000   1.0000   1.0000   1.0000   1.0000
     1.0000   1.0000   1.0000   1.0000   1.0000   1.0000   1.0000   1.0000
     0.0000   0.0000   0.0000   0.0000   0.0000   0.0000   0.0000   0.0000

          k = 0.0000-0.2887 0.1709 (  2008 PWs)   bands (ev):

   -85.7224 -49.0489 -49.0186 -48.9399 -37.5991 -10.4849  -9.1616   2.7081
     3.2625   4.0083   4.3738   5.8955   6.3846   8.4313   8.9135   9.2333
    10.6909  11.5326  13.1764  17.7193  19.8356  21.7863  23.0778  23.3352

     occupation numbers 
     1.0000   1.0000   1.0000   1.0000   1.0000   1.0000   1.0000   1.0000
     1.0000   1.0000   1.0000   1.0000   1.0000   1.0000   1.0000   1.0000
     0.0530   0.0000   0.0000   0.0000   0.0000   0.0000   0.0000   0.0000

          k = 0.0000-0.4330 0.1709 (  1996 PWs)   bands (ev):

   -85.7197 -49.0768 -49.0251 -48.9355 -37.5886  -9.9233  -9.1360   2.1245
     3.1477   4.1548   4.3812   5.5928   5.8514   8.3289   8.8693   9.0819
    10.9718  11.5649  13.4646  17.7063  19.5267  20.8426  22.2356  23.4874

     occupation numbers 
     1.0000   1.0000   1.0000   1.0000   1.0000   1.0000   1.0000   1.0000
     1.0000   1.0000   1.0000   1.0000   1.0000   1.0000   1.0000   1.0000
     0.0007   0.0000   0.0000   0.0000   0.0000   0.0000   0.0000   0.0000

          k =-0.1250-0.3608 0.1709 (  2005 PWs)   bands (ev):

   -85.7205 -49.0644 -49.0275 -48.9368 -37.5917 -10.1078  -9.1311   2.5543
     3.1753   4.0385   4.2455   5.2620   6.2595   8.5722   8.9517   9.0796
    10.8798  11.1799  13.5378  18.1810  19.4021  20.8125  22.2527  23.7334

     occupation numbers 
     1.0000   1.0000   1.0000   1.0000   1.0000   1.0000   1.0000   1.0000
     1.0000   1.0000   1.0000   1.0000   1.0000   1.0000   1.0000   1.0000
     0.0036   0.0000   0.0000   0.0000   0.0000   0.0000   0.0000   0.0000

          k =-0.1250-0.5052 0.1709 (  1996 PWs)   bands (ev):

   -85.7186 -49.0821 -49.0342 -48.9336 -37.5843  -9.6876  -9.1094   1.9856
     3.0788   4.1017   4.6477   5.0707   5.6849   8.3900   8.8398   9.0588
    11.1665  11.3069  13.8686  16.9966  19.7323  20.3355  21.8917  23.6251

     occupation numbers 
     1.0000   1.0000   1.0000   1.0000   1.0000   1.0000   1.0000   1.0000
     1.0000   1.0000   1.0000   1.0000   1.0000   1.0000   1.0000   1.0000
     0.0000   0.0000   0.0000   0.0000   0.0000   0.0000   0.0000   0.0000

     the Fermi energy is    10.4660 ev

!    total energy              =    -475.10586406 Ry
     total all-electron energy =     -3102.978001 Ry
     estimated scf accuracy    <       0.00000003 Ry
     smearing contrib. (-TS)   =      -0.00112258 Ry
     internal energy E=F+TS    =    -475.10474148 Ry

     The total energy is F=E-TS. E is the sum of the following terms:
     one-electron contribution =    -339.58151949 Ry
     hartree contribution      =     185.01686341 Ry
     xc contribution           =     -49.38651020 Ry
     ewald contribution        =    -164.47621564 Ry
     one-center paw contrib.   =    -106.67735956 Ry
      -> PAW hartree energy AE =     282.88914083 Ry
      -> PAW hartree energy PS =    -281.51685571 Ry
      -> PAW xc energy AE      =    -154.57728556 Ry
      -> PAW xc energy PS      =      46.52764088 Ry
      -> total E_H with PAW    =     186.38914853 Ry
      -> total E_XC with PAW   =    -157.43615488 Ry

     total magnetization       =    -0.00 Bohr mag/cell
     absolute magnetization    =     0.00 Bohr mag/cell

     convergence has been achieved in  23 iterations

     Forces acting on atoms (cartesian axes, Ry/au):

     atom    1 type  1   force =     0.00000000    0.00000000    0.04308783
     atom    2 type  2   force =     0.00000000    0.00000000    0.06169226
     atom    3 type  2   force =     0.00000000    0.00000000   -0.10052478
     atom    4 type  3   force =     0.00000000    0.00000000   -0.00425530
     The non-local contrib.  to forces
     atom    1 type  1   force =     0.00000000    0.00000000   -0.07091470
     atom    2 type  2   force =    -0.00000000   -0.00000000   -0.68298240
     atom    3 type  2   force =     0.00000000    0.00000000    0.36842080
     atom    4 type  3   force =     0.00000000   -0.00000000   -0.03384918
     The ionic contribution  to forces
     atom    1 type  1   force =    -0.00000000   -0.00000000    3.07097697
     atom    2 type  2   force =     0.00000000   -0.00000000   26.75414950
     atom    3 type  2   force =    -0.00000000    0.00000000  -25.16698928
     atom    4 type  3   force =     0.00000000   -0.00000000   -4.65813719
     The local contribution  to forces
     atom    1 type  1   force =    -0.00000000   -0.00000000   -2.95740760
     atom    2 type  2   force =     0.00000001   -0.00000001  -26.01477747
     atom    3 type  2   force =    -0.00000001    0.00000001   24.70035305
     atom    4 type  3   force =    -0.00000000   -0.00000000    4.68778124
     The core correction contribution to forces
     atom    1 type  1   force =    -0.00000000    0.00000000   -0.00009250
     atom    2 type  2   force =    -0.00000000    0.00000000    0.00529400
     atom    3 type  2   force =     0.00000000   -0.00000000   -0.00250671
     atom    4 type  3   force =     0.00000000    0.00000000    0.00000000
     The Hubbard contrib.    to forces
     atom    1 type  1   force =     0.00000000    0.00000000    0.00000000
     atom    2 type  2   force =     0.00000000    0.00000000    0.00000000
     atom    3 type  2   force =     0.00000000    0.00000000    0.00000000
     atom    4 type  3   force =     0.00000000    0.00000000    0.00000000
     The SCF correction term to forces
     atom    1 type  1   force =     0.00000000   -0.00000000    0.00052183
     atom    2 type  2   force =     0.00000000   -0.00000000    0.00000481
     atom    3 type  2   force =    -0.00000000    0.00000000    0.00019353
     atom    4 type  3   force =     0.00000000   -0.00000000   -0.00005401

     Total force =     0.125642     Total SCF correction =     0.000559

     Writing all to output data dir ./out/pw.save/ :
     XML data file, charge density, pseudopotentials, collected wavefunctions
 
     init_run     :     10.13s CPU      2.40s WALL (       1 calls)
     electrons    :    113.96s CPU     28.26s WALL (       1 calls)
     forces       :      0.58s CPU      0.53s WALL (       1 calls)

     Called by init_run:
     wfcinit      :      0.26s CPU      0.30s WALL (       1 calls)
     wfcinit:atom :      0.04s CPU      0.04s WALL (      50 calls)
     wfcinit:wfcr :      0.17s CPU      0.19s WALL (      50 calls)
     potinit      :      9.38s CPU      1.56s WALL (       1 calls)
     hinit0       :      0.41s CPU      0.41s WALL (       1 calls)

     Called by electrons:
     c_bands      :     12.02s CPU     12.16s WALL (      23 calls)
     sum_band     :      2.52s CPU      2.52s WALL (      23 calls)
     v_of_rho     :      0.36s CPU      0.17s WALL (      24 calls)
     v_h          :      0.26s CPU      0.03s WALL (      24 calls)
     v_xc         :      0.11s CPU      0.14s WALL (      25 calls)
     newd         :      0.55s CPU      0.41s WALL (      24 calls)
                                        0.41s GPU  (      24 calls)
     PAW_pot      :    101.76s CPU     12.93s WALL (      24 calls)
     mix_rho      :      0.59s CPU      0.60s WALL (      23 calls)

     Called by c_bands:
     init_us_2    :      0.98s CPU      0.97s WALL (    2400 calls)
     cegterg      :     10.45s CPU     10.53s WALL (    1150 calls)

     Called by sum_band:
     sum_band:wei :      0.03s CPU      0.03s WALL (      23 calls)
                                        0.03s GPU  (      23 calls)
     sum_band:loo :      1.61s CPU      1.60s WALL (      23 calls)
                                        1.60s GPU  (      23 calls)
     sum_band:buf :      0.13s CPU      0.15s WALL (    1150 calls)
                                        0.14s GPU  (    1150 calls)
     sum_band:ini :      0.47s CPU      0.48s WALL (    1150 calls)
                                        0.47s GPU  (    1150 calls)
     sum_band:cal :      0.04s CPU      0.16s WALL (    1150 calls)
                                        0.14s GPU  (    1150 calls)
     sum_band:bec :      0.25s CPU      0.27s WALL (    1150 calls)
                                        0.26s GPU  (    1150 calls)
     addusdens    :      0.76s CPU      0.78s WALL (      23 calls)
                                        0.77s GPU  (      23 calls)
     addusd:skk   :      0.00s CPU      0.00s WALL (      69 calls)
                                        0.00s GPU  (      69 calls)

     Called by *egterg:
     cdiaghg      :      3.47s CPU      3.60s WALL (    4362 calls)
                                        3.54s GPU  (    4362 calls)
     cegterg:over :      0.55s CPU      0.57s WALL (    3212 calls)
     cegterg:upda :      0.64s CPU      0.65s WALL (    3212 calls)
     cegterg:last :      0.10s CPU      0.10s WALL (    1909 calls)
     h_psi        :      3.99s CPU      4.07s WALL (    4412 calls)
                                        4.01s GPU  (    4412 calls)
     s_psi        :      0.69s CPU      0.71s WALL (    4412 calls)
     g_psi        :      0.02s CPU      0.08s WALL (    3212 calls)
                                        0.04s GPU  (    3212 calls)

     Called by h_psi:
     h_psi:calbec :      0.12s CPU      0.43s WALL (    4412 calls)
                                        0.37s GPU  (    4412 calls)
     vloc_psi     :      2.59s CPU      2.59s WALL (    4412 calls)
                                        2.54s GPU  (    4412 calls)
     add_vuspsi   :      0.62s CPU      0.73s WALL (    4412 calls)
                                        0.67s GPU  (    4412 calls)

     General routines
     calbec       :      0.12s CPU      0.14s WALL (    5762 calls)
     fft          :      3.23s CPU      0.62s WALL (     613 calls)
                                        0.03s GPU  (     565 calls)
     ffts         :      2.09s CPU      0.37s WALL (     762 calls)
                                        0.02s GPU  (     714 calls)
     fftw         :      0.29s CPU      0.84s WALL (   15874 calls)
                                        0.66s GPU  (   15874 calls)
     interpolate  :      5.41s CPU      0.95s WALL (      48 calls)
 
     Parallel routines

     PAW routines
     PAW_pot      :    101.76s CPU     12.93s WALL (      24 calls)
     PAW_symme    :      0.02s CPU      0.00s WALL (      47 calls)
 
     PWSCF        :   2m 5.44s CPU     31.68s WALL

 
   This run was terminated on:   5:41:46  12Jul2026            

=------------------------------------------------------------------------------=
   JOB DONE.
=------------------------------------------------------------------------------=
Warning: ieee_divide_by_zero is signaling
Warning: ieee_inexact is signaling
FORTRAN STOP
