
     Program PWSCF v.7.3.1 starts on 12Jul2026 at  3:28:28 

     This program is part of the open-source Quantum ESPRESSO suite
     for quantum simulation of materials; please cite
         "P. Giannozzi et al., J. Phys.:Condens. Matter 21 395502 (2009);
         "P. Giannozzi et al., J. Phys.:Condens. Matter 29 465901 (2017);
         "P. Giannozzi et al., J. Chem. Phys. 152 154105 (2020);
          URL http://www.quantum-espresso.org", 
     in publications or presentations arising from this work. More details at
     http://www.quantum-espresso.org/quote

     Parallel version (MPI & OpenMP), running on      14 processor cores
     Number of MPI processes:                 1
     Threads/MPI process:                    14

     MPI processes distributed on     1 nodes
     840271 MiB available memory on the printing compute node when the environment starts
 
     Reading input from pw.in

     Current dimensions of program PWSCF are:
     Max number of different atomic species (ntypx) = 10
     Max number of k-points (npk) =  40000
     Max angular momentum in pseudopotentials (lmaxx) =  4
     file Co.pbe-spn-kjpaw_psl.0.3.1.UPF: wavefunction(s)  3P 3D renormalized
     file O.pbe-n-kjpaw_psl.1.0.0.UPF: wavefunction(s)  2S 2P renormalized

     Atomic positions and unit cell read from directory:
     ../Li_1x1_c8.4_d1.00/out/pw.save/
 
 
     Subspace diagonalization in iterative solution of the eigenvalue problem:
     a serial algorithm will be used

 
     G-vector sticks info
     --------------------
     sticks:   dense  smooth     PW     G-vecs:    dense   smooth      PW
     Sum         931     475    151                69237    24541    4153
 
     Using Slab Decomposition
 


     bravais-lattice index     =            4
     lattice parameter (alat)  =       5.3290  a.u.
     unit-cell volume          =     390.3954 (a.u.)^3
     number of atoms/cell      =            4
     number of atomic types    =            3
     number of electrons       =        32.00
     number of Kohn-Sham states=           24
     kinetic-energy cutoff     =      60.0000  Ry
     charge density cutoff     =     480.0000  Ry
     Exchange-correlation= SLA  PW   PBX  PBC
                           (   1   4   3   4   0   0   0)

     GPU acceleration is ACTIVE.  1 visible GPUs per MPI rank
     GPU-aware MPI enabled


     GPU used by master process:

        Device Number: 0
        Device name: NVIDIA A100-SXM4-80GB
        Compute capability : 80
        Ratio of single to double precision performance  : 2
        Memory Clock Rate (KHz): 1593000
        Memory Bus Width (bits): 5120
        Peak Memory Bandwidth (GB/s): ******

     celldm(1)=   5.329028  celldm(2)=   0.000000  celldm(3)=   2.978723
     celldm(4)=   0.000000  celldm(5)=   0.000000  celldm(6)=   0.000000

     crystal axes: (cart. coord. in units of alat)
               a(1) = (   1.000000   0.000000   0.000000 )  
               a(2) = (  -0.500000   0.866025   0.000000 )  
               a(3) = (   0.000000   0.000000   2.978723 )  

     reciprocal axes: (cart. coord. in units 2 pi/alat)
               b(1) = (  1.000000  0.577350 -0.000000 )  
               b(2) = (  0.000000  1.154701  0.000000 )  
               b(3) = (  0.000000 -0.000000  0.335714 )  


     PseudoPot. # 1 for Co read from file:
     ../../pseudo/Co.pbe-spn-kjpaw_psl.0.3.1.UPF
     MD5 check sum: 3c0a43779828c046024e4f3be63f8e67
     Pseudo is Projector augmented-wave + core cor, Zval = 17.0
     Generated using &quot;atomic&quot; code by A. Dal Corso  v.6.2.2
     Shape of augmentation charge: PSQ
     Using radial grid of 1193 points,  6 beta functions with: 
                l(1) =   0
                l(2) =   0
                l(3) =   1
                l(4) =   1
                l(5) =   2
                l(6) =   2
     Q(r) pseudized with 0 coefficients 


     PseudoPot. # 2 for O  read from file:
     ../../pseudo/O.pbe-n-kjpaw_psl.1.0.0.UPF
     MD5 check sum: e99d9cef9b487d1ca56f5b95ecd0fd7a
     Pseudo is Projector augmented-wave + core cor, Zval =  6.0
     Generated using &quot;atomic&quot; code by A. Dal Corso  v.6.3
     Shape of augmentation charge: PSQ
     Using radial grid of 1095 points,  4 beta functions with: 
                l(1) =   0
                l(2) =   0
                l(3) =   1
                l(4) =   1
     Q(r) pseudized with 0 coefficients 


     PseudoPot. # 3 for Li read from file:
     ../../pseudo/Li.pbe-s-kjpaw_psl.1.0.0.UPF
     MD5 check sum: 3974953fb0fea6c4f83fb01d64ffc134
     Pseudo is Projector augmented-wave, Zval =  3.0
     Generated using &quot;atomic&quot; code by A. Dal Corso  v.6.3
     Shape of augmentation charge: PSQ
     Using radial grid of 1017 points,  4 beta functions with: 
                l(1) =   0
                l(2) =   0
                l(3) =   1
                l(4) =   1
     Q(r) pseudized with 0 coefficients 


     atomic species   valence    mass     pseudopotential
     Co               17.00    58.93300     Co( 1.00)
     O                 6.00    15.99900     O ( 1.00)
     Li                3.00     6.94100     Li( 1.00)

     Starting magnetic structure 
     atomic species   magnetization
     Co              0.300
     O               0.000
     Li              0.000

      6 Sym. Ops. (no inversion) found


                                    s                        frac. trans.

      isym =  1     identity                                     

 cryst.   s( 1) = (     1          0          0      )
                  (     0          1          0      )
                  (     0          0          1      )

 cart.    s( 1) = (  1.0000000  0.0000000  0.0000000 )
                  (  0.0000000  1.0000000  0.0000000 )
                  (  0.0000000  0.0000000  1.0000000 )


      isym =  2     120 deg rotation - cryst. axis [0,0,1]       

 cryst.   s( 2) = (     0          1          0      )
                  (    -1         -1          0      )
                  (     0          0          1      )

 cart.    s( 2) = ( -0.5000000 -0.8660254  0.0000000 )
                  (  0.8660254 -0.5000000  0.0000000 )
                  (  0.0000000  0.0000000  1.0000000 )


      isym =  3     120 deg rotation - cryst. axis [0,0,-1]      

 cryst.   s( 3) = (    -1         -1          0      )
                  (     1          0          0      )
                  (     0          0          1      )

 cart.    s( 3) = ( -0.5000000  0.8660254  0.0000000 )
                  ( -0.8660254 -0.5000000  0.0000000 )
                  (  0.0000000  0.0000000  1.0000000 )


      isym =  4     inv. 180 deg rotation - cart. axis [1,0,0]   

 cryst.   s( 4) = (    -1          0          0      )
                  (     1          1          0      )
                  (     0          0          1      )

 cart.    s( 4) = ( -1.0000000  0.0000000  0.0000000 )
                  (  0.0000000  1.0000000  0.0000000 )
                  (  0.0000000  0.0000000  1.0000000 )


      isym =  5     inv. 180 deg rotation - cryst. axis [0,1,0]  

 cryst.   s( 5) = (     1          1          0      )
                  (     0         -1          0      )
                  (     0          0          1      )

 cart.    s( 5) = (  0.5000000  0.8660254  0.0000000 )
                  (  0.8660254 -0.5000000  0.0000000 )
                  (  0.0000000  0.0000000  1.0000000 )


      isym =  6     inv. 180 deg rotation - cryst. axis [1,1,0]  

 cryst.   s( 6) = (     0         -1          0      )
                  (    -1          0          0      )
                  (     0          0          1      )

 cart.    s( 6) = (  0.5000000 -0.8660254  0.0000000 )
                  ( -0.8660254 -0.5000000  0.0000000 )
                  (  0.0000000  0.0000000  1.0000000 )


     point group C_3v (3m)  
     there are  3 classes
     the character table:

       E     2C3   3s_v 
A_1    1.00  1.00  1.00
A_2    1.00  1.00 -1.00
E      2.00 -1.00  0.00

     the symmetry operations in each class and the name of the first element:

     E        1
          identity                                               
     2C3      2    3
          120 deg rotation - cryst. axis [0,0,1]                 
     3s_v     4    5    6
          inv. 180 deg rotation - cart. axis [1,0,0]             

   Cartesian axes

     site n.     atom                  positions (alat units)
         1        Co     tau(   1) = (   0.0000000   0.0000000   0.0000000  )
         2        O      tau(   2) = (  -0.0000000   0.5773503   0.3404255  )
         3        O      tau(   3) = (   0.5000000   0.2886751   2.6382979  )
         4        Li     tau(   4) = (   0.0000000   0.0000000   1.8439716  )

   Crystallographic axes

     site n.     atom                  positions (cryst. coord.)
         1        Co     tau(   1) = (  0.0000000  0.0000000  0.0000000  )
         2        O      tau(   2) = (  0.3333333  0.6666667  0.1142857  )
         3        O      tau(   3) = (  0.6666667  0.3333333  0.8857143  )
         4        Li     tau(   4) = (  0.0000000  0.0000000  0.6190476  )

     number of k points=   449  Marzari-Vanderbilt smearing, width (Ry)=  0.0200
                       cart. coord. in units 2pi/alat
        k(    1) = (   0.0000000   0.0000000   0.0000000), wk =   0.0002170
        k(    2) = (   0.0000000   0.0000000   0.0419643), wk =   0.0004340
        k(    3) = (   0.0000000   0.0000000   0.0839286), wk =   0.0004340
        k(    4) = (   0.0000000   0.0000000   0.1258929), wk =   0.0004340
        k(    5) = (   0.0000000   0.0000000  -0.1678571), wk =   0.0002170
        k(    6) = (   0.0000000   0.0481125   0.0000000), wk =   0.0013021
        k(    7) = (   0.0000000   0.0481125   0.0419643), wk =   0.0013021
        k(    8) = (   0.0000000   0.0481125   0.0839286), wk =   0.0013021
        k(    9) = (   0.0000000   0.0481125   0.1258929), wk =   0.0013021
        k(   10) = (   0.0000000   0.0481125  -0.1678571), wk =   0.0013021
        k(   11) = (   0.0000000   0.0962250   0.0000000), wk =   0.0013021
        k(   12) = (   0.0000000   0.0962250   0.0419643), wk =   0.0013021
        k(   13) = (   0.0000000   0.0962250   0.0839286), wk =   0.0013021
        k(   14) = (   0.0000000   0.0962250   0.1258929), wk =   0.0013021
        k(   15) = (   0.0000000   0.0962250  -0.1678571), wk =   0.0013021
        k(   16) = (   0.0000000   0.1443376   0.0000000), wk =   0.0013021
        k(   17) = (   0.0000000   0.1443376   0.0419643), wk =   0.0013021
        k(   18) = (   0.0000000   0.1443376   0.0839286), wk =   0.0013021
        k(   19) = (   0.0000000   0.1443376   0.1258929), wk =   0.0013021
        k(   20) = (   0.0000000   0.1443376  -0.1678571), wk =   0.0013021
        k(   21) = (   0.0000000   0.1924501   0.0000000), wk =   0.0013021
        k(   22) = (   0.0000000   0.1924501   0.0419643), wk =   0.0013021
        k(   23) = (   0.0000000   0.1924501   0.0839286), wk =   0.0013021
        k(   24) = (   0.0000000   0.1924501   0.1258929), wk =   0.0013021
        k(   25) = (   0.0000000   0.1924501  -0.1678571), wk =   0.0013021
        k(   26) = (   0.0000000   0.2405626   0.0000000), wk =   0.0013021
        k(   27) = (   0.0000000   0.2405626   0.0419643), wk =   0.0013021
        k(   28) = (   0.0000000   0.2405626   0.0839286), wk =   0.0013021
        k(   29) = (   0.0000000   0.2405626   0.1258929), wk =   0.0013021
        k(   30) = (   0.0000000   0.2405626  -0.1678571), wk =   0.0013021
        k(   31) = (   0.0000000   0.2886751   0.0000000), wk =   0.0013021
        k(   32) = (   0.0000000   0.2886751   0.0419643), wk =   0.0013021
        k(   33) = (   0.0000000   0.2886751   0.0839286), wk =   0.0013021
        k(   34) = (   0.0000000   0.2886751   0.1258929), wk =   0.0013021
        k(   35) = (   0.0000000   0.2886751  -0.1678571), wk =   0.0013021
        k(   36) = (   0.0000000   0.3367877   0.0000000), wk =   0.0013021
        k(   37) = (   0.0000000   0.3367877   0.0419643), wk =   0.0013021
        k(   38) = (   0.0000000   0.3367877   0.0839286), wk =   0.0013021
        k(   39) = (   0.0000000   0.3367877   0.1258929), wk =   0.0013021
        k(   40) = (   0.0000000   0.3367877  -0.1678571), wk =   0.0013021
        k(   41) = (   0.0000000   0.3849002   0.0000000), wk =   0.0013021
        k(   42) = (   0.0000000   0.3849002   0.0419643), wk =   0.0013021
        k(   43) = (   0.0000000   0.3849002   0.0839286), wk =   0.0013021
        k(   44) = (   0.0000000   0.3849002   0.1258929), wk =   0.0013021
        k(   45) = (   0.0000000   0.3849002  -0.1678571), wk =   0.0013021
        k(   46) = (   0.0000000   0.4330127   0.0000000), wk =   0.0013021
        k(   47) = (   0.0000000   0.4330127   0.0419643), wk =   0.0013021
        k(   48) = (   0.0000000   0.4330127   0.0839286), wk =   0.0013021
        k(   49) = (   0.0000000   0.4330127   0.1258929), wk =   0.0013021
        k(   50) = (   0.0000000   0.4330127  -0.1678571), wk =   0.0013021
        k(   51) = (   0.0000000   0.4811252   0.0000000), wk =   0.0013021
        k(   52) = (   0.0000000   0.4811252   0.0419643), wk =   0.0013021
        k(   53) = (   0.0000000   0.4811252   0.0839286), wk =   0.0013021
        k(   54) = (   0.0000000   0.4811252   0.1258929), wk =   0.0013021
        k(   55) = (   0.0000000   0.4811252  -0.1678571), wk =   0.0013021
        k(   56) = (   0.0000000   0.5292377   0.0000000), wk =   0.0013021
        k(   57) = (   0.0000000   0.5292377   0.0419643), wk =   0.0013021
        k(   58) = (   0.0000000   0.5292377   0.0839286), wk =   0.0013021
        k(   59) = (   0.0000000   0.5292377   0.1258929), wk =   0.0013021
        k(   60) = (   0.0000000   0.5292377  -0.1678571), wk =   0.0013021
        k(   61) = (   0.0000000  -0.5773503   0.0000000), wk =   0.0006510
        k(   62) = (   0.0000000  -0.5773503   0.0419643), wk =   0.0013021
        k(   63) = (   0.0000000  -0.5773503   0.0839286), wk =   0.0013021
        k(   64) = (   0.0000000  -0.5773503   0.1258929), wk =   0.0013021
        k(   65) = (   0.0000000  -0.5773503  -0.1678571), wk =   0.0006510
        k(   66) = (   0.0416667   0.0721688   0.0000000), wk =   0.0013021
        k(   67) = (   0.0416667   0.0721688   0.0419643), wk =   0.0026042
        k(   68) = (   0.0416667   0.0721688   0.0839286), wk =   0.0026042
        k(   69) = (   0.0416667   0.0721688   0.1258929), wk =   0.0026042
        k(   70) = (   0.0416667   0.0721688  -0.1678571), wk =   0.0013021
        k(   71) = (   0.0416667   0.1202813   0.0000000), wk =   0.0026042
        k(   72) = (   0.0416667   0.1202813   0.0419643), wk =   0.0026042
        k(   73) = (   0.0416667   0.1202813   0.0839286), wk =   0.0026042
        k(   74) = (   0.0416667   0.1202813   0.1258929), wk =   0.0026042
        k(   75) = (   0.0416667   0.1202813  -0.1678571), wk =   0.0026042
        k(   76) = (   0.0416667   0.1683938   0.0000000), wk =   0.0026042
        k(   77) = (   0.0416667   0.1683938   0.0419643), wk =   0.0026042
        k(   78) = (   0.0416667   0.1683938   0.0839286), wk =   0.0026042
        k(   79) = (   0.0416667   0.1683938   0.1258929), wk =   0.0026042
        k(   80) = (   0.0416667   0.1683938  -0.1678571), wk =   0.0026042
        k(   81) = (   0.0416667   0.2165064   0.0000000), wk =   0.0026042
        k(   82) = (   0.0416667   0.2165064   0.0419643), wk =   0.0026042
        k(   83) = (   0.0416667   0.2165064   0.0839286), wk =   0.0026042
        k(   84) = (   0.0416667   0.2165064   0.1258929), wk =   0.0026042
        k(   85) = (   0.0416667   0.2165064  -0.1678571), wk =   0.0026042
        k(   86) = (   0.0416667   0.2646189   0.0000000), wk =   0.0026042
        k(   87) = (   0.0416667   0.2646189   0.0419643), wk =   0.0026042
        k(   88) = (   0.0416667   0.2646189   0.0839286), wk =   0.0026042
        k(   89) = (   0.0416667   0.2646189   0.1258929), wk =   0.0026042
        k(   90) = (   0.0416667   0.2646189  -0.1678571), wk =   0.0026042
        k(   91) = (   0.0416667   0.3127314   0.0000000), wk =   0.0026042
        k(   92) = (   0.0416667   0.3127314   0.0419643), wk =   0.0026042
        k(   93) = (   0.0416667   0.3127314   0.0839286), wk =   0.0026042
        k(   94) = (   0.0416667   0.3127314   0.1258929), wk =   0.0026042
        k(   95) = (   0.0416667   0.3127314  -0.1678571), wk =   0.0026042
        k(   96) = (   0.0416667   0.3608439   0.0000000), wk =   0.0026042
        k(   97) = (   0.0416667   0.3608439   0.0419643), wk =   0.0026042
        k(   98) = (   0.0416667   0.3608439   0.0839286), wk =   0.0026042
        k(   99) = (   0.0416667   0.3608439   0.1258929), wk =   0.0026042
        k(  100) = (   0.0416667   0.3608439  -0.1678571), wk =   0.0026042
        k(  101) = (   0.0416667   0.4089564   0.0000000), wk =   0.0026042
        k(  102) = (   0.0416667   0.4089564   0.0419643), wk =   0.0026042
        k(  103) = (   0.0416667   0.4089564   0.0839286), wk =   0.0026042
        k(  104) = (   0.0416667   0.4089564   0.1258929), wk =   0.0026042
        k(  105) = (   0.0416667   0.4089564  -0.1678571), wk =   0.0026042
        k(  106) = (   0.0416667   0.4570690   0.0000000), wk =   0.0026042
        k(  107) = (   0.0416667   0.4570690   0.0419643), wk =   0.0026042
        k(  108) = (   0.0416667   0.4570690   0.0839286), wk =   0.0026042
        k(  109) = (   0.0416667   0.4570690   0.1258929), wk =   0.0026042
        k(  110) = (   0.0416667   0.4570690  -0.1678571), wk =   0.0026042
        k(  111) = (   0.0416667   0.5051815   0.0000000), wk =   0.0026042
        k(  112) = (   0.0416667   0.5051815   0.0419643), wk =   0.0026042
        k(  113) = (   0.0416667   0.5051815   0.0839286), wk =   0.0026042
        k(  114) = (   0.0416667   0.5051815   0.1258929), wk =   0.0026042
        k(  115) = (   0.0416667   0.5051815  -0.1678571), wk =   0.0026042
        k(  116) = (   0.0416667   0.5532940   0.0000000), wk =   0.0026042
        k(  117) = (   0.0416667   0.5532940   0.0419643), wk =   0.0026042
        k(  118) = (   0.0416667   0.5532940   0.0839286), wk =   0.0026042
        k(  119) = (   0.0416667   0.5532940   0.1258929), wk =   0.0026042
        k(  120) = (   0.0416667   0.5532940  -0.1678571), wk =   0.0026042
        k(  121) = (   0.0833333   0.1443376   0.0000000), wk =   0.0013021
        k(  122) = (   0.0833333   0.1443376   0.0419643), wk =   0.0026042
        k(  123) = (   0.0833333   0.1443376   0.0839286), wk =   0.0026042
        k(  124) = (   0.0833333   0.1443376   0.1258929), wk =   0.0026042
        k(  125) = (   0.0833333   0.1443376  -0.1678571), wk =   0.0013021
        k(  126) = (   0.0833333   0.1924501   0.0000000), wk =   0.0026042
        k(  127) = (   0.0833333   0.1924501   0.0419643), wk =   0.0026042
        k(  128) = (   0.0833333   0.1924501   0.0839286), wk =   0.0026042
        k(  129) = (   0.0833333   0.1924501   0.1258929), wk =   0.0026042
        k(  130) = (   0.0833333   0.1924501  -0.1678571), wk =   0.0026042
        k(  131) = (   0.0833333   0.2405626   0.0000000), wk =   0.0026042
        k(  132) = (   0.0833333   0.2405626   0.0419643), wk =   0.0026042
        k(  133) = (   0.0833333   0.2405626   0.0839286), wk =   0.0026042
        k(  134) = (   0.0833333   0.2405626   0.1258929), wk =   0.0026042
        k(  135) = (   0.0833333   0.2405626  -0.1678571), wk =   0.0026042
        k(  136) = (   0.0833333   0.2886751   0.0000000), wk =   0.0026042
        k(  137) = (   0.0833333   0.2886751   0.0419643), wk =   0.0026042
        k(  138) = (   0.0833333   0.2886751   0.0839286), wk =   0.0026042
        k(  139) = (   0.0833333   0.2886751   0.1258929), wk =   0.0026042
        k(  140) = (   0.0833333   0.2886751  -0.1678571), wk =   0.0026042
        k(  141) = (   0.0833333   0.3367877   0.0000000), wk =   0.0026042
        k(  142) = (   0.0833333   0.3367877   0.0419643), wk =   0.0026042
        k(  143) = (   0.0833333   0.3367877   0.0839286), wk =   0.0026042
        k(  144) = (   0.0833333   0.3367877   0.1258929), wk =   0.0026042
        k(  145) = (   0.0833333   0.3367877  -0.1678571), wk =   0.0026042
        k(  146) = (   0.0833333   0.3849002   0.0000000), wk =   0.0026042
        k(  147) = (   0.0833333   0.3849002   0.0419643), wk =   0.0026042
        k(  148) = (   0.0833333   0.3849002   0.0839286), wk =   0.0026042
        k(  149) = (   0.0833333   0.3849002   0.1258929), wk =   0.0026042
        k(  150) = (   0.0833333   0.3849002  -0.1678571), wk =   0.0026042
        k(  151) = (   0.0833333   0.4330127   0.0000000), wk =   0.0026042
        k(  152) = (   0.0833333   0.4330127   0.0419643), wk =   0.0026042
        k(  153) = (   0.0833333   0.4330127   0.0839286), wk =   0.0026042
        k(  154) = (   0.0833333   0.4330127   0.1258929), wk =   0.0026042
        k(  155) = (   0.0833333   0.4330127  -0.1678571), wk =   0.0026042
        k(  156) = (   0.0833333   0.4811252   0.0000000), wk =   0.0026042
        k(  157) = (   0.0833333   0.4811252   0.0419643), wk =   0.0026042
        k(  158) = (   0.0833333   0.4811252   0.0839286), wk =   0.0026042
        k(  159) = (   0.0833333   0.4811252   0.1258929), wk =   0.0026042
        k(  160) = (   0.0833333   0.4811252  -0.1678571), wk =   0.0026042
        k(  161) = (   0.0833333   0.5292377   0.0000000), wk =   0.0026042
        k(  162) = (   0.0833333   0.5292377   0.0419643), wk =   0.0026042
        k(  163) = (   0.0833333   0.5292377   0.0839286), wk =   0.0026042
        k(  164) = (   0.0833333   0.5292377   0.1258929), wk =   0.0026042
        k(  165) = (   0.0833333   0.5292377  -0.1678571), wk =   0.0026042
        k(  166) = (   0.0833333   0.5773503   0.0000000), wk =   0.0013021
        k(  167) = (   0.0833333   0.5773503   0.0419643), wk =   0.0026042
        k(  168) = (   0.0833333   0.5773503   0.0839286), wk =   0.0026042
        k(  169) = (   0.0833333   0.5773503   0.1258929), wk =   0.0026042
        k(  170) = (   0.0833333   0.5773503  -0.1678571), wk =   0.0013021
        k(  171) = (   0.1250000   0.2165064   0.0000000), wk =   0.0013021
        k(  172) = (   0.1250000   0.2165064   0.0419643), wk =   0.0026042
        k(  173) = (   0.1250000   0.2165064   0.0839286), wk =   0.0026042
        k(  174) = (   0.1250000   0.2165064   0.1258929), wk =   0.0026042
        k(  175) = (   0.1250000   0.2165064  -0.1678571), wk =   0.0013021
        k(  176) = (   0.1250000   0.2646189   0.0000000), wk =   0.0026042
        k(  177) = (   0.1250000   0.2646189   0.0419643), wk =   0.0026042
        k(  178) = (   0.1250000   0.2646189   0.0839286), wk =   0.0026042
        k(  179) = (   0.1250000   0.2646189   0.1258929), wk =   0.0026042
        k(  180) = (   0.1250000   0.2646189  -0.1678571), wk =   0.0026042
        k(  181) = (   0.1250000   0.3127314   0.0000000), wk =   0.0026042
        k(  182) = (   0.1250000   0.3127314   0.0419643), wk =   0.0026042
        k(  183) = (   0.1250000   0.3127314   0.0839286), wk =   0.0026042
        k(  184) = (   0.1250000   0.3127314   0.1258929), wk =   0.0026042
        k(  185) = (   0.1250000   0.3127314  -0.1678571), wk =   0.0026042
        k(  186) = (   0.1250000   0.3608439   0.0000000), wk =   0.0026042
        k(  187) = (   0.1250000   0.3608439   0.0419643), wk =   0.0026042
        k(  188) = (   0.1250000   0.3608439   0.0839286), wk =   0.0026042
        k(  189) = (   0.1250000   0.3608439   0.1258929), wk =   0.0026042
        k(  190) = (   0.1250000   0.3608439  -0.1678571), wk =   0.0026042
        k(  191) = (   0.1250000   0.4089564   0.0000000), wk =   0.0026042
        k(  192) = (   0.1250000   0.4089564   0.0419643), wk =   0.0026042
        k(  193) = (   0.1250000   0.4089564   0.0839286), wk =   0.0026042
        k(  194) = (   0.1250000   0.4089564   0.1258929), wk =   0.0026042
        k(  195) = (   0.1250000   0.4089564  -0.1678571), wk =   0.0026042
        k(  196) = (   0.1250000   0.4570690   0.0000000), wk =   0.0026042
        k(  197) = (   0.1250000   0.4570690   0.0419643), wk =   0.0026042
        k(  198) = (   0.1250000   0.4570690   0.0839286), wk =   0.0026042
        k(  199) = (   0.1250000   0.4570690   0.1258929), wk =   0.0026042
        k(  200) = (   0.1250000   0.4570690  -0.1678571), wk =   0.0026042
        k(  201) = (   0.1250000   0.5051815   0.0000000), wk =   0.0026042
        k(  202) = (   0.1250000   0.5051815   0.0419643), wk =   0.0026042
        k(  203) = (   0.1250000   0.5051815   0.0839286), wk =   0.0026042
        k(  204) = (   0.1250000   0.5051815   0.1258929), wk =   0.0026042
        k(  205) = (   0.1250000   0.5051815  -0.1678571), wk =   0.0026042
        k(  206) = (   0.1250000   0.5532940   0.0000000), wk =   0.0026042
        k(  207) = (   0.1250000   0.5532940   0.0419643), wk =   0.0026042
        k(  208) = (   0.1250000   0.5532940   0.0839286), wk =   0.0026042
        k(  209) = (   0.1250000   0.5532940   0.1258929), wk =   0.0026042
        k(  210) = (   0.1250000   0.5532940  -0.1678571), wk =   0.0026042
        k(  211) = (   0.1666667   0.2886751   0.0000000), wk =   0.0013021
        k(  212) = (   0.1666667   0.2886751   0.0419643), wk =   0.0026042
        k(  213) = (   0.1666667   0.2886751   0.0839286), wk =   0.0026042
        k(  214) = (   0.1666667   0.2886751   0.1258929), wk =   0.0026042
        k(  215) = (   0.1666667   0.2886751  -0.1678571), wk =   0.0013021
        k(  216) = (   0.1666667   0.3367877   0.0000000), wk =   0.0026042
        k(  217) = (   0.1666667   0.3367877   0.0419643), wk =   0.0026042
        k(  218) = (   0.1666667   0.3367877   0.0839286), wk =   0.0026042
        k(  219) = (   0.1666667   0.3367877   0.1258929), wk =   0.0026042
        k(  220) = (   0.1666667   0.3367877  -0.1678571), wk =   0.0026042
        k(  221) = (   0.1666667   0.3849002   0.0000000), wk =   0.0026042
        k(  222) = (   0.1666667   0.3849002   0.0419643), wk =   0.0026042
        k(  223) = (   0.1666667   0.3849002   0.0839286), wk =   0.0026042
        k(  224) = (   0.1666667   0.3849002   0.1258929), wk =   0.0026042
        k(  225) = (   0.1666667   0.3849002  -0.1678571), wk =   0.0026042
        k(  226) = (   0.1666667   0.4330127   0.0000000), wk =   0.0026042
        k(  227) = (   0.1666667   0.4330127   0.0419643), wk =   0.0026042
        k(  228) = (   0.1666667   0.4330127   0.0839286), wk =   0.0026042
        k(  229) = (   0.1666667   0.4330127   0.1258929), wk =   0.0026042
        k(  230) = (   0.1666667   0.4330127  -0.1678571), wk =   0.0026042
        k(  231) = (   0.1666667   0.4811252   0.0000000), wk =   0.0026042
        k(  232) = (   0.1666667   0.4811252   0.0419643), wk =   0.0026042
        k(  233) = (   0.1666667   0.4811252   0.0839286), wk =   0.0026042
        k(  234) = (   0.1666667   0.4811252   0.1258929), wk =   0.0026042
        k(  235) = (   0.1666667   0.4811252  -0.1678571), wk =   0.0026042
        k(  236) = (   0.1666667   0.5292377   0.0000000), wk =   0.0026042
        k(  237) = (   0.1666667   0.5292377   0.0419643), wk =   0.0026042
        k(  238) = (   0.1666667   0.5292377   0.0839286), wk =   0.0026042
        k(  239) = (   0.1666667   0.5292377   0.1258929), wk =   0.0026042
        k(  240) = (   0.1666667   0.5292377  -0.1678571), wk =   0.0026042
        k(  241) = (   0.1666667   0.5773503   0.0000000), wk =   0.0013021
        k(  242) = (   0.1666667   0.5773503   0.0419643), wk =   0.0026042
        k(  243) = (   0.1666667   0.5773503   0.0839286), wk =   0.0026042
        k(  244) = (   0.1666667   0.5773503   0.1258929), wk =   0.0026042
        k(  245) = (   0.1666667   0.5773503  -0.1678571), wk =   0.0013021
        k(  246) = (   0.2083333   0.3608439   0.0000000), wk =   0.0013021
        k(  247) = (   0.2083333   0.3608439   0.0419643), wk =   0.0026042
        k(  248) = (   0.2083333   0.3608439   0.0839286), wk =   0.0026042
        k(  249) = (   0.2083333   0.3608439   0.1258929), wk =   0.0026042
        k(  250) = (   0.2083333   0.3608439  -0.1678571), wk =   0.0013021
        k(  251) = (   0.2083333   0.4089564   0.0000000), wk =   0.0026042
        k(  252) = (   0.2083333   0.4089564   0.0419643), wk =   0.0026042
        k(  253) = (   0.2083333   0.4089564   0.0839286), wk =   0.0026042
        k(  254) = (   0.2083333   0.4089564   0.1258929), wk =   0.0026042
        k(  255) = (   0.2083333   0.4089564  -0.1678571), wk =   0.0026042
        k(  256) = (   0.2083333   0.4570690   0.0000000), wk =   0.0026042
        k(  257) = (   0.2083333   0.4570690   0.0419643), wk =   0.0026042
        k(  258) = (   0.2083333   0.4570690   0.0839286), wk =   0.0026042
        k(  259) = (   0.2083333   0.4570690   0.1258929), wk =   0.0026042
        k(  260) = (   0.2083333   0.4570690  -0.1678571), wk =   0.0026042
        k(  261) = (   0.2083333   0.5051815   0.0000000), wk =   0.0026042
        k(  262) = (   0.2083333   0.5051815   0.0419643), wk =   0.0026042
        k(  263) = (   0.2083333   0.5051815   0.0839286), wk =   0.0026042
        k(  264) = (   0.2083333   0.5051815   0.1258929), wk =   0.0026042
        k(  265) = (   0.2083333   0.5051815  -0.1678571), wk =   0.0026042
        k(  266) = (   0.2083333   0.5532940   0.0000000), wk =   0.0026042
        k(  267) = (   0.2083333   0.5532940   0.0419643), wk =   0.0026042
        k(  268) = (   0.2083333   0.5532940   0.0839286), wk =   0.0026042
        k(  269) = (   0.2083333   0.5532940   0.1258929), wk =   0.0026042
        k(  270) = (   0.2083333   0.5532940  -0.1678571), wk =   0.0026042
        k(  271) = (   0.2500000   0.4330127   0.0000000), wk =   0.0013021
        k(  272) = (   0.2500000   0.4330127   0.0419643), wk =   0.0026042
        k(  273) = (   0.2500000   0.4330127   0.0839286), wk =   0.0026042
        k(  274) = (   0.2500000   0.4330127   0.1258929), wk =   0.0026042
        k(  275) = (   0.2500000   0.4330127  -0.1678571), wk =   0.0013021
        k(  276) = (   0.2500000   0.4811252   0.0000000), wk =   0.0026042
        k(  277) = (   0.2500000   0.4811252   0.0419643), wk =   0.0026042
        k(  278) = (   0.2500000   0.4811252   0.0839286), wk =   0.0026042
        k(  279) = (   0.2500000   0.4811252   0.1258929), wk =   0.0026042
        k(  280) = (   0.2500000   0.4811252  -0.1678571), wk =   0.0026042
        k(  281) = (   0.2500000   0.5292377   0.0000000), wk =   0.0026042
        k(  282) = (   0.2500000   0.5292377   0.0419643), wk =   0.0026042
        k(  283) = (   0.2500000   0.5292377   0.0839286), wk =   0.0026042
        k(  284) = (   0.2500000   0.5292377   0.1258929), wk =   0.0026042
        k(  285) = (   0.2500000   0.5292377  -0.1678571), wk =   0.0026042
        k(  286) = (   0.2500000   0.5773503   0.0000000), wk =   0.0013021
        k(  287) = (   0.2500000   0.5773503   0.0419643), wk =   0.0026042
        k(  288) = (   0.2500000   0.5773503   0.0839286), wk =   0.0026042
        k(  289) = (   0.2500000   0.5773503   0.1258929), wk =   0.0026042
        k(  290) = (   0.2500000   0.5773503  -0.1678571), wk =   0.0013021
        k(  291) = (   0.2916667   0.5051815   0.0000000), wk =   0.0013021
        k(  292) = (   0.2916667   0.5051815   0.0419643), wk =   0.0026042
        k(  293) = (   0.2916667   0.5051815   0.0839286), wk =   0.0026042
        k(  294) = (   0.2916667   0.5051815   0.1258929), wk =   0.0026042
        k(  295) = (   0.2916667   0.5051815  -0.1678571), wk =   0.0013021
        k(  296) = (   0.2916667   0.5532940   0.0000000), wk =   0.0026042
        k(  297) = (   0.2916667   0.5532940   0.0419643), wk =   0.0026042
        k(  298) = (   0.2916667   0.5532940   0.0839286), wk =   0.0026042
        k(  299) = (   0.2916667   0.5532940   0.1258929), wk =   0.0026042
        k(  300) = (   0.2916667   0.5532940  -0.1678571), wk =   0.0026042
        k(  301) = (   0.3333333   0.5773503   0.0000000), wk =   0.0004340
        k(  302) = (   0.3333333   0.5773503   0.0419643), wk =   0.0008681
        k(  303) = (   0.3333333   0.5773503   0.0839286), wk =   0.0008681
        k(  304) = (   0.3333333   0.5773503   0.1258929), wk =   0.0008681
        k(  305) = (   0.3333333   0.5773503  -0.1678571), wk =   0.0004340
        k(  306) = (   0.0000000  -0.0481125   0.0419643), wk =   0.0013021
        k(  307) = (   0.0000000  -0.0481125   0.0839286), wk =   0.0013021
        k(  308) = (   0.0000000  -0.0481125   0.1258929), wk =   0.0013021
        k(  309) = (   0.0000000  -0.0962250   0.0419643), wk =   0.0013021
        k(  310) = (   0.0000000  -0.0962250   0.0839286), wk =   0.0013021
        k(  311) = (   0.0000000  -0.0962250   0.1258929), wk =   0.0013021
        k(  312) = (   0.0000000  -0.1443376   0.0419643), wk =   0.0013021
        k(  313) = (   0.0000000  -0.1443376   0.0839286), wk =   0.0013021
        k(  314) = (   0.0000000  -0.1443376   0.1258929), wk =   0.0013021
        k(  315) = (   0.0000000  -0.1924501   0.0419643), wk =   0.0013021
        k(  316) = (   0.0000000  -0.1924501   0.0839286), wk =   0.0013021
        k(  317) = (   0.0000000  -0.1924501   0.1258929), wk =   0.0013021
        k(  318) = (   0.0000000  -0.2405626   0.0419643), wk =   0.0013021
        k(  319) = (   0.0000000  -0.2405626   0.0839286), wk =   0.0013021
        k(  320) = (   0.0000000  -0.2405626   0.1258929), wk =   0.0013021
        k(  321) = (   0.0000000  -0.2886751   0.0419643), wk =   0.0013021
        k(  322) = (   0.0000000  -0.2886751   0.0839286), wk =   0.0013021
        k(  323) = (   0.0000000  -0.2886751   0.1258929), wk =   0.0013021
        k(  324) = (   0.0000000  -0.3367877   0.0419643), wk =   0.0013021
        k(  325) = (   0.0000000  -0.3367877   0.0839286), wk =   0.0013021
        k(  326) = (   0.0000000  -0.3367877   0.1258929), wk =   0.0013021
        k(  327) = (   0.0000000  -0.3849002   0.0419643), wk =   0.0013021
        k(  328) = (   0.0000000  -0.3849002   0.0839286), wk =   0.0013021
        k(  329) = (   0.0000000  -0.3849002   0.1258929), wk =   0.0013021
        k(  330) = (   0.0000000  -0.4330127   0.0419643), wk =   0.0013021
        k(  331) = (   0.0000000  -0.4330127   0.0839286), wk =   0.0013021
        k(  332) = (   0.0000000  -0.4330127   0.1258929), wk =   0.0013021
        k(  333) = (   0.0000000  -0.4811252   0.0419643), wk =   0.0013021
        k(  334) = (   0.0000000  -0.4811252   0.0839286), wk =   0.0013021
        k(  335) = (   0.0000000  -0.4811252   0.1258929), wk =   0.0013021
        k(  336) = (   0.0000000  -0.5292377   0.0419643), wk =   0.0013021
        k(  337) = (   0.0000000  -0.5292377   0.0839286), wk =   0.0013021
        k(  338) = (   0.0000000  -0.5292377   0.1258929), wk =   0.0013021
        k(  339) = (  -0.0416667  -0.1202813   0.0419643), wk =   0.0026042
        k(  340) = (  -0.0416667  -0.1202813   0.0839286), wk =   0.0026042
        k(  341) = (  -0.0416667  -0.1202813   0.1258929), wk =   0.0026042
        k(  342) = (  -0.0416667  -0.1683938   0.0419643), wk =   0.0026042
        k(  343) = (  -0.0416667  -0.1683938   0.0839286), wk =   0.0026042
        k(  344) = (  -0.0416667  -0.1683938   0.1258929), wk =   0.0026042
        k(  345) = (  -0.0416667  -0.2165064   0.0419643), wk =   0.0026042
        k(  346) = (  -0.0416667  -0.2165064   0.0839286), wk =   0.0026042
        k(  347) = (  -0.0416667  -0.2165064   0.1258929), wk =   0.0026042
        k(  348) = (  -0.0416667  -0.2646189   0.0419643), wk =   0.0026042
        k(  349) = (  -0.0416667  -0.2646189   0.0839286), wk =   0.0026042
        k(  350) = (  -0.0416667  -0.2646189   0.1258929), wk =   0.0026042
        k(  351) = (  -0.0416667  -0.3127314   0.0419643), wk =   0.0026042
        k(  352) = (  -0.0416667  -0.3127314   0.0839286), wk =   0.0026042
        k(  353) = (  -0.0416667  -0.3127314   0.1258929), wk =   0.0026042
        k(  354) = (  -0.0416667  -0.3608439   0.0419643), wk =   0.0026042
        k(  355) = (  -0.0416667  -0.3608439   0.0839286), wk =   0.0026042
        k(  356) = (  -0.0416667  -0.3608439   0.1258929), wk =   0.0026042
        k(  357) = (  -0.0416667  -0.4089564   0.0419643), wk =   0.0026042
        k(  358) = (  -0.0416667  -0.4089564   0.0839286), wk =   0.0026042
        k(  359) = (  -0.0416667  -0.4089564   0.1258929), wk =   0.0026042
        k(  360) = (  -0.0416667  -0.4570690   0.0419643), wk =   0.0026042
        k(  361) = (  -0.0416667  -0.4570690   0.0839286), wk =   0.0026042
        k(  362) = (  -0.0416667  -0.4570690   0.1258929), wk =   0.0026042
        k(  363) = (  -0.0416667  -0.5051815   0.0419643), wk =   0.0026042
        k(  364) = (  -0.0416667  -0.5051815   0.0839286), wk =   0.0026042
        k(  365) = (  -0.0416667  -0.5051815   0.1258929), wk =   0.0026042
        k(  366) = (  -0.0416667  -0.5532940   0.0419643), wk =   0.0026042
        k(  367) = (  -0.0416667  -0.5532940   0.0839286), wk =   0.0026042
        k(  368) = (  -0.0416667  -0.5532940   0.1258929), wk =   0.0026042
        k(  369) = (  -0.0833333  -0.1924501   0.0419643), wk =   0.0026042
        k(  370) = (  -0.0833333  -0.1924501   0.0839286), wk =   0.0026042
        k(  371) = (  -0.0833333  -0.1924501   0.1258929), wk =   0.0026042
        k(  372) = (  -0.0833333  -0.2405626   0.0419643), wk =   0.0026042
        k(  373) = (  -0.0833333  -0.2405626   0.0839286), wk =   0.0026042
        k(  374) = (  -0.0833333  -0.2405626   0.1258929), wk =   0.0026042
        k(  375) = (  -0.0833333  -0.2886751   0.0419643), wk =   0.0026042
        k(  376) = (  -0.0833333  -0.2886751   0.0839286), wk =   0.0026042
        k(  377) = (  -0.0833333  -0.2886751   0.1258929), wk =   0.0026042
        k(  378) = (  -0.0833333  -0.3367877   0.0419643), wk =   0.0026042
        k(  379) = (  -0.0833333  -0.3367877   0.0839286), wk =   0.0026042
        k(  380) = (  -0.0833333  -0.3367877   0.1258929), wk =   0.0026042
        k(  381) = (  -0.0833333  -0.3849002   0.0419643), wk =   0.0026042
        k(  382) = (  -0.0833333  -0.3849002   0.0839286), wk =   0.0026042
        k(  383) = (  -0.0833333  -0.3849002   0.1258929), wk =   0.0026042
        k(  384) = (  -0.0833333  -0.4330127   0.0419643), wk =   0.0026042
        k(  385) = (  -0.0833333  -0.4330127   0.0839286), wk =   0.0026042
        k(  386) = (  -0.0833333  -0.4330127   0.1258929), wk =   0.0026042
        k(  387) = (  -0.0833333  -0.4811252   0.0419643), wk =   0.0026042
        k(  388) = (  -0.0833333  -0.4811252   0.0839286), wk =   0.0026042
        k(  389) = (  -0.0833333  -0.4811252   0.1258929), wk =   0.0026042
        k(  390) = (  -0.0833333  -0.5292377   0.0419643), wk =   0.0026042
        k(  391) = (  -0.0833333  -0.5292377   0.0839286), wk =   0.0026042
        k(  392) = (  -0.0833333  -0.5292377   0.1258929), wk =   0.0026042
        k(  393) = (  -0.1250000  -0.2646189   0.0419643), wk =   0.0026042
        k(  394) = (  -0.1250000  -0.2646189   0.0839286), wk =   0.0026042
        k(  395) = (  -0.1250000  -0.2646189   0.1258929), wk =   0.0026042
        k(  396) = (  -0.1250000  -0.3127314   0.0419643), wk =   0.0026042
        k(  397) = (  -0.1250000  -0.3127314   0.0839286), wk =   0.0026042
        k(  398) = (  -0.1250000  -0.3127314   0.1258929), wk =   0.0026042
        k(  399) = (  -0.1250000  -0.3608439   0.0419643), wk =   0.0026042
        k(  400) = (  -0.1250000  -0.3608439   0.0839286), wk =   0.0026042
        k(  401) = (  -0.1250000  -0.3608439   0.1258929), wk =   0.0026042
        k(  402) = (  -0.1250000  -0.4089564   0.0419643), wk =   0.0026042
        k(  403) = (  -0.1250000  -0.4089564   0.0839286), wk =   0.0026042
        k(  404) = (  -0.1250000  -0.4089564   0.1258929), wk =   0.0026042
        k(  405) = (  -0.1250000  -0.4570690   0.0419643), wk =   0.0026042
        k(  406) = (  -0.1250000  -0.4570690   0.0839286), wk =   0.0026042
        k(  407) = (  -0.1250000  -0.4570690   0.1258929), wk =   0.0026042
        k(  408) = (  -0.1250000  -0.5051815   0.0419643), wk =   0.0026042
        k(  409) = (  -0.1250000  -0.5051815   0.0839286), wk =   0.0026042
        k(  410) = (  -0.1250000  -0.5051815   0.1258929), wk =   0.0026042
        k(  411) = (  -0.1250000  -0.5532940   0.0419643), wk =   0.0026042
        k(  412) = (  -0.1250000  -0.5532940   0.0839286), wk =   0.0026042
        k(  413) = (  -0.1250000  -0.5532940   0.1258929), wk =   0.0026042
        k(  414) = (  -0.1666667  -0.3367877   0.0419643), wk =   0.0026042
        k(  415) = (  -0.1666667  -0.3367877   0.0839286), wk =   0.0026042
        k(  416) = (  -0.1666667  -0.3367877   0.1258929), wk =   0.0026042
        k(  417) = (  -0.1666667  -0.3849002   0.0419643), wk =   0.0026042
        k(  418) = (  -0.1666667  -0.3849002   0.0839286), wk =   0.0026042
        k(  419) = (  -0.1666667  -0.3849002   0.1258929), wk =   0.0026042
        k(  420) = (  -0.1666667  -0.4330127   0.0419643), wk =   0.0026042
        k(  421) = (  -0.1666667  -0.4330127   0.0839286), wk =   0.0026042
        k(  422) = (  -0.1666667  -0.4330127   0.1258929), wk =   0.0026042
        k(  423) = (  -0.1666667  -0.4811252   0.0419643), wk =   0.0026042
        k(  424) = (  -0.1666667  -0.4811252   0.0839286), wk =   0.0026042
        k(  425) = (  -0.1666667  -0.4811252   0.1258929), wk =   0.0026042
        k(  426) = (  -0.1666667  -0.5292377   0.0419643), wk =   0.0026042
        k(  427) = (  -0.1666667  -0.5292377   0.0839286), wk =   0.0026042
        k(  428) = (  -0.1666667  -0.5292377   0.1258929), wk =   0.0026042
        k(  429) = (  -0.2083333  -0.4089564   0.0419643), wk =   0.0026042
        k(  430) = (  -0.2083333  -0.4089564   0.0839286), wk =   0.0026042
        k(  431) = (  -0.2083333  -0.4089564   0.1258929), wk =   0.0026042
        k(  432) = (  -0.2083333  -0.4570690   0.0419643), wk =   0.0026042
        k(  433) = (  -0.2083333  -0.4570690   0.0839286), wk =   0.0026042
        k(  434) = (  -0.2083333  -0.4570690   0.1258929), wk =   0.0026042
        k(  435) = (  -0.2083333  -0.5051815   0.0419643), wk =   0.0026042
        k(  436) = (  -0.2083333  -0.5051815   0.0839286), wk =   0.0026042
        k(  437) = (  -0.2083333  -0.5051815   0.1258929), wk =   0.0026042
        k(  438) = (  -0.2083333  -0.5532940   0.0419643), wk =   0.0026042
        k(  439) = (  -0.2083333  -0.5532940   0.0839286), wk =   0.0026042
        k(  440) = (  -0.2083333  -0.5532940   0.1258929), wk =   0.0026042
        k(  441) = (  -0.2500000  -0.4811252   0.0419643), wk =   0.0026042
        k(  442) = (  -0.2500000  -0.4811252   0.0839286), wk =   0.0026042
        k(  443) = (  -0.2500000  -0.4811252   0.1258929), wk =   0.0026042
        k(  444) = (  -0.2500000  -0.5292377   0.0419643), wk =   0.0026042
        k(  445) = (  -0.2500000  -0.5292377   0.0839286), wk =   0.0026042
        k(  446) = (  -0.2500000  -0.5292377   0.1258929), wk =   0.0026042
        k(  447) = (  -0.2916667  -0.5532940   0.0419643), wk =   0.0026042
        k(  448) = (  -0.2916667  -0.5532940   0.0839286), wk =   0.0026042
        k(  449) = (  -0.2916667  -0.5532940   0.1258929), wk =   0.0026042

                       cryst. coord.
        k(    1) = (   0.0000000   0.0000000   0.0000000), wk =   0.0002170
        k(    2) = (   0.0000000   0.0000000   0.1250000), wk =   0.0004340
        k(    3) = (   0.0000000   0.0000000   0.2500000), wk =   0.0004340
        k(    4) = (   0.0000000   0.0000000   0.3750000), wk =   0.0004340
        k(    5) = (   0.0000000   0.0000000  -0.5000000), wk =   0.0002170
        k(    6) = (   0.0000000   0.0416667   0.0000000), wk =   0.0013021
        k(    7) = (   0.0000000   0.0416667   0.1250000), wk =   0.0013021
        k(    8) = (   0.0000000   0.0416667   0.2500000), wk =   0.0013021
        k(    9) = (   0.0000000   0.0416667   0.3750000), wk =   0.0013021
        k(   10) = (   0.0000000   0.0416667  -0.5000000), wk =   0.0013021
        k(   11) = (   0.0000000   0.0833333   0.0000000), wk =   0.0013021
        k(   12) = (   0.0000000   0.0833333   0.1250000), wk =   0.0013021
        k(   13) = (   0.0000000   0.0833333   0.2500000), wk =   0.0013021
        k(   14) = (   0.0000000   0.0833333   0.3750000), wk =   0.0013021
        k(   15) = (   0.0000000   0.0833333  -0.5000000), wk =   0.0013021
        k(   16) = (   0.0000000   0.1250000   0.0000000), wk =   0.0013021
        k(   17) = (   0.0000000   0.1250000   0.1250000), wk =   0.0013021
        k(   18) = (   0.0000000   0.1250000   0.2500000), wk =   0.0013021
        k(   19) = (   0.0000000   0.1250000   0.3750000), wk =   0.0013021
        k(   20) = (   0.0000000   0.1250000  -0.5000000), wk =   0.0013021
        k(   21) = (   0.0000000   0.1666667   0.0000000), wk =   0.0013021
        k(   22) = (   0.0000000   0.1666667   0.1250000), wk =   0.0013021
        k(   23) = (   0.0000000   0.1666667   0.2500000), wk =   0.0013021
        k(   24) = (   0.0000000   0.1666667   0.3750000), wk =   0.0013021
        k(   25) = (   0.0000000   0.1666667  -0.5000000), wk =   0.0013021
        k(   26) = (   0.0000000   0.2083333   0.0000000), wk =   0.0013021
        k(   27) = (   0.0000000   0.2083333   0.1250000), wk =   0.0013021
        k(   28) = (   0.0000000   0.2083333   0.2500000), wk =   0.0013021
        k(   29) = (   0.0000000   0.2083333   0.3750000), wk =   0.0013021
        k(   30) = (   0.0000000   0.2083333  -0.5000000), wk =   0.0013021
        k(   31) = (   0.0000000   0.2500000   0.0000000), wk =   0.0013021
        k(   32) = (   0.0000000   0.2500000   0.1250000), wk =   0.0013021
        k(   33) = (   0.0000000   0.2500000   0.2500000), wk =   0.0013021
        k(   34) = (   0.0000000   0.2500000   0.3750000), wk =   0.0013021
        k(   35) = (   0.0000000   0.2500000  -0.5000000), wk =   0.0013021
        k(   36) = (   0.0000000   0.2916667   0.0000000), wk =   0.0013021
        k(   37) = (   0.0000000   0.2916667   0.1250000), wk =   0.0013021
        k(   38) = (   0.0000000   0.2916667   0.2500000), wk =   0.0013021
        k(   39) = (   0.0000000   0.2916667   0.3750000), wk =   0.0013021
        k(   40) = (   0.0000000   0.2916667  -0.5000000), wk =   0.0013021
        k(   41) = (   0.0000000   0.3333333   0.0000000), wk =   0.0013021
        k(   42) = (   0.0000000   0.3333333   0.1250000), wk =   0.0013021
        k(   43) = (   0.0000000   0.3333333   0.2500000), wk =   0.0013021
        k(   44) = (   0.0000000   0.3333333   0.3750000), wk =   0.0013021
        k(   45) = (   0.0000000   0.3333333  -0.5000000), wk =   0.0013021
        k(   46) = (   0.0000000   0.3750000   0.0000000), wk =   0.0013021
        k(   47) = (   0.0000000   0.3750000   0.1250000), wk =   0.0013021
        k(   48) = (   0.0000000   0.3750000   0.2500000), wk =   0.0013021
        k(   49) = (   0.0000000   0.3750000   0.3750000), wk =   0.0013021
        k(   50) = (   0.0000000   0.3750000  -0.5000000), wk =   0.0013021
        k(   51) = (   0.0000000   0.4166667   0.0000000), wk =   0.0013021
        k(   52) = (   0.0000000   0.4166667   0.1250000), wk =   0.0013021
        k(   53) = (   0.0000000   0.4166667   0.2500000), wk =   0.0013021
        k(   54) = (   0.0000000   0.4166667   0.3750000), wk =   0.0013021
        k(   55) = (   0.0000000   0.4166667  -0.5000000), wk =   0.0013021
        k(   56) = (   0.0000000   0.4583333   0.0000000), wk =   0.0013021
        k(   57) = (   0.0000000   0.4583333   0.1250000), wk =   0.0013021
        k(   58) = (   0.0000000   0.4583333   0.2500000), wk =   0.0013021
        k(   59) = (   0.0000000   0.4583333   0.3750000), wk =   0.0013021
        k(   60) = (   0.0000000   0.4583333  -0.5000000), wk =   0.0013021
        k(   61) = (   0.0000000  -0.5000000   0.0000000), wk =   0.0006510
        k(   62) = (   0.0000000  -0.5000000   0.1250000), wk =   0.0013021
        k(   63) = (   0.0000000  -0.5000000   0.2500000), wk =   0.0013021
        k(   64) = (   0.0000000  -0.5000000   0.3750000), wk =   0.0013021
        k(   65) = (   0.0000000  -0.5000000  -0.5000000), wk =   0.0006510
        k(   66) = (   0.0416667   0.0416667   0.0000000), wk =   0.0013021
        k(   67) = (   0.0416667   0.0416667   0.1250000), wk =   0.0026042
        k(   68) = (   0.0416667   0.0416667   0.2500000), wk =   0.0026042
        k(   69) = (   0.0416667   0.0416667   0.3750000), wk =   0.0026042
        k(   70) = (   0.0416667   0.0416667  -0.5000000), wk =   0.0013021
        k(   71) = (   0.0416667   0.0833333   0.0000000), wk =   0.0026042
        k(   72) = (   0.0416667   0.0833333   0.1250000), wk =   0.0026042
        k(   73) = (   0.0416667   0.0833333   0.2500000), wk =   0.0026042
        k(   74) = (   0.0416667   0.0833333   0.3750000), wk =   0.0026042
        k(   75) = (   0.0416667   0.0833333  -0.5000000), wk =   0.0026042
        k(   76) = (   0.0416667   0.1250000   0.0000000), wk =   0.0026042
        k(   77) = (   0.0416667   0.1250000   0.1250000), wk =   0.0026042
        k(   78) = (   0.0416667   0.1250000   0.2500000), wk =   0.0026042
        k(   79) = (   0.0416667   0.1250000   0.3750000), wk =   0.0026042
        k(   80) = (   0.0416667   0.1250000  -0.5000000), wk =   0.0026042
        k(   81) = (   0.0416667   0.1666667   0.0000000), wk =   0.0026042
        k(   82) = (   0.0416667   0.1666667   0.1250000), wk =   0.0026042
        k(   83) = (   0.0416667   0.1666667   0.2500000), wk =   0.0026042
        k(   84) = (   0.0416667   0.1666667   0.3750000), wk =   0.0026042
        k(   85) = (   0.0416667   0.1666667  -0.5000000), wk =   0.0026042
        k(   86) = (   0.0416667   0.2083333   0.0000000), wk =   0.0026042
        k(   87) = (   0.0416667   0.2083333   0.1250000), wk =   0.0026042
        k(   88) = (   0.0416667   0.2083333   0.2500000), wk =   0.0026042
        k(   89) = (   0.0416667   0.2083333   0.3750000), wk =   0.0026042
        k(   90) = (   0.0416667   0.2083333  -0.5000000), wk =   0.0026042
        k(   91) = (   0.0416667   0.2500000   0.0000000), wk =   0.0026042
        k(   92) = (   0.0416667   0.2500000   0.1250000), wk =   0.0026042
        k(   93) = (   0.0416667   0.2500000   0.2500000), wk =   0.0026042
        k(   94) = (   0.0416667   0.2500000   0.3750000), wk =   0.0026042
        k(   95) = (   0.0416667   0.2500000  -0.5000000), wk =   0.0026042
        k(   96) = (   0.0416667   0.2916667   0.0000000), wk =   0.0026042
        k(   97) = (   0.0416667   0.2916667   0.1250000), wk =   0.0026042
        k(   98) = (   0.0416667   0.2916667   0.2500000), wk =   0.0026042
        k(   99) = (   0.0416667   0.2916667   0.3750000), wk =   0.0026042
        k(  100) = (   0.0416667   0.2916667  -0.5000000), wk =   0.0026042
        k(  101) = (   0.0416667   0.3333333   0.0000000), wk =   0.0026042
        k(  102) = (   0.0416667   0.3333333   0.1250000), wk =   0.0026042
        k(  103) = (   0.0416667   0.3333333   0.2500000), wk =   0.0026042
        k(  104) = (   0.0416667   0.3333333   0.3750000), wk =   0.0026042
        k(  105) = (   0.0416667   0.3333333  -0.5000000), wk =   0.0026042
        k(  106) = (   0.0416667   0.3750000   0.0000000), wk =   0.0026042
        k(  107) = (   0.0416667   0.3750000   0.1250000), wk =   0.0026042
        k(  108) = (   0.0416667   0.3750000   0.2500000), wk =   0.0026042
        k(  109) = (   0.0416667   0.3750000   0.3750000), wk =   0.0026042
        k(  110) = (   0.0416667   0.3750000  -0.5000000), wk =   0.0026042
        k(  111) = (   0.0416667   0.4166667   0.0000000), wk =   0.0026042
        k(  112) = (   0.0416667   0.4166667   0.1250000), wk =   0.0026042
        k(  113) = (   0.0416667   0.4166667   0.2500000), wk =   0.0026042
        k(  114) = (   0.0416667   0.4166667   0.3750000), wk =   0.0026042
        k(  115) = (   0.0416667   0.4166667  -0.5000000), wk =   0.0026042
        k(  116) = (   0.0416667   0.4583333   0.0000000), wk =   0.0026042
        k(  117) = (   0.0416667   0.4583333   0.1250000), wk =   0.0026042
        k(  118) = (   0.0416667   0.4583333   0.2500000), wk =   0.0026042
        k(  119) = (   0.0416667   0.4583333   0.3750000), wk =   0.0026042
        k(  120) = (   0.0416667   0.4583333  -0.5000000), wk =   0.0026042
        k(  121) = (   0.0833333   0.0833333   0.0000000), wk =   0.0013021
        k(  122) = (   0.0833333   0.0833333   0.1250000), wk =   0.0026042
        k(  123) = (   0.0833333   0.0833333   0.2500000), wk =   0.0026042
        k(  124) = (   0.0833333   0.0833333   0.3750000), wk =   0.0026042
        k(  125) = (   0.0833333   0.0833333  -0.5000000), wk =   0.0013021
        k(  126) = (   0.0833333   0.1250000   0.0000000), wk =   0.0026042
        k(  127) = (   0.0833333   0.1250000   0.1250000), wk =   0.0026042
        k(  128) = (   0.0833333   0.1250000   0.2500000), wk =   0.0026042
        k(  129) = (   0.0833333   0.1250000   0.3750000), wk =   0.0026042
        k(  130) = (   0.0833333   0.1250000  -0.5000000), wk =   0.0026042
        k(  131) = (   0.0833333   0.1666667   0.0000000), wk =   0.0026042
        k(  132) = (   0.0833333   0.1666667   0.1250000), wk =   0.0026042
        k(  133) = (   0.0833333   0.1666667   0.2500000), wk =   0.0026042
        k(  134) = (   0.0833333   0.1666667   0.3750000), wk =   0.0026042
        k(  135) = (   0.0833333   0.1666667  -0.5000000), wk =   0.0026042
        k(  136) = (   0.0833333   0.2083333   0.0000000), wk =   0.0026042
        k(  137) = (   0.0833333   0.2083333   0.1250000), wk =   0.0026042
        k(  138) = (   0.0833333   0.2083333   0.2500000), wk =   0.0026042
        k(  139) = (   0.0833333   0.2083333   0.3750000), wk =   0.0026042
        k(  140) = (   0.0833333   0.2083333  -0.5000000), wk =   0.0026042
        k(  141) = (   0.0833333   0.2500000   0.0000000), wk =   0.0026042
        k(  142) = (   0.0833333   0.2500000   0.1250000), wk =   0.0026042
        k(  143) = (   0.0833333   0.2500000   0.2500000), wk =   0.0026042
        k(  144) = (   0.0833333   0.2500000   0.3750000), wk =   0.0026042
        k(  145) = (   0.0833333   0.2500000  -0.5000000), wk =   0.0026042
        k(  146) = (   0.0833333   0.2916667   0.0000000), wk =   0.0026042
        k(  147) = (   0.0833333   0.2916667   0.1250000), wk =   0.0026042
        k(  148) = (   0.0833333   0.2916667   0.2500000), wk =   0.0026042
        k(  149) = (   0.0833333   0.2916667   0.3750000), wk =   0.0026042
        k(  150) = (   0.0833333   0.2916667  -0.5000000), wk =   0.0026042
        k(  151) = (   0.0833333   0.3333333   0.0000000), wk =   0.0026042
        k(  152) = (   0.0833333   0.3333333   0.1250000), wk =   0.0026042
        k(  153) = (   0.0833333   0.3333333   0.2500000), wk =   0.0026042
        k(  154) = (   0.0833333   0.3333333   0.3750000), wk =   0.0026042
        k(  155) = (   0.0833333   0.3333333  -0.5000000), wk =   0.0026042
        k(  156) = (   0.0833333   0.3750000   0.0000000), wk =   0.0026042
        k(  157) = (   0.0833333   0.3750000   0.1250000), wk =   0.0026042
        k(  158) = (   0.0833333   0.3750000   0.2500000), wk =   0.0026042
        k(  159) = (   0.0833333   0.3750000   0.3750000), wk =   0.0026042
        k(  160) = (   0.0833333   0.3750000  -0.5000000), wk =   0.0026042
        k(  161) = (   0.0833333   0.4166667   0.0000000), wk =   0.0026042
        k(  162) = (   0.0833333   0.4166667   0.1250000), wk =   0.0026042
        k(  163) = (   0.0833333   0.4166667   0.2500000), wk =   0.0026042
        k(  164) = (   0.0833333   0.4166667   0.3750000), wk =   0.0026042
        k(  165) = (   0.0833333   0.4166667  -0.5000000), wk =   0.0026042
        k(  166) = (   0.0833333   0.4583333   0.0000000), wk =   0.0013021
        k(  167) = (   0.0833333   0.4583333   0.1250000), wk =   0.0026042
        k(  168) = (   0.0833333   0.4583333   0.2500000), wk =   0.0026042
        k(  169) = (   0.0833333   0.4583333   0.3750000), wk =   0.0026042
        k(  170) = (   0.0833333   0.4583333  -0.5000000), wk =   0.0013021
        k(  171) = (   0.1250000   0.1250000   0.0000000), wk =   0.0013021
        k(  172) = (   0.1250000   0.1250000   0.1250000), wk =   0.0026042
        k(  173) = (   0.1250000   0.1250000   0.2500000), wk =   0.0026042
        k(  174) = (   0.1250000   0.1250000   0.3750000), wk =   0.0026042
        k(  175) = (   0.1250000   0.1250000  -0.5000000), wk =   0.0013021
        k(  176) = (   0.1250000   0.1666667   0.0000000), wk =   0.0026042
        k(  177) = (   0.1250000   0.1666667   0.1250000), wk =   0.0026042
        k(  178) = (   0.1250000   0.1666667   0.2500000), wk =   0.0026042
        k(  179) = (   0.1250000   0.1666667   0.3750000), wk =   0.0026042
        k(  180) = (   0.1250000   0.1666667  -0.5000000), wk =   0.0026042
        k(  181) = (   0.1250000   0.2083333   0.0000000), wk =   0.0026042
        k(  182) = (   0.1250000   0.2083333   0.1250000), wk =   0.0026042
        k(  183) = (   0.1250000   0.2083333   0.2500000), wk =   0.0026042
        k(  184) = (   0.1250000   0.2083333   0.3750000), wk =   0.0026042
        k(  185) = (   0.1250000   0.2083333  -0.5000000), wk =   0.0026042
        k(  186) = (   0.1250000   0.2500000   0.0000000), wk =   0.0026042
        k(  187) = (   0.1250000   0.2500000   0.1250000), wk =   0.0026042
        k(  188) = (   0.1250000   0.2500000   0.2500000), wk =   0.0026042
        k(  189) = (   0.1250000   0.2500000   0.3750000), wk =   0.0026042
        k(  190) = (   0.1250000   0.2500000  -0.5000000), wk =   0.0026042
        k(  191) = (   0.1250000   0.2916667   0.0000000), wk =   0.0026042
        k(  192) = (   0.1250000   0.2916667   0.1250000), wk =   0.0026042
        k(  193) = (   0.1250000   0.2916667   0.2500000), wk =   0.0026042
        k(  194) = (   0.1250000   0.2916667   0.3750000), wk =   0.0026042
        k(  195) = (   0.1250000   0.2916667  -0.5000000), wk =   0.0026042
        k(  196) = (   0.1250000   0.3333333   0.0000000), wk =   0.0026042
        k(  197) = (   0.1250000   0.3333333   0.1250000), wk =   0.0026042
        k(  198) = (   0.1250000   0.3333333   0.2500000), wk =   0.0026042
        k(  199) = (   0.1250000   0.3333333   0.3750000), wk =   0.0026042
        k(  200) = (   0.1250000   0.3333333  -0.5000000), wk =   0.0026042
        k(  201) = (   0.1250000   0.3750000   0.0000000), wk =   0.0026042
        k(  202) = (   0.1250000   0.3750000   0.1250000), wk =   0.0026042
        k(  203) = (   0.1250000   0.3750000   0.2500000), wk =   0.0026042
        k(  204) = (   0.1250000   0.3750000   0.3750000), wk =   0.0026042
        k(  205) = (   0.1250000   0.3750000  -0.5000000), wk =   0.0026042
        k(  206) = (   0.1250000   0.4166667   0.0000000), wk =   0.0026042
        k(  207) = (   0.1250000   0.4166667   0.1250000), wk =   0.0026042
        k(  208) = (   0.1250000   0.4166667   0.2500000), wk =   0.0026042
        k(  209) = (   0.1250000   0.4166667   0.3750000), wk =   0.0026042
        k(  210) = (   0.1250000   0.4166667  -0.5000000), wk =   0.0026042
        k(  211) = (   0.1666667   0.1666667   0.0000000), wk =   0.0013021
        k(  212) = (   0.1666667   0.1666667   0.1250000), wk =   0.0026042
        k(  213) = (   0.1666667   0.1666667   0.2500000), wk =   0.0026042
        k(  214) = (   0.1666667   0.1666667   0.3750000), wk =   0.0026042
        k(  215) = (   0.1666667   0.1666667  -0.5000000), wk =   0.0013021
        k(  216) = (   0.1666667   0.2083333   0.0000000), wk =   0.0026042
        k(  217) = (   0.1666667   0.2083333   0.1250000), wk =   0.0026042
        k(  218) = (   0.1666667   0.2083333   0.2500000), wk =   0.0026042
        k(  219) = (   0.1666667   0.2083333   0.3750000), wk =   0.0026042
        k(  220) = (   0.1666667   0.2083333  -0.5000000), wk =   0.0026042
        k(  221) = (   0.1666667   0.2500000   0.0000000), wk =   0.0026042
        k(  222) = (   0.1666667   0.2500000   0.1250000), wk =   0.0026042
        k(  223) = (   0.1666667   0.2500000   0.2500000), wk =   0.0026042
        k(  224) = (   0.1666667   0.2500000   0.3750000), wk =   0.0026042
        k(  225) = (   0.1666667   0.2500000  -0.5000000), wk =   0.0026042
        k(  226) = (   0.1666667   0.2916667   0.0000000), wk =   0.0026042
        k(  227) = (   0.1666667   0.2916667   0.1250000), wk =   0.0026042
        k(  228) = (   0.1666667   0.2916667   0.2500000), wk =   0.0026042
        k(  229) = (   0.1666667   0.2916667   0.3750000), wk =   0.0026042
        k(  230) = (   0.1666667   0.2916667  -0.5000000), wk =   0.0026042
        k(  231) = (   0.1666667   0.3333333   0.0000000), wk =   0.0026042
        k(  232) = (   0.1666667   0.3333333   0.1250000), wk =   0.0026042
        k(  233) = (   0.1666667   0.3333333   0.2500000), wk =   0.0026042
        k(  234) = (   0.1666667   0.3333333   0.3750000), wk =   0.0026042
        k(  235) = (   0.1666667   0.3333333  -0.5000000), wk =   0.0026042
        k(  236) = (   0.1666667   0.3750000   0.0000000), wk =   0.0026042
        k(  237) = (   0.1666667   0.3750000   0.1250000), wk =   0.0026042
        k(  238) = (   0.1666667   0.3750000   0.2500000), wk =   0.0026042
        k(  239) = (   0.1666667   0.3750000   0.3750000), wk =   0.0026042
        k(  240) = (   0.1666667   0.3750000  -0.5000000), wk =   0.0026042
        k(  241) = (   0.1666667   0.4166667   0.0000000), wk =   0.0013021
        k(  242) = (   0.1666667   0.4166667   0.1250000), wk =   0.0026042
        k(  243) = (   0.1666667   0.4166667   0.2500000), wk =   0.0026042
        k(  244) = (   0.1666667   0.4166667   0.3750000), wk =   0.0026042
        k(  245) = (   0.1666667   0.4166667  -0.5000000), wk =   0.0013021
        k(  246) = (   0.2083333   0.2083333   0.0000000), wk =   0.0013021
        k(  247) = (   0.2083333   0.2083333   0.1250000), wk =   0.0026042
        k(  248) = (   0.2083333   0.2083333   0.2500000), wk =   0.0026042
        k(  249) = (   0.2083333   0.2083333   0.3750000), wk =   0.0026042
        k(  250) = (   0.2083333   0.2083333  -0.5000000), wk =   0.0013021
        k(  251) = (   0.2083333   0.2500000   0.0000000), wk =   0.0026042
        k(  252) = (   0.2083333   0.2500000   0.1250000), wk =   0.0026042
        k(  253) = (   0.2083333   0.2500000   0.2500000), wk =   0.0026042
        k(  254) = (   0.2083333   0.2500000   0.3750000), wk =   0.0026042
        k(  255) = (   0.2083333   0.2500000  -0.5000000), wk =   0.0026042
        k(  256) = (   0.2083333   0.2916667   0.0000000), wk =   0.0026042
        k(  257) = (   0.2083333   0.2916667   0.1250000), wk =   0.0026042
        k(  258) = (   0.2083333   0.2916667   0.2500000), wk =   0.0026042
        k(  259) = (   0.2083333   0.2916667   0.3750000), wk =   0.0026042
        k(  260) = (   0.2083333   0.2916667  -0.5000000), wk =   0.0026042
        k(  261) = (   0.2083333   0.3333333   0.0000000), wk =   0.0026042
        k(  262) = (   0.2083333   0.3333333   0.1250000), wk =   0.0026042
        k(  263) = (   0.2083333   0.3333333   0.2500000), wk =   0.0026042
        k(  264) = (   0.2083333   0.3333333   0.3750000), wk =   0.0026042
        k(  265) = (   0.2083333   0.3333333  -0.5000000), wk =   0.0026042
        k(  266) = (   0.2083333   0.3750000   0.0000000), wk =   0.0026042
        k(  267) = (   0.2083333   0.3750000   0.1250000), wk =   0.0026042
        k(  268) = (   0.2083333   0.3750000   0.2500000), wk =   0.0026042
        k(  269) = (   0.2083333   0.3750000   0.3750000), wk =   0.0026042
        k(  270) = (   0.2083333   0.3750000  -0.5000000), wk =   0.0026042
        k(  271) = (   0.2500000   0.2500000   0.0000000), wk =   0.0013021
        k(  272) = (   0.2500000   0.2500000   0.1250000), wk =   0.0026042
        k(  273) = (   0.2500000   0.2500000   0.2500000), wk =   0.0026042
        k(  274) = (   0.2500000   0.2500000   0.3750000), wk =   0.0026042
        k(  275) = (   0.2500000   0.2500000  -0.5000000), wk =   0.0013021
        k(  276) = (   0.2500000   0.2916667   0.0000000), wk =   0.0026042
        k(  277) = (   0.2500000   0.2916667   0.1250000), wk =   0.0026042
        k(  278) = (   0.2500000   0.2916667   0.2500000), wk =   0.0026042
        k(  279) = (   0.2500000   0.2916667   0.3750000), wk =   0.0026042
        k(  280) = (   0.2500000   0.2916667  -0.5000000), wk =   0.0026042
        k(  281) = (   0.2500000   0.3333333   0.0000000), wk =   0.0026042
        k(  282) = (   0.2500000   0.3333333   0.1250000), wk =   0.0026042
        k(  283) = (   0.2500000   0.3333333   0.2500000), wk =   0.0026042
        k(  284) = (   0.2500000   0.3333333   0.3750000), wk =   0.0026042
        k(  285) = (   0.2500000   0.3333333  -0.5000000), wk =   0.0026042
        k(  286) = (   0.2500000   0.3750000   0.0000000), wk =   0.0013021
        k(  287) = (   0.2500000   0.3750000   0.1250000), wk =   0.0026042
        k(  288) = (   0.2500000   0.3750000   0.2500000), wk =   0.0026042
        k(  289) = (   0.2500000   0.3750000   0.3750000), wk =   0.0026042
        k(  290) = (   0.2500000   0.3750000  -0.5000000), wk =   0.0013021
        k(  291) = (   0.2916667   0.2916667   0.0000000), wk =   0.0013021
        k(  292) = (   0.2916667   0.2916667   0.1250000), wk =   0.0026042
        k(  293) = (   0.2916667   0.2916667   0.2500000), wk =   0.0026042
        k(  294) = (   0.2916667   0.2916667   0.3750000), wk =   0.0026042
        k(  295) = (   0.2916667   0.2916667  -0.5000000), wk =   0.0013021
        k(  296) = (   0.2916667   0.3333333   0.0000000), wk =   0.0026042
        k(  297) = (   0.2916667   0.3333333   0.1250000), wk =   0.0026042
        k(  298) = (   0.2916667   0.3333333   0.2500000), wk =   0.0026042
        k(  299) = (   0.2916667   0.3333333   0.3750000), wk =   0.0026042
        k(  300) = (   0.2916667   0.3333333  -0.5000000), wk =   0.0026042
        k(  301) = (   0.3333333   0.3333333   0.0000000), wk =   0.0004340
        k(  302) = (   0.3333333   0.3333333   0.1250000), wk =   0.0008681
        k(  303) = (   0.3333333   0.3333333   0.2500000), wk =   0.0008681
        k(  304) = (   0.3333333   0.3333333   0.3750000), wk =   0.0008681
        k(  305) = (   0.3333333   0.3333333  -0.5000000), wk =   0.0004340
        k(  306) = (   0.0000000  -0.0416667   0.1250000), wk =   0.0013021
        k(  307) = (   0.0000000  -0.0416667   0.2500000), wk =   0.0013021
        k(  308) = (   0.0000000  -0.0416667   0.3750000), wk =   0.0013021
        k(  309) = (   0.0000000  -0.0833333   0.1250000), wk =   0.0013021
        k(  310) = (   0.0000000  -0.0833333   0.2500000), wk =   0.0013021
        k(  311) = (   0.0000000  -0.0833333   0.3750000), wk =   0.0013021
        k(  312) = (   0.0000000  -0.1250000   0.1250000), wk =   0.0013021
        k(  313) = (   0.0000000  -0.1250000   0.2500000), wk =   0.0013021
        k(  314) = (   0.0000000  -0.1250000   0.3750000), wk =   0.0013021
        k(  315) = (   0.0000000  -0.1666667   0.1250000), wk =   0.0013021
        k(  316) = (   0.0000000  -0.1666667   0.2500000), wk =   0.0013021
        k(  317) = (   0.0000000  -0.1666667   0.3750000), wk =   0.0013021
        k(  318) = (   0.0000000  -0.2083333   0.1250000), wk =   0.0013021
        k(  319) = (   0.0000000  -0.2083333   0.2500000), wk =   0.0013021
        k(  320) = (   0.0000000  -0.2083333   0.3750000), wk =   0.0013021
        k(  321) = (   0.0000000  -0.2500000   0.1250000), wk =   0.0013021
        k(  322) = (   0.0000000  -0.2500000   0.2500000), wk =   0.0013021
        k(  323) = (   0.0000000  -0.2500000   0.3750000), wk =   0.0013021
        k(  324) = (   0.0000000  -0.2916667   0.1250000), wk =   0.0013021
        k(  325) = (   0.0000000  -0.2916667   0.2500000), wk =   0.0013021
        k(  326) = (   0.0000000  -0.2916667   0.3750000), wk =   0.0013021
        k(  327) = (   0.0000000  -0.3333333   0.1250000), wk =   0.0013021
        k(  328) = (   0.0000000  -0.3333333   0.2500000), wk =   0.0013021
        k(  329) = (   0.0000000  -0.3333333   0.3750000), wk =   0.0013021
        k(  330) = (   0.0000000  -0.3750000   0.1250000), wk =   0.0013021
        k(  331) = (   0.0000000  -0.3750000   0.2500000), wk =   0.0013021
        k(  332) = (   0.0000000  -0.3750000   0.3750000), wk =   0.0013021
        k(  333) = (   0.0000000  -0.4166667   0.1250000), wk =   0.0013021
        k(  334) = (   0.0000000  -0.4166667   0.2500000), wk =   0.0013021
        k(  335) = (   0.0000000  -0.4166667   0.3750000), wk =   0.0013021
        k(  336) = (   0.0000000  -0.4583333   0.1250000), wk =   0.0013021
        k(  337) = (   0.0000000  -0.4583333   0.2500000), wk =   0.0013021
        k(  338) = (   0.0000000  -0.4583333   0.3750000), wk =   0.0013021
        k(  339) = (  -0.0416667  -0.0833333   0.1250000), wk =   0.0026042
        k(  340) = (  -0.0416667  -0.0833333   0.2500000), wk =   0.0026042
        k(  341) = (  -0.0416667  -0.0833333   0.3750000), wk =   0.0026042
        k(  342) = (  -0.0416667  -0.1250000   0.1250000), wk =   0.0026042
        k(  343) = (  -0.0416667  -0.1250000   0.2500000), wk =   0.0026042
        k(  344) = (  -0.0416667  -0.1250000   0.3750000), wk =   0.0026042
        k(  345) = (  -0.0416667  -0.1666667   0.1250000), wk =   0.0026042
        k(  346) = (  -0.0416667  -0.1666667   0.2500000), wk =   0.0026042
        k(  347) = (  -0.0416667  -0.1666667   0.3750000), wk =   0.0026042
        k(  348) = (  -0.0416667  -0.2083333   0.1250000), wk =   0.0026042
        k(  349) = (  -0.0416667  -0.2083333   0.2500000), wk =   0.0026042
        k(  350) = (  -0.0416667  -0.2083333   0.3750000), wk =   0.0026042
        k(  351) = (  -0.0416667  -0.2500000   0.1250000), wk =   0.0026042
        k(  352) = (  -0.0416667  -0.2500000   0.2500000), wk =   0.0026042
        k(  353) = (  -0.0416667  -0.2500000   0.3750000), wk =   0.0026042
        k(  354) = (  -0.0416667  -0.2916667   0.1250000), wk =   0.0026042
        k(  355) = (  -0.0416667  -0.2916667   0.2500000), wk =   0.0026042
        k(  356) = (  -0.0416667  -0.2916667   0.3750000), wk =   0.0026042
        k(  357) = (  -0.0416667  -0.3333333   0.1250000), wk =   0.0026042
        k(  358) = (  -0.0416667  -0.3333333   0.2500000), wk =   0.0026042
        k(  359) = (  -0.0416667  -0.3333333   0.3750000), wk =   0.0026042
        k(  360) = (  -0.0416667  -0.3750000   0.1250000), wk =   0.0026042
        k(  361) = (  -0.0416667  -0.3750000   0.2500000), wk =   0.0026042
        k(  362) = (  -0.0416667  -0.3750000   0.3750000), wk =   0.0026042
        k(  363) = (  -0.0416667  -0.4166667   0.1250000), wk =   0.0026042
        k(  364) = (  -0.0416667  -0.4166667   0.2500000), wk =   0.0026042
        k(  365) = (  -0.0416667  -0.4166667   0.3750000), wk =   0.0026042
        k(  366) = (  -0.0416667  -0.4583333   0.1250000), wk =   0.0026042
        k(  367) = (  -0.0416667  -0.4583333   0.2500000), wk =   0.0026042
        k(  368) = (  -0.0416667  -0.4583333   0.3750000), wk =   0.0026042
        k(  369) = (  -0.0833333  -0.1250000   0.1250000), wk =   0.0026042
        k(  370) = (  -0.0833333  -0.1250000   0.2500000), wk =   0.0026042
        k(  371) = (  -0.0833333  -0.1250000   0.3750000), wk =   0.0026042
        k(  372) = (  -0.0833333  -0.1666667   0.1250000), wk =   0.0026042
        k(  373) = (  -0.0833333  -0.1666667   0.2500000), wk =   0.0026042
        k(  374) = (  -0.0833333  -0.1666667   0.3750000), wk =   0.0026042
        k(  375) = (  -0.0833333  -0.2083333   0.1250000), wk =   0.0026042
        k(  376) = (  -0.0833333  -0.2083333   0.2500000), wk =   0.0026042
        k(  377) = (  -0.0833333  -0.2083333   0.3750000), wk =   0.0026042
        k(  378) = (  -0.0833333  -0.2500000   0.1250000), wk =   0.0026042
        k(  379) = (  -0.0833333  -0.2500000   0.2500000), wk =   0.0026042
        k(  380) = (  -0.0833333  -0.2500000   0.3750000), wk =   0.0026042
        k(  381) = (  -0.0833333  -0.2916667   0.1250000), wk =   0.0026042
        k(  382) = (  -0.0833333  -0.2916667   0.2500000), wk =   0.0026042
        k(  383) = (  -0.0833333  -0.2916667   0.3750000), wk =   0.0026042
        k(  384) = (  -0.0833333  -0.3333333   0.1250000), wk =   0.0026042
        k(  385) = (  -0.0833333  -0.3333333   0.2500000), wk =   0.0026042
        k(  386) = (  -0.0833333  -0.3333333   0.3750000), wk =   0.0026042
        k(  387) = (  -0.0833333  -0.3750000   0.1250000), wk =   0.0026042
        k(  388) = (  -0.0833333  -0.3750000   0.2500000), wk =   0.0026042
        k(  389) = (  -0.0833333  -0.3750000   0.3750000), wk =   0.0026042
        k(  390) = (  -0.0833333  -0.4166667   0.1250000), wk =   0.0026042
        k(  391) = (  -0.0833333  -0.4166667   0.2500000), wk =   0.0026042
        k(  392) = (  -0.0833333  -0.4166667   0.3750000), wk =   0.0026042
        k(  393) = (  -0.1250000  -0.1666667   0.1250000), wk =   0.0026042
        k(  394) = (  -0.1250000  -0.1666667   0.2500000), wk =   0.0026042
        k(  395) = (  -0.1250000  -0.1666667   0.3750000), wk =   0.0026042
        k(  396) = (  -0.1250000  -0.2083333   0.1250000), wk =   0.0026042
        k(  397) = (  -0.1250000  -0.2083333   0.2500000), wk =   0.0026042
        k(  398) = (  -0.1250000  -0.2083333   0.3750000), wk =   0.0026042
        k(  399) = (  -0.1250000  -0.2500000   0.1250000), wk =   0.0026042
        k(  400) = (  -0.1250000  -0.2500000   0.2500000), wk =   0.0026042
        k(  401) = (  -0.1250000  -0.2500000   0.3750000), wk =   0.0026042
        k(  402) = (  -0.1250000  -0.2916667   0.1250000), wk =   0.0026042
        k(  403) = (  -0.1250000  -0.2916667   0.2500000), wk =   0.0026042
        k(  404) = (  -0.1250000  -0.2916667   0.3750000), wk =   0.0026042
        k(  405) = (  -0.1250000  -0.3333333   0.1250000), wk =   0.0026042
        k(  406) = (  -0.1250000  -0.3333333   0.2500000), wk =   0.0026042
        k(  407) = (  -0.1250000  -0.3333333   0.3750000), wk =   0.0026042
        k(  408) = (  -0.1250000  -0.3750000   0.1250000), wk =   0.0026042
        k(  409) = (  -0.1250000  -0.3750000   0.2500000), wk =   0.0026042
        k(  410) = (  -0.1250000  -0.3750000   0.3750000), wk =   0.0026042
        k(  411) = (  -0.1250000  -0.4166667   0.1250000), wk =   0.0026042
        k(  412) = (  -0.1250000  -0.4166667   0.2500000), wk =   0.0026042
        k(  413) = (  -0.1250000  -0.4166667   0.3750000), wk =   0.0026042
        k(  414) = (  -0.1666667  -0.2083333   0.1250000), wk =   0.0026042
        k(  415) = (  -0.1666667  -0.2083333   0.2500000), wk =   0.0026042
        k(  416) = (  -0.1666667  -0.2083333   0.3750000), wk =   0.0026042
        k(  417) = (  -0.1666667  -0.2500000   0.1250000), wk =   0.0026042
        k(  418) = (  -0.1666667  -0.2500000   0.2500000), wk =   0.0026042
        k(  419) = (  -0.1666667  -0.2500000   0.3750000), wk =   0.0026042
        k(  420) = (  -0.1666667  -0.2916667   0.1250000), wk =   0.0026042
        k(  421) = (  -0.1666667  -0.2916667   0.2500000), wk =   0.0026042
        k(  422) = (  -0.1666667  -0.2916667   0.3750000), wk =   0.0026042
        k(  423) = (  -0.1666667  -0.3333333   0.1250000), wk =   0.0026042
        k(  424) = (  -0.1666667  -0.3333333   0.2500000), wk =   0.0026042
        k(  425) = (  -0.1666667  -0.3333333   0.3750000), wk =   0.0026042
        k(  426) = (  -0.1666667  -0.3750000   0.1250000), wk =   0.0026042
        k(  427) = (  -0.1666667  -0.3750000   0.2500000), wk =   0.0026042
        k(  428) = (  -0.1666667  -0.3750000   0.3750000), wk =   0.0026042
        k(  429) = (  -0.2083333  -0.2500000   0.1250000), wk =   0.0026042
        k(  430) = (  -0.2083333  -0.2500000   0.2500000), wk =   0.0026042
        k(  431) = (  -0.2083333  -0.2500000   0.3750000), wk =   0.0026042
        k(  432) = (  -0.2083333  -0.2916667   0.1250000), wk =   0.0026042
        k(  433) = (  -0.2083333  -0.2916667   0.2500000), wk =   0.0026042
        k(  434) = (  -0.2083333  -0.2916667   0.3750000), wk =   0.0026042
        k(  435) = (  -0.2083333  -0.3333333   0.1250000), wk =   0.0026042
        k(  436) = (  -0.2083333  -0.3333333   0.2500000), wk =   0.0026042
        k(  437) = (  -0.2083333  -0.3333333   0.3750000), wk =   0.0026042
        k(  438) = (  -0.2083333  -0.3750000   0.1250000), wk =   0.0026042
        k(  439) = (  -0.2083333  -0.3750000   0.2500000), wk =   0.0026042
        k(  440) = (  -0.2083333  -0.3750000   0.3750000), wk =   0.0026042
        k(  441) = (  -0.2500000  -0.2916667   0.1250000), wk =   0.0026042
        k(  442) = (  -0.2500000  -0.2916667   0.2500000), wk =   0.0026042
        k(  443) = (  -0.2500000  -0.2916667   0.3750000), wk =   0.0026042
        k(  444) = (  -0.2500000  -0.3333333   0.1250000), wk =   0.0026042
        k(  445) = (  -0.2500000  -0.3333333   0.2500000), wk =   0.0026042
        k(  446) = (  -0.2500000  -0.3333333   0.3750000), wk =   0.0026042
        k(  447) = (  -0.2916667  -0.3333333   0.1250000), wk =   0.0026042
        k(  448) = (  -0.2916667  -0.3333333   0.2500000), wk =   0.0026042
        k(  449) = (  -0.2916667  -0.3333333   0.3750000), wk =   0.0026042

     Dense  grid:    69237 G-vectors     FFT dimensions: (  40,  40, 120)

     Smooth grid:    24541 G-vectors     FFT dimensions: (  27,  27,  80)

     Dynamical RAM for                 wfc:       1.12 MB

     Dynamical RAM for     wfc (w. buffer):       1.12 MB

     Dynamical RAM for           str. fact:       3.17 MB

     Dynamical RAM for           local pot:       0.00 MB

     Dynamical RAM for          nlocal pot:       1.96 MB

     Dynamical RAM for                qrad:       5.27 MB

     Dynamical RAM for          rho,v,vnew:      15.13 MB

     Dynamical RAM for           G-vectors:       4.15 MB

     Dynamical RAM for          h,s,v(r/c):       0.11 MB

     Dynamical RAM for          <psi|beta>:       0.02 MB

     Dynamical RAM for                 psi:       2.24 MB

     Dynamical RAM for                hpsi:       2.24 MB

     Dynamical RAM for                spsi:       2.24 MB

     Dynamical RAM for      wfcinit/wfcrot:       2.26 MB

     Dynamical RAM for           addusdens:     199.67 MB

     Estimated static dynamical RAM per process >      43.82 MB

     Estimated max dynamical RAM per process >     243.49 MB

     Check: negative core charge=   -0.000007
     Generating pointlists ...
     new r_m :   0.2765 (alat units)  1.4733 (a.u.) for type    1
     new r_m :   0.2765 (alat units)  1.4733 (a.u.) for type    2
     new r_m :   0.4051 (alat units)  2.1586 (a.u.) for type    3

     The potential is recalculated from file :
     ../Li_1x1_c8.4_d1.00/out/pw.save/charge-density

     Starting wfcs are   23 randomized atomic wfcs +    1 random wfcs
     Checking if some PAW data can be deallocated... 

     Band Structure Calculation
     Davidson diagonalization with overlap

     Computing kpt #:     1  of   898
     total cpu time spent up to now is        3.7 secs

     Computing kpt #:     2  of   898
     total cpu time spent up to now is        3.8 secs

     Computing kpt #:     3  of   898
     total cpu time spent up to now is        4.0 secs

     Computing kpt #:     4  of   898
     total cpu time spent up to now is        4.1 secs

     Computing kpt #:     5  of   898
     total cpu time spent up to now is        4.2 secs

     Computing kpt #:     6  of   898
     total cpu time spent up to now is        4.4 secs

     Computing kpt #:     7  of   898
     total cpu time spent up to now is        4.7 secs

     Computing kpt #:     8  of   898
[...]
     1.0000   1.0000   1.0000   1.0000   1.0000   1.0298   1.0663   0.6686
     0.0000   0.0000   0.0000   0.0000   0.0000   0.0000   0.0000   0.0000

          k =-0.1667-0.4330 0.0420 (  3048 PWs)   bands (ev):

   -90.8499 -54.1655 -54.1283 -54.0566 -43.0101 -14.1091 -13.3783  -1.7889
    -1.2153  -0.2872   0.2930   0.6539   1.9980   3.8151   3.9582   4.3500
     5.3809   6.3173   6.5532  10.3298  11.1724  14.0082  15.3811  16.3466

     occupation numbers 
     1.0000   1.0000   1.0000   1.0000   1.0000   1.0000   1.0000   1.0000
     1.0000   1.0000   1.0000   1.0000   1.0000   1.0301   1.0757   0.5231
     0.0000   0.0000   0.0000   0.0000   0.0000   0.0000   0.0000   0.0000

          k =-0.1667-0.4330 0.0839 (  3052 PWs)   bands (ev):

   -90.8499 -54.1655 -54.1284 -54.0566 -43.0101 -14.1091 -13.3783  -1.7892
    -1.2156  -0.2872   0.2949   0.6544   1.9967   3.8173   3.9582   4.3391
     5.3975   6.3063   6.5508  10.3463  11.1758  13.9674  15.3513  16.4499

     occupation numbers 
     1.0000   1.0000   1.0000   1.0000   1.0000   1.0000   1.0000   1.0000
     1.0000   1.0000   1.0000   1.0000   1.0000   1.0307   1.0757   0.5531
     0.0000   0.0000   0.0000   0.0000   0.0000   0.0000   0.0000   0.0000

          k =-0.1667-0.4330 0.1259 (  3063 PWs)   bands (ev):

   -90.8499 -54.1655 -54.1284 -54.0566 -43.0101 -14.1091 -13.3783  -1.7896
    -1.2160  -0.2872   0.2965   0.6546   1.9969   3.8181   3.9580   4.3320
     5.3985   6.3164   6.5433  10.3586  11.1645  13.9476  15.3437  16.5758

     occupation numbers 
     1.0000   1.0000   1.0000   1.0000   1.0000   1.0000   1.0000   1.0000
     1.0000   1.0000   1.0000   1.0000   1.0000   1.0309   1.0757   0.5725
     0.0000   0.0000   0.0000   0.0000   0.0000   0.0000   0.0000   0.0000

          k =-0.1667-0.4811 0.0420 (  3056 PWs)   bands (ev):

   -90.8494 -54.1696 -54.1308 -54.0558 -43.0081 -13.9901 -13.3808  -1.9627
    -1.1889  -0.2636   0.4003   0.6603   1.7909   3.7276   3.9386   4.3489
     5.7080   6.3802   6.6273   9.9919  11.3547  14.0365  14.9230  16.2528

     occupation numbers 
     1.0000   1.0000   1.0000   1.0000   1.0000   1.0000   1.0000   1.0000
     1.0000   1.0000   1.0000   1.0000   1.0000   1.0120   1.0702   0.5262
     0.0000   0.0000   0.0000   0.0000   0.0000   0.0000   0.0000   0.0000

          k =-0.1667-0.4811 0.0839 (  3055 PWs)   bands (ev):

   -90.8494 -54.1696 -54.1308 -54.0558 -43.0081 -13.9901 -13.3808  -1.9629
    -1.1890  -0.2637   0.4012   0.6610   1.7909   3.7280   3.9392   4.3430
     5.7224   6.3721   6.6195   9.9880  11.3863  14.0027  14.9039  16.2901

     occupation numbers 
     1.0000   1.0000   1.0000   1.0000   1.0000   1.0000   1.0000   1.0000
     1.0000   1.0000   1.0000   1.0000   1.0000   1.0120   1.0704   0.5422
     0.0000   0.0000   0.0000   0.0000   0.0000   0.0000   0.0000   0.0000

          k =-0.1667-0.4811 0.1259 (  3065 PWs)   bands (ev):

   -90.8494 -54.1696 -54.1309 -54.0558 -43.0081 -13.9902 -13.3808  -1.9632
    -1.1893  -0.2638   0.4019   0.6611   1.7924   3.7275   3.9399   4.3391
     5.7234   6.3790   6.6104   9.9880  11.3929  13.9824  14.9103  16.3747

     occupation numbers 
     1.0000   1.0000   1.0000   1.0000   1.0000   1.0000   1.0000   1.0000
     1.0000   1.0000   1.0000   1.0000   1.0000   1.0120   1.0706   0.5531
     0.0000   0.0000   0.0000   0.0000   0.0000   0.0000   0.0000   0.0000

          k =-0.1667-0.5292 0.0420 (  3059 PWs)   bands (ev):

   -90.8491 -54.1721 -54.1324 -54.0553 -43.0069 -13.9133 -13.3828  -2.0857
    -1.1623  -0.2145   0.4127   0.7065   1.6513   3.6302   3.9669   4.3325
     5.9749   6.4011   6.7112   9.5372  11.8439  14.0340  14.2338  16.5998

     occupation numbers 
     1.0000   1.0000   1.0000   1.0000   1.0000   1.0000   1.0000   1.0000
     1.0000   1.0000   1.0000   1.0000   1.0000   1.0032   1.0778   0.5713
     0.0000   0.0000   0.0000   0.0000   0.0000   0.0000   0.0000   0.0000

          k =-0.1667-0.5292 0.0839 (  3063 PWs)   bands (ev):

   -90.8491 -54.1721 -54.1325 -54.0553 -43.0069 -13.9133 -13.3828  -2.0859
    -1.1624  -0.2146   0.4130   0.7069   1.6526   3.6299   3.9676   4.3290
     5.9850   6.4014   6.6986   9.5274  11.8814  14.0095  14.2365  16.5685

     occupation numbers 
     1.0000   1.0000   1.0000   1.0000   1.0000   1.0000   1.0000   1.0000
     1.0000   1.0000   1.0000   1.0000   1.0000   1.0032   1.0780   0.5808
     0.0000   0.0000   0.0000   0.0000   0.0000   0.0000   0.0000   0.0000

          k =-0.1667-0.5292 0.1259 (  3053 PWs)   bands (ev):

   -90.8490 -54.1721 -54.1324 -54.0553 -43.0069 -13.9133 -13.3828  -2.0861
    -1.1625  -0.2146   0.4132   0.7067   1.6547   3.6292   3.9684   4.3264
     5.9866   6.4099   6.6868   9.5204  11.8988  13.9904  14.2610  16.6007

     occupation numbers 
     1.0000   1.0000   1.0000   1.0000   1.0000   1.0000   1.0000   1.0000
     1.0000   1.0000   1.0000   1.0000   1.0000   1.0032   1.0781   0.5883
     0.0000   0.0000   0.0000   0.0000   0.0000   0.0000   0.0000   0.0000

          k =-0.2083-0.4090 0.0420 (  3062 PWs)   bands (ev):

   -90.8499 -54.1631 -54.1305 -54.0567 -43.0102 -14.1229 -13.3723  -1.6257
    -1.2903  -0.3053   0.1975   0.6137   2.0402   3.8486   3.9725   4.3855
     5.3441   6.3127   6.4864  10.4214  11.1112  13.8304  15.4585  16.8532

     occupation numbers 
     1.0000   1.0000   1.0000   1.0000   1.0000   1.0000   1.0000   1.0000
     1.0000   1.0000   1.0000   1.0000   1.0000   1.0401   1.0790   0.4283
     0.0000   0.0000   0.0000   0.0000   0.0000   0.0000   0.0000   0.0000

          k =-0.2083-0.4090 0.0839 (  3066 PWs)   bands (ev):

   -90.8499 -54.1631 -54.1305 -54.0567 -43.0102 -14.1229 -13.3723  -1.6260
    -1.2907  -0.3053   0.1992   0.6145   2.0387   3.8512   3.9726   4.3728
     5.3628   6.3011   6.4845  10.4424  11.1042  13.8020  15.4483  16.9383

     occupation numbers 
     1.0000   1.0000   1.0000   1.0000   1.0000   1.0000   1.0000   1.0000
     1.0000   1.0000   1.0000   1.0000   1.0000   1.0409   1.0790   0.4616
     0.0000   0.0000   0.0000   0.0000   0.0000   0.0000   0.0000   0.0000

          k =-0.2083-0.4090 0.1259 (  3061 PWs)   bands (ev):

   -90.8499 -54.1631 -54.1304 -54.0566 -43.0102 -14.1229 -13.3723  -1.6263
    -1.2911  -0.3052   0.2007   0.6152   2.0378   3.8533   3.9726   4.3619
     5.3759   6.2979   6.4799  10.4618  11.0925  13.7805  15.4468  17.0271

     occupation numbers 
     1.0000   1.0000   1.0000   1.0000   1.0000   1.0000   1.0000   1.0000
     1.0000   1.0000   1.0000   1.0000   1.0000   1.0416   1.0790   0.4907
     0.0000   0.0000   0.0000   0.0000   0.0000   0.0000   0.0000   0.0000

          k =-0.2083-0.4571 0.0420 (  3066 PWs)   bands (ev):

   -90.8494 -54.1663 -54.1343 -54.0558 -43.0081 -14.0021 -13.3696  -1.7598
    -1.2753  -0.3493   0.2857   0.6590   1.8153   3.7695   3.9613   4.4008
     5.6689   6.3508   6.5780  10.1423  11.1605  13.7965  15.3848  16.4535

     occupation numbers 
     1.0000   1.0000   1.0000   1.0000   1.0000   1.0000   1.0000   1.0000
     1.0000   1.0000   1.0000   1.0000   1.0000   1.0192   1.0765   0.3897
     0.0000   0.0000   0.0000   0.0000   0.0000   0.0000   0.0000   0.0000

          k =-0.2083-0.4571 0.0839 (  3059 PWs)   bands (ev):

   -90.8494 -54.1663 -54.1342 -54.0558 -43.0081 -14.0021 -13.3696  -1.7599
    -1.2755  -0.3493   0.2865   0.6601   1.8147   3.7702   3.9620   4.3937
     5.6900   6.3380   6.5686  10.1420  11.1830  13.7737  15.3540  16.5075

     occupation numbers 
     1.0000   1.0000   1.0000   1.0000   1.0000   1.0000   1.0000   1.0000
     1.0000   1.0000   1.0000   1.0000   1.0000   1.0193   1.0766   0.4075
     0.0000   0.0000   0.0000   0.0000   0.0000   0.0000   0.0000   0.0000

          k =-0.2083-0.4571 0.1259 (  3056 PWs)   bands (ev):

   -90.8494 -54.1662 -54.1342 -54.0558 -43.0081 -14.0021 -13.3696  -1.7601
    -1.2759  -0.3493   0.2873   0.6608   1.8150   3.7705   3.9627   4.3879
     5.7036   6.3325   6.5593  10.1451  11.1913  13.7570  15.3421  16.5791

     occupation numbers 
     1.0000   1.0000   1.0000   1.0000   1.0000   1.0000   1.0000   1.0000
     1.0000   1.0000   1.0000   1.0000   1.0000   1.0194   1.0768   0.4221
     0.0000   0.0000   0.0000   0.0000   0.0000   0.0000   0.0000   0.0000

          k =-0.2083-0.5052 0.0420 (  3063 PWs)   bands (ev):

   -90.8490 -54.1684 -54.1370 -54.0552 -43.0067 -13.9161 -13.3661  -1.8811
    -1.2446  -0.3614   0.3341   0.7289   1.6263   3.6529   4.0167   4.3905
     5.9499   6.3689   6.7111   9.5426  11.6837  13.7610  14.7990  16.6382

     occupation numbers 
     1.0000   1.0000   1.0000   1.0000   1.0000   1.0000   1.0000   1.0000
     1.0000   1.0000   1.0000   1.0000   1.0000   1.0045   1.0832   0.4156
     0.0000   0.0000   0.0000   0.0000   0.0000   0.0000   0.0000   0.0000

          k =-0.2083-0.5052 0.0839 (  3060 PWs)   bands (ev):

   -90.8490 -54.1684 -54.1371 -54.0552 -43.0066 -13.9161 -13.3661  -1.8813
    -1.2448  -0.3615   0.3345   0.7297   1.6266   3.6529   4.0175   4.3864
     5.9708   6.3635   6.6928   9.5359  11.7128  13.7459  14.7975  16.6206

     occupation numbers 
     1.0000   1.0000   1.0000   1.0000   1.0000   1.0000   1.0000   1.0000
     1.0000   1.0000   1.0000   1.0000   1.0000   1.0045   1.0832   0.4260
     0.0000   0.0000   0.0000   0.0000   0.0000   0.0000   0.0000   0.0000

          k =-0.2083-0.5052 0.1259 (  3059 PWs)   bands (ev):

   -90.8490 -54.1684 -54.1370 -54.0552 -43.0066 -13.9161 -13.3661  -1.8815
    -1.2450  -0.3616   0.3349   0.7300   1.6276   3.6527   4.0183   4.3831
     5.9858   6.3624   6.6760   9.5316  11.7275  13.7343  14.8131  16.6413

     occupation numbers 
     1.0000   1.0000   1.0000   1.0000   1.0000   1.0000   1.0000   1.0000
     1.0000   1.0000   1.0000   1.0000   1.0000   1.0045   1.0832   0.4346
     0.0000   0.0000   0.0000   0.0000   0.0000   0.0000   0.0000   0.0000

          k =-0.2083-0.5533 0.0420 (  3058 PWs)   bands (ev):

   -90.8488 -54.1693 -54.1386 -54.0549 -43.0059 -13.8717 -13.3634  -1.9493
    -1.2276  -0.3521   0.3491   0.7777   1.5178   3.5848   4.0592   4.3731
     6.1206   6.3532   6.8486   9.1578  12.1130  13.7575  14.2560  16.9829

     occupation numbers 
     1.0000   1.0000   1.0000   1.0000   1.0000   1.0000   1.0000   1.0000
     1.0000   1.0000   1.0000   1.0000   1.0000   1.0016   1.0747   0.4609
     0.0000   0.0000   0.0000   0.0000   0.0000   0.0000   0.0000   0.0000

          k =-0.2083-0.5533 0.0839 (  3051 PWs)   bands (ev):

   -90.8488 -54.1693 -54.1385 -54.0548 -43.0059 -13.8717 -13.3634  -1.9494
    -1.2278  -0.3522   0.3494   0.7778   1.5189   3.5845   4.0599   4.3704
     6.1365   6.3537   6.8303   9.1483  12.1372  13.7486  14.2727  16.9139

     occupation numbers 
     1.0000   1.0000   1.0000   1.0000   1.0000   1.0000   1.0000   1.0000
     1.0000   1.0000   1.0000   1.0000   1.0000   1.0016   1.0744   0.4679
     0.0000   0.0000   0.0000   0.0000   0.0000   0.0000   0.0000   0.0000

          k =-0.2083-0.5533 0.1259 (  3053 PWs)   bands (ev):

   -90.8488 -54.1693 -54.1385 -54.0548 -43.0059 -13.8717 -13.3634  -1.9496
    -1.2279  -0.3523   0.3497   0.7777   1.5203   3.5842   4.0605   4.3680
     6.1503   6.3558   6.8123   9.1395  12.1540  13.7392  14.2991  16.8816

     occupation numbers 
     1.0000   1.0000   1.0000   1.0000   1.0000   1.0000   1.0000   1.0000
     1.0000   1.0000   1.0000   1.0000   1.0000   1.0016   1.0742   0.4744
     0.0000   0.0000   0.0000   0.0000   0.0000   0.0000   0.0000   0.0000

          k =-0.2500-0.4811 0.0420 (  3064 PWs)   bands (ev):

   -90.8490 -54.1656 -54.1403 -54.0551 -43.0065 -13.9185 -13.3566  -1.7110
    -1.3082  -0.5120   0.3106   0.7560   1.6118   3.6642   4.0454   4.4255
     5.9149   6.3554   6.7225   9.5556  11.5706  13.6304  15.2931  16.6435

     occupation numbers 
     1.0000   1.0000   1.0000   1.0000   1.0000   1.0000   1.0000   1.0000
     1.0000   1.0000   1.0000   1.0000   1.0000   1.0053   1.0791   0.3304
     0.0000   0.0000   0.0000   0.0000   0.0000   0.0000   0.0000   0.0000

          k =-0.2500-0.4811 0.0839 (  3065 PWs)   bands (ev):

   -90.8490 -54.1656 -54.1403 -54.0552 -43.0065 -13.9185 -13.3566  -1.7112
    -1.3085  -0.5121   0.3110   0.7570   1.6116   3.6643   4.0461   4.4213
     5.9384   6.3501   6.7008   9.5515  11.5923  13.6195  15.2841  16.6268

     occupation numbers 
     1.0000   1.0000   1.0000   1.0000   1.0000   1.0000   1.0000   1.0000
     1.0000   1.0000   1.0000   1.0000   1.0000   1.0053   1.0789   0.3403
     0.0000   0.0000   0.0000   0.0000   0.0000   0.0000   0.0000   0.0000

          k =-0.2500-0.4811 0.1259 (  3062 PWs)   bands (ev):

   -90.8490 -54.1656 -54.1403 -54.0551 -43.0065 -13.9184 -13.3565  -1.7113
    -1.3088  -0.5122   0.3114   0.7578   1.6117   3.6643   4.0469   4.4174
     5.9615   6.3447   6.6797   9.5484  11.6089  13.6101  15.2830  16.6196

     occupation numbers 
     1.0000   1.0000   1.0000   1.0000   1.0000   1.0000   1.0000   1.0000
     1.0000   1.0000   1.0000   1.0000   1.0000   1.0053   1.0787   0.3494
     0.0000   0.0000   0.0000   0.0000   0.0000   0.0000   0.0000   0.0000

          k =-0.2500-0.5292 0.0420 (  3054 PWs)   bands (ev):

   -90.8487 -54.1656 -54.1436 -54.0547 -43.0055 -13.8648 -13.3482  -1.7584
    -1.2817  -0.5876   0.3691   0.8344   1.4423   3.5785   4.1181   4.4079
     6.0896   6.3377   6.9662   9.0022  12.0523  13.6101  14.7671  16.6424

     occupation numbers 
     1.0000   1.0000   1.0000   1.0000   1.0000   1.0000   1.0000   1.0000
     1.0000   1.0000   1.0000   1.0000   1.0000   1.0014   1.0335   0.3722
     0.0000   0.0000   0.0000   0.0000   0.0000   0.0000   0.0000   0.0000

          k =-0.2500-0.5292 0.0839 (  3064 PWs)   bands (ev):

   -90.8487 -54.1656 -54.1436 -54.0547 -43.0055 -13.8648 -13.3482  -1.7586
    -1.2819  -0.5878   0.3694   0.8349   1.4426   3.5784   4.1185   4.4053
     6.1082   6.3379   6.9446   8.9945  12.0701  13.6048  14.7805  16.6173

     occupation numbers 
     1.0000   1.0000   1.0000   1.0000   1.0000   1.0000   1.0000   1.0000
     1.0000   1.0000   1.0000   1.0000   1.0000   1.0014   1.0330   0.3785
     0.0000   0.0000   0.0000   0.0000   0.0000   0.0000   0.0000   0.0000

          k =-0.2500-0.5292 0.1259 (  3059 PWs)   bands (ev):

   -90.8487 -54.1656 -54.1436 -54.0547 -43.0055 -13.8648 -13.3482  -1.7587
    -1.2821  -0.5878   0.3697   0.8351   1.4433   3.5783   4.1190   4.4030
     6.1262   6.3385   6.9232   8.9876  12.0824  13.6008  14.8029  16.5998

     occupation numbers 
     1.0000   1.0000   1.0000   1.0000   1.0000   1.0000   1.0000   1.0000
     1.0000   1.0000   1.0000   1.0000   1.0000   1.0014   1.0325   0.3843
     0.0000   0.0000   0.0000   0.0000   0.0000   0.0000   0.0000   0.0000

          k =-0.2917-0.5533 0.0420 (  3056 PWs)   bands (ev):

   -90.8485 -54.1614 -54.1501 -54.0544 -43.0048 -13.8357 -13.3333  -1.6293
    -1.2731  -0.8446   0.4454   0.9442   1.2574   3.5273   4.2109   4.3989
     6.1547   6.2940   7.3645   8.4484  12.3135  13.6050  14.8688  16.0102

     occupation numbers 
     1.0000   1.0000   1.0000   1.0000   1.0000   1.0000   1.0000   1.0000
     1.0000   1.0000   1.0000   1.0000   1.0000   1.0006   0.8844   0.3945
     0.0000   0.0000   0.0000   0.0000   0.0000   0.0000   0.0000   0.0000

          k =-0.2917-0.5533 0.0839 (  3054 PWs)   bands (ev):

   -90.8485 -54.1614 -54.1501 -54.0544 -43.0048 -13.8357 -13.3333  -1.6294
    -1.2732  -0.8447   0.4458   0.9445   1.2576   3.5273   4.2108   4.3974
     6.1668   6.2979   7.3472   8.4391  12.3194  13.6046  14.8926  16.0254

     occupation numbers 
     1.0000   1.0000   1.0000   1.0000   1.0000   1.0000   1.0000   1.0000
     1.0000   1.0000   1.0000   1.0000   1.0000   1.0006   0.8846   0.3981
     0.0000   0.0000   0.0000   0.0000   0.0000   0.0000   0.0000   0.0000

          k =-0.2917-0.5533 0.1259 (  3055 PWs)   bands (ev):

   -90.8485 -54.1614 -54.1501 -54.0544 -43.0048 -13.8357 -13.3333  -1.6296
    -1.2734  -0.8448   0.4461   0.9447   1.2580   3.5272   4.2107   4.3960
     6.1791   6.3018   7.3296   8.4299  12.3244  13.6038  14.9189  16.0395

     occupation numbers 
     1.0000   1.0000   1.0000   1.0000   1.0000   1.0000   1.0000   1.0000
     1.0000   1.0000   1.0000   1.0000   1.0000   1.0006   0.8848   0.4017
     0.0000   0.0000   0.0000   0.0000   0.0000   0.0000   0.0000   0.0000

     the Fermi energy is     4.3964 ev
     (compare with:     4.3913 eV, computed in scf)

     Writing all to output data dir ../Li_1x1_c8.4_d1.00/out/pw.save/ :
     XML data file, pseudopotentials, collected wavefunctions
 
     init_run     :     11.84s CPU      2.97s WALL (       1 calls)
     electrons    :    178.86s CPU    178.87s WALL (       1 calls)

     Called by init_run:
     wfcinit      :      0.00s CPU      0.00s WALL (       1 calls)
     wfcinit:atom :      0.70s CPU      0.74s WALL (     898 calls)
     wfcinit:wfcr :      2.26s CPU      2.28s WALL (     898 calls)
     potinit      :     11.11s CPU      2.22s WALL (       1 calls)
     hinit0       :      0.41s CPU      0.40s WALL (       1 calls)

     Called by electrons:
     c_bands      :    178.83s CPU    178.85s WALL (       1 calls)
     v_of_rho     :      0.02s CPU      0.04s WALL (       1 calls)
     v_h          :      0.01s CPU      0.00s WALL (       1 calls)
     v_xc         :      0.01s CPU      0.04s WALL (       1 calls)
     newd         :      0.05s CPU      0.06s WALL (       1 calls)
                                        0.06s GPU  (       1 calls)
     PAW_pot      :      4.20s CPU      0.54s WALL (       1 calls)

     Called by c_bands:
     init_us_2    :      0.31s CPU      0.36s WALL (     898 calls)
     cegterg      :    174.64s CPU    174.54s WALL (    3641 calls)

     Called by sum_band:

     Called by *egterg:
     cdiaghg      :     57.54s CPU     59.47s WALL (   65585 calls)
                                       58.65s GPU  (   65585 calls)
     cegterg:over :     14.17s CPU     14.79s WALL (   64687 calls)
     cegterg:upda :     13.49s CPU     13.54s WALL (   64687 calls)
     cegterg:last :      2.98s CPU      2.85s WALL (   33787 calls)
     h_psi        :     61.54s CPU     60.81s WALL (   69226 calls)
                                       59.94s GPU  (   69226 calls)
     s_psi        :     10.42s CPU     11.03s WALL (   69226 calls)
     g_psi        :      0.32s CPU      1.59s WALL (   64687 calls)
                                        0.78s GPU  (   64687 calls)

     Called by h_psi:
     h_psi:calbec :      1.76s CPU      3.31s WALL (   69226 calls)
                                        2.44s GPU  (   69226 calls)
     vloc_psi     :     43.09s CPU     41.39s WALL (   69226 calls)
                                       40.52s GPU  (   69226 calls)
     add_vuspsi   :      9.43s CPU     11.22s WALL (   69226 calls)
                                       10.35s GPU  (   69226 calls)

     General routines
     calbec       :      1.60s CPU      1.73s WALL (   69226 calls)
     fft          :      2.86s CPU      0.88s WALL (      23 calls)
                                        0.00s GPU  (      21 calls)
     ffts         :      4.01s CPU      0.76s WALL (       2 calls)
     fftw         :      3.58s CPU     11.52s WALL (  199258 calls)
                                        9.26s GPU  (  199258 calls)
     interpolate  :      6.88s CPU      1.63s WALL (       2 calls)
     davcio       :      1.27s CPU      0.28s WALL (    1796 calls)
 
     Parallel routines

     PAW routines
     PAW_pot      :      4.20s CPU      0.54s WALL (       1 calls)
 
     PWSCF        :   3m18.70s CPU   3m 3.11s WALL

 
   This run was terminated on:   3:31:31  12Jul2026            

=------------------------------------------------------------------------------=
   JOB DONE.
=------------------------------------------------------------------------------=
Warning: ieee_divide_by_zero is signaling
Warning: ieee_inexact is signaling
FORTRAN STOP
