
     Program PWSCF v.7.3.1 starts on 12Jul2026 at  5:37:47 

     This program is part of the open-source Quantum ESPRESSO suite
     for quantum simulation of materials; please cite
         "P. Giannozzi et al., J. Phys.:Condens. Matter 21 395502 (2009);
         "P. Giannozzi et al., J. Phys.:Condens. Matter 29 465901 (2017);
         "P. Giannozzi et al., J. Chem. Phys. 152 154105 (2020);
          URL http://www.quantum-espresso.org", 
     in publications or presentations arising from this work. More details at
     http://www.quantum-espresso.org/quote

     Parallel version (MPI & OpenMP), running on      14 processor cores
     Number of MPI processes:                 1
     Threads/MPI process:                    14

     MPI processes distributed on     1 nodes
     1343421 MiB available memory on the printing compute node when the environment starts
 
     Reading input from pw.in

     Current dimensions of program PWSCF are:
     Max number of different atomic species (ntypx) = 10
     Max number of k-points (npk) =  40000
     Max angular momentum in pseudopotentials (lmaxx) =  4
     file Co.pbe-spn-kjpaw_psl.0.3.1.UPF: wavefunction(s)  3P 3D renormalized
     file O.pbe-n-kjpaw_psl.1.0.0.UPF: wavefunction(s)  2S 2P renormalized
     file K.pbe-spn-kjpaw_psl.1.0.0.UPF: wavefunction(s)  3S renormalized
 
     Subspace diagonalization in iterative solution of the eigenvalue problem:
     a serial algorithm will be used

 
     G-vector sticks info
     --------------------
     sticks:   dense  smooth     PW     G-vecs:    dense   smooth      PW
     Sum        1003     499    151                73353    26017    4261
 
     Using Slab Decomposition
 


     bravais-lattice index     =            4
     lattice parameter (alat)  =       5.4802  a.u.
     unit-cell volume          =     412.8597 (a.u.)^3
     number of atoms/cell      =            4
     number of atomic types    =            3
     number of electrons       =        38.00
     number of Kohn-Sham states=           27
     kinetic-energy cutoff     =      60.0000  Ry
     charge density cutoff     =     480.0000  Ry
     scf convergence threshold =      1.0E-07
     mixing beta               =       0.3000
     number of iterations used =            8  local-TF  mixing
     Exchange-correlation= SLA  PW   PBX  PBC
                           (   1   4   3   4   0   0   0)

     GPU acceleration is ACTIVE.  1 visible GPUs per MPI rank
     GPU-aware MPI enabled


     GPU used by master process:

        Device Number: 0
        Device name: NVIDIA A100-SXM4-80GB
        Compute capability : 80
        Ratio of single to double precision performance  : 2
        Memory Clock Rate (KHz): 1593000
        Memory Bus Width (bits): 5120
        Peak Memory Bandwidth (GB/s): ******

     celldm(1)=   5.480206  celldm(2)=   0.000000  celldm(3)=   2.896552
     celldm(4)=   0.000000  celldm(5)=   0.000000  celldm(6)=   0.000000

     crystal axes: (cart. coord. in units of alat)
               a(1) = (   1.000000   0.000000   0.000000 )  
               a(2) = (  -0.500000   0.866025   0.000000 )  
               a(3) = (   0.000000   0.000000   2.896552 )  

     reciprocal axes: (cart. coord. in units 2 pi/alat)
               b(1) = (  1.000000  0.577350 -0.000000 )  
               b(2) = (  0.000000  1.154701  0.000000 )  
               b(3) = (  0.000000 -0.000000  0.345238 )  


     PseudoPot. # 1 for Co read from file:
     ../../pseudo/Co.pbe-spn-kjpaw_psl.0.3.1.UPF
     MD5 check sum: 3c0a43779828c046024e4f3be63f8e67
     Pseudo is Projector augmented-wave + core cor, Zval = 17.0
     Generated using &quot;atomic&quot; code by A. Dal Corso  v.6.2.2
     Shape of augmentation charge: PSQ
     Using radial grid of 1193 points,  6 beta functions with: 
                l(1) =   0
                l(2) =   0
                l(3) =   1
                l(4) =   1
                l(5) =   2
                l(6) =   2
     Q(r) pseudized with 0 coefficients 


     PseudoPot. # 2 for O  read from file:
     ../../pseudo/O.pbe-n-kjpaw_psl.1.0.0.UPF
     MD5 check sum: e99d9cef9b487d1ca56f5b95ecd0fd7a
     Pseudo is Projector augmented-wave + core cor, Zval =  6.0
     Generated using &quot;atomic&quot; code by A. Dal Corso  v.6.3
     Shape of augmentation charge: PSQ
     Using radial grid of 1095 points,  4 beta functions with: 
                l(1) =   0
                l(2) =   0
                l(3) =   1
                l(4) =   1
     Q(r) pseudized with 0 coefficients 


     PseudoPot. # 3 for K  read from file:
     ../../pseudo/K.pbe-spn-kjpaw_psl.1.0.0.UPF
     MD5 check sum: 34cc42130a09071ebe376fd42eb21491
     Pseudo is Projector augmented-wave + core cor, Zval =  9.0
     Generated using &quot;atomic&quot; code by A. Dal Corso  v.6.2.2
     Shape of augmentation charge: PSQ
     Using radial grid of 1165 points,  6 beta functions with: 
                l(1) =   0
                l(2) =   0
                l(3) =   1
                l(4) =   1
                l(5) =   2
                l(6) =   2
     Q(r) pseudized with 0 coefficients 


     atomic species   valence    mass     pseudopotential
     Co               17.00    58.93300     Co( 1.00)
     O                 6.00    15.99900     O ( 1.00)
     K                 9.00    39.09830     K ( 1.00)

     Starting magnetic structure 
     atomic species   magnetization
     Co              0.300
     O               0.000
     K               0.000

      6 Sym. Ops. (no inversion) found


                                    s                        frac. trans.

      isym =  1     identity                                     

 cryst.   s( 1) = (     1          0          0      )
                  (     0          1          0      )
                  (     0          0          1      )

 cart.    s( 1) = (  1.0000000  0.0000000  0.0000000 )
                  (  0.0000000  1.0000000  0.0000000 )
                  (  0.0000000  0.0000000  1.0000000 )


      isym =  2     120 deg rotation - cryst. axis [0,0,1]       

 cryst.   s( 2) = (     0          1          0      )
                  (    -1         -1          0      )
                  (     0          0          1      )

 cart.    s( 2) = ( -0.5000000 -0.8660254  0.0000000 )
                  (  0.8660254 -0.5000000  0.0000000 )
                  (  0.0000000  0.0000000  1.0000000 )


      isym =  3     120 deg rotation - cryst. axis [0,0,-1]      

 cryst.   s( 3) = (    -1         -1          0      )
                  (     1          0          0      )
                  (     0          0          1      )

 cart.    s( 3) = ( -0.5000000  0.8660254  0.0000000 )
                  ( -0.8660254 -0.5000000  0.0000000 )
                  (  0.0000000  0.0000000  1.0000000 )


      isym =  4     inv. 180 deg rotation - cart. axis [1,0,0]   

 cryst.   s( 4) = (    -1          0          0      )
                  (     1          1          0      )
                  (     0          0          1      )

 cart.    s( 4) = ( -1.0000000  0.0000000  0.0000000 )
                  (  0.0000000  1.0000000  0.0000000 )
                  (  0.0000000  0.0000000  1.0000000 )


      isym =  5     inv. 180 deg rotation - cryst. axis [0,1,0]  

 cryst.   s( 5) = (     1          1          0      )
                  (     0         -1          0      )
                  (     0          0          1      )

 cart.    s( 5) = (  0.5000000  0.8660254  0.0000000 )
                  (  0.8660254 -0.5000000  0.0000000 )
                  (  0.0000000  0.0000000  1.0000000 )


      isym =  6     inv. 180 deg rotation - cryst. axis [1,1,0]  

 cryst.   s( 6) = (     0         -1          0      )
                  (    -1          0          0      )
                  (     0          0          1      )

 cart.    s( 6) = (  0.5000000 -0.8660254  0.0000000 )
                  ( -0.8660254 -0.5000000  0.0000000 )
                  (  0.0000000  0.0000000  1.0000000 )


     point group C_3v (3m)  
     there are  3 classes
     the character table:

       E     2C3   3s_v 
A_1    1.00  1.00  1.00
A_2    1.00  1.00 -1.00
E      2.00 -1.00  0.00

     the symmetry operations in each class and the name of the first element:

     E        1
          identity                                               
     2C3      2    3
          120 deg rotation - cryst. axis [0,0,1]                 
     3s_v     4    5    6
          inv. 180 deg rotation - cart. axis [1,0,0]             

   Cartesian axes

     site n.     atom                  positions (alat units)
         1        Co     tau(   1) = (   0.0000000   0.0000000   0.0000000  )
         2        O      tau(   2) = (  -0.0000000   0.5773503   0.3310345  )
         3        O      tau(   3) = (   0.5000000   0.2886751   2.5655172  )
         4        K      tau(   4) = (   0.0000000   0.0000000   1.5000000  )

   Crystallographic axes

     site n.     atom                  positions (cryst. coord.)
         1        Co     tau(   1) = (  0.0000000  0.0000000  0.0000000  )
         2        O      tau(   2) = (  0.3333333  0.6666667  0.1142857  )
         3        O      tau(   3) = (  0.6666667  0.3333333  0.8857143  )
         4        K      tau(   4) = (  0.0000000  0.0000000  0.5178571  )

     number of k points=    25  Marzari-Vanderbilt smearing, width (Ry)=  0.0200
                       cart. coord. in units 2pi/alat
        k(    1) = (   0.0000000   0.0000000   0.0000000), wk =   0.0052083
        k(    2) = (   0.0000000   0.0000000   0.1150794), wk =   0.0104167
        k(    3) = (   0.0000000   0.1443376   0.0000000), wk =   0.0312500
        k(    4) = (   0.0000000   0.1443376   0.1150794), wk =   0.0312500
        k(    5) = (   0.0000000   0.2886751   0.0000000), wk =   0.0312500
        k(    6) = (   0.0000000   0.2886751   0.1150794), wk =   0.0312500
        k(    7) = (   0.0000000   0.4330127   0.0000000), wk =   0.0312500
        k(    8) = (   0.0000000   0.4330127   0.1150794), wk =   0.0312500
        k(    9) = (   0.0000000  -0.5773503   0.0000000), wk =   0.0156250
        k(   10) = (   0.0000000  -0.5773503   0.1150794), wk =   0.0312500
        k(   11) = (   0.1250000   0.2165064   0.0000000), wk =   0.0312500
        k(   12) = (   0.1250000   0.2165064   0.1150794), wk =   0.0625000
        k(   13) = (   0.1250000   0.3608439   0.0000000), wk =   0.0625000
        k(   14) = (   0.1250000   0.3608439   0.1150794), wk =   0.0625000
        k(   15) = (   0.1250000   0.5051815   0.0000000), wk =   0.0625000
        k(   16) = (   0.1250000   0.5051815   0.1150794), wk =   0.0625000
        k(   17) = (   0.2500000   0.4330127   0.0000000), wk =   0.0312500
        k(   18) = (   0.2500000   0.4330127   0.1150794), wk =   0.0625000
        k(   19) = (   0.2500000   0.5773503   0.0000000), wk =   0.0312500
        k(   20) = (   0.2500000   0.5773503   0.1150794), wk =   0.0625000
        k(   21) = (   0.0000000  -0.1443376   0.1150794), wk =   0.0312500
        k(   22) = (   0.0000000  -0.2886751   0.1150794), wk =   0.0312500
        k(   23) = (   0.0000000  -0.4330127   0.1150794), wk =   0.0312500
        k(   24) = (  -0.1250000  -0.3608439   0.1150794), wk =   0.0625000
        k(   25) = (  -0.1250000  -0.5051815   0.1150794), wk =   0.0625000

                       cryst. coord.
        k(    1) = (   0.0000000   0.0000000   0.0000000), wk =   0.0052083
        k(    2) = (   0.0000000   0.0000000   0.3333333), wk =   0.0104167
        k(    3) = (   0.0000000   0.1250000   0.0000000), wk =   0.0312500
        k(    4) = (   0.0000000   0.1250000   0.3333333), wk =   0.0312500
        k(    5) = (   0.0000000   0.2500000   0.0000000), wk =   0.0312500
        k(    6) = (   0.0000000   0.2500000   0.3333333), wk =   0.0312500
        k(    7) = (   0.0000000   0.3750000   0.0000000), wk =   0.0312500
        k(    8) = (   0.0000000   0.3750000   0.3333333), wk =   0.0312500
        k(    9) = (   0.0000000  -0.5000000   0.0000000), wk =   0.0156250
        k(   10) = (   0.0000000  -0.5000000   0.3333333), wk =   0.0312500
        k(   11) = (   0.1250000   0.1250000   0.0000000), wk =   0.0312500
        k(   12) = (   0.1250000   0.1250000   0.3333333), wk =   0.0625000
        k(   13) = (   0.1250000   0.2500000   0.0000000), wk =   0.0625000
        k(   14) = (   0.1250000   0.2500000   0.3333333), wk =   0.0625000
        k(   15) = (   0.1250000   0.3750000   0.0000000), wk =   0.0625000
        k(   16) = (   0.1250000   0.3750000   0.3333333), wk =   0.0625000
        k(   17) = (   0.2500000   0.2500000   0.0000000), wk =   0.0312500
        k(   18) = (   0.2500000   0.2500000   0.3333333), wk =   0.0625000
        k(   19) = (   0.2500000   0.3750000   0.0000000), wk =   0.0312500
        k(   20) = (   0.2500000   0.3750000   0.3333333), wk =   0.0625000
        k(   21) = (   0.0000000  -0.1250000   0.3333333), wk =   0.0312500
        k(   22) = (   0.0000000  -0.2500000   0.3333333), wk =   0.0312500
        k(   23) = (   0.0000000  -0.3750000   0.3333333), wk =   0.0312500
        k(   24) = (  -0.1250000  -0.2500000   0.3333333), wk =   0.0625000
        k(   25) = (  -0.1250000  -0.3750000   0.3333333), wk =   0.0625000

     Dense  grid:    73353 G-vectors     FFT dimensions: (  40,  40, 120)

     Smooth grid:    26017 G-vectors     FFT dimensions: (  27,  27,  80)

     Dynamical RAM for                 wfc:       1.33 MB

     Dynamical RAM for     wfc (w. buffer):      68.08 MB

     Dynamical RAM for           str. fact:       3.36 MB

     Dynamical RAM for           local pot:       0.00 MB

     Dynamical RAM for          nlocal pot:       2.57 MB

     Dynamical RAM for                qrad:       5.27 MB

     Dynamical RAM for          rho,v,vnew:      15.50 MB

     Dynamical RAM for               rhoin:       5.17 MB

     Dynamical RAM for            rho*nmix:      35.82 MB

     Dynamical RAM for           G-vectors:       4.40 MB

     Dynamical RAM for          h,s,v(r/c):       0.13 MB

     Dynamical RAM for          <psi|beta>:       0.02 MB

     Dynamical RAM for                 psi:       2.67 MB

     Dynamical RAM for                hpsi:       2.67 MB

     Dynamical RAM for                spsi:       2.67 MB

     Dynamical RAM for      wfcinit/wfcrot:       2.69 MB

     Dynamical RAM for           addusdens:     211.54 MB

     Dynamical RAM for          addusforce:     213.80 MB

     Estimated static dynamical RAM per process >     117.61 MB

     Estimated max dynamical RAM per process >     367.23 MB

     Check: negative core charge=   -0.000007
     Generating pointlists ...
     new r_m :   0.2745 (alat units)  1.5045 (a.u.) for type    1
     new r_m :   0.2745 (alat units)  1.5045 (a.u.) for type    2
     new r_m :   0.4125 (alat units)  2.2606 (a.u.) for type    3

     Initial potential from superposition of free atoms

     starting charge      37.9809, renormalised to      38.0000
     Starting wfcs are   26 randomized atomic wfcs +    1 random wfcs
     Checking if some PAW data can be deallocated... 

     total cpu time spent up to now is        4.3 secs

     Self-consistent Calculation
[tb_dev] Currently allocated     6.58E-01 Mbytes, locked:    0 /   6
[tb_pin] Currently allocated     0.00E+00 Mbytes, locked:    0 /   0

     iteration #  1     ecut=    60.00 Ry     beta= 0.30
     Davidson diagonalization with overlap

---- Real-time Memory Report at c_bands before calling an iterative solver
           696 MiB given to the printing process from OS
             0 MiB allocation reported by mallinfo(arena+hblkhd)
       1359080 MiB available memory on the node where the printing process lives
     GPU memory used/free/total (MiB): 1060 / 80090 / 81151
------------------
     ethr =  1.00E-02,  avg # of iterations =  8.2

     total cpu time spent up to now is        6.5 secs

     total energy              =    -572.75649110 Ry
     estimated scf accuracy    <       1.77583782 Ry

     total magnetization       =     4.00 Bohr mag/cell
     absolute magnetization    =     4.00 Bohr mag/cell
[tb_dev] Currently allocated     3.05E-05 Mbytes, locked:    0 /   2
[tb_pin] Currently allocated     0.00E+00 Mbytes, locked:    0 /   0

     iteration #  2     ecut=    60.00 Ry     beta= 0.30
     Davidson diagonalization with overlap

---- Real-time Memory Report at c_bands before calling an iterative solver
           742 MiB given to the printing process from OS
             0 MiB allocation reported by mallinfo(arena+hblkhd)
       1356815 MiB available memory on the node where the printing process lives
     GPU memory used/free/total (MiB): 1078 / 80072 / 81151
------------------
     ethr =  4.67E-03,  avg # of iterations =  1.9

     total cpu time spent up to now is        7.9 secs

     total energy              =    -572.70782550 Ry
     estimated scf accuracy    <       0.77469098 Ry

     total magnetization       =     3.95 Bohr mag/cell
     absolute magnetization    =     3.95 Bohr mag/cell
[tb_dev] Currently allocated     3.05E-05 Mbytes, locked:    0 /   2
[tb_pin] Currently allocated     0.00E+00 Mbytes, locked:    0 /   0

     iteration #  3     ecut=    60.00 Ry     beta= 0.30
     Davidson diagonalization with overlap

---- Real-time Memory Report at c_bands before calling an iterative solver
           745 MiB given to the printing process from OS
             0 MiB allocation reported by mallinfo(arena+hblkhd)
       1355383 MiB available memory on the node where the printing process lives
     GPU memory used/free/total (MiB): 1078 / 80072 / 81151
------------------
     ethr =  2.04E-03,  avg # of iterations =  2.3

     total cpu time spent up to now is        9.4 secs

     total energy              =    -572.97988138 Ry
     estimated scf accuracy    <       1.34724190 Ry

     total magnetization       =     1.34 Bohr mag/cell
     absolute magnetization    =     1.48 Bohr mag/cell
[tb_dev] Currently allocated     3.05E-05 Mbytes, locked:    0 /   2
[tb_pin] Currently allocated     0.00E+00 Mbytes, locked:    0 /   0

     iteration #  4     ecut=    60.00 Ry     beta= 0.30
     Davidson diagonalization with overlap

---- Real-time Memory Report at c_bands before calling an iterative solver
           745 MiB given to the printing process from OS
             0 MiB allocation reported by mallinfo(arena+hblkhd)
       1354491 MiB available memory on the node where the printing process lives
     GPU memory used/free/total (MiB): 1078 / 80072 / 81151
------------------
     ethr =  2.04E-03,  avg # of iterations =  1.7

     total cpu time spent up to now is       10.8 secs

     total energy              =    -573.00465167 Ry
     estimated scf accuracy    <       2.74805914 Ry

     total magnetization       =     0.75 Bohr mag/cell
     absolute magnetization    =     1.12 Bohr mag/cell
[tb_dev] Currently allocated     3.05E-05 Mbytes, locked:    0 /   2
[tb_pin] Currently allocated     0.00E+00 Mbytes, locked:    0 /   0

     iteration #  5     ecut=    60.00 Ry     beta= 0.30
     Davidson diagonalization with overlap

---- Real-time Memory Report at c_bands before calling an iterative solver
           747 MiB given to the printing process from OS
             0 MiB allocation reported by mallinfo(arena+hblkhd)
       1353049 MiB available memory on the node where the printing process lives
     GPU memory used/free/total (MiB): 1078 / 80072 / 81151
------------------
     ethr =  2.04E-03,  avg # of iterations =  2.0

     total cpu time spent up to now is       12.2 secs

     total energy              =    -572.57013030 Ry
     estimated scf accuracy    <       2.17734657 Ry

     total magnetization       =     0.45 Bohr mag/cell
     absolute magnetization    =     1.10 Bohr mag/cell
[tb_dev] Currently allocated     3.05E-05 Mbytes, locked:    0 /   2
[tb_pin] Currently allocated     0.00E+00 Mbytes, locked:    0 /   0

     iteration #  6     ecut=    60.00 Ry     beta= 0.30
     Davidson diagonalization with overlap

---- Real-time Memory Report at c_bands before calling an iterative solver
           750 MiB given to the printing process from OS
             0 MiB allocation reported by mallinfo(arena+hblkhd)
       1351532 MiB available memory on the node where the printing process lives
     GPU memory used/free/total (MiB): 1078 / 80072 / 81151
------------------
     ethr =  2.04E-03,  avg # of iterations =  2.8

     total cpu time spent up to now is       13.7 secs

     total energy              =    -572.70354331 Ry
     estimated scf accuracy    <       3.13068869 Ry

     total magnetization       =     0.11 Bohr mag/cell
     absolute magnetization    =     0.49 Bohr mag/cell
[tb_dev] Currently allocated     3.05E-05 Mbytes, locked:    0 /   2
[tb_pin] Currently allocated     0.00E+00 Mbytes, locked:    0 /   0

     iteration #  7     ecut=    60.00 Ry     beta= 0.30
     Davidson diagonalization with overlap

---- Real-time Memory Report at c_bands before calling an iterative solver
           751 MiB given to the printing process from OS
             0 MiB allocation reported by mallinfo(arena+hblkhd)
       1349887 MiB available memory on the node where the printing process lives
     GPU memory used/free/total (MiB): 1078 / 80072 / 81151
------------------
     ethr =  2.04E-03,  avg # of iterations =  1.2

     total cpu time spent up to now is       15.0 secs

     total energy              =    -572.89288342 Ry
     estimated scf accuracy    <       0.14191966 Ry

     total magnetization       =     0.26 Bohr mag/cell
     absolute magnetization    =     0.71 Bohr mag/cell
[tb_dev] Currently allocated     3.05E-05 Mbytes, locked:    0 /   2
[tb_pin] Currently allocated     0.00E+00 Mbytes, locked:    0 /   0

     iteration #  8     ecut=    60.00 Ry     beta= 0.30
     Davidson diagonalization with overlap

---- Real-time Memory Report at c_bands before calling an iterative solver
           753 MiB given to the printing process from OS
             0 MiB allocation reported by mallinfo(arena+hblkhd)
       1348008 MiB available memory on the node where the printing process lives
     GPU memory used/free/total (MiB): 1078 / 80072 / 81151
------------------
     ethr =  3.73E-04,  avg # of iterations =  3.1

     total cpu time spent up to now is       16.5 secs

     total energy              =    -572.91643002 Ry
     estimated scf accuracy    <       0.11508127 Ry

     total magnetization       =     0.26 Bohr mag/cell
     absolute magnetization    =     0.69 Bohr mag/cell
[tb_dev] Currently allocated     3.05E-05 Mbytes, locked:    0 /   2
[tb_pin] Currently allocated     0.00E+00 Mbytes, locked:    0 /   0

     iteration #  9     ecut=    60.00 Ry     beta= 0.30
     Davidson diagonalization with overlap

---- Real-time Memory Report at c_bands before calling an iterative solver
           755 MiB given to the printing process from OS
             0 MiB allocation reported by mallinfo(arena+hblkhd)
       1344969 MiB available memory on the node where the printing process lives
     GPU memory used/free/total (MiB): 1078 / 80072 / 81151
------------------
     ethr =  3.03E-04,  avg # of iterations =  2.7

     total cpu time spent up to now is       18.0 secs

     total energy              =    -572.88579778 Ry
     estimated scf accuracy    <       0.63119415 Ry

     total magnetization       =     0.07 Bohr mag/cell
     absolute magnetization    =     0.62 Bohr mag/cell
[tb_dev] Currently allocated     3.05E-05 Mbytes, locked:    0 /   2
[tb_pin] Currently allocated     0.00E+00 Mbytes, locked:    0 /   0

     iteration # 10     ecut=    60.00 Ry     beta= 0.30
     Davidson diagonalization with overlap

---- Real-time Memory Report at c_bands before calling an iterative solver
           758 MiB given to the printing process from OS
             0 MiB allocation reported by mallinfo(arena+hblkhd)
       1342748 MiB available memory on the node where the printing process lives
     GPU memory used/free/total (MiB): 1078 / 80072 / 81151
------------------
     ethr =  3.03E-04,  avg # of iterations =  1.4

     total cpu time spent up to now is       19.4 secs

     total energy              =    -572.91753612 Ry
     estimated scf accuracy    <       0.03732235 Ry

     total magnetization       =     0.39 Bohr mag/cell
     absolute magnetization    =     0.56 Bohr mag/cell
[tb_dev] Currently allocated     3.05E-05 Mbytes, locked:    0 /   2
[tb_pin] Currently allocated     0.00E+00 Mbytes, locked:    0 /   0

     iteration # 11     ecut=    60.00 Ry     beta= 0.30
     Davidson diagonalization with overlap

---- Real-time Memory Report at c_bands before calling an iterative solver
           758 MiB given to the printing process from OS
             0 MiB allocation reported by mallinfo(arena+hblkhd)
       1339920 MiB available memory on the node where the printing process lives
     GPU memory used/free/total (MiB): 1078 / 80072 / 81151
------------------
     ethr =  9.82E-05,  avg # of iterations =  2.8

     total cpu time spent up to now is       20.8 secs

     total energy              =    -572.90553352 Ry
     estimated scf accuracy    <       0.14561311 Ry

     total magnetization       =     0.22 Bohr mag/cell
     absolute magnetization    =     0.47 Bohr mag/cell
[tb_dev] Currently allocated     3.05E-05 Mbytes, locked:    0 /   2
[tb_pin] Currently allocated     0.00E+00 Mbytes, locked:    0 /   0

     iteration # 12     ecut=    60.00 Ry     beta= 0.30
     Davidson diagonalization with overlap

---- Real-time Memory Report at c_bands before calling an iterative solver
           758 MiB given to the printing process from OS
             0 MiB allocation reported by mallinfo(arena+hblkhd)
       1359029 MiB available memory on the node where the printing process lives
     GPU memory used/free/total (MiB): 1078 / 80072 / 81151
------------------
     ethr =  9.82E-05,  avg # of iterations =  1.8

     total cpu time spent up to now is       22.2 secs

     total energy              =    -572.90960498 Ry
     estimated scf accuracy    <       0.02456931 Ry

     total magnetization       =     0.38 Bohr mag/cell
     absolute magnetization    =     0.44 Bohr mag/cell
[tb_dev] Currently allocated     3.05E-05 Mbytes, locked:    0 /   2
[tb_pin] Currently allocated     0.00E+00 Mbytes, locked:    0 /   0

     iteration # 13     ecut=    60.00 Ry     beta= 0.30
     Davidson diagonalization with overlap

---- Real-time Memory Report at c_bands before calling an iterative solver
           758 MiB given to the printing process from OS
             0 MiB allocation reported by mallinfo(arena+hblkhd)
       1357889 MiB available memory on the node where the printing process lives
     GPU memory used/free/total (MiB): 1078 / 80072 / 81151
------------------
     c_bands:  1 eigenvalues not converged
     ethr =  6.47E-05,  avg # of iterations =  2.9

     total cpu time spent up to now is       23.7 secs

     total energy              =    -572.91089336 Ry
     estimated scf accuracy    <       0.01812169 Ry

     total magnetization       =     0.38 Bohr mag/cell
     absolute magnetization    =     0.42 Bohr mag/cell
[tb_dev] Currently allocated     3.05E-05 Mbytes, locked:    0 /   2
[tb_pin] Currently allocated     0.00E+00 Mbytes, locked:    0 /   0

     iteration # 14     ecut=    60.00 Ry     beta= 0.30
     Davidson diagonalization with overlap

---- Real-time Memory Report at c_bands before calling an iterative solver
           758 MiB given to the printing process from OS
             0 MiB allocation reported by mallinfo(arena+hblkhd)
       1356714 MiB available memory on the node where the printing process lives
     GPU memory used/free/total (MiB): 1078 / 80072 / 81151
------------------
     ethr =  4.77E-05,  avg # of iterations =  1.4

     total cpu time spent up to now is       25.0 secs

     total energy              =    -572.91100719 Ry
     estimated scf accuracy    <       0.00894069 Ry

     total magnetization       =     0.40 Bohr mag/cell
     absolute magnetization    =     0.44 Bohr mag/cell
[tb_dev] Currently allocated     3.05E-05 Mbytes, locked:    0 /   2
[tb_pin] Currently allocated     0.00E+00 Mbytes, locked:    0 /   0

     iteration # 15     ecut=    60.00 Ry     beta= 0.30
     Davidson diagonalization with overlap

---- Real-time Memory Report at c_bands before calling an iterative solver
           758 MiB given to the printing process from OS
             0 MiB allocation reported by mallinfo(arena+hblkhd)
       1355546 MiB available memory on the node where the printing process lives
     GPU memory used/free/total (MiB): 1078 / 80072 / 81151
------------------
     c_bands:  1 eigenvalues not converged
     c_bands:  1 eigenvalues not converged
     c_bands:  1 eigenvalues not converged
     c_bands:  2 eigenvalues not converged
     c_bands:  1 eigenvalues not converged
     ethr =  2.35E-05,  avg # of iterations =  5.3

     total cpu time spent up to now is       26.8 secs

     total energy              =    -572.91107723 Ry
     estimated scf accuracy    <       0.00515639 Ry

     total magnetization       =     0.43 Bohr mag/cell
     absolute magnetization    =     0.47 Bohr mag/cell
[tb_dev] Currently allocated     3.05E-05 Mbytes, locked:    0 /   2
[tb_pin] Currently allocated     0.00E+00 Mbytes, locked:    0 /   0

     iteration # 16     ecut=    60.00 Ry     beta= 0.30
     Davidson diagonalization with overlap

---- Real-time Memory Report at c_bands before calling an iterative solver
           758 MiB given to the printing process from OS
             0 MiB allocation reported by mallinfo(arena+hblkhd)
       1354145 MiB available memory on the node where the printing process lives
     GPU memory used/free/total (MiB): 1078 / 80072 / 81151
------------------
     ethr =  1.36E-05,  avg # of iterations =  2.2

     total cpu time spent up to now is       28.2 secs

     total energy              =    -572.91004866 Ry
     estimated scf accuracy    <       0.00328027 Ry

     total magnetization       =     0.43 Bohr mag/cell
     absolute magnetization    =     0.48 Bohr mag/cell
[tb_dev] Currently allocated     3.05E-05 Mbytes, locked:    0 /   2
[tb_pin] Currently allocated     0.00E+00 Mbytes, locked:    0 /   0

     iteration # 17     ecut=    60.00 Ry     beta= 0.30
     Davidson diagonalization with overlap

---- Real-time Memory Report at c_bands before calling an iterative solver
           758 MiB given to the printing process from OS
             0 MiB allocation reported by mallinfo(arena+hblkhd)
       1353233 MiB available memory on the node where the printing process lives
     GPU memory used/free/total (MiB): 1078 / 80072 / 81151
------------------
     c_bands:  1 eigenvalues not converged
     c_bands:  1 eigenvalues not converged
     c_bands:  1 eigenvalues not converged
     ethr =  8.63E-06,  avg # of iterations =  5.2

     total cpu time spent up to now is       30.0 secs

     total energy              =    -572.91062605 Ry
     estimated scf accuracy    <       0.00153711 Ry

     total magnetization       =     0.44 Bohr mag/cell
     absolute magnetization    =     0.49 Bohr mag/cell
[tb_dev] Currently allocated     3.05E-05 Mbytes, locked:    0 /   2
[tb_pin] Currently allocated     0.00E+00 Mbytes, locked:    0 /   0

     iteration # 18     ecut=    60.00 Ry     beta= 0.30
     Davidson diagonalization with overlap

---- Real-time Memory Report at c_bands before calling an iterative solver
           758 MiB given to the printing process from OS
             0 MiB allocation reported by mallinfo(arena+hblkhd)
       1351703 MiB available memory on the node where the printing process lives
     GPU memory used/free/total (MiB): 1078 / 80072 / 81151
------------------
     c_bands:  1 eigenvalues not converged
     c_bands:  1 eigenvalues not converged
     ethr =  4.05E-06,  avg # of iterations =  4.3

     total cpu time spent up to now is       31.7 secs

     total energy              =    -572.91076040 Ry
     estimated scf accuracy    <       0.00154832 Ry

     total magnetization       =     0.45 Bohr mag/cell
     absolute magnetization    =     0.50 Bohr mag/cell
[tb_dev] Currently allocated     3.05E-05 Mbytes, locked:    0 /   2
[tb_pin] Currently allocated     0.00E+00 Mbytes, locked:    0 /   0

     iteration # 19     ecut=    60.00 Ry     beta= 0.30
     Davidson diagonalization with overlap

---- Real-time Memory Report at c_bands before calling an iterative solver
           758 MiB given to the printing process from OS
             0 MiB allocation reported by mallinfo(arena+hblkhd)
       1350499 MiB available memory on the node where the printing process lives
     GPU memory used/free/total (MiB): 1078 / 80072 / 81151
------------------
     ethr =  4.05E-06,  avg # of iterations =  1.7

     total cpu time spent up to now is       33.1 secs

     total energy              =    -572.91082293 Ry
     estimated scf accuracy    <       0.00153963 Ry

     total magnetization       =     0.45 Bohr mag/cell
     absolute magnetization    =     0.49 Bohr mag/cell
[tb_dev] Currently allocated     3.05E-05 Mbytes, locked:    0 /   2
[tb_pin] Currently allocated     0.00E+00 Mbytes, locked:    0 /   0

     iteration # 20     ecut=    60.00 Ry     beta= 0.30
     Davidson diagonalization with overlap

---- Real-time Memory Report at c_bands before calling an iterative solver
           758 MiB given to the printing process from OS
             0 MiB allocation reported by mallinfo(arena+hblkhd)
       1349461 MiB available memory on the node where the printing process lives
     GPU memory used/free/total (MiB): 1078 / 80072 / 81151
------------------
     ethr =  4.05E-06,  avg # of iterations =  1.6

     total cpu time spent up to now is       34.4 secs

     total energy              =    -572.91081818 Ry
     estimated scf accuracy    <       0.00227000 Ry

     total magnetization       =     0.45 Bohr mag/cell
     absolute magnetization    =     0.49 Bohr mag/cell
[tb_dev] Currently allocated     3.05E-05 Mbytes, locked:    0 /   2
[tb_pin] Currently allocated     0.00E+00 Mbytes, locked:    0 /   0

     iteration # 21     ecut=    60.00 Ry     beta= 0.30
     Davidson diagonalization with overlap

---- Real-time Memory Report at c_bands before calling an iterative solver
           758 MiB given to the printing process from OS
             0 MiB allocation reported by mallinfo(arena+hblkhd)
       1346931 MiB available memory on the node where the printing process lives
     GPU memory used/free/total (MiB): 1078 / 80072 / 81151
------------------
     ethr =  4.05E-06,  avg # of iterations =  1.2

     total cpu time spent up to now is       35.7 secs

     total energy              =    -572.91089945 Ry
     estimated scf accuracy    <       0.00057812 Ry

     total magnetization       =     0.44 Bohr mag/cell
     absolute magnetization    =     0.49 Bohr mag/cell
[tb_dev] Currently allocated     3.05E-05 Mbytes, locked:    0 /   2
[tb_pin] Currently allocated     0.00E+00 Mbytes, locked:    0 /   0

     iteration # 22     ecut=    60.00 Ry     beta= 0.30
     Davidson diagonalization with overlap

---- Real-time Memory Report at c_bands before calling an iterative solver
           758 MiB given to the printing process from OS
             0 MiB allocation reported by mallinfo(arena+hblkhd)
       1344107 MiB available memory on the node where the printing process lives
     GPU memory used/free/total (MiB): 1078 / 80072 / 81151
------------------
     ethr =  1.52E-06,  avg # of iterations =  2.0

     total cpu time spent up to now is       37.1 secs

     total energy              =    -572.91096116 Ry
     estimated scf accuracy    <       0.00049307 Ry

     total magnetization       =     0.44 Bohr mag/cell
     absolute magnetization    =     0.47 Bohr mag/cell
[tb_dev] Currently allocated     3.05E-05 Mbytes, locked:    0 /   2
[tb_pin] Currently allocated     0.00E+00 Mbytes, locked:    0 /   0

     iteration # 23     ecut=    60.00 Ry     beta= 0.30
     Davidson diagonalization with overlap

---- Real-time Memory Report at c_bands before calling an iterative solver
           758 MiB given to the printing process from OS
             0 MiB allocation reported by mallinfo(arena+hblkhd)
       1361909 MiB available memory on the node where the printing process lives
     GPU memory used/free/total (MiB): 1078 / 80072 / 81151
------------------
     ethr =  1.30E-06,  avg # of iterations =  1.2

     total cpu time spent up to now is       38.5 secs

     total energy              =    -572.91093031 Ry
     estimated scf accuracy    <       0.00022475 Ry

     total magnetization       =     0.44 Bohr mag/cell
     absolute magnetization    =     0.48 Bohr mag/cell
[tb_dev] Currently allocated     3.05E-05 Mbytes, locked:    0 /   2
[tb_pin] Currently allocated     0.00E+00 Mbytes, locked:    0 /   0

     iteration # 24     ecut=    60.00 Ry     beta= 0.30
     Davidson diagonalization with overlap

---- Real-time Memory Report at c_bands before calling an iterative solver
           758 MiB given to the printing process from OS
             0 MiB allocation reported by mallinfo(arena+hblkhd)
       1360697 MiB available memory on the node where the printing process lives
     GPU memory used/free/total (MiB): 1078 / 80072 / 81151
------------------
     c_bands:  1 eigenvalues not converged
     c_bands:  1 eigenvalues not converged
     ethr =  5.91E-07,  avg # of iterations =  3.1

     total cpu time spent up to now is       40.0 secs

     total energy              =    -572.91096103 Ry
     estimated scf accuracy    <       0.00005086 Ry

     total magnetization       =     0.44 Bohr mag/cell
     absolute magnetization    =     0.48 Bohr mag/cell
[tb_dev] Currently allocated     3.05E-05 Mbytes, locked:    0 /   2
[tb_pin] Currently allocated     0.00E+00 Mbytes, locked:    0 /   0

     iteration # 25     ecut=    60.00 Ry     beta= 0.30
     Davidson diagonalization with overlap

---- Real-time Memory Report at c_bands before calling an iterative solver
           758 MiB given to the printing process from OS
             0 MiB allocation reported by mallinfo(arena+hblkhd)
       1359479 MiB available memory on the node where the printing process lives
     GPU memory used/free/total (MiB): 1078 / 80072 / 81151
------------------
     ethr =  1.34E-07,  avg # of iterations =  3.7

     total cpu time spent up to now is       41.6 secs

     total energy              =    -572.91096777 Ry
     estimated scf accuracy    <       0.00007452 Ry

     total magnetization       =     0.44 Bohr mag/cell
     absolute magnetization    =     0.48 Bohr mag/cell
[tb_dev] Currently allocated     3.05E-05 Mbytes, locked:    0 /   2
[tb_pin] Currently allocated     0.00E+00 Mbytes, locked:    0 /   0

     iteration # 26     ecut=    60.00 Ry     beta= 0.30
     Davidson diagonalization with overlap

---- Real-time Memory Report at c_bands before calling an iterative solver
           758 MiB given to the printing process from OS
             0 MiB allocation reported by mallinfo(arena+hblkhd)
       1358021 MiB available memory on the node where the printing process lives
     GPU memory used/free/total (MiB): 1078 / 80072 / 81151
------------------
     ethr =  1.34E-07,  avg # of iterations =  1.2

     total cpu time spent up to now is       43.0 secs

     total energy              =    -572.91096918 Ry
     estimated scf accuracy    <       0.00004331 Ry

     total magnetization       =     0.44 Bohr mag/cell
     absolute magnetization    =     0.48 Bohr mag/cell
[tb_dev] Currently allocated     3.05E-05 Mbytes, locked:    0 /   2
[tb_pin] Currently allocated     0.00E+00 Mbytes, locked:    0 /   0

     iteration # 27     ecut=    60.00 Ry     beta= 0.30
     Davidson diagonalization with overlap

---- Real-time Memory Report at c_bands before calling an iterative solver
           758 MiB given to the printing process from OS
             0 MiB allocation reported by mallinfo(arena+hblkhd)
       1357137 MiB available memory on the node where the printing process lives
     GPU memory used/free/total (MiB): 1078 / 80072 / 81151
------------------
     ethr =  1.14E-07,  avg # of iterations =  1.2

     total cpu time spent up to now is       44.3 secs

     total energy              =    -572.91095649 Ry
     estimated scf accuracy    <       0.00004076 Ry

     total magnetization       =     0.44 Bohr mag/cell
     absolute magnetization    =     0.49 Bohr mag/cell
[tb_dev] Currently allocated     3.05E-05 Mbytes, locked:    0 /   2
[tb_pin] Currently allocated     0.00E+00 Mbytes, locked:    0 /   0

     iteration # 28     ecut=    60.00 Ry     beta= 0.30
     Davidson diagonalization with overlap

---- Real-time Memory Report at c_bands before calling an iterative solver
           758 MiB given to the printing process from OS
             0 MiB allocation reported by mallinfo(arena+hblkhd)
       1355950 MiB available memory on the node where the printing process lives
     GPU memory used/free/total (MiB): 1078 / 80072 / 81151
------------------
     ethr =  1.07E-07,  avg # of iterations =  2.2

     total cpu time spent up to now is       45.8 secs

     total energy              =    -572.91096302 Ry
     estimated scf accuracy    <       0.00000481 Ry

     total magnetization       =     0.44 Bohr mag/cell
     absolute magnetization    =     0.49 Bohr mag/cell
[tb_dev] Currently allocated     3.05E-05 Mbytes, locked:    0 /   2
[tb_pin] Currently allocated     0.00E+00 Mbytes, locked:    0 /   0

     iteration # 29     ecut=    60.00 Ry     beta= 0.30
     Davidson diagonalization with overlap

---- Real-time Memory Report at c_bands before calling an iterative solver
           758 MiB given to the printing process from OS
             0 MiB allocation reported by mallinfo(arena+hblkhd)
       1354763 MiB available memory on the node where the printing process lives
     GPU memory used/free/total (MiB): 1078 / 80072 / 81151
------------------
     ethr =  1.27E-08,  avg # of iterations =  6.3

     total cpu time spent up to now is       47.8 secs

     total energy              =    -572.91096648 Ry
     estimated scf accuracy    <       0.00000415 Ry

     total magnetization       =     0.44 Bohr mag/cell
     absolute magnetization    =     0.49 Bohr mag/cell
[tb_dev] Currently allocated     3.05E-05 Mbytes, locked:    0 /   2
[tb_pin] Currently allocated     0.00E+00 Mbytes, locked:    0 /   0

     iteration # 30     ecut=    60.00 Ry     beta= 0.30
     Davidson diagonalization with overlap

---- Real-time Memory Report at c_bands before calling an iterative solver
           758 MiB given to the printing process from OS
             0 MiB allocation reported by mallinfo(arena+hblkhd)
       1353736 MiB available memory on the node where the printing process lives
     GPU memory used/free/total (MiB): 1078 / 80072 / 81151
------------------
     ethr =  1.09E-08,  avg # of iterations =  4.1

     total cpu time spent up to now is       49.5 secs

     total energy              =    -572.91096714 Ry
     estimated scf accuracy    <       0.00000503 Ry

     total magnetization       =     0.44 Bohr mag/cell
     absolute magnetization    =     0.49 Bohr mag/cell
[tb_dev] Currently allocated     3.05E-05 Mbytes, locked:    0 /   2
[tb_pin] Currently allocated     0.00E+00 Mbytes, locked:    0 /   0

     iteration # 31     ecut=    60.00 Ry     beta= 0.30
     Davidson diagonalization with overlap

---- Real-time Memory Report at c_bands before calling an iterative solver
           758 MiB given to the printing process from OS
             0 MiB allocation reported by mallinfo(arena+hblkhd)
       1351842 MiB available memory on the node where the printing process lives
     GPU memory used/free/total (MiB): 1078 / 80072 / 81151
------------------
     ethr =  1.09E-08,  avg # of iterations =  1.5

     total cpu time spent up to now is       50.9 secs

     total energy              =    -572.91096734 Ry
     estimated scf accuracy    <       0.00000083 Ry

     total magnetization       =     0.44 Bohr mag/cell
     absolute magnetization    =     0.49 Bohr mag/cell
[tb_dev] Currently allocated     3.05E-05 Mbytes, locked:    0 /   2
[tb_pin] Currently allocated     0.00E+00 Mbytes, locked:    0 /   0

     iteration # 32     ecut=    60.00 Ry     beta= 0.30
     Davidson diagonalization with overlap

---- Real-time Memory Report at c_bands before calling an iterative solver
           758 MiB given to the printing process from OS
             0 MiB allocation reported by mallinfo(arena+hblkhd)
       1350733 MiB available memory on the node where the printing process lives
     GPU memory used/free/total (MiB): 1078 / 80072 / 81151
------------------
     ethr =  2.19E-09,  avg # of iterations =  4.0
 
     Magnetic moment per site  (integrated on atomic sphere of radius R)
     atom   1 (R=0.275)  charge= 14.1322  magn=  0.3707
     atom   2 (R=0.275)  charge=  5.2376  magn=  0.0258
     atom   3 (R=0.275)  charge=  5.2462  magn=  0.0242
     atom   4 (R=0.413)  charge=  7.8023  magn= -0.0111

     total cpu time spent up to now is       52.6 secs

     End of self-consistent calculation

 ------ SPIN UP ------------


          k = 0.0000 0.0000 0.0000 (  3279 PWs)   bands (ev):

   -87.1745 -50.4182 -50.3887 -50.3887 -26.0449 -11.0961  -9.3751  -9.0924
    -8.0092  -8.0092   2.4788   3.2445   3.2445   5.7718   6.7018   6.7018
     6.9658   6.9658   6.9887   8.1734  10.5075  10.6163  10.6163  11.9933
    12.3993  12.3993  15.8998

     occupation numbers 
     1.0000   1.0000   1.0000   1.0000   1.0000   1.0000   1.0000   1.0000
     1.0000   1.0000   1.0000   1.0000   1.0000   1.0000   1.0000   1.0000
     1.0000   1.0000   1.0000   0.9185   0.0000   0.0000   0.0000   0.0000
     0.0000   0.0000   0.0000

          k = 0.0000 0.0000 0.1151 (  3249 PWs)   bands (ev):

   -87.1745 -50.4182 -50.3886 -50.3886 -26.0449 -11.0995  -9.3170  -9.1486
    -8.0092  -8.0092   2.5339   3.2445   3.2445   5.4588   6.7017   6.7017
     6.9658   6.9658   7.3903   8.0823  10.6171  10.6171  10.6889  11.6424
    12.3988  12.3988  16.6710

     occupation numbers 
     1.0000   1.0000   1.0000   1.0000   1.0000   1.0000   1.0000   1.0000
     1.0000   1.0000   1.0000   1.0000   1.0000   1.0000   1.0000   1.0000
     1.0000   1.0000   1.0001   1.0476   0.0000   0.0000   0.0000   0.0000
     0.0000   0.0000   0.0000

          k = 0.0000 0.1443 0.0000 (  3241 PWs)   bands (ev):

   -87.1738 -50.4169 -50.3964 -50.3904 -25.9581 -10.9284  -9.3402  -9.0494
    -8.4554  -8.1002   2.6893   3.0230   3.3509   5.6019   6.0748   6.1522
     7.2882   7.4954   7.4982   8.3650  10.0918  10.5185  10.8698  11.7300
    11.7954  12.9586  15.6922

     occupation numbers 
     1.0000   1.0000   1.0000   1.0000   1.0000   1.0000   1.0000   1.0000
     1.0000   1.0000   1.0000   1.0000   1.0000   1.0000   1.0000   1.0000
     1.0000   1.0005   1.0005   0.4274   0.0000   0.0000   0.0000   0.0000
     0.0000   0.0000   0.0000

          k = 0.0000 0.1443 0.1151 (  3236 PWs)   bands (ev):

   -87.1737 -50.4169 -50.3964 -50.3904 -25.9581 -10.9317  -9.2964  -9.0915
    -8.4550  -8.1002   2.7308   3.0137   3.3510   5.6105   5.9390   6.0747
     7.2715   7.4953   7.8625   8.2250  10.0909  10.5188  10.9709  11.5889
    11.7909  12.9586  15.4250

     occupation numbers 
     1.0000   1.0000   1.0000   1.0000   1.0000   1.0000   1.0000   1.0000
     1.0000   1.0000   1.0000   1.0000   1.0000   1.0000   1.0000   1.0000
     1.0000   1.0005   1.0517   0.8033   0.0000   0.0000   0.0000   0.0000
     0.0000   0.0000   0.0000

          k = 0.0000 0.2887 0.0000 (  3230 PWs)   bands (ev):

   -87.1721 -50.4157 -50.4140 -50.3949 -25.7399 -10.4888  -9.4441  -9.3041
    -8.9038  -8.3119   2.6989   3.1935   3.6051   4.2387   5.4871   6.4668
     7.3780   7.7548   7.9031   8.8187   9.4243  10.3975  10.7030  11.1718
    12.2547  14.4945  15.2213

     occupation numbers 
     1.0000   1.0000   1.0000   1.0000   1.0000   1.0000   1.0000   1.0000
     1.0000   1.0000   1.0000   1.0000   1.0000   1.0000   1.0000   1.0000
     1.0000   1.0205   1.0656   0.0022   0.0000   0.0000   0.0000   0.0000
     0.0000   0.0000   0.0000

          k = 0.0000 0.2887 0.1151 (  3236 PWs)   bands (ev):

   -87.1721 -50.4157 -50.4140 -50.3950 -25.7399 -10.4911  -9.4481  -9.2842
    -8.9177  -8.3119   2.6867   3.2117   3.6051   4.2515   5.4869   6.4272
     7.3651   7.7546   7.9701   8.6742   9.5847  10.3980  10.5565  11.2594
    12.3374  14.4954  15.4829

     occupation numbers 
     1.0000   1.0000   1.0000   1.0000   1.0000   1.0000   1.0000   1.0000
     1.0000   1.0000   1.0000   1.0000   1.0000   1.0000   1.0000   1.0000
     1.0000   1.0204   1.0820   0.0207   0.0000   0.0000   0.0000   0.0000
     0.0000   0.0000   0.0000

          k = 0.0000 0.4330 0.0000 (  3242 PWs)   bands (ev):

   -87.1704 -50.4345 -50.4114 -50.3997 -25.5081 -10.3481  -9.9539  -9.3504
    -8.7197  -8.5132   2.2237   3.2326   3.8115   4.2293   5.2444   5.9991
     7.2688   7.5837   7.7837   8.4272   9.3400  10.1374  10.4323  12.2460
    13.6750  14.8062  15.9885

     occupation numbers 
     1.0000   1.0000   1.0000   1.0000   1.0000   1.0000   1.0000   1.0000
     1.0000   1.0000   1.0000   1.0000   1.0000   1.0000   1.0000   1.0000
     1.0000   1.0022   1.0273   0.2806   0.0000   0.0000   0.0000   0.0000
     0.0000   0.0000   0.0000

          k = 0.0000 0.4330 0.1151 (  3243 PWs)   bands (ev):

   -87.1704 -50.4345 -50.4113 -50.3997 -25.5081 -10.3477  -9.9563  -9.3463
    -8.7218  -8.5132   2.2275   3.2223   3.8117   4.2448   5.2440   5.9730
     7.2819   7.5837   7.7779   8.4092   9.6327   9.8132  10.4338  12.3406
    13.6530  14.8031  15.9592

     occupation numbers 
     1.0000   1.0000   1.0000   1.0000   1.0000   1.0000   1.0000   1.0000
     1.0000   1.0000   1.0000   1.0000   1.0000   1.0000   1.0000   1.0000
     1.0000   1.0022   1.0258   0.3200   0.0000   0.0000   0.0000   0.0000
     0.0000   0.0000   0.0000

          k = 0.0000-0.5774 0.0000 (  3254 PWs)   bands (ev):

   -87.1697 -50.4424 -50.4103 -50.4015 -25.4076 -10.7014  -9.6033  -9.4911
    -8.6366  -8.5938   1.8424   3.3760   3.8581   4.4443   5.2519   5.6955
     7.0719   7.4166   7.7266   8.1410   9.2664  10.0934  10.4802  13.3699
    13.9084  14.6462  16.1614

     occupation numbers 
     1.0000   1.0000   1.0000   1.0000   1.0000   1.0000   1.0000   1.0000
     1.0000   1.0000   1.0000   1.0000   1.0000   1.0000   1.0000   1.0000
     1.0000   1.0001   1.0151   0.9760   0.0000   0.0000   0.0000   0.0000
     0.0000   0.0000   0.0000

          k = 0.0000-0.5774 0.1151 (  3256 PWs)   bands (ev):

   -87.1697 -50.4424 -50.4103 -50.4016 -25.4076 -10.7013  -9.6036  -9.4911
    -8.6363  -8.5938   1.8471   3.3652   3.8583   4.4638   5.2514   5.6494
     7.0827   7.4166   7.7403   8.1469   9.4122   9.9594  10.4817  13.2673
    13.8951  14.6422  16.3998

     occupation numbers 
     1.0000   1.0000   1.0000   1.0000   1.0000   1.0000   1.0000   1.0000
     1.0000   1.0000   1.0000   1.0000   1.0000   1.0000   1.0000   1.0000
     1.0000   1.0001   1.0176   0.9665   0.0000   0.0000   0.0000   0.0000
     0.0000   0.0000   0.0000

          k = 0.1250 0.2165 0.0000 (  3241 PWs)   bands (ev):

   -87.1726 -50.4150 -50.4090 -50.3945 -25.8053 -10.6246  -9.3080  -9.1134
    -8.9513  -8.3113   2.8082   3.0588   3.4897   4.7099   5.3686   6.5008
     7.3848   7.7894   7.8863   8.9424   9.6521  10.2636  10.9100  11.0623
    11.6873  14.1975  15.0952

     occupation numbers 
     1.0000   1.0000   1.0000   1.0000   1.0000   1.0000   1.0000   1.0000
     1.0000   1.0000   1.0000   1.0000   1.0000   1.0000   1.0000   1.0000
     1.0001   1.0288   1.0599   0.0002   0.0000   0.0000   0.0000   0.0000
     0.0000   0.0000   0.0000

          k = 0.1250 0.2165 0.1151 (  3233 PWs)   bands (ev):

   -87.1726 -50.4150 -50.4090 -50.3945 -25.8053 -10.6272  -9.2896  -9.1098
    -8.9713  -8.3113   2.7947   3.0822   3.4901   4.7231   5.3689   6.4280
     7.3848   7.7614   7.9774   8.8918   9.7832  10.1789  10.9112  10.9644
    11.8163  14.1974  15.0959

     occupation numbers 
     1.0000   1.0000   1.0000   1.0000   1.0000   1.0000   1.0000   1.0000
     1.0000   1.0000   1.0000   1.0000   1.0000   1.0000   1.0000   1.0000
     1.0001   1.0219   1.0828   0.0006   0.0000   0.0000   0.0000   0.0000
     0.0000   0.0000   0.0000

          k = 0.1250 0.3608 0.0000 (  3230 PWs)   bands (ev):

   -87.1709 -50.4261 -50.4122 -50.4010 -25.5781 -10.1451  -9.9415  -9.3141
    -8.7765  -8.6375   2.6346   3.1322   3.7667   4.1346   4.9042   6.2975
     7.4125   7.6874   7.9340   9.2878   9.5405  10.0902  10.4199  11.2759
    12.6485  14.1562  16.1924

     occupation numbers 
     1.0000   1.0000   1.0000   1.0000   1.0000   1.0000   1.0000   1.0000
     1.0000   1.0000   1.0000   1.0000   1.0000   1.0000   1.0000   1.0000
     1.0001   1.0095   1.0748   0.0000   0.0000   0.0000   0.0000   0.0000
     0.0000   0.0000   0.0000

          k = 0.1250 0.3608 0.1151 (  3231 PWs)   bands (ev):

   -87.1709 -50.4261 -50.4122 -50.4010 -25.5781 -10.1444  -9.9453  -9.3066
    -8.7810  -8.6375   2.6313   3.1297   3.7667   4.1477   4.9040   6.2945
     7.4138   7.6906   7.9318   9.1978   9.7430   9.8875  10.4557  11.3143
    12.6886  14.1566  16.1833

     occupation numbers 
     1.0000   1.0000   1.0000   1.0000   1.0000   1.0000   1.0000   1.0000
     1.0000   1.0000   1.0000   1.0000   1.0000   1.0000   1.0000   1.0000
     1.0001   1.0098   1.0743   0.0000   0.0000   0.0000   0.0000   0.0000
     0.0000   0.0000   0.0000

          k = 0.1250 0.5052 0.0000 (  3243 PWs)   bands (ev):

   -87.1697 -50.4381 -50.4102 -50.4058 -25.4088 -10.5077  -9.6917  -9.4038
    -8.8593  -8.6372   2.1283   3.1296   4.0155   4.4111   4.8131   5.7184
     7.1764   7.5164   7.8776   8.8738   9.5101  10.0886  10.2294  12.8683
    13.4764  13.5993  16.9173

     occupation numbers 
     1.0000   1.0000   1.0000   1.0000   1.0000   1.0000   1.0000   1.0000
     1.0000   1.0000   1.0000   1.0000   1.0000   1.0000   1.0000   1.0000
     1.0000   1.0007   1.0569   0.0008   0.0000   0.0000   0.0000   0.0000
     0.0000   0.0000   0.0000

          k = 0.1250 0.5052 0.1151 (  3244 PWs)   bands (ev):

   -87.1697 -50.4381 -50.4103 -50.4057 -25.4088 -10.5076  -9.6928  -9.4025
    -8.8593  -8.6375   2.1333   3.1250   4.0098   4.4258   4.8126   5.6897
     7.1827   7.5135   7.8890   8.8782   9.6557   9.8558  10.3255  12.8500
    13.4833  13.5833  16.9922

     occupation numbers 
     1.0000   1.0000   1.0000   1.0000   1.0000   1.0000   1.0000   1.0000
     1.0000   1.0000   1.0000   1.0000   1.0000   1.0000   1.0000   1.0000
     1.0000   1.0007   1.0609   0.0007   0.0000   0.0000   0.0000   0.0000
     0.0000   0.0000   0.0000

          k = 0.2500 0.4330 0.0000 (  3245 PWs)   bands (ev):

   -87.1697 -50.4321 -50.4119 -50.4101 -25.4100 -10.2263  -9.7430  -9.3547
    -9.2097  -8.6378   2.6919   2.8135   3.7674   4.4532   4.5374   5.7719
     7.2504   7.5924   8.0339   9.7601   9.8031  10.1965  10.4256  11.4930
    12.6068  13.3085  17.2804

     occupation numbers 
     1.0000   1.0000   1.0000   1.0000   1.0000   1.0000   1.0000   1.0000
     1.0000   1.0000   1.0000   1.0000   1.0000   1.0000   1.0000   1.0000
     1.0000   1.0025   1.0763   0.0000   0.0000   0.0000   0.0000   0.0000
     0.0000   0.0000   0.0000

          k = 0.2500 0.4330 0.1151 (  3234 PWs)   bands (ev):

   -87.1697 -50.4321 -50.4118 -50.4100 -25.4100 -10.2256  -9.7458  -9.3510
    -9.2108  -8.6383   2.6936   2.8143   3.7692   4.4500   4.5330   5.7758
     7.2478   7.5879   8.0539   9.5949   9.8514  10.3451  10.4085  11.4569
    12.6271  13.2929  17.3927

     occupation numbers 
     1.0000   1.0000   1.0000   1.0000   1.0000   1.0000   1.0000   1.0000
     1.0000   1.0000   1.0000   1.0000   1.0000   1.0000   1.0000   1.0000
     1.0000   1.0023   1.0674   0.0000   0.0000   0.0000   0.0000   0.0000
     0.0000   0.0000   0.0000

          k = 0.2500 0.5774 0.0000 (  3233 PWs)   bands (ev):

   -87.1692 -50.4326 -50.4181 -50.4094 -25.3384 -10.2539  -9.5513  -9.5143
    -9.4144  -8.5780   2.5334   2.9280   3.5657   4.5681   4.7955   5.3219
     7.0116   7.7690   7.9751   9.8155   9.8880  10.2821  10.4992  11.7764
    12.2133  13.7391  17.9834

     occupation numbers 
     1.0000   1.0000   1.0000   1.0000   1.0000   1.0000   1.0000   1.0000
     1.0000   1.0000   1.0000   1.0000   1.0000   1.0000   1.0000   1.0000
     1.0000   1.0237   1.0826   0.0000   0.0000   0.0000   0.0000   0.0000
     0.0000   0.0000   0.0000

          k = 0.2500 0.5774 0.1151 (  3249 PWs)   bands (ev):

   -87.1692 -50.4327 -50.4181 -50.4095 -25.3384 -10.2538  -9.5548  -9.5096
    -9.4158  -8.5780   2.5371   2.9288   3.5703   4.5591   4.7974   5.3113
     7.0131   7.7644   7.9899   9.7293   9.8437  10.4006  10.5116  11.8252
    12.1914  13.7277  17.9785

     occupation numbers 
     1.0000   1.0000   1.0000   1.0000   1.0000   1.0000   1.0000   1.0000
     1.0000   1.0000   1.0000   1.0000   1.0000   1.0000   1.0000   1.0000
     1.0000   1.0226   1.0833   0.0000   0.0000   0.0000   0.0000   0.0000
     0.0000   0.0000   0.0000

          k = 0.0000-0.1443 0.1151 (  3236 PWs)   bands (ev):

   -87.1738 -50.4169 -50.3964 -50.3904 -25.9581 -10.9316  -9.2965  -9.0915
    -8.4550  -8.1002   2.7329   3.0108   3.3509   5.5884   5.9694   6.0748
     7.2687   7.4953   7.8356   8.2598  10.0814  10.5189  10.9308  11.6278
    11.7831  12.9581  15.4549

     occupation numbers 
     1.0000   1.0000   1.0000   1.0000   1.0000   1.0000   1.0000   1.0000
     1.0000   1.0000   1.0000   1.0000   1.0000   1.0000   1.0000   1.0000
     1.0000   1.0005   1.0426   0.7135   0.0000   0.0000   0.0000   0.0000
     0.0000   0.0000   0.0000

          k = 0.0000-0.2887 0.1151 (  3236 PWs)   bands (ev):

   -87.1721 -50.4157 -50.4139 -50.3950 -25.7399 -10.4909  -9.4505  -9.2825
    -8.9172  -8.3119   2.6895   3.1995   3.6050   4.2586   5.4871   6.4419
     7.3682   7.7546   7.9209   8.8296   9.4122  10.3976  10.6612  11.2061
    12.2665  14.4945  15.2207

     occupation numbers 
     1.0000   1.0000   1.0000   1.0000   1.0000   1.0000   1.0000   1.0000
     1.0000   1.0000   1.0000   1.0000   1.0000   1.0000   1.0000   1.0000
     1.0000   1.0204   1.0712   0.0018   0.0000   0.0000   0.0000   0.0000
     0.0000   0.0000   0.0000

          k = 0.0000-0.4330 0.1151 (  3243 PWs)   bands (ev):

   -87.1704 -50.4345 -50.4113 -50.3997 -25.5081 -10.3468  -9.9577  -9.3464
    -8.7211  -8.5132   2.2234   3.2236   3.8116   4.2376   5.2443   6.0048
     7.2697   7.5837   7.7820   8.4447   9.3440  10.1285  10.4333  12.1534
    13.6602  14.8034  16.2335

     occupation numbers 
     1.0000   1.0000   1.0000   1.0000   1.0000   1.0000   1.0000   1.0000
     1.0000   1.0000   1.0000   1.0000   1.0000   1.0000   1.0000   1.0000
     1.0000   1.0022   1.0269   0.2454   0.0000   0.0000   0.0000   0.0000
     0.0000   0.0000   0.0000

          k =-0.1250-0.3608 0.1151 (  3231 PWs)   bands (ev):

   -87.1709 -50.4261 -50.4122 -50.4010 -25.5781 -10.1429  -9.9474  -9.3063
    -8.7806  -8.6375   2.6289   3.1287   3.7640   4.1522   4.9026   6.3096
     7.4083   7.6870   7.9330   9.2965   9.5193  10.0097  10.4835  11.2868
    12.6292  14.1686  16.1973

     occupation numbers 
     1.0000   1.0000   1.0000   1.0000   1.0000   1.0000   1.0000   1.0000
     1.0000   1.0000   1.0000   1.0000   1.0000   1.0000   1.0000   1.0000
     1.0001   1.0094   1.0746   0.0000   0.0000   0.0000   0.0000   0.0000
     0.0000   0.0000   0.0000

          k =-0.1250-0.5052 0.1151 (  3244 PWs)   bands (ev):

   -87.1697 -50.4381 -50.4103 -50.4058 -25.4088 -10.5074  -9.6933  -9.4024
    -8.8594  -8.6371   2.1313   3.1262   4.0147   4.4122   4.8120   5.7099
     7.1752   7.5114   7.9002   8.8961   9.5050  10.0093  10.3050  12.7890
    13.4811  13.5934  17.1294

     occupation numbers 
     1.0000   1.0000   1.0000   1.0000   1.0000   1.0000   1.0000   1.0000
     1.0000   1.0000   1.0000   1.0000   1.0000   1.0000   1.0000   1.0000
     1.0000   1.0007   1.0646   0.0005   0.0000   0.0000   0.0000   0.0000
     0.0000   0.0000   0.0000

 ------ SPIN DOWN ----------


          k = 0.0000 0.0000 0.0000 (  3279 PWs)   bands (ev):

   -86.7243 -49.9879 -49.9879 -49.9028 -26.0547 -11.0539  -9.3518  -9.0769
    -8.0186  -8.0186   2.6351   3.3718   3.3718   5.8417   6.7275   6.7275
     7.0071   7.3202   7.3202   8.6692  10.5177  10.8088  10.8088  12.0106
    12.3749  12.3749  16.4737

     occupation numbers 
     1.0000   1.0000   1.0000   1.0000   1.0000   1.0000   1.0000   1.0000
     1.0000   1.0000   1.0000   1.0000   1.0000   1.0000   1.0000   1.0000
     1.0000   1.0000   1.0000   0.0222   0.0000   0.0000   0.0000   0.0000
     0.0000   0.0000   0.0000

          k = 0.0000 0.0000 0.1151 (  3249 PWs)   bands (ev):

   -86.7243 -49.9877 -49.9877 -49.9028 -26.0547 -11.0574  -9.2903  -9.1365
    -8.0186  -8.0186   2.6951   3.3718   3.3718   5.5103   6.7274   6.7274
     7.3202   7.3202   7.3894   8.6091  10.7015  10.8097  10.8097  11.6606
    12.3742  12.3742  15.8952

     occupation numbers 
     1.0000   1.0000   1.0000   1.0000   1.0000   1.0000   1.0000   1.0000
     1.0000   1.0000   1.0000   1.0000   1.0000   1.0000   1.0000   1.0000
     1.0000   1.0000   1.0001   0.0478   0.0000   0.0000   0.0000   0.0000
     0.0000   0.0000   0.0000

          k = 0.0000 0.1443 0.0000 (  3241 PWs)   bands (ev):

   -86.7235 -49.9958 -49.9896 -49.9015 -25.9676 -10.8861  -9.3098  -9.0405
    -8.4665  -8.1098   2.8448   3.1401   3.4736   5.6910   6.1901   6.2228
     7.5767   7.6327   7.7731   8.7573  10.2708  10.7061  10.8834  11.7220
    11.7951  12.9349  15.7005

     occupation numbers 
     1.0000   1.0000   1.0000   1.0000   1.0000   1.0000   1.0000   1.0000
     1.0000   1.0000   1.0000   1.0000   1.0000   1.0000   1.0000   1.0000
     1.0020   1.0046   1.0247   0.0061   0.0000   0.0000   0.0000   0.0000
     0.0000   0.0000   0.0000

          k = 0.0000 0.1443 0.1151 (  3236 PWs)   bands (ev):

   -86.7235 -49.9957 -49.9896 -49.9015 -25.9676 -10.8894  -9.2602  -9.0883
    -8.4661  -8.1098   2.8892   3.1307   3.4737   5.7028   5.9971   6.1900
     7.5796   7.7730   7.9555   8.6437  10.2589  10.7065  10.9989  11.6034
    11.7692  12.9349  15.4356

     occupation numbers 
     1.0000   1.0000   1.0000   1.0000   1.0000   1.0000   1.0000   1.0000
     1.0000   1.0000   1.0000   1.0000   1.0000   1.0000   1.0000   1.0000
     1.0021   1.0246   1.0798   0.0311   0.0000   0.0000   0.0000   0.0000
     0.0000   0.0000   0.0000

          k = 0.0000 0.2887 0.0000 (  3230 PWs)   bands (ev):

   -86.7218 -50.0152 -49.9942 -49.8987 -25.7488 -10.4461  -9.4582  -9.2624
    -8.9051  -8.3220   2.8017   3.3246   3.7168   4.3376   5.5909   6.5400
     7.7256   8.0759   8.3405   8.8729   9.5920  10.5723  10.7205  11.1779
    12.2376  14.4734  15.2162

     occupation numbers 
     1.0000   1.0000   1.0000   1.0000   1.0000   1.0000   1.0000   1.0000
     1.0000   1.0000   1.0000   1.0000   1.0000   1.0000   1.0000   1.0000
     1.0149   1.0529   0.4921   0.0008   0.0000   0.0000   0.0000   0.0000
     0.0000   0.0000   0.0000

          k = 0.0000 0.2887 0.1151 (  3236 PWs)   bands (ev):

   -86.7218 -50.0152 -49.9943 -49.8987 -25.7488 -10.4485  -9.4614  -9.2412
    -8.9212  -8.3220   2.7892   3.3427   3.7169   4.3534   5.5906   6.4963
     7.7128   8.0757   8.4732   8.6873   9.7343  10.5603  10.5729  11.2652
    12.3327  14.4738  15.4988

     occupation numbers 
     1.0000   1.0000   1.0000   1.0000   1.0000   1.0000   1.0000   1.0000
     1.0000   1.0000   1.0000   1.0000   1.0000   1.0000   1.0000   1.0000
     1.0129   1.0530   0.1938   0.0173   0.0000   0.0000   0.0000   0.0000
     0.0000   0.0000   0.0000

          k = 0.0000 0.4330 0.0000 (  3242 PWs)   bands (ev):

   -86.7201 -50.0347 -49.9990 -49.8958 -25.5163 -10.3648  -9.9109  -9.3048
    -8.7236  -8.5237   2.3053   3.2917   3.9188   4.3877   5.3058   6.0802
     7.6968   7.9661   8.2328   8.3966   9.4426  10.2559  10.6014  12.2488
    13.6489  14.8003  16.0022

     occupation numbers 
     1.0000   1.0000   1.0000   1.0000   1.0000   1.0000   1.0000   1.0000
     1.0000   1.0000   1.0000   1.0000   1.0000   1.0000   1.0000   1.0000
     1.0106   1.0815   0.7840   0.3491   0.0000   0.0000   0.0000   0.0000
     0.0000   0.0000   0.0000

          k = 0.0000 0.4330 0.1151 (  3243 PWs)   bands (ev):

   -86.7201 -50.0347 -49.9990 -49.8957 -25.5163 -10.3645  -9.9133  -9.3005
    -8.7259  -8.5238   2.3093   3.2811   3.9189   4.4042   5.3054   6.0531
     7.7143   7.9660   8.2202   8.3831   9.8003   9.8545  10.6029  12.3544
    13.6271  14.7974  15.9727

     occupation numbers 
     1.0000   1.0000   1.0000   1.0000   1.0000   1.0000   1.0000   1.0000
     1.0000   1.0000   1.0000   1.0000   1.0000   1.0000   1.0000   1.0000
     1.0131   1.0815   0.8152   0.3816   0.0000   0.0000   0.0000   0.0000
     0.0000   0.0000   0.0000

          k = 0.0000-0.5774 0.0000 (  3254 PWs)   bands (ev):

   -86.7194 -50.0428 -50.0010 -49.8946 -25.4154 -10.7194  -9.5603  -9.4443
    -8.6405  -8.6046   1.9158   3.4153   3.9680   4.6126   5.2788   5.7636
     7.5825   7.8338   8.0939   8.1389   9.2982  10.2895  10.6497  13.3779
    13.8850  14.6404  16.1688

     occupation numbers 
     1.0000   1.0000   1.0000   1.0000   1.0000   1.0000   1.0000   1.0000
     1.0000   1.0000   1.0000   1.0000   1.0000   1.0000   1.0000   1.0000
     1.0022   1.0421   1.0368   0.9794   0.0000   0.0000   0.0000   0.0000
     0.0000   0.0000   0.0000

          k = 0.0000-0.5774 0.1151 (  3256 PWs)   bands (ev):

   -86.7194 -50.0428 -50.0010 -49.8946 -25.4154 -10.7193  -9.5606  -9.4443
    -8.6402  -8.6046   1.9207   3.4045   3.9682   4.6343   5.2783   5.7157
     7.6007   7.8338   8.1010   8.1461   9.4192  10.1766  10.6513  13.2720
    13.8745  14.6363  16.4089

     occupation numbers 
     1.0000   1.0000   1.0000   1.0000   1.0000   1.0000   1.0000   1.0000
     1.0000   1.0000   1.0000   1.0000   1.0000   1.0000   1.0000   1.0000
     1.0029   1.0421   1.0294   0.9679   0.0000   0.0000   0.0000   0.0000
     0.0000   0.0000   0.0000

          k = 0.1250 0.2165 0.0000 (  3241 PWs)   bands (ev):

   -86.7223 -50.0087 -49.9938 -49.8995 -25.8143 -10.5821  -9.2684  -9.1267
    -8.9507  -8.3215   2.9139   3.2067   3.6032   4.7947   5.4826   6.5671
     7.7574   8.0682   8.3073   9.0211   9.8264  10.4366  10.8759  11.0858
    11.6989  14.1751  15.0893

     occupation numbers 
     1.0000   1.0000   1.0000   1.0000   1.0000   1.0000   1.0000   1.0000
     1.0000   1.0000   1.0000   1.0000   1.0000   1.0000   1.0000   1.0000
     1.0211   1.0586   0.5833   0.0000   0.0000   0.0000   0.0000   0.0000
     0.0000   0.0000   0.0000

          k = 0.1250 0.2165 0.1151 (  3233 PWs)   bands (ev):

   -86.7223 -50.0086 -49.9938 -49.8995 -25.8143 -10.5847  -9.2484  -9.1214
    -8.9739  -8.3216   2.8996   3.2313   3.6038   4.8103   5.4830   6.4907
     7.7572   8.0321   8.4645   8.9246   9.9452  10.3339  10.8781  10.9981
    11.8384  14.1749  15.0899

     occupation numbers 
     1.0000   1.0000   1.0000   1.0000   1.0000   1.0000   1.0000   1.0000
     1.0000   1.0000   1.0000   1.0000   1.0000   1.0000   1.0000   1.0000
     1.0210   1.0769   0.2087   0.0003   0.0000   0.0000   0.0000   0.0000
     0.0000   0.0000   0.0000

          k = 0.1250 0.3608 0.0000 (  3230 PWs)   bands (ev):

   -86.7206 -50.0260 -50.0004 -49.8966 -25.5865 -10.1043  -9.9551  -9.2692
    -8.7800  -8.6487   2.7261   3.2080   3.8788   4.2670   4.9954   6.3733
     7.8153   8.1554   8.3045   9.2981   9.6475  10.2387  10.4871  11.2671
    12.6430  14.1485  16.1781

     occupation numbers 
     1.0000   1.0000   1.0000   1.0000   1.0000   1.0000   1.0000   1.0000
     1.0000   1.0000   1.0000   1.0000   1.0000   1.0000   1.0000   1.0000
     1.0362   0.9520   0.5910   0.0000   0.0000   0.0000   0.0000   0.0000
     0.0000   0.0000   0.0000

          k = 0.1250 0.3608 0.1151 (  3231 PWs)   bands (ev):

   -86.7206 -50.0260 -50.0004 -49.8966 -25.5865 -10.1026  -9.9599  -9.2610
    -8.7851  -8.6487   2.7229   3.2053   3.8780   4.2819   4.9951   6.3704
     7.8175   8.1601   8.2987   9.2282   9.8683   9.9621  10.5512  11.3092
    12.6893  14.1488  16.2614

     occupation numbers 
     1.0000   1.0000   1.0000   1.0000   1.0000   1.0000   1.0000   1.0000
     1.0000   1.0000   1.0000   1.0000   1.0000   1.0000   1.0000   1.0000
     1.0369   0.9436   0.6071   0.0000   0.0000   0.0000   0.0000   0.0000
     0.0000   0.0000   0.0000

          k = 0.1250 0.5052 0.0000 (  3243 PWs)   bands (ev):

   -86.7194 -50.0383 -50.0053 -49.8946 -25.4166 -10.5251  -9.6481  -9.3577
    -8.8712  -8.6411   2.2017   3.1917   4.1083   4.5420   4.8914   5.7959
     7.7339   7.9206   8.2285   8.8367   9.5655  10.2473  10.4011  12.8563
    13.4656  13.5902  16.9302

     occupation numbers 
     1.0000   1.0000   1.0000   1.0000   1.0000   1.0000   1.0000   1.0000
     1.0000   1.0000   1.0000   1.0000   1.0000   1.0000   1.0000   1.0000
     1.0164   1.0711   0.7948   0.0016   0.0000   0.0000   0.0000   0.0000
     0.0000   0.0000   0.0000

          k = 0.1250 0.5052 0.1151 (  3244 PWs)   bands (ev):

   -86.7194 -50.0383 -50.0053 -49.8946 -25.4166 -10.5250  -9.6492  -9.3564
    -8.8712  -8.6414   2.2068   3.1869   4.1027   4.5569   4.8919   5.7656
     7.7461   7.9168   8.2367   8.8403   9.6711  10.0690  10.4801  12.8389
    13.4708  13.5754  17.0067

     occupation numbers 
     1.0000   1.0000   1.0000   1.0000   1.0000   1.0000   1.0000   1.0000
     1.0000   1.0000   1.0000   1.0000   1.0000   1.0000   1.0000   1.0000
     1.0187   1.0699   0.7741   0.0015   0.0000   0.0000   0.0000   0.0000
     0.0000   0.0000   0.0000

          k = 0.2500 0.4330 0.0000 (  3245 PWs)   bands (ev):

   -86.7194 -50.0323 -50.0113 -49.8946 -25.4179 -10.2426  -9.6996  -9.3100
    -9.2216  -8.6417   2.7573   2.8968   3.8279   4.5786   4.6518   5.8537
     7.8475   7.9804   8.3538   9.8808   9.9845  10.2106  10.4445  11.4690
    12.5954  13.3123  17.2961

     occupation numbers 
     1.0000   1.0000   1.0000   1.0000   1.0000   1.0000   1.0000   1.0000
     1.0000   1.0000   1.0000   1.0000   1.0000   1.0000   1.0000   1.0000
     1.0466   1.0830   0.4566   0.0000   0.0000   0.0000   0.0000   0.0000
     0.0000   0.0000   0.0000

          k = 0.2500 0.4330 0.1151 (  3234 PWs)   bands (ev):

   -86.7194 -50.0323 -50.0113 -49.8945 -25.4179 -10.2421  -9.7023  -9.3053
    -9.2236  -8.6422   2.7590   2.8976   3.8298   4.5743   4.6471   5.8588
     7.8446   7.9758   8.3775   9.7034  10.0368  10.3205  10.4711  11.4321
    12.6159  13.2961  17.4110

     occupation numbers 
     1.0000   1.0000   1.0000   1.0000   1.0000   1.0000   1.0000   1.0000
     1.0000   1.0000   1.0000   1.0000   1.0000   1.0000   1.0000   1.0000
     1.0456   1.0826   0.3956   0.0000   0.0000   0.0000   0.0000   0.0000
     0.0000   0.0000   0.0000

          k = 0.2500 0.5774 0.0000 (  3233 PWs)   bands (ev):

   -86.7189 -50.0327 -50.0179 -49.8937 -25.3460 -10.2705  -9.5575  -9.4779
    -9.3687  -8.5819   2.6022   2.9976   3.6210   4.6659   4.9338   5.3885
     7.6434   8.1438   8.3174   9.9804  10.0701  10.2684  10.5027  11.7640
    12.1802  13.7455  17.9942

     occupation numbers 
     1.0000   1.0000   1.0000   1.0000   1.0000   1.0000   1.0000   1.0000
     1.0000   1.0000   1.0000   1.0000   1.0000   1.0000   1.0000   1.0000
     1.0053   0.9716   0.5553   0.0000   0.0000   0.0000   0.0000   0.0000
     0.0000   0.0000   0.0000

          k = 0.2500 0.5774 0.1151 (  3249 PWs)   bands (ev):

   -86.7189 -50.0328 -50.0179 -49.8937 -25.3460 -10.2704  -9.5587  -9.4760
    -9.3695  -8.5818   2.6060   2.9984   3.6256   4.6566   4.9362   5.3773
     7.6457   8.1383   8.3344   9.8588  10.0307  10.3795  10.5493  11.8160
    12.1582  13.7310  17.9913

     occupation numbers 
     1.0000   1.0000   1.0000   1.0000   1.0000   1.0000   1.0000   1.0000
     1.0000   1.0000   1.0000   1.0000   1.0000   1.0000   1.0000   1.0000
     1.0055   0.9803   0.5086   0.0000   0.0000   0.0000   0.0000   0.0000
     0.0000   0.0000   0.0000

          k = 0.0000-0.1443 0.1151 (  3236 PWs)   bands (ev):

   -86.7235 -49.9957 -49.9896 -49.9015 -25.9676 -10.8894  -9.2603  -9.0883
    -8.4660  -8.1098   2.8915   3.1276   3.4736   5.6747   6.0349   6.1901
     7.5634   7.7730   7.9605   8.6570  10.2564  10.7066  10.9494  11.6465
    11.7609  12.9344  15.4655

     occupation numbers 
     1.0000   1.0000   1.0000   1.0000   1.0000   1.0000   1.0000   1.0000
     1.0000   1.0000   1.0000   1.0000   1.0000   1.0000   1.0000   1.0000
     1.0016   1.0246   1.0806   0.0261   0.0000   0.0000   0.0000   0.0000
     0.0000   0.0000   0.0000

          k = 0.0000-0.2887 0.1151 (  3236 PWs)   bands (ev):

   -86.7218 -50.0152 -49.9943 -49.8987 -25.7488 -10.4482  -9.4632  -9.2401
    -8.9206  -8.3220   2.7913   3.3306   3.7168   4.3609   5.5908   6.5128
     7.7090   8.0758   8.3842   8.8655   9.5725  10.5725  10.6818  11.2131
    12.2543  14.4752  15.6827

     occupation numbers 
     1.0000   1.0000   1.0000   1.0000   1.0000   1.0000   1.0000   1.0000
     1.0000   1.0000   1.0000   1.0000   1.0000   1.0000   1.0000   1.0000
     1.0123   1.0530   0.3790   0.0009   0.0000   0.0000   0.0000   0.0000
     0.0000   0.0000   0.0000

          k = 0.0000-0.4330 0.1151 (  3243 PWs)   bands (ev):

   -86.7201 -50.0347 -49.9990 -49.8957 -25.5163 -10.3638  -9.9145  -9.3007
    -8.7251  -8.5237   2.3049   3.2825   3.9188   4.3958   5.3057   6.0878
     7.7044   7.9660   8.2046   8.4317   9.4448  10.2476  10.6024  12.1597
    13.6321  14.7979  16.2476

     occupation numbers 
     1.0000   1.0000   1.0000   1.0000   1.0000   1.0000   1.0000   1.0000
     1.0000   1.0000   1.0000   1.0000   1.0000   1.0000   1.0000   1.0000
     1.0116   1.0815   0.8519   0.2713   0.0000   0.0000   0.0000   0.0000
     0.0000   0.0000   0.0000

          k =-0.1250-0.3608 0.1151 (  3231 PWs)   bands (ev):

   -86.7206 -50.0261 -50.0004 -49.8966 -25.5865 -10.1005  -9.9625  -9.2609
    -8.7846  -8.6488   2.7202   3.2045   3.8757   4.2857   4.9938   6.3866
     7.8123   8.1578   8.2955   9.3143   9.6130  10.1465  10.5663  11.2815
    12.6260  14.1609  16.1818

     occupation numbers 
     1.0000   1.0000   1.0000   1.0000   1.0000   1.0000   1.0000   1.0000
     1.0000   1.0000   1.0000   1.0000   1.0000   1.0000   1.0000   1.0000
     1.0353   0.9479   0.6159   0.0000   0.0000   0.0000   0.0000   0.0000
     0.0000   0.0000   0.0000

          k =-0.1250-0.5052 0.1151 (  3244 PWs)   bands (ev):

   -86.7194 -50.0383 -50.0053 -49.8946 -25.4166 -10.5248  -9.6496  -9.3563
    -8.8712  -8.6410   2.2048   3.1881   4.1076   4.5428   4.8904   5.7879
     7.7356   7.9163   8.2509   8.8538   9.5586  10.1892  10.4584  12.7798
    13.4689  13.5821  17.1418

     occupation numbers 
     1.0000   1.0000   1.0000   1.0000   1.0000   1.0000   1.0000   1.0000
     1.0000   1.0000   1.0000   1.0000   1.0000   1.0000   1.0000   1.0000
     1.0167   1.0698   0.7373   0.0012   0.0000   0.0000   0.0000   0.0000
     0.0000   0.0000   0.0000

     the Fermi energy is     8.3755 ev

!    total energy              =    -572.91096785 Ry
     total all-electron energy =     -4292.021804 Ry
     estimated scf accuracy    <       0.00000007 Ry
     smearing contrib. (-TS)   =       0.00363746 Ry
     internal energy E=F+TS    =    -572.91460530 Ry

     The total energy is F=E-TS. E is the sum of the following terms:
     one-electron contribution =    -481.80675185 Ry
     hartree contribution      =     258.35118879 Ry
     xc contribution           =     -56.66809944 Ry
     ewald contribution        =    -130.59629907 Ry
     one-center paw contrib.   =    -162.19464373 Ry
      -> PAW hartree energy AE =     309.53955440 Ry
      -> PAW hartree energy PS =    -308.18646487 Ry
      -> PAW xc energy AE      =    -216.98075342 Ry
      -> PAW xc energy PS      =      53.43302016 Ry
      -> total E_H with PAW    =     259.70427832 Ry
      -> total E_XC with PAW   =    -220.21583270 Ry

     total magnetization       =     0.44 Bohr mag/cell
     absolute magnetization    =     0.49 Bohr mag/cell

     convergence has been achieved in  32 iterations

     Forces acting on atoms (cartesian axes, Ry/au):

     atom    1 type  1   force =     0.00000000    0.00000000    0.00713973
     atom    2 type  2   force =    -0.00000000   -0.00000000    0.00011668
     atom    3 type  2   force =     0.00000000    0.00000000   -0.01488966
     atom    4 type  3   force =     0.00000000    0.00000000    0.00763326
     The non-local contrib.  to forces
     atom    1 type  1   force =    -0.00000000   -0.00000000    0.00455291
     atom    2 type  2   force =    -0.00000000   -0.00000000   -0.88807547
     atom    3 type  2   force =     0.00000000    0.00000000    0.77712706
     atom    4 type  3   force =    -0.00000000   -0.00000000    0.01001249
     The ionic contribution  to forces
     atom    1 type  1   force =    -0.00000000   -0.00000000    2.64941221
     atom    2 type  2   force =     0.00000000   -0.00000000   31.76779329
     atom    3 type  2   force =    -0.00000000    0.00000000  -29.92233326
     atom    4 type  3   force =     0.00000000   -0.00000000   -4.49487223
     The local contribution  to forces
     atom    1 type  1   force =    -0.00000000   -0.00000000   -2.64682644
     atom    2 type  2   force =     0.00000001   -0.00000001  -30.88724899
     atom    3 type  2   force =    -0.00000001    0.00000001   29.13679360
     atom    4 type  3   force =     0.00000000    0.00000000    4.49249285
     The core correction contribution to forces
     atom    1 type  1   force =     0.00000000   -0.00000000   -0.00007962
     atom    2 type  2   force =    -0.00000000    0.00000000    0.00754936
     atom    3 type  2   force =     0.00000000   -0.00000000   -0.00644689
     atom    4 type  3   force =    -0.00000000    0.00000000   -0.00004493
     The Hubbard contrib.    to forces
     atom    1 type  1   force =     0.00000000    0.00000000    0.00000000
     atom    2 type  2   force =     0.00000000    0.00000000    0.00000000
     atom    3 type  2   force =     0.00000000    0.00000000    0.00000000
     atom    4 type  3   force =     0.00000000    0.00000000    0.00000000
     The SCF correction term to forces
     atom    1 type  1   force =     0.00000000    0.00000000    0.00007230
     atom    2 type  2   force =     0.00000000   -0.00000000    0.00009013
     atom    3 type  2   force =    -0.00000000    0.00000000   -0.00003854
     atom    4 type  3   force =    -0.00000000    0.00000000    0.00003671

     Total force =     0.018192     Total SCF correction =     0.000127

     Writing all to output data dir ./out/pw.save/ :
     XML data file, charge density, pseudopotentials, collected wavefunctions
 
     init_run     :     14.63s CPU      3.70s WALL (       1 calls)
     electrons    :    203.11s CPU     48.30s WALL (       1 calls)
     forces       :      0.62s CPU      0.58s WALL (       1 calls)

     Called by init_run:
     wfcinit      :      0.27s CPU      0.41s WALL (       1 calls)
     wfcinit:atom :      0.05s CPU      0.05s WALL (      50 calls)
     wfcinit:wfcr :      0.16s CPU      0.21s WALL (      50 calls)
     potinit      :     13.73s CPU      2.60s WALL (       1 calls)
     hinit0       :      0.53s CPU      0.51s WALL (       1 calls)

     Called by electrons:
     c_bands      :     17.64s CPU     17.74s WALL (      32 calls)
     sum_band     :      4.28s CPU      4.26s WALL (      32 calls)
     v_of_rho     :      0.53s CPU      0.25s WALL (      33 calls)
     v_h          :      0.37s CPU      0.05s WALL (      33 calls)
     v_xc         :      0.17s CPU      0.21s WALL (      34 calls)
     newd         :      1.03s CPU      0.88s WALL (      33 calls)
                                        0.88s GPU  (      33 calls)
     PAW_pot      :    183.30s CPU     24.85s WALL (      33 calls)
     mix_rho      :      1.03s CPU      0.99s WALL (      32 calls)

     Called by c_bands:
     init_us_2    :      1.36s CPU      1.32s WALL (    3300 calls)
     cegterg      :     14.92s CPU     15.05s WALL (    1600 calls)

     Called by sum_band:
     sum_band:wei :      0.04s CPU      0.04s WALL (      32 calls)
                                        0.04s GPU  (      32 calls)
     sum_band:loo :      2.29s CPU      2.26s WALL (      32 calls)
                                        2.26s GPU  (      32 calls)
     sum_band:buf :      0.29s CPU      0.33s WALL (    1600 calls)
                                        0.31s GPU  (    1600 calls)
     sum_band:ini :      0.65s CPU      0.66s WALL (    1600 calls)
                                        0.64s GPU  (    1600 calls)
     sum_band:cal :      0.06s CPU      0.10s WALL (    1600 calls)
                                        0.08s GPU  (    1600 calls)
     sum_band:bec :      0.35s CPU      0.38s WALL (    1600 calls)
                                        0.36s GPU  (    1600 calls)
     addusdens    :      1.71s CPU      1.71s WALL (      32 calls)
                                        1.71s GPU  (      32 calls)
     addusd:skk   :      0.01s CPU      0.01s WALL (      96 calls)
                                        0.01s GPU  (      96 calls)

     Called by *egterg:
     cdiaghg      :      4.92s CPU      5.12s WALL (    6018 calls)
                                        5.05s GPU  (    6018 calls)
     cegterg:over :      1.07s CPU      1.11s WALL (    4418 calls)
     cegterg:upda :      0.88s CPU      0.90s WALL (    4418 calls)
     cegterg:last :      0.16s CPU      0.16s WALL (    2770 calls)
     h_psi        :      5.73s CPU      5.82s WALL (    6068 calls)
                                        5.74s GPU  (    6068 calls)
     s_psi        :      0.93s CPU      0.99s WALL (    6068 calls)
     g_psi        :      0.02s CPU      0.11s WALL (    4418 calls)
                                        0.06s GPU  (    4418 calls)

     Called by h_psi:
     h_psi:calbec :      0.18s CPU      0.34s WALL (    6068 calls)
                                        0.27s GPU  (    6068 calls)
     vloc_psi     :      4.05s CPU      4.03s WALL (    6068 calls)
                                        3.96s GPU  (    6068 calls)
     add_vuspsi   :      0.85s CPU      1.01s WALL (    6068 calls)
                                        0.93s GPU  (    6068 calls)

     General routines
     calbec       :      0.20s CPU      0.24s WALL (    7868 calls)
     fft          :      3.94s CPU      1.00s WALL (     838 calls)
                                        0.03s GPU  (     772 calls)
     ffts         :      4.69s CPU      0.86s WALL (    1205 calls)
                                        0.03s GPU  (    1139 calls)
     fftw         :      0.40s CPU      1.41s WALL (   21838 calls)
                                        1.17s GPU  (   21838 calls)
     interpolate  :      8.86s CPU      1.82s WALL (      66 calls)
 
     Parallel routines

     PAW routines
     PAW_pot      :    183.30s CPU     24.85s WALL (      33 calls)
     PAW_symme    :      0.01s CPU      0.01s WALL (      65 calls)
 
     PWSCF        :   3m39.35s CPU     53.22s WALL

 
   This run was terminated on:   5:38:40  12Jul2026            

=------------------------------------------------------------------------------=
   JOB DONE.
=------------------------------------------------------------------------------=
Warning: ieee_divide_by_zero is signaling
Warning: ieee_inexact is signaling
FORTRAN STOP
