
     Program PWSCF v.7.3.1 starts on 12Jul2026 at  5:47:58 

     This program is part of the open-source Quantum ESPRESSO suite
     for quantum simulation of materials; please cite
         "P. Giannozzi et al., J. Phys.:Condens. Matter 21 395502 (2009);
         "P. Giannozzi et al., J. Phys.:Condens. Matter 29 465901 (2017);
         "P. Giannozzi et al., J. Chem. Phys. 152 154105 (2020);
          URL http://www.quantum-espresso.org", 
     in publications or presentations arising from this work. More details at
     http://www.quantum-espresso.org/quote

     Parallel version (MPI & OpenMP), running on      14 processor cores
     Number of MPI processes:                 1
     Threads/MPI process:                    14

     MPI processes distributed on     1 nodes
     1344538 MiB available memory on the printing compute node when the environment starts
 
     Reading input from pw.in

     Current dimensions of program PWSCF are:
     Max number of different atomic species (ntypx) = 10
     Max number of k-points (npk) =  40000
     Max angular momentum in pseudopotentials (lmaxx) =  4
     file Co.pbe-spn-kjpaw_psl.0.3.1.UPF: wavefunction(s)  3P 3D renormalized
     file O.pbe-n-kjpaw_psl.1.0.0.UPF: wavefunction(s)  2S 2P renormalized
     file Na.pbe-spn-kjpaw_psl.1.0.0.UPF: wavefunction(s)  2P renormalized
 
     Subspace diagonalization in iterative solution of the eigenvalue problem:
     a serial algorithm will be used

 
     G-vector sticks info
     --------------------
     sticks:   dense  smooth     PW     G-vecs:    dense   smooth      PW
     Sum        2941    1483    421               256907    90927   13645
 
     Using Slab Decomposition
 


     bravais-lattice index     =            4
     lattice parameter (alat)  =       9.4527  a.u.
     unit-cell volume          =    1447.6983 (a.u.)^3
     number of atoms/cell      =           10
     number of atomic types    =            3
     number of electrons       =        96.00
     number of Kohn-Sham states=           64
     kinetic-energy cutoff     =      60.0000  Ry
     charge density cutoff     =     480.0000  Ry
     scf convergence threshold =      1.0E-07
     mixing beta               =       0.3000
     number of iterations used =            8  local-TF  mixing
     Exchange-correlation= SLA  PW   PBX  PBC
                           (   1   4   3   4   0   0   0)

     GPU acceleration is ACTIVE.  1 visible GPUs per MPI rank
     GPU-aware MPI enabled


     GPU used by master process:

        Device Number: 0
        Device name: NVIDIA A100-SXM4-80GB
        Compute capability : 80
        Ratio of single to double precision performance  : 2
        Memory Clock Rate (KHz): 1593000
        Memory Bus Width (bits): 5120
        Peak Memory Bandwidth (GB/s): ******

     celldm(1)=   9.452718  celldm(2)=   0.000000  celldm(3)=   1.979144
     celldm(4)=   0.000000  celldm(5)=   0.000000  celldm(6)=   0.000000

     crystal axes: (cart. coord. in units of alat)
               a(1) = (   1.000000   0.000000   0.000000 )  
               a(2) = (  -0.500000   0.866025   0.000000 )  
               a(3) = (   0.000000   0.000000   1.979144 )  

     reciprocal axes: (cart. coord. in units 2 pi/alat)
               b(1) = (  1.000000  0.577350 -0.000000 )  
               b(2) = (  0.000000  1.154701  0.000000 )  
               b(3) = (  0.000000 -0.000000  0.505269 )  


     PseudoPot. # 1 for Co read from file:
     ../../pseudo/Co.pbe-spn-kjpaw_psl.0.3.1.UPF
     MD5 check sum: 3c0a43779828c046024e4f3be63f8e67
     Pseudo is Projector augmented-wave + core cor, Zval = 17.0
     Generated using &quot;atomic&quot; code by A. Dal Corso  v.6.2.2
     Shape of augmentation charge: PSQ
     Using radial grid of 1193 points,  6 beta functions with: 
                l(1) =   0
                l(2) =   0
                l(3) =   1
                l(4) =   1
                l(5) =   2
                l(6) =   2
     Q(r) pseudized with 0 coefficients 


     PseudoPot. # 2 for O  read from file:
     ../../pseudo/O.pbe-n-kjpaw_psl.1.0.0.UPF
     MD5 check sum: e99d9cef9b487d1ca56f5b95ecd0fd7a
     Pseudo is Projector augmented-wave + core cor, Zval =  6.0
     Generated using &quot;atomic&quot; code by A. Dal Corso  v.6.3
     Shape of augmentation charge: PSQ
     Using radial grid of 1095 points,  4 beta functions with: 
                l(1) =   0
                l(2) =   0
                l(3) =   1
                l(4) =   1
     Q(r) pseudized with 0 coefficients 


     PseudoPot. # 3 for Na read from file:
     ../../pseudo/Na.pbe-spn-kjpaw_psl.1.0.0.UPF
     MD5 check sum: 05b4deb74e3932c23ab016979dc8b5d4
     Pseudo is Projector augmented-wave + core cor, Zval =  9.0
     Generated using &quot;atomic&quot; code by A. Dal Corso  v.6.3
     Shape of augmentation charge: PSQ
     Using radial grid of 1121 points,  4 beta functions with: 
                l(1) =   0
                l(2) =   0
                l(3) =   1
                l(4) =   1
     Q(r) pseudized with 0 coefficients 


     atomic species   valence    mass     pseudopotential
     Co               17.00    58.93300     Co( 1.00)
     O                 6.00    15.99900     O ( 1.00)
     Na                9.00    22.98977     Na( 1.00)

     Starting magnetic structure 
     atomic species   magnetization
     Co              0.300
     O               0.000
     Na              0.000

      6 Sym. Ops. (no inversion) found


                                    s                        frac. trans.

      isym =  1     identity                                     

 cryst.   s( 1) = (     1          0          0      )
                  (     0          1          0      )
                  (     0          0          1      )

 cart.    s( 1) = (  1.0000000  0.0000000  0.0000000 )
                  (  0.0000000  1.0000000  0.0000000 )
                  (  0.0000000  0.0000000  1.0000000 )


      isym =  2     120 deg rotation - cryst. axis [0,0,1]       

 cryst.   s( 2) = (     0          1          0      )
                  (    -1         -1          0      )
                  (     0          0          1      )

 cart.    s( 2) = ( -0.5000000 -0.8660254  0.0000000 )
                  (  0.8660254 -0.5000000  0.0000000 )
                  (  0.0000000  0.0000000  1.0000000 )


      isym =  3     120 deg rotation - cryst. axis [0,0,-1]      

 cryst.   s( 3) = (    -1         -1          0      )
                  (     1          0          0      )
                  (     0          0          1      )

 cart.    s( 3) = ( -0.5000000  0.8660254  0.0000000 )
                  ( -0.8660254 -0.5000000  0.0000000 )
                  (  0.0000000  0.0000000  1.0000000 )


      isym =  4     inv. 180 deg rotation - cart. axis [0,1,0]   

 cryst.   s( 4) = (     1          0          0      )
                  (    -1         -1          0      )
                  (     0          0          1      )

 cart.    s( 4) = (  1.0000000  0.0000000  0.0000000 )
                  (  0.0000000 -1.0000000  0.0000000 )
                  (  0.0000000  0.0000000  1.0000000 )


      isym =  5     inv. 180 deg rotation - cryst. axis [1,-1,0] 

 cryst.   s( 5) = (     0          1          0      )
                  (     1          0          0      )
                  (     0          0          1      )

 cart.    s( 5) = ( -0.5000000  0.8660254  0.0000000 )
                  (  0.8660254  0.5000000  0.0000000 )
                  (  0.0000000  0.0000000  1.0000000 )


      isym =  6     inv. 180 deg rotation - cryst. axis [2,1,0]  

 cryst.   s( 6) = (    -1         -1          0      )
                  (     0          1          0      )
                  (     0          0          1      )

 cart.    s( 6) = ( -0.5000000 -0.8660254  0.0000000 )
                  ( -0.8660254  0.5000000  0.0000000 )
                  (  0.0000000  0.0000000  1.0000000 )


     point group C_3v (3m)  
     there are  3 classes
     the character table:

       E     2C3   3s_v 
A_1    1.00  1.00  1.00
A_2    1.00  1.00 -1.00
E      2.00 -1.00  0.00

     the symmetry operations in each class and the name of the first element:

     E        1
          identity                                               
     2C3      2    3
          120 deg rotation - cryst. axis [0,0,1]                 
     3s_v     4    6    5
          inv. 180 deg rotation - cart. axis [0,1,0]             

   Cartesian axes

     site n.     atom                  positions (alat units)
         1        Co     tau(   1) = (   0.0000000   0.0000000   0.0000000  )
         2        Co     tau(   2) = (  -0.0000000   0.5773503   0.0000000  )
         3        Co     tau(   3) = (   0.5000000   0.2886751   0.0000000  )
         4        O      tau(   4) = (   0.1666667   0.2886751   0.1919170  )
         5        O      tau(   5) = (   0.6666667   0.0000000   0.1919170  )
         6        O      tau(   6) = (  -0.3333333   0.5773503   0.1919170  )
         7        O      tau(   7) = (   0.3333333   0.0000000   1.7872269  )
         8        O      tau(   8) = (   0.3333333   0.5773503   1.7872269  )
         9        O      tau(   9) = (  -0.1666667   0.2886751   1.7872269  )
        10        Na     tau(  10) = (   0.0000000   0.0000000   1.0895287  )

   Crystallographic axes

     site n.     atom                  positions (cryst. coord.)
         1        Co     tau(   1) = (  0.0000000  0.0000000  0.0000000  )
         2        Co     tau(   2) = (  0.3333333  0.6666667  0.0000000  )
         3        Co     tau(   3) = (  0.6666667  0.3333333  0.0000000  )
         4        O      tau(   4) = (  0.3333333  0.3333333  0.0969697  )
         5        O      tau(   5) = (  0.6666667  0.0000000  0.0969697  )
         6        O      tau(   6) = (  0.0000000  0.6666667  0.0969697  )
         7        O      tau(   7) = (  0.3333333  0.0000000  0.9030303  )
         8        O      tau(   8) = (  0.6666667  0.6666667  0.9030303  )
         9        O      tau(   9) = ( -0.0000000  0.3333333  0.9030303  )
        10        Na     tau(  10) = (  0.0000000  0.0000000  0.5505051  )

     number of k points=    14  Marzari-Vanderbilt smearing, width (Ry)=  0.0200
                       cart. coord. in units 2pi/alat
        k(    1) = (   0.0000000   0.0000000   0.0000000), wk =   0.0138889
        k(    2) = (   0.0000000   0.0000000  -0.2526345), wk =   0.0138889
        k(    3) = (   0.0000000   0.1924501   0.0000000), wk =   0.0833333
        k(    4) = (   0.0000000   0.1924501  -0.2526345), wk =   0.0833333
        k(    5) = (   0.0000000   0.3849002   0.0000000), wk =   0.0833333
        k(    6) = (   0.0000000   0.3849002  -0.2526345), wk =   0.0833333
        k(    7) = (   0.0000000  -0.5773503   0.0000000), wk =   0.0416667
        k(    8) = (   0.0000000  -0.5773503  -0.2526345), wk =   0.0416667
        k(    9) = (   0.1666667   0.2886751   0.0000000), wk =   0.0833333
        k(   10) = (   0.1666667   0.2886751  -0.2526345), wk =   0.0833333
        k(   11) = (   0.1666667   0.4811252   0.0000000), wk =   0.1666667
        k(   12) = (   0.1666667   0.4811252  -0.2526345), wk =   0.1666667
        k(   13) = (   0.3333333   0.5773503   0.0000000), wk =   0.0277778
        k(   14) = (   0.3333333   0.5773503  -0.2526345), wk =   0.0277778

                       cryst. coord.
        k(    1) = (   0.0000000   0.0000000   0.0000000), wk =   0.0138889
        k(    2) = (   0.0000000   0.0000000  -0.5000000), wk =   0.0138889
        k(    3) = (   0.0000000   0.1666667   0.0000000), wk =   0.0833333
        k(    4) = (   0.0000000   0.1666667  -0.5000000), wk =   0.0833333
        k(    5) = (   0.0000000   0.3333333   0.0000000), wk =   0.0833333
        k(    6) = (   0.0000000   0.3333333  -0.5000000), wk =   0.0833333
        k(    7) = (   0.0000000  -0.5000000   0.0000000), wk =   0.0416667
        k(    8) = (   0.0000000  -0.5000000  -0.5000000), wk =   0.0416667
        k(    9) = (   0.1666667   0.1666667   0.0000000), wk =   0.0833333
        k(   10) = (   0.1666667   0.1666667  -0.5000000), wk =   0.0833333
        k(   11) = (   0.1666667   0.3333333   0.0000000), wk =   0.1666667
        k(   12) = (   0.1666667   0.3333333  -0.5000000), wk =   0.1666667
        k(   13) = (   0.3333333   0.3333333   0.0000000), wk =   0.0277778
        k(   14) = (   0.3333333   0.3333333  -0.5000000), wk =   0.0277778

     Dense  grid:   256907 G-vectors     FFT dimensions: (  72,  72, 135)

     Smooth grid:    90927 G-vectors     FFT dimensions: (  48,  48,  96)

     Dynamical RAM for                 wfc:      11.10 MB

     Dynamical RAM for     wfc (w. buffer):     321.78 MB

     Dynamical RAM for           str. fact:      11.76 MB

     Dynamical RAM for           local pot:       0.00 MB

     Dynamical RAM for          nlocal pot:      19.07 MB

     Dynamical RAM for                qrad:       5.27 MB

     Dynamical RAM for          rho,v,vnew:      55.56 MB

     Dynamical RAM for               rhoin:      18.52 MB

     Dynamical RAM for            rho*nmix:     125.44 MB

     Dynamical RAM for           G-vectors:      15.39 MB

     Dynamical RAM for          h,s,v(r/c):       0.75 MB

     Dynamical RAM for          <psi|beta>:       0.11 MB

     Dynamical RAM for                 psi:      22.19 MB

     Dynamical RAM for                hpsi:      22.19 MB

     Dynamical RAM for                spsi:      22.19 MB

     Dynamical RAM for      wfcinit/wfcrot:      22.29 MB

     Dynamical RAM for           addusdens:     756.58 MB

     Dynamical RAM for          addusforce:     795.83 MB

     Estimated static dynamical RAM per process >     495.07 MB

     Estimated max dynamical RAM per process >       1.38 GB

     Check: negative core charge=   -0.000006
     Generating pointlists ...
     new r_m :   0.1587 (alat units)  1.4998 (a.u.) for type    1
     new r_m :   0.1587 (alat units)  1.4998 (a.u.) for type    2
     new r_m :   0.3190 (alat units)  3.0150 (a.u.) for type    3

     Initial potential from superposition of free atoms

     starting charge      95.9928, renormalised to      96.0000
     Starting wfcs are   59 randomized atomic wfcs +    5 random wfcs
     Checking if some PAW data can be deallocated... 

     total cpu time spent up to now is        5.5 secs

     Self-consistent Calculation
[tb_dev] Currently allocated     9.94E-01 Mbytes, locked:    0 /   6
[tb_pin] Currently allocated     0.00E+00 Mbytes, locked:    0 /   0

     iteration #  1     ecut=    60.00 Ry     beta= 0.30
     Davidson diagonalization with overlap

---- Real-time Memory Report at c_bands before calling an iterative solver
          1071 MiB given to the printing process from OS
             0 MiB allocation reported by mallinfo(arena+hblkhd)
       1337539 MiB available memory on the node where the printing process lives
     GPU memory used/free/total (MiB): 1998 / 79152 / 81151
------------------
     ethr =  1.00E-02,  avg # of iterations = 10.5

     total cpu time spent up to now is        9.2 secs

     total energy              =   -1488.23903097 Ry
     estimated scf accuracy    <       6.35458269 Ry

     total magnetization       =    14.00 Bohr mag/cell
     absolute magnetization    =    14.00 Bohr mag/cell
[tb_dev] Currently allocated     7.63E-05 Mbytes, locked:    0 /   2
[tb_pin] Currently allocated     0.00E+00 Mbytes, locked:    0 /   0

     iteration #  2     ecut=    60.00 Ry     beta= 0.30
     Davidson diagonalization with overlap

---- Real-time Memory Report at c_bands before calling an iterative solver
          1133 MiB given to the printing process from OS
             0 MiB allocation reported by mallinfo(arena+hblkhd)
       1331029 MiB available memory on the node where the printing process lives
     GPU memory used/free/total (MiB): 2084 / 79066 / 81151
------------------
     ethr =  6.62E-03,  avg # of iterations =  2.0

     total cpu time spent up to now is       11.7 secs

     total energy              =   -1488.62270653 Ry
     estimated scf accuracy    <       1.13089284 Ry

     total magnetization       =    10.42 Bohr mag/cell
     absolute magnetization    =    10.42 Bohr mag/cell
[tb_dev] Currently allocated     7.63E-05 Mbytes, locked:    0 /   2
[tb_pin] Currently allocated     0.00E+00 Mbytes, locked:    0 /   0

     iteration #  3     ecut=    60.00 Ry     beta= 0.30
     Davidson diagonalization with overlap

---- Real-time Memory Report at c_bands before calling an iterative solver
          1144 MiB given to the printing process from OS
             0 MiB allocation reported by mallinfo(arena+hblkhd)
       1348236 MiB available memory on the node where the printing process lives
     GPU memory used/free/total (MiB): 2084 / 79066 / 81151
------------------
     ethr =  1.18E-03,  avg # of iterations =  4.0

     total cpu time spent up to now is       14.5 secs

     total energy              =   -1488.92813380 Ry
     estimated scf accuracy    <       2.27352519 Ry

     total magnetization       =     4.19 Bohr mag/cell
     absolute magnetization    =     4.93 Bohr mag/cell
[tb_dev] Currently allocated     7.63E-05 Mbytes, locked:    0 /   2
[tb_pin] Currently allocated     0.00E+00 Mbytes, locked:    0 /   0

     iteration #  4     ecut=    60.00 Ry     beta= 0.30
     Davidson diagonalization with overlap

---- Real-time Memory Report at c_bands before calling an iterative solver
          1155 MiB given to the printing process from OS
             0 MiB allocation reported by mallinfo(arena+hblkhd)
       1345737 MiB available memory on the node where the printing process lives
     GPU memory used/free/total (MiB): 2084 / 79066 / 81151
------------------
     ethr =  1.18E-03,  avg # of iterations =  1.7

     total cpu time spent up to now is       17.0 secs

     total energy              =   -1488.97085237 Ry
     estimated scf accuracy    <       1.70585500 Ry

     total magnetization       =     4.72 Bohr mag/cell
     absolute magnetization    =     5.28 Bohr mag/cell
[tb_dev] Currently allocated     7.63E-05 Mbytes, locked:    0 /   2
[tb_pin] Currently allocated     0.00E+00 Mbytes, locked:    0 /   0

     iteration #  5     ecut=    60.00 Ry     beta= 0.30
     Davidson diagonalization with overlap

---- Real-time Memory Report at c_bands before calling an iterative solver
          1163 MiB given to the printing process from OS
             0 MiB allocation reported by mallinfo(arena+hblkhd)
       1343695 MiB available memory on the node where the printing process lives
     GPU memory used/free/total (MiB): 2084 / 79066 / 81151
------------------
     ethr =  1.18E-03,  avg # of iterations =  1.7

     total cpu time spent up to now is       19.5 secs

     total energy              =   -1489.09980727 Ry
     estimated scf accuracy    <       0.63375286 Ry

     total magnetization       =     4.24 Bohr mag/cell
     absolute magnetization    =     5.05 Bohr mag/cell
[tb_dev] Currently allocated     7.63E-05 Mbytes, locked:    0 /   2
[tb_pin] Currently allocated     0.00E+00 Mbytes, locked:    0 /   0

     iteration #  6     ecut=    60.00 Ry     beta= 0.30
     Davidson diagonalization with overlap

---- Real-time Memory Report at c_bands before calling an iterative solver
          1171 MiB given to the printing process from OS
             0 MiB allocation reported by mallinfo(arena+hblkhd)
       1342673 MiB available memory on the node where the printing process lives
     GPU memory used/free/total (MiB): 2084 / 79066 / 81151
------------------
     ethr =  6.60E-04,  avg # of iterations =  2.8

     total cpu time spent up to now is       22.1 secs

     total energy              =   -1489.11450840 Ry
     estimated scf accuracy    <       0.82738775 Ry

     total magnetization       =     2.22 Bohr mag/cell
     absolute magnetization    =     3.80 Bohr mag/cell
[tb_dev] Currently allocated     7.63E-05 Mbytes, locked:    0 /   2
[tb_pin] Currently allocated     0.00E+00 Mbytes, locked:    0 /   0

     iteration #  7     ecut=    60.00 Ry     beta= 0.30
     Davidson diagonalization with overlap

---- Real-time Memory Report at c_bands before calling an iterative solver
          1179 MiB given to the printing process from OS
             0 MiB allocation reported by mallinfo(arena+hblkhd)
       1339447 MiB available memory on the node where the printing process lives
     GPU memory used/free/total (MiB): 2084 / 79066 / 81151
------------------
     ethr =  6.60E-04,  avg # of iterations =  5.9

     total cpu time spent up to now is       25.1 secs

     total energy              =   -1489.17628278 Ry
     estimated scf accuracy    <       0.68257205 Ry

     total magnetization       =     0.49 Bohr mag/cell
     absolute magnetization    =     1.08 Bohr mag/cell
[tb_dev] Currently allocated     7.63E-05 Mbytes, locked:    0 /   2
[tb_pin] Currently allocated     0.00E+00 Mbytes, locked:    0 /   0

     iteration #  8     ecut=    60.00 Ry     beta= 0.30
     Davidson diagonalization with overlap

---- Real-time Memory Report at c_bands before calling an iterative solver
          1187 MiB given to the printing process from OS
             0 MiB allocation reported by mallinfo(arena+hblkhd)
       1334304 MiB available memory on the node where the printing process lives
     GPU memory used/free/total (MiB): 2084 / 79066 / 81151
------------------
     ethr =  6.60E-04,  avg # of iterations =  1.5

     total cpu time spent up to now is       27.6 secs

     total energy              =   -1489.16987873 Ry
     estimated scf accuracy    <       0.35783856 Ry

     total magnetization       =     1.85 Bohr mag/cell
     absolute magnetization    =     2.05 Bohr mag/cell
[tb_dev] Currently allocated     7.63E-05 Mbytes, locked:    0 /   2
[tb_pin] Currently allocated     0.00E+00 Mbytes, locked:    0 /   0

     iteration #  9     ecut=    60.00 Ry     beta= 0.30
     Davidson diagonalization with overlap

---- Real-time Memory Report at c_bands before calling an iterative solver
          1195 MiB given to the printing process from OS
             0 MiB allocation reported by mallinfo(arena+hblkhd)
       1349137 MiB available memory on the node where the printing process lives
     GPU memory used/free/total (MiB): 2084 / 79066 / 81151
------------------
     ethr =  3.73E-04,  avg # of iterations =  4.2

     total cpu time spent up to now is       30.4 secs

     total energy              =   -1489.06556019 Ry
     estimated scf accuracy    <       0.18947852 Ry

     total magnetization       =     2.30 Bohr mag/cell
     absolute magnetization    =     2.40 Bohr mag/cell
[tb_dev] Currently allocated     7.63E-05 Mbytes, locked:    0 /   2
[tb_pin] Currently allocated     0.00E+00 Mbytes, locked:    0 /   0

     iteration # 10     ecut=    60.00 Ry     beta= 0.30
     Davidson diagonalization with overlap

---- Real-time Memory Report at c_bands before calling an iterative solver
          1205 MiB given to the printing process from OS
             0 MiB allocation reported by mallinfo(arena+hblkhd)
       1346787 MiB available memory on the node where the printing process lives
     GPU memory used/free/total (MiB): 2084 / 79066 / 81151
------------------
     c_bands:  1 eigenvalues not converged
     c_bands:  1 eigenvalues not converged
     c_bands:  1 eigenvalues not converged
     c_bands:  1 eigenvalues not converged
     c_bands:  1 eigenvalues not converged
     c_bands:  1 eigenvalues not converged
     ethr =  1.97E-04,  avg # of iterations = 13.7

     total cpu time spent up to now is       34.5 secs

     total energy              =   -1489.01956838 Ry
     estimated scf accuracy    <       0.85813939 Ry

     total magnetization       =     3.19 Bohr mag/cell
     absolute magnetization    =     3.28 Bohr mag/cell
[tb_dev] Currently allocated     7.63E-05 Mbytes, locked:    0 /   2
[tb_pin] Currently allocated     0.00E+00 Mbytes, locked:    0 /   0

     iteration # 11     ecut=    60.00 Ry     beta= 0.30
     Davidson diagonalization with overlap

---- Real-time Memory Report at c_bands before calling an iterative solver
          1205 MiB given to the printing process from OS
             0 MiB allocation reported by mallinfo(arena+hblkhd)
       1343682 MiB available memory on the node where the printing process lives
     GPU memory used/free/total (MiB): 2084 / 79066 / 81151
------------------
     ethr =  1.97E-04,  avg # of iterations =  2.9

     total cpu time spent up to now is       37.2 secs

     total energy              =   -1489.15123082 Ry
     estimated scf accuracy    <       0.12630534 Ry

     total magnetization       =     2.06 Bohr mag/cell
     absolute magnetization    =     2.17 Bohr mag/cell
[tb_dev] Currently allocated     7.63E-05 Mbytes, locked:    0 /   2
[tb_pin] Currently allocated     0.00E+00 Mbytes, locked:    0 /   0

     iteration # 12     ecut=    60.00 Ry     beta= 0.30
     Davidson diagonalization with overlap

---- Real-time Memory Report at c_bands before calling an iterative solver
          1205 MiB given to the printing process from OS
             0 MiB allocation reported by mallinfo(arena+hblkhd)
       1341645 MiB available memory on the node where the printing process lives
     GPU memory used/free/total (MiB): 2084 / 79066 / 81151
------------------
     ethr =  1.32E-04,  avg # of iterations =  1.4

     total cpu time spent up to now is       39.7 secs

     total energy              =   -1489.15042007 Ry
     estimated scf accuracy    <       0.06262689 Ry

     total magnetization       =     2.22 Bohr mag/cell
     absolute magnetization    =     2.28 Bohr mag/cell
[tb_dev] Currently allocated     7.63E-05 Mbytes, locked:    0 /   2
[tb_pin] Currently allocated     0.00E+00 Mbytes, locked:    0 /   0

     iteration # 13     ecut=    60.00 Ry     beta= 0.30
     Davidson diagonalization with overlap

---- Real-time Memory Report at c_bands before calling an iterative solver
          1205 MiB given to the printing process from OS
             0 MiB allocation reported by mallinfo(arena+hblkhd)
       1339175 MiB available memory on the node where the printing process lives
     GPU memory used/free/total (MiB): 2084 / 79066 / 81151
------------------
     ethr =  6.52E-05,  avg # of iterations =  2.4

     total cpu time spent up to now is       42.3 secs

     total energy              =   -1489.14278684 Ry
     estimated scf accuracy    <       0.08052528 Ry

     total magnetization       =     2.11 Bohr mag/cell
     absolute magnetization    =     2.20 Bohr mag/cell
[tb_dev] Currently allocated     7.63E-05 Mbytes, locked:    0 /   2
[tb_pin] Currently allocated     0.00E+00 Mbytes, locked:    0 /   0

     iteration # 14     ecut=    60.00 Ry     beta= 0.30
     Davidson diagonalization with overlap

---- Real-time Memory Report at c_bands before calling an iterative solver
          1205 MiB given to the printing process from OS
             0 MiB allocation reported by mallinfo(arena+hblkhd)
       1335483 MiB available memory on the node where the printing process lives
     GPU memory used/free/total (MiB): 2084 / 79066 / 81151
------------------
     ethr =  6.52E-05,  avg # of iterations =  1.5

     total cpu time spent up to now is       44.7 secs

     total energy              =   -1489.14547854 Ry
     estimated scf accuracy    <       0.00285031 Ry

     total magnetization       =     2.44 Bohr mag/cell
     absolute magnetization    =     2.52 Bohr mag/cell
[tb_dev] Currently allocated     7.63E-05 Mbytes, locked:    0 /   2
[tb_pin] Currently allocated     0.00E+00 Mbytes, locked:    0 /   0

     iteration # 15     ecut=    60.00 Ry     beta= 0.30
     Davidson diagonalization with overlap

---- Real-time Memory Report at c_bands before calling an iterative solver
          1205 MiB given to the printing process from OS
             0 MiB allocation reported by mallinfo(arena+hblkhd)
       1349616 MiB available memory on the node where the printing process lives
     GPU memory used/free/total (MiB): 2084 / 79066 / 81151
------------------
     c_bands:  2 eigenvalues not converged
     c_bands:  1 eigenvalues not converged
     c_bands:  2 eigenvalues not converged
     c_bands:  1 eigenvalues not converged
     c_bands:  2 eigenvalues not converged
     c_bands:  1 eigenvalues not converged
     c_bands:  1 eigenvalues not converged
     ethr =  2.97E-06,  avg # of iterations = 13.9

     total cpu time spent up to now is       48.9 secs

     total energy              =   -1489.14656121 Ry
     estimated scf accuracy    <       0.00190577 Ry

     total magnetization       =     2.59 Bohr mag/cell
     absolute magnetization    =     2.67 Bohr mag/cell
[tb_dev] Currently allocated     7.63E-05 Mbytes, locked:    0 /   2
[tb_pin] Currently allocated     0.00E+00 Mbytes, locked:    0 /   0

     iteration # 16     ecut=    60.00 Ry     beta= 0.30
     Davidson diagonalization with overlap

---- Real-time Memory Report at c_bands before calling an iterative solver
          1205 MiB given to the printing process from OS
             0 MiB allocation reported by mallinfo(arena+hblkhd)
       1346443 MiB available memory on the node where the printing process lives
     GPU memory used/free/total (MiB): 2084 / 79066 / 81151
------------------
     c_bands:  1 eigenvalues not converged
     c_bands:  1 eigenvalues not converged
     ethr =  1.99E-06,  avg # of iterations =  4.4

     total cpu time spent up to now is       51.7 secs

     total energy              =   -1489.14661925 Ry
     estimated scf accuracy    <       0.00047563 Ry

     total magnetization       =     2.54 Bohr mag/cell
     absolute magnetization    =     2.63 Bohr mag/cell
[tb_dev] Currently allocated     7.63E-05 Mbytes, locked:    0 /   2
[tb_pin] Currently allocated     0.00E+00 Mbytes, locked:    0 /   0

     iteration # 17     ecut=    60.00 Ry     beta= 0.30
     Davidson diagonalization with overlap

---- Real-time Memory Report at c_bands before calling an iterative solver
          1205 MiB given to the printing process from OS
             0 MiB allocation reported by mallinfo(arena+hblkhd)
       1345034 MiB available memory on the node where the printing process lives
     GPU memory used/free/total (MiB): 2084 / 79066 / 81151
------------------
     ethr =  4.95E-07,  avg # of iterations =  5.6

     total cpu time spent up to now is       54.7 secs

     total energy              =   -1489.14672550 Ry
     estimated scf accuracy    <       0.00092932 Ry

     total magnetization       =     2.46 Bohr mag/cell
     absolute magnetization    =     2.57 Bohr mag/cell
[tb_dev] Currently allocated     7.63E-05 Mbytes, locked:    0 /   2
[tb_pin] Currently allocated     0.00E+00 Mbytes, locked:    0 /   0

     iteration # 18     ecut=    60.00 Ry     beta= 0.30
     Davidson diagonalization with overlap

---- Real-time Memory Report at c_bands before calling an iterative solver
          1205 MiB given to the printing process from OS
             0 MiB allocation reported by mallinfo(arena+hblkhd)
       1342754 MiB available memory on the node where the printing process lives
     GPU memory used/free/total (MiB): 2084 / 79066 / 81151
------------------
     ethr =  4.95E-07,  avg # of iterations =  1.4

     total cpu time spent up to now is       57.2 secs

     total energy              =   -1489.14677453 Ry
     estimated scf accuracy    <       0.00002627 Ry

     total magnetization       =     2.49 Bohr mag/cell
     absolute magnetization    =     2.61 Bohr mag/cell
[tb_dev] Currently allocated     7.63E-05 Mbytes, locked:    0 /   2
[tb_pin] Currently allocated     0.00E+00 Mbytes, locked:    0 /   0

     iteration # 19     ecut=    60.00 Ry     beta= 0.30
     Davidson diagonalization with overlap

---- Real-time Memory Report at c_bands before calling an iterative solver
          1205 MiB given to the printing process from OS
             0 MiB allocation reported by mallinfo(arena+hblkhd)
       1341088 MiB available memory on the node where the printing process lives
     GPU memory used/free/total (MiB): 2084 / 79066 / 81151
------------------
     ethr =  2.74E-08,  avg # of iterations = 10.6

     total cpu time spent up to now is       60.9 secs

     total energy              =   -1489.14680776 Ry
     estimated scf accuracy    <       0.00001046 Ry

     total magnetization       =     2.50 Bohr mag/cell
     absolute magnetization    =     2.62 Bohr mag/cell
[tb_dev] Currently allocated     7.63E-05 Mbytes, locked:    0 /   2
[tb_pin] Currently allocated     0.00E+00 Mbytes, locked:    0 /   0

     iteration # 20     ecut=    60.00 Ry     beta= 0.30
     Davidson diagonalization with overlap

---- Real-time Memory Report at c_bands before calling an iterative solver
          1205 MiB given to the printing process from OS
             0 MiB allocation reported by mallinfo(arena+hblkhd)
       1335746 MiB available memory on the node where the printing process lives
     GPU memory used/free/total (MiB): 2084 / 79066 / 81151
------------------
     ethr =  1.09E-08,  avg # of iterations =  2.2

     total cpu time spent up to now is       63.5 secs

     total energy              =   -1489.14680602 Ry
     estimated scf accuracy    <       0.00003768 Ry

     total magnetization       =     2.50 Bohr mag/cell
     absolute magnetization    =     2.62 Bohr mag/cell
[tb_dev] Currently allocated     7.63E-05 Mbytes, locked:    0 /   2
[tb_pin] Currently allocated     0.00E+00 Mbytes, locked:    0 /   0

     iteration # 21     ecut=    60.00 Ry     beta= 0.30
     Davidson diagonalization with overlap

---- Real-time Memory Report at c_bands before calling an iterative solver
          1205 MiB given to the printing process from OS
             0 MiB allocation reported by mallinfo(arena+hblkhd)
       1331385 MiB available memory on the node where the printing process lives
     GPU memory used/free/total (MiB): 2084 / 79066 / 81151
------------------
     ethr =  1.09E-08,  avg # of iterations =  1.5

     total cpu time spent up to now is       66.0 secs

     total energy              =   -1489.14680899 Ry
     estimated scf accuracy    <       0.00000118 Ry

     total magnetization       =     2.49 Bohr mag/cell
     absolute magnetization    =     2.62 Bohr mag/cell
[tb_dev] Currently allocated     7.63E-05 Mbytes, locked:    0 /   2
[tb_pin] Currently allocated     0.00E+00 Mbytes, locked:    0 /   0

     iteration # 22     ecut=    60.00 Ry     beta= 0.30
     Davidson diagonalization with overlap

---- Real-time Memory Report at c_bands before calling an iterative solver
          1205 MiB given to the printing process from OS
             0 MiB allocation reported by mallinfo(arena+hblkhd)
       1348548 MiB available memory on the node where the printing process lives
     GPU memory used/free/total (MiB): 2084 / 79066 / 81151
------------------
     ethr =  1.23E-09,  avg # of iterations =  8.5

     total cpu time spent up to now is       69.4 secs

     total energy              =   -1489.14681047 Ry
     estimated scf accuracy    <       0.00000027 Ry

     total magnetization       =     2.49 Bohr mag/cell
     absolute magnetization    =     2.62 Bohr mag/cell
[tb_dev] Currently allocated     7.63E-05 Mbytes, locked:    0 /   2
[tb_pin] Currently allocated     0.00E+00 Mbytes, locked:    0 /   0

     iteration # 23     ecut=    60.00 Ry     beta= 0.30
     Davidson diagonalization with overlap

---- Real-time Memory Report at c_bands before calling an iterative solver
          1205 MiB given to the printing process from OS
             0 MiB allocation reported by mallinfo(arena+hblkhd)
       1345405 MiB available memory on the node where the printing process lives
     GPU memory used/free/total (MiB): 2084 / 79066 / 81151
------------------
     ethr =  2.79E-10,  avg # of iterations =  6.6
 
     Magnetic moment per site  (integrated on atomic sphere of radius R)
     atom   1 (R=0.159)  charge= 14.0900  magn=  0.6463
     atom   2 (R=0.159)  charge= 14.0890  magn=  0.6443
     atom   3 (R=0.159)  charge= 14.0890  magn=  0.6443
     atom   4 (R=0.159)  charge=  5.2086  magn=  0.0731
     atom   5 (R=0.159)  charge=  5.2086  magn=  0.0731
     atom   6 (R=0.159)  charge=  5.2086  magn=  0.0731
     atom   7 (R=0.159)  charge=  5.2162  magn=  0.0635
     atom   8 (R=0.159)  charge=  5.2162  magn=  0.0635
     atom   9 (R=0.159)  charge=  5.2162  magn=  0.0635
     atom  10 (R=0.319)  charge=  8.1353  magn= -0.0186

     total cpu time spent up to now is       72.5 secs

     End of self-consistent calculation

 ------ SPIN UP ------------


          k = 0.0000 0.0000 0.0000 ( 11393 PWs)   bands (ev):

   -93.4965 -93.4909 -93.4909 -56.7433 -56.7433 -56.7425 -56.7425 -56.7045
   -56.7045 -56.6987 -56.6902 -56.6890 -52.2062 -24.1237 -24.1237 -24.0816
   -16.8347 -15.1818 -15.1818 -15.1374 -15.1374 -14.9122  -3.0548  -2.9303
    -2.9303  -2.8899  -2.8899  -2.6971  -2.6971  -2.4796  -2.4694  -0.9276
    -0.9276  -0.8748  -0.8748  -0.4925  -0.4810   0.4658   0.7302   0.7302
     0.7474   0.7485   1.0581   1.0581   1.8080   1.8080   1.8231   1.8231
     1.8821   2.2905   3.9637   3.9637   3.9751   3.9751   4.7083   4.7083
     6.0181   8.4770   9.2104   9.2104  10.0154  10.0154  10.5022  10.8608

     occupation numbers 
     1.0000   1.0000   1.0000   1.0000   1.0000   1.0000   1.0000   1.0000
     1.0000   1.0000   1.0000   1.0000   1.0000   1.0000   1.0000   1.0000
     1.0000   1.0000   1.0000   1.0000   1.0000   1.0000   1.0000   1.0000
     1.0000   1.0000   1.0000   1.0000   1.0000   1.0000   1.0000   1.0000
     1.0000   1.0000   1.0000   1.0000   1.0000   1.0000   1.0000   1.0000
     1.0000   1.0000   1.0000   1.0000   1.0140   1.0140   1.0167   1.0167
     1.0302   0.8559   0.0000   0.0000   0.0000   0.0000   0.0000   0.0000
     0.0000   0.0000   0.0000   0.0000   0.0000   0.0000   0.0000   0.0000

          k = 0.0000 0.0000-0.2526 ( 11446 PWs)   bands (ev):

   -93.4965 -93.4909 -93.4909 -56.7434 -56.7434 -56.7425 -56.7425 -56.7046
   -56.7046 -56.6989 -56.6903 -56.6891 -52.2062 -24.1238 -24.1238 -24.0819
   -16.8347 -15.1818 -15.1818 -15.1374 -15.1374 -14.9122  -3.0527  -2.9303
    -2.9303  -2.8899  -2.8899  -2.6971  -2.6971  -2.4796  -2.4694  -0.9276
    -0.9276  -0.8748  -0.8748  -0.4927  -0.4811   0.4186   0.7302   0.7302
     0.7473   0.7485   1.0581   1.0581   1.8079   1.8079   1.8231   1.8231
     2.0339   2.2280   3.9641   3.9641   3.9754   3.9754   4.7083   4.7083
     5.7717   9.2017   9.2017   9.3415  10.0065  10.0065  10.1930  10.7180

     occupation numbers 
     1.0000   1.0000   1.0000   1.0000   1.0000   1.0000   1.0000   1.0000
     1.0000   1.0000   1.0000   1.0000   1.0000   1.0000   1.0000   1.0000
     1.0000   1.0000   1.0000   1.0000   1.0000   1.0000   1.0000   1.0000
     1.0000   1.0000   1.0000   1.0000   1.0000   1.0000   1.0000   1.0000
     1.0000   1.0000   1.0000   1.0000   1.0000   1.0000   1.0000   1.0000
     1.0000   1.0000   1.0000   1.0000   1.0140   1.0140   1.0166   1.0166
     1.0779   0.9771   0.0000   0.0000   0.0000   0.0000   0.0000   0.0000
     0.0000   0.0000   0.0000   0.0000   0.0000   0.0000   0.0000   0.0000

          k = 0.0000 0.1925 0.0000 ( 11360 PWs)   bands (ev):

   -93.4960 -93.4912 -93.4911 -56.7516 -56.7491 -56.7330 -56.7319 -56.7093
   -56.7057 -56.6979 -56.6905 -56.6893 -52.2062 -24.1238 -24.1237 -24.0815
   -16.7318 -15.3127 -15.2291 -15.1426 -15.0855 -14.9164  -3.3311  -3.0725
    -2.9376  -2.9184  -2.7956  -2.7931  -2.6279  -2.1136  -1.9218  -1.2204
    -1.1643  -1.0235  -0.9528  -0.1854  -0.1202   0.1571   0.2366   0.7076
     0.8293   0.8961   1.1859   1.4140   1.5536   1.5665   1.9130   1.9851
     1.9874   2.4616   3.9632   3.9869   4.0085   4.0684   4.4252   4.6372
     6.2251   7.5298   8.5239   8.7919   9.2238  10.8844  11.1147  11.6643

     occupation numbers 
     1.0000   1.0000   1.0000   1.0000   1.0000   1.0000   1.0000   1.0000
     1.0000   1.0000   1.0000   1.0000   1.0000   1.0000   1.0000   1.0000
     1.0000   1.0000   1.0000   1.0000   1.0000   1.0000   1.0000   1.0000
     1.0000   1.0000   1.0000   1.0000   1.0000   1.0000   1.0000   1.0000
     1.0000   1.0000   1.0000   1.0000   1.0000   1.0000   1.0000   1.0000
     1.0000   1.0000   1.0000   1.0000   1.0003   1.0004   1.0393   1.0637
     1.0645   0.4046   0.0000   0.0000   0.0000   0.0000   0.0000   0.0000
     0.0000   0.0000   0.0000   0.0000   0.0000   0.0000   0.0000   0.0000

          k = 0.0000 0.1925-0.2526 ( 11384 PWs)   bands (ev):

   -93.4961 -93.4912 -93.4911 -56.7516 -56.7491 -56.7330 -56.7318 -56.7094
   -56.7057 -56.6980 -56.6905 -56.6893 -52.2062 -24.1238 -24.1237 -24.0816
   -16.7318 -15.3127 -15.2291 -15.1426 -15.0855 -14.9165  -3.3311  -3.0725
    -2.9357  -2.9184  -2.7958  -2.7932  -2.6279  -2.1136  -1.9218  -1.2205
    -1.1644  -1.0234  -0.9528  -0.1854  -0.1202   0.1573   0.2344   0.6688
     0.8293   0.8960   1.1859   1.4122   1.5536   1.5665   1.9128   1.9853
     2.0923   2.4296   3.9645   3.9870   4.0083   4.0690   4.4394   4.6351
     6.0076   7.5201   8.5158   9.1647   9.6139  10.6072  11.0160  11.1093

     occupation numbers 
     1.0000   1.0000   1.0000   1.0000   1.0000   1.0000   1.0000   1.0000
     1.0000   1.0000   1.0000   1.0000   1.0000   1.0000   1.0000   1.0000
     1.0000   1.0000   1.0000   1.0000   1.0000   1.0000   1.0000   1.0000
     1.0000   1.0000   1.0000   1.0000   1.0000   1.0000   1.0000   1.0000
     1.0000   1.0000   1.0000   1.0000   1.0000   1.0000   1.0000   1.0000
     1.0000   1.0000   1.0000   1.0000   1.0003   1.0004   1.0393   1.0638
     1.0826   0.4882   0.0000   0.0000   0.0000   0.0000   0.0000   0.0000
     0.0000   0.0000   0.0000   0.0000   0.0000   0.0000   0.0000   0.0000

          k = 0.0000 0.3849 0.0000 ( 11350 PWs)   bands (ev):

   -93.4949 -93.4920 -93.4914 -56.7576 -56.7468 -56.7234 -56.7222 -56.7213
   -56.7094 -56.6961 -56.6916 -56.6900 -52.2062 -24.1240 -24.1238 -24.0815
   -16.4454 -15.6268 -15.2728 -15.1881 -15.0188 -14.9324  -3.7457  -2.9627
    -2.9556  -2.9028  -2.6200  -2.5276  -2.4615  -1.9344  -1.6684  -1.3320
    -1.3118  -1.2293  -0.7994  -0.7900  -0.3688   0.1139   0.4531   0.9283
     1.0387   1.2323   1.2810   1.2875   1.3688   1.7527   1.7647   2.0425
     2.0511   3.0197   3.9319   3.9412   3.9911   4.0056   4.3888   4.4324
     5.6663   6.7987   7.9363   8.5427   9.1819   9.6707  11.5492  11.6890

     occupation numbers 
     1.0000   1.0000   1.0000   1.0000   1.0000   1.0000   1.0000   1.0000
     1.0000   1.0000   1.0000   1.0000   1.0000   1.0000   1.0000   1.0000
     1.0000   1.0000   1.0000   1.0000   1.0000   1.0000   1.0000   1.0000
     1.0000   1.0000   1.0000   1.0000   1.0000   1.0000   1.0000   1.0000
     1.0000   1.0000   1.0000   1.0000   1.0000   1.0000   1.0000   1.0000
     1.0000   1.0000   1.0000   1.0000   1.0000   1.0071   1.0083   1.0796
     1.0811   0.0003   0.0000   0.0000   0.0000   0.0000   0.0000   0.0000
     0.0000   0.0000   0.0000   0.0000   0.0000   0.0000   0.0000   0.0000

          k = 0.0000 0.3849-0.2526 ( 11352 PWs)   bands (ev):

   -93.4949 -93.4920 -93.4914 -56.7575 -56.7467 -56.7235 -56.7221 -56.7213
   -56.7093 -56.6962 -56.6916 -56.6900 -52.2062 -24.1239 -24.1238 -24.0815
   -16.4454 -15.6268 -15.2728 -15.1881 -15.0188 -14.9324  -3.7456  -2.9631
    -2.9559  -2.9029  -2.6188  -2.5276  -2.4615  -1.9344  -1.6684  -1.3315
    -1.3117  -1.2294  -0.7994  -0.7895  -0.3689   0.1141   0.4529   0.9283
     1.0198   1.2323   1.2811   1.2875   1.3692   1.7468   1.7646   2.0495
     2.0692   3.0153   3.9324   3.9822   3.9915   4.0115   4.3891   4.4184
     5.6631   6.6616   7.9327   8.5291   9.2003  10.1738  11.5625  11.5974

     occupation numbers 
     1.0000   1.0000   1.0000   1.0000   1.0000   1.0000   1.0000   1.0000
     1.0000   1.0000   1.0000   1.0000   1.0000   1.0000   1.0000   1.0000
     1.0000   1.0000   1.0000   1.0000   1.0000   1.0000   1.0000   1.0000
     1.0000   1.0000   1.0000   1.0000   1.0000   1.0000   1.0000   1.0000
     1.0000   1.0000   1.0000   1.0000   1.0000   1.0000   1.0000   1.0000
     1.0000   1.0000   1.0000   1.0000   1.0000   1.0066   1.0083   1.0809
     1.0831   0.0003   0.0000   0.0000   0.0000   0.0000   0.0000   0.0000
     0.0000   0.0000   0.0000   0.0000   0.0000   0.0000   0.0000   0.0000

          k = 0.0000-0.5774 0.0000 ( 11352 PWs)   bands (ev):

   -93.4934 -93.4934 -93.4915 -56.7596 -56.7367 -56.7358 -56.7178 -56.7158
   -56.7150 -56.6941 -56.6932 -56.6903 -52.2061 -24.1242 -24.1239 -24.0814
   -16.0430 -16.0416 -15.2891 -15.2124 -14.9662 -14.9655  -3.8971  -3.0162
    -3.0083  -2.5160  -2.5147  -2.2078  -2.1751  -2.1724  -2.0434  -1.4347
    -1.4198  -1.2707  -0.9144  -0.9143  -0.4147   0.2331   0.9373   0.9630
     0.9657   1.1350   1.2461   1.2475   1.6104   1.7958   1.8019   1.9663
     1.9675   3.7293   3.7889   3.8589   3.9913   4.0988   4.2396   4.4487
     4.5854   7.4761   7.7349   8.1267   8.3307  10.6767  10.9337  11.3462

     occupation numbers 
     1.0000   1.0000   1.0000   1.0000   1.0000   1.0000   1.0000   1.0000
     1.0000   1.0000   1.0000   1.0000   1.0000   1.0000   1.0000   1.0000
     1.0000   1.0000   1.0000   1.0000   1.0000   1.0000   1.0000   1.0000
     1.0000   1.0000   1.0000   1.0000   1.0000   1.0000   1.0000   1.0000
     1.0000   1.0000   1.0000   1.0000   1.0000   1.0000   1.0000   1.0000
     1.0000   1.0000   1.0000   1.0000   1.0008   1.0122   1.0131   1.0573
     1.0577   0.0000   0.0000   0.0000   0.0000   0.0000   0.0000   0.0000
     0.0000   0.0000   0.0000   0.0000   0.0000   0.0000   0.0000   0.0000

          k = 0.0000-0.5774-0.2526 ( 11344 PWs)   bands (ev):

   -93.4934 -93.4934 -93.4915 -56.7596 -56.7368 -56.7359 -56.7178 -56.7158
   -56.7149 -56.6942 -56.6933 -56.6903 -52.2061 -24.1242 -24.1238 -24.0815
   -16.0430 -16.0415 -15.2891 -15.2124 -14.9662 -14.9655  -3.8971  -3.0166
    -3.0085  -2.5159  -2.5146  -2.2078  -2.1749  -2.1719  -2.0434  -1.4338
    -1.4193  -1.2706  -0.9145  -0.9143  -0.4145   0.2337   0.9373   0.9612
     0.9630   1.1350   1.2462   1.2476   1.6103   1.8003   1.8045   1.9601
     1.9639   3.6249   3.7499   3.9888   4.0473   4.1595   4.1752   4.4401
     4.5853   7.4282   7.7350   8.0691   8.3132  10.8652  11.1786  11.3460

     occupation numbers 
     1.0000   1.0000   1.0000   1.0000   1.0000   1.0000   1.0000   1.0000
     1.0000   1.0000   1.0000   1.0000   1.0000   1.0000   1.0000   1.0000
     1.0000   1.0000   1.0000   1.0000   1.0000   1.0000   1.0000   1.0000
     1.0000   1.0000   1.0000   1.0000   1.0000   1.0000   1.0000   1.0000
     1.0000   1.0000   1.0000   1.0000   1.0000   1.0000   1.0000   1.0000
     1.0000   1.0000   1.0000   1.0000   1.0008   1.0128   1.0135   1.0552
     1.0565   0.0000   0.0000   0.0000   0.0000   0.0000   0.0000   0.0000
     0.0000   0.0000   0.0000   0.0000   0.0000   0.0000   0.0000   0.0000

          k = 0.1667 0.2887 0.0000 ( 11373 PWs)   bands (ev):

   -93.4952 -93.4915 -93.4915 -56.7526 -56.7524 -56.7249 -56.7248 -56.7182
   -56.7078 -56.6966 -56.6912 -56.6900 -52.2062 -24.1240 -24.1238 -24.0815
   -16.5371 -15.4255 -15.4250 -15.0768 -15.0768 -14.9268  -3.4097  -3.4090
    -2.9345  -2.7155  -2.7110  -2.7085  -2.4983  -1.7892  -1.7840  -1.2522
    -1.2466  -1.0941  -1.0882  -0.6524  -0.0429   0.1538   0.1554   0.8936
     1.0613   1.0616   1.2933   1.3665   1.3668   1.6283   1.9352   1.9363
     2.0587   2.8236   3.9339   3.9407   3.9978   4.1907   4.1913   4.5598
     6.5430   6.6385   6.8850   9.3587   9.9340  10.3153  10.5166  10.8230

     occupation numbers 
     1.0000   1.0000   1.0000   1.0000   1.0000   1.0000   1.0000   1.0000
     1.0000   1.0000   1.0000   1.0000   1.0000   1.0000   1.0000   1.0000
     1.0000   1.0000   1.0000   1.0000   1.0000   1.0000   1.0000   1.0000
     1.0000   1.0000   1.0000   1.0000   1.0000   1.0000   1.0000   1.0000
     1.0000   1.0000   1.0000   1.0000   1.0000   1.0000   1.0000   1.0000
     1.0000   1.0000   1.0000   1.0000   1.0000   1.0011   1.0466   1.0470
     1.0821   0.0085   0.0000   0.0000   0.0000   0.0000   0.0000   0.0000
     0.0000   0.0000   0.0000   0.0000   0.0000   0.0000   0.0000   0.0000

          k = 0.1667 0.2887-0.2526 ( 11348 PWs)   bands (ev):

   -93.4952 -93.4915 -93.4915 -56.7526 -56.7524 -56.7248 -56.7247 -56.7182
   -56.7078 -56.6968 -56.6911 -56.6899 -52.2062 -24.1239 -24.1237 -24.0815
   -16.5371 -15.4255 -15.4250 -15.0768 -15.0768 -14.9268  -3.4097  -3.4090
    -2.9349  -2.7152  -2.7099  -2.7085  -2.4983  -1.7892  -1.7840  -1.2519
    -1.2465  -1.0940  -1.0882  -0.6519  -0.0429   0.1539   0.1556   0.8742
     1.0613   1.0617   1.2829   1.3666   1.3669   1.6283   1.9348   1.9360
     2.0997   2.8224   3.9341   3.9406   4.0236   4.1915   4.1921   4.5598
     6.4357   6.5740   6.8786   9.8315  10.0665  10.3127  10.5580  10.8266

     occupation numbers 
     1.0000   1.0000   1.0000   1.0000   1.0000   1.0000   1.0000   1.0000
     1.0000   1.0000   1.0000   1.0000   1.0000   1.0000   1.0000   1.0000
     1.0000   1.0000   1.0000   1.0000   1.0000   1.0000   1.0000   1.0000
     1.0000   1.0000   1.0000   1.0000   1.0000   1.0000   1.0000   1.0000
     1.0000   1.0000   1.0000   1.0000   1.0000   1.0000   1.0000   1.0000
     1.0000   1.0000   1.0000   1.0000   1.0000   1.0011   1.0465   1.0469
     1.0817   0.0086   0.0000   0.0000   0.0000   0.0000   0.0000   0.0000
     0.0000   0.0000   0.0000   0.0000   0.0000   0.0000   0.0000   0.0000

          k = 0.1667 0.4811 0.0000 ( 11356 PWs)   bands (ev):

   -93.4939 -93.4926 -93.4918 -56.7555 -56.7455 -56.7324 -56.7179 -56.7176
   -56.7118 -56.6947 -56.6924 -56.6907 -52.2062 -24.1241 -24.1239 -24.0816
   -16.1928 -15.7851 -15.4979 -15.0868 -15.0029 -14.9534  -3.6783  -3.1990
    -3.0598  -2.6043  -2.4291  -2.4264  -2.2958  -2.0122  -1.9718  -1.4759
    -1.4469  -1.2883  -0.8666  -0.5951  -0.4761   0.2903   0.6435   0.9557
     1.1171   1.2547   1.2730   1.3497   1.5096   1.7075   1.7516   1.9240
     1.9531   3.5154   3.7507   3.7887   3.8988   4.2939   4.4407   4.5055
     5.0419   6.3286   7.3204   8.6348   9.8679  10.0954  10.3901  11.5957

     occupation numbers 
     1.0000   1.0000   1.0000   1.0000   1.0000   1.0000   1.0000   1.0000
     1.0000   1.0000   1.0000   1.0000   1.0000   1.0000   1.0000   1.0000
     1.0000   1.0000   1.0000   1.0000   1.0000   1.0000   1.0000   1.0000
     1.0000   1.0000   1.0000   1.0000   1.0000   1.0000   1.0000   1.0000
     1.0000   1.0000   1.0000   1.0000   1.0000   1.0000   1.0000   1.0000
     1.0000   1.0000   1.0000   1.0000   1.0001   1.0038   1.0070   1.0429
     1.0527   0.0000   0.0000   0.0000   0.0000   0.0000   0.0000   0.0000
     0.0000   0.0000   0.0000   0.0000   0.0000   0.0000   0.0000   0.0000

          k = 0.1667 0.4811-0.2526 ( 11352 PWs)   bands (ev):

   -93.4939 -93.4926 -93.4918 -56.7555 -56.7456 -56.7323 -56.7179 -56.7176
   -56.7117 -56.6947 -56.6924 -56.6907 -52.2061 -24.1241 -24.1238 -24.0816
   -16.1927 -15.7852 -15.4979 -15.0868 -15.0029 -14.9534  -3.6784  -3.1992
    -3.0601  -2.6044  -2.4289  -2.4262  -2.2956  -2.0122  -1.9719  -1.4751
    -1.4462  -1.2880  -0.8666  -0.5951  -0.4761   0.2905   0.6432   0.9524
     1.1171   1.2547   1.2731   1.3462   1.5102   1.7072   1.7500   1.9226
     1.9586   3.4524   3.7468   3.8735   3.9003   4.2988   4.4355   4.5057
     5.0486   6.3266   7.2414   8.6190   9.9034  10.0930  10.6869  11.6559

     occupation numbers 
     1.0000   1.0000   1.0000   1.0000   1.0000   1.0000   1.0000   1.0000
     1.0000   1.0000   1.0000   1.0000   1.0000   1.0000   1.0000   1.0000
     1.0000   1.0000   1.0000   1.0000   1.0000   1.0000   1.0000   1.0000
     1.0000   1.0000   1.0000   1.0000   1.0000   1.0000   1.0000   1.0000
     1.0000   1.0000   1.0000   1.0000   1.0000   1.0000   1.0000   1.0000
     1.0000   1.0000   1.0000   1.0000   1.0001   1.0038   1.0068   1.0424
     1.0547   0.0000   0.0000   0.0000   0.0000   0.0000   0.0000   0.0000
     0.0000   0.0000   0.0000   0.0000   0.0000   0.0000   0.0000   0.0000

          k = 0.3333 0.5774 0.0000 ( 11370 PWs)   bands (ev):

   -93.4928 -93.4928 -93.4928 -56.7460 -56.7460 -56.7454 -56.7147 -56.7147
   -56.7141 -56.6932 -56.6932 -56.6915 -52.2062 -24.1241 -24.1241 -24.0816
   -15.8462 -15.8444 -15.8444 -15.0011 -15.0005 -15.0005  -3.3124  -3.3096
    -3.3096  -2.4398  -2.4326  -2.4326  -2.1382  -2.1382  -2.1361  -1.5611
    -1.5415  -1.5415  -0.5158  -0.5158  -0.5136   0.6445   0.6445   0.6516
     1.3167   1.3167   1.3169   1.5200   1.5200   1.5218   1.7781   1.7828
     1.7828   3.6438   3.6812   3.6812   4.3898   4.5116   4.5116   4.5122
     5.0097   5.0097   7.8123   8.7103   8.7103  11.1187  11.4899  11.4899

     occupation numbers 
     1.0000   1.0000   1.0000   1.0000   1.0000   1.0000   1.0000   1.0000
     1.0000   1.0000   1.0000   1.0000   1.0000   1.0000   1.0000   1.0000
     1.0000   1.0000   1.0000   1.0000   1.0000   1.0000   1.0000   1.0000
     1.0000   1.0000   1.0000   1.0000   1.0000   1.0000   1.0000   1.0000
     1.0000   1.0000   1.0000   1.0000   1.0000   1.0000   1.0000   1.0000
     1.0000   1.0000   1.0000   1.0001   1.0001   1.0002   1.0098   1.0104
     1.0104   0.0000   0.0000   0.0000   0.0000   0.0000   0.0000   0.0000
     0.0000   0.0000   0.0000   0.0000   0.0000   0.0000   0.0000   0.0000

          k = 0.3333 0.5774-0.2526 ( 11340 PWs)   bands (ev):

   -93.4928 -93.4928 -93.4927 -56.7460 -56.7460 -56.7454 -56.7146 -56.7146
   -56.7140 -56.6931 -56.6931 -56.6915 -52.2061 -24.1240 -24.1240 -24.0815
   -15.8462 -15.8444 -15.8444 -15.0011 -15.0005 -15.0005  -3.3126  -3.3097
    -3.3097  -2.4400  -2.4328  -2.4328  -2.1382  -2.1382  -2.1361  -1.5599
    -1.5409  -1.5409  -0.5158  -0.5158  -0.5136   0.6443   0.6443   0.6511
     1.3165   1.3165   1.3165   1.5200   1.5200   1.5218   1.7782   1.7829
     1.7829   3.6209   3.6728   3.6728   4.4222   4.5117   4.5117   4.5122
     5.0252   5.0252   7.7932   8.6840   8.6840  11.1699  11.5917  11.5917

     occupation numbers 
     1.0000   1.0000   1.0000   1.0000   1.0000   1.0000   1.0000   1.0000
     1.0000   1.0000   1.0000   1.0000   1.0000   1.0000   1.0000   1.0000
     1.0000   1.0000   1.0000   1.0000   1.0000   1.0000   1.0000   1.0000
     1.0000   1.0000   1.0000   1.0000   1.0000   1.0000   1.0000   1.0000
     1.0000   1.0000   1.0000   1.0000   1.0000   1.0000   1.0000   1.0000
     1.0000   1.0000   1.0000   1.0001   1.0001   1.0002   1.0098   1.0104
     1.0104   0.0000   0.0000   0.0000   0.0000   0.0000   0.0000   0.0000
     0.0000   0.0000   0.0000   0.0000   0.0000   0.0000   0.0000   0.0000

 ------ SPIN DOWN ----------


          k = 0.0000 0.0000 0.0000 ( 11393 PWs)   bands (ev):

   -92.7058 -92.7006 -92.6988 -56.0256 -56.0256 -56.0245 -56.0245 -55.9852
   -55.9852 -55.8243 -55.8155 -55.8133 -52.2099 -24.1285 -24.1285 -24.0854
   -16.7229 -15.0667 -15.0667 -15.0066 -15.0066 -14.7909  -2.7531  -2.7531
    -2.7118  -2.7118  -2.7083  -2.4441  -2.4441  -2.3774  -2.3672  -0.6430
    -0.6430  -0.5577  -0.5577  -0.4080  -0.3959   0.6458   1.1429   1.1429
     1.4129   1.4129   1.7900   1.7931   1.9821   2.4668   2.4668   2.4874
     2.4874   2.9876   4.3124   4.3124   4.3188   4.3188   5.0454   5.0454
     6.0256   8.5422   9.1706   9.1706   9.9023   9.9023  10.4304  10.6963

     occupation numbers 
     1.0000   1.0000   1.0000   1.0000   1.0000   1.0000   1.0000   1.0000
     1.0000   1.0000   1.0000   1.0000   1.0000   1.0000   1.0000   1.0000
     1.0000   1.0000   1.0000   1.0000   1.0000   1.0000   1.0000   1.0000
     1.0000   1.0000   1.0000   1.0000   1.0000   1.0000   1.0000   1.0000
     1.0000   1.0000   1.0000   1.0000   1.0000   1.0000   1.0000   1.0000
     1.0000   1.0000   1.0114   1.0118   1.0627   0.3913   0.3913   0.3417
     0.3417   0.0005   0.0000   0.0000   0.0000   0.0000   0.0000   0.0000
     0.0000   0.0000   0.0000   0.0000   0.0000   0.0000   0.0000   0.0000

          k = 0.0000 0.0000-0.2526 ( 11446 PWs)   bands (ev):

   -92.7058 -92.7006 -92.6988 -56.0257 -56.0257 -56.0246 -56.0246 -55.9852
   -55.9852 -55.8245 -55.8157 -55.8134 -52.2099 -24.1286 -24.1286 -24.0856
   -16.7229 -15.0667 -15.0667 -15.0066 -15.0066 -14.7910  -2.7531  -2.7531
    -2.7118  -2.7118  -2.7055  -2.4442  -2.4442  -2.3773  -2.3672  -0.6430
    -0.6430  -0.5577  -0.5577  -0.4082  -0.3960   0.5839   1.1428   1.1428
     1.4128   1.4128   1.7901   1.7931   2.1369   2.4668   2.4668   2.4873
     2.4873   2.9338   4.3129   4.3129   4.3191   4.3191   5.0453   5.0453
     5.7838   9.1617   9.1618   9.3927   9.8936   9.8941  10.2291  10.7088

     occupation numbers 
     1.0000   1.0000   1.0000   1.0000   1.0000   1.0000   1.0000   1.0000
     1.0000   1.0000   1.0000   1.0000   1.0000   1.0000   1.0000   1.0000
     1.0000   1.0000   1.0000   1.0000   1.0000   1.0000   1.0000   1.0000
     1.0000   1.0000   1.0000   1.0000   1.0000   1.0000   1.0000   1.0000
     1.0000   1.0000   1.0000   1.0000   1.0000   1.0000   1.0000   1.0000
     1.0000   1.0000   1.0114   1.0118   1.0699   0.3915   0.3915   0.3418
     0.3418   0.0013   0.0000   0.0000   0.0000   0.0000   0.0000   0.0000
     0.0000   0.0000   0.0000   0.0000   0.0000   0.0000   0.0000   0.0000

          k = 0.0000 0.1925 0.0000 ( 11360 PWs)   bands (ev):

   -92.7053 -92.7008 -92.6989 -56.0341 -56.0316 -56.0148 -56.0136 -55.9902
   -55.9864 -55.8235 -55.8159 -55.8136 -52.2098 -24.1286 -24.1285 -24.0852
   -16.6196 -15.1935 -15.1120 -15.0143 -14.9595 -14.7947  -3.1644  -2.9183
    -2.7252  -2.6292  -2.5972  -2.5440  -2.3798  -1.9894  -1.7854  -1.0175
    -0.9544  -0.7048  -0.6447   0.0007   0.0672   0.4330   0.5716   0.9000
     1.7249   1.8363   1.8449   1.8975   2.1953   2.2456   2.2544   2.5438
     2.6074   3.0204   4.3067   4.3527   4.3607   4.4030   4.7606   4.9694
     6.2379   7.4503   8.4583   8.8359   9.1347  10.8831  11.0355  11.6015

     occupation numbers 
     1.0000   1.0000   1.0000   1.0000   1.0000   1.0000   1.0000   1.0000
     1.0000   1.0000   1.0000   1.0000   1.0000   1.0000   1.0000   1.0000
     1.0000   1.0000   1.0000   1.0000   1.0000   1.0000   1.0000   1.0000
     1.0000   1.0000   1.0000   1.0000   1.0000   1.0000   1.0000   1.0000
     1.0000   1.0000   1.0000   1.0000   1.0000   1.0000   1.0000   1.0000
     1.0049   1.0192   1.0210   1.0346   1.0219   0.9474   0.9312   0.2235
     0.1263   0.0003   0.0000   0.0000   0.0000   0.0000   0.0000   0.0000
     0.0000   0.0000   0.0000   0.0000   0.0000   0.0000   0.0000   0.0000

          k = 0.0000 0.1925-0.2526 ( 11384 PWs)   bands (ev):

   -92.7054 -92.7008 -92.6989 -56.0341 -56.0316 -56.0148 -56.0136 -55.9902
   -55.9864 -55.8236 -55.8159 -55.8136 -52.2098 -24.1286 -24.1285 -24.0853
   -16.6196 -15.1935 -15.1120 -15.0143 -14.9595 -14.7948  -3.1644  -2.9182
    -2.7253  -2.6292  -2.5951  -2.5439  -2.3798  -1.9894  -1.7854  -1.0176
    -0.9545  -0.7046  -0.6447   0.0007   0.0672   0.4337   0.5639   0.8547
     1.7254   1.8296   1.8449   1.8975   2.2457   2.2544   2.3474   2.5437
     2.6072   2.9553   4.3083   4.3529   4.3604   4.4037   4.7789   4.9667
     6.0190   7.4407   8.4501   9.0511   9.6864  10.6716  10.9958  11.0540

     occupation numbers 
     1.0000   1.0000   1.0000   1.0000   1.0000   1.0000   1.0000   1.0000
     1.0000   1.0000   1.0000   1.0000   1.0000   1.0000   1.0000   1.0000
     1.0000   1.0000   1.0000   1.0000   1.0000   1.0000   1.0000   1.0000
     1.0000   1.0000   1.0000   1.0000   1.0000   1.0000   1.0000   1.0000
     1.0000   1.0000   1.0000   1.0000   1.0000   1.0000   1.0000   1.0000
     1.0049   1.0179   1.0210   1.0346   0.9474   0.9312   0.7137   0.2239
     0.1266   0.0009   0.0000   0.0000   0.0000   0.0000   0.0000   0.0000
     0.0000   0.0000   0.0000   0.0000   0.0000   0.0000   0.0000   0.0000

          k = 0.0000 0.3849 0.0000 ( 11350 PWs)   bands (ev):

   -92.7042 -92.7015 -92.6994 -56.0403 -56.0291 -56.0048 -56.0036 -56.0025
   -55.9902 -55.8216 -55.8170 -55.8144 -52.2098 -24.1288 -24.1286 -24.0852
   -16.3319 -15.5092 -15.1570 -15.0596 -14.8936 -14.8095  -3.5750  -2.7629
    -2.7327  -2.7287  -2.3757  -2.2884  -2.2241  -1.7661  -1.4834  -1.0394
    -1.0342  -0.9791  -0.6200  -0.5652  -0.0735   0.3094   0.6635   1.2151
     1.8779   1.8865   2.0145   2.0370   2.2386   2.2487   2.4009   2.6242
     2.7281   3.0880   4.2749   4.2908   4.3392   4.3915   4.7067   4.7554
     5.5808   6.8126   7.8656   8.4258   9.1892   9.7390  11.5596  11.7009

     occupation numbers 
     1.0000   1.0000   1.0000   1.0000   1.0000   1.0000   1.0000   1.0000
     1.0000   1.0000   1.0000   1.0000   1.0000   1.0000   1.0000   1.0000
     1.0000   1.0000   1.0000   1.0000   1.0000   1.0000   1.0000   1.0000
     1.0000   1.0000   1.0000   1.0000   1.0000   1.0000   1.0000   1.0000
     1.0000   1.0000   1.0000   1.0000   1.0000   1.0000   1.0000   1.0000
     1.0291   1.0314   1.0729   1.0785   0.9598   0.9418   0.5666   0.1068
     0.0324   0.0001   0.0000   0.0000   0.0000   0.0000   0.0000   0.0000
     0.0000   0.0000   0.0000   0.0000   0.0000   0.0000   0.0000   0.0000

          k = 0.0000 0.3849-0.2526 ( 11352 PWs)   bands (ev):

   -92.7042 -92.7015 -92.6994 -56.0402 -56.0291 -56.0049 -56.0036 -56.0025
   -55.9902 -55.8217 -55.8170 -55.8144 -52.2098 -24.1288 -24.1286 -24.0853
   -16.3319 -15.5092 -15.1570 -15.0596 -14.8936 -14.8095  -3.5750  -2.7631
    -2.7329  -2.7290  -2.3757  -2.2869  -2.2239  -1.7662  -1.4834  -1.0393
    -1.0342  -0.9787  -0.6200  -0.5643  -0.0735   0.3097   0.6632   1.1908
     1.8779   1.8865   2.0146   2.0371   2.2262   2.2490   2.4008   2.6223
     2.8750   2.9796   4.2793   4.3226   4.3492   4.3914   4.7072   4.7405
     5.5787   6.6708   7.8625   8.4127   9.2059  10.2498  11.5754  11.6558

     occupation numbers 
     1.0000   1.0000   1.0000   1.0000   1.0000   1.0000   1.0000   1.0000
     1.0000   1.0000   1.0000   1.0000   1.0000   1.0000   1.0000   1.0000
     1.0000   1.0000   1.0000   1.0000   1.0000   1.0000   1.0000   1.0000
     1.0000   1.0000   1.0000   1.0000   1.0000   1.0000   1.0000   1.0000
     1.0000   1.0000   1.0000   1.0000   1.0000   1.0000   1.0000   1.0000
     1.0290   1.0314   1.0729   1.0786   0.9799   0.9413   0.5670   0.1089
     0.0037   0.0006   0.0000   0.0000   0.0000   0.0000   0.0000   0.0000
     0.0000   0.0000   0.0000   0.0000   0.0000   0.0000   0.0000   0.0000

          k = 0.0000-0.5774 0.0000 ( 11352 PWs)   bands (ev):

   -92.7032 -92.7023 -92.6997 -56.0425 -56.0188 -56.0177 -55.9989 -55.9970
   -55.9959 -55.8197 -55.8184 -55.8148 -52.2098 -24.1290 -24.1287 -24.0852
   -15.9277 -15.9262 -15.1740 -15.0835 -14.8419 -14.8412  -3.7245  -2.8009
    -2.7918  -2.3148  -2.3136  -2.1071  -1.9062  -1.9016  -1.8139  -1.1750
    -1.1569  -0.9134  -0.6684  -0.6673  -0.3318   0.4066   1.1566   1.1595
     1.8184   1.9089   1.9536   1.9548   2.3080   2.4966   2.5012   2.6495
     2.6567   3.7698   4.1056   4.1418   4.2214   4.4057   4.5352   4.5697
     4.8956   7.4873   7.6631   8.1356   8.2146  10.7373  11.0037  11.3593

     occupation numbers 
     1.0000   1.0000   1.0000   1.0000   1.0000   1.0000   1.0000   1.0000
     1.0000   1.0000   1.0000   1.0000   1.0000   1.0000   1.0000   1.0000
     1.0000   1.0000   1.0000   1.0000   1.0000   1.0000   1.0000   1.0000
     1.0000   1.0000   1.0000   1.0000   1.0000   1.0000   1.0000   1.0000
     1.0000   1.0000   1.0000   1.0000   1.0000   1.0000   1.0000   1.0000
     1.0158   1.0381   1.0529   1.0533   0.8148   0.3205   0.3102   0.0820
     0.0758   0.0000   0.0000   0.0000   0.0000   0.0000   0.0000   0.0000
     0.0000   0.0000   0.0000   0.0000   0.0000   0.0000   0.0000   0.0000

          k = 0.0000-0.5774-0.2526 ( 11344 PWs)   bands (ev):

   -92.7032 -92.7023 -92.6996 -56.0424 -56.0188 -56.0177 -55.9989 -55.9970
   -55.9959 -55.8198 -55.8185 -55.8148 -52.2098 -24.1290 -24.1286 -24.0852
   -15.9277 -15.9262 -15.1740 -15.0835 -14.8419 -14.8412  -3.7245  -2.8014
    -2.7921  -2.3148  -2.3136  -2.1070  -1.9059  -1.9012  -1.8139  -1.1735
    -1.1559  -0.9134  -0.6684  -0.6672  -0.3316   0.4071   1.1540   1.1555
     1.8183   1.9089   1.9537   1.9549   2.3079   2.4875   2.4962   2.6573
     2.6609   3.7158   4.0063   4.2604   4.4013   4.4045   4.4919   4.5041
     4.8956   7.4343   7.6641   8.0746   8.1975  10.9278  11.2535  11.3557

     occupation numbers 
     1.0000   1.0000   1.0000   1.0000   1.0000   1.0000   1.0000   1.0000
     1.0000   1.0000   1.0000   1.0000   1.0000   1.0000   1.0000   1.0000
     1.0000   1.0000   1.0000   1.0000   1.0000   1.0000   1.0000   1.0000
     1.0000   1.0000   1.0000   1.0000   1.0000   1.0000   1.0000   1.0000
     1.0000   1.0000   1.0000   1.0000   1.0000   1.0000   1.0000   1.0000
     1.0158   1.0381   1.0529   1.0534   0.8150   0.3413   0.3213   0.0753
     0.0723   0.0000   0.0000   0.0000   0.0000   0.0000   0.0000   0.0000
     0.0000   0.0000   0.0000   0.0000   0.0000   0.0000   0.0000   0.0000

          k = 0.1667 0.2887 0.0000 ( 11373 PWs)   bands (ev):

   -92.7045 -92.7013 -92.6993 -56.0352 -56.0350 -56.0064 -56.0062 -55.9994
   -55.9886 -55.8222 -55.8166 -55.8143 -52.2098 -24.1288 -24.1286 -24.0853
   -16.4241 -15.3068 -15.3063 -14.9514 -14.9513 -14.8042  -3.2352  -3.2350
    -2.6998  -2.5481  -2.5417  -2.3743  -2.2587  -1.6155  -1.6101  -1.0430
    -1.0393  -0.8026  -0.7947  -0.4176   0.2740   0.3606   0.3628   1.0969
     1.8659   2.0061   2.0072   2.0801   2.0807   2.1172   2.5424   2.5435
     2.5849   3.0474   4.3102   4.3184   4.3457   4.5167   4.5179   4.8810
     6.4866   6.6399   6.7765   9.4206   9.9395  10.2359  10.5232  10.7311

     occupation numbers 
     1.0000   1.0000   1.0000   1.0000   1.0000   1.0000   1.0000   1.0000
     1.0000   1.0000   1.0000   1.0000   1.0000   1.0000   1.0000   1.0000
     1.0000   1.0000   1.0000   1.0000   1.0000   1.0000   1.0000   1.0000
     1.0000   1.0000   1.0000   1.0000   1.0000   1.0000   1.0000   1.0000
     1.0000   1.0000   1.0000   1.0000   1.0000   1.0000   1.0000   1.0000
     1.0259   1.0704   1.0708   1.0833   1.0833   1.0777   0.2263   0.2241
     0.1564   0.0001   0.0000   0.0000   0.0000   0.0000   0.0000   0.0000
     0.0000   0.0000   0.0000   0.0000   0.0000   0.0000   0.0000   0.0000

          k = 0.1667 0.2887-0.2526 ( 11348 PWs)   bands (ev):

   -92.7046 -92.7012 -92.6993 -56.0352 -56.0350 -56.0063 -56.0061 -55.9994
   -55.9886 -55.8223 -55.8165 -55.8142 -52.2098 -24.1287 -24.1285 -24.0853
   -16.4241 -15.3068 -15.3063 -14.9514 -14.9513 -14.8043  -3.2352  -3.2350
    -2.7003  -2.5481  -2.5417  -2.3724  -2.2587  -1.6155  -1.6101  -1.0429
    -1.0392  -0.8023  -0.7945  -0.4168   0.2740   0.3607   0.3629   1.0669
     1.8543   2.0061   2.0072   2.0803   2.0808   2.1172   2.5418   2.5431
     2.7353   2.9495   4.3105   4.3183   4.3731   4.5176   4.5188   4.8810
     6.4310   6.5192   6.7704   9.8644  10.0962  10.2327  10.5650  10.7527

     occupation numbers 
     1.0000   1.0000   1.0000   1.0000   1.0000   1.0000   1.0000   1.0000
     1.0000   1.0000   1.0000   1.0000   1.0000   1.0000   1.0000   1.0000
     1.0000   1.0000   1.0000   1.0000   1.0000   1.0000   1.0000   1.0000
     1.0000   1.0000   1.0000   1.0000   1.0000   1.0000   1.0000   1.0000
     1.0000   1.0000   1.0000   1.0000   1.0000   1.0000   1.0000   1.0000
     1.0231   1.0704   1.0708   1.0833   1.0833   1.0777   0.2273   0.2248
     0.0295   0.0010   0.0000   0.0000   0.0000   0.0000   0.0000   0.0000
     0.0000   0.0000   0.0000   0.0000   0.0000   0.0000   0.0000   0.0000

          k = 0.1667 0.4811 0.0000 ( 11356 PWs)   bands (ev):

   -92.7034 -92.7020 -92.6997 -56.0382 -56.0278 -56.0142 -55.9991 -55.9987
   -55.9927 -55.8202 -55.8178 -55.8151 -52.2098 -24.1289 -24.1287 -24.0853
   -16.0782 -15.6684 -15.3796 -14.9618 -14.8781 -14.8296  -3.4988  -2.9962
    -2.8384  -2.4370  -2.2859  -2.1762  -2.0425  -1.8028  -1.7625  -1.1982
    -1.1366  -0.9410  -0.6597  -0.4571  -0.2074   0.4939   0.8537   1.1903
     1.9253   1.9580   1.9803   2.0109   2.3047   2.3133   2.3941   2.5574
     2.7642   3.5323   4.0754   4.1338   4.3050   4.5961   4.7502   4.8155
     4.9669   6.2326   7.3327   8.6424   9.8706  10.0163  10.4482  11.6552

     occupation numbers 
     1.0000   1.0000   1.0000   1.0000   1.0000   1.0000   1.0000   1.0000
     1.0000   1.0000   1.0000   1.0000   1.0000   1.0000   1.0000   1.0000
     1.0000   1.0000   1.0000   1.0000   1.0000   1.0000   1.0000   1.0000
     1.0000   1.0000   1.0000   1.0000   1.0000   1.0000   1.0000   1.0000
     1.0000   1.0000   1.0000   1.0000   1.0000   1.0000   1.0000   1.0000
     1.0433   1.0544   1.0621   1.0719   0.8226   0.8017   0.5855   0.1997
     0.0200   0.0000   0.0000   0.0000   0.0000   0.0000   0.0000   0.0000
     0.0000   0.0000   0.0000   0.0000   0.0000   0.0000   0.0000   0.0000

          k = 0.1667 0.4811-0.2526 ( 11352 PWs)   bands (ev):

   -92.7034 -92.7020 -92.6997 -56.0382 -56.0279 -56.0141 -55.9991 -55.9987
   -55.9927 -55.8202 -55.8178 -55.8151 -52.2098 -24.1289 -24.1286 -24.0853
   -16.0781 -15.6684 -15.3796 -14.9618 -14.8781 -14.8296  -3.4988  -2.9964
    -2.8387  -2.4372  -2.2859  -2.1758  -2.0422  -1.8029  -1.7625  -1.1969
    -1.1357  -0.9406  -0.6597  -0.4571  -0.2074   0.4942   0.8531   1.1836
     1.9252   1.9548   1.9803   2.0109   2.3015   2.3131   2.3938   2.5563
     2.7794   3.4948   4.1119   4.1452   4.3028   4.6094   4.7455   4.8159
     4.9748   6.2321   7.2481   8.6240   9.9078  10.0057  10.7551  11.7137

     occupation numbers 
     1.0000   1.0000   1.0000   1.0000   1.0000   1.0000   1.0000   1.0000
     1.0000   1.0000   1.0000   1.0000   1.0000   1.0000   1.0000   1.0000
     1.0000   1.0000   1.0000   1.0000   1.0000   1.0000   1.0000   1.0000
     1.0000   1.0000   1.0000   1.0000   1.0000   1.0000   1.0000   1.0000
     1.0000   1.0000   1.0000   1.0000   1.0000   1.0000   1.0000   1.0000
     1.0433   1.0533   1.0621   1.0719   0.8303   0.8022   0.5862   0.2014
     0.0162   0.0000   0.0000   0.0000   0.0000   0.0000   0.0000   0.0000
     0.0000   0.0000   0.0000   0.0000   0.0000   0.0000   0.0000   0.0000

          k = 0.3333 0.5774 0.0000 ( 11370 PWs)   bands (ev):

   -92.7025 -92.7025 -92.7000 -56.0287 -56.0278 -56.0278 -55.9961 -55.9952
   -55.9952 -55.8187 -55.8187 -55.8157 -52.2098 -24.1289 -24.1289 -24.0853
   -15.7298 -15.7279 -15.7279 -14.8766 -14.8759 -14.8759  -3.1081  -3.1043
    -3.1043  -2.2842  -2.2763  -2.2763  -1.9174  -1.9174  -1.9154  -1.2167
    -1.1954  -1.1954  -0.3013  -0.3013  -0.2993   0.8682   0.8682   0.8758
     1.9767   1.9794   1.9794   2.1668   2.1668   2.1668   2.5650   2.5714
     2.5714   4.0019   4.0779   4.0779   4.3955   4.8165   4.8165   4.8167
     4.9026   4.9026   7.8225   8.7185   8.7185  11.1593  11.5579  11.5580

     occupation numbers 
     1.0000   1.0000   1.0000   1.0000   1.0000   1.0000   1.0000   1.0000
     1.0000   1.0000   1.0000   1.0000   1.0000   1.0000   1.0000   1.0000
     1.0000   1.0000   1.0000   1.0000   1.0000   1.0000   1.0000   1.0000
     1.0000   1.0000   1.0000   1.0000   1.0000   1.0000   1.0000   1.0000
     1.0000   1.0000   1.0000   1.0000   1.0000   1.0000   1.0000   1.0000
     1.0609   1.0618   1.0618   1.0502   1.0502   1.0502   0.1869   0.1767
     0.1767   0.0000   0.0000   0.0000   0.0000   0.0000   0.0000   0.0000
     0.0000   0.0000   0.0000   0.0000   0.0000   0.0000   0.0000   0.0000

          k = 0.3333 0.5774-0.2526 ( 11340 PWs)   bands (ev):

   -92.7025 -92.7025 -92.7000 -56.0286 -56.0278 -56.0278 -55.9960 -55.9952
   -55.9952 -55.8187 -55.8187 -55.8156 -52.2098 -24.1288 -24.1288 -24.0852
   -15.7298 -15.7279 -15.7279 -14.8766 -14.8759 -14.8759  -3.1083  -3.1044
    -3.1044  -2.2844  -2.2764  -2.2764  -1.9174  -1.9174  -1.9154  -1.2151
    -1.1945  -1.1945  -0.3012  -0.3012  -0.2992   0.8677   0.8677   0.8749
     1.9754   1.9787   1.9787   2.1668   2.1668   2.1668   2.5656   2.5718
     2.5718   3.9528   4.0610   4.0610   4.4574   4.8166   4.8166   4.8168
     4.9286   4.9286   7.7985   8.6888   8.6888  11.2079  11.6575  11.6575

     occupation numbers 
     1.0000   1.0000   1.0000   1.0000   1.0000   1.0000   1.0000   1.0000
     1.0000   1.0000   1.0000   1.0000   1.0000   1.0000   1.0000   1.0000
     1.0000   1.0000   1.0000   1.0000   1.0000   1.0000   1.0000   1.0000
     1.0000   1.0000   1.0000   1.0000   1.0000   1.0000   1.0000   1.0000
     1.0000   1.0000   1.0000   1.0000   1.0000   1.0000   1.0000   1.0000
     1.0605   1.0616   1.0616   1.0502   1.0502   1.0502   0.1859   0.1760
     0.1760   0.0000   0.0000   0.0000   0.0000   0.0000   0.0000   0.0000
     0.0000   0.0000   0.0000   0.0000   0.0000   0.0000   0.0000   0.0000

     the Fermi energy is     2.4631 ev

!    total energy              =   -1489.14681093 Ry
     total all-electron energy =     -9588.381618 Ry
     estimated scf accuracy    <       0.00000007 Ry
     smearing contrib. (-TS)   =       0.00888053 Ry
     internal energy E=F+TS    =   -1489.15569145 Ry

     The total energy is F=E-TS. E is the sum of the following terms:
     one-electron contribution =   -2433.53524285 Ry
     hartree contribution      =    1243.49253458 Ry
     xc contribution           =    -150.35090343 Ry
     ewald contribution        =     186.76240324 Ry
     one-center paw contrib.   =    -335.52448299 Ry
      -> PAW hartree energy AE =     882.87570948 Ry
      -> PAW hartree energy PS =    -880.60310568 Ry
      -> PAW xc energy AE      =    -480.13767931 Ry
      -> PAW xc energy PS      =     142.34059252 Ry
      -> total E_H with PAW    =    1245.76513838 Ry
      -> total E_XC with PAW   =    -488.14799022 Ry

     total magnetization       =     2.48 Bohr mag/cell
     absolute magnetization    =     2.62 Bohr mag/cell

     convergence has been achieved in  23 iterations

     Forces acting on atoms (cartesian axes, Ry/au):

     atom    1 type  1   force =     0.00000000    0.00000000    0.00706097
     atom    2 type  1   force =     0.00000000    0.00000000    0.00534226
     atom    3 type  1   force =    -0.00000000   -0.00000000    0.00534226
     atom    4 type  2   force =    -0.00005327   -0.00009227   -0.02796630
     atom    5 type  2   force =     0.00010655   -0.00000000   -0.02796630
     atom    6 type  2   force =    -0.00005327    0.00009227   -0.02796630
     atom    7 type  2   force =    -0.00139809   -0.00000000    0.01733742
     atom    8 type  2   force =     0.00069905    0.00121079    0.01733742
     atom    9 type  2   force =     0.00069905   -0.00121079    0.01733742
     atom   10 type  3   force =    -0.00000000   -0.00000000    0.01414115
     The non-local contrib.  to forces
     atom    1 type  1   force =     0.00000000    0.00000000   -0.00469729
     atom    2 type  1   force =     0.00000000   -0.00000000    0.00203874
     atom    3 type  1   force =     0.00000000    0.00000000    0.00203874
     atom    4 type  2   force =    -0.00086774   -0.00150298   -1.20646683
     atom    5 type  2   force =     0.00173549    0.00000000   -1.20646683
     atom    6 type  2   force =    -0.00086774    0.00150298   -1.20646683
     atom    7 type  2   force =    -0.01120156   -0.00000000    1.12514748
     atom    8 type  2   force =     0.00560078    0.00970084    1.12514748
     atom    9 type  2   force =     0.00560078   -0.00970084    1.12514748
     atom   10 type  3   force =     0.00000000    0.00000000   -0.07115264
     The ionic contribution  to forces
     atom    1 type  1   force =    -0.00000000   -0.00000000    2.69156703
     atom    2 type  1   force =     0.00000002   -0.00000001    2.42163867
     atom    3 type  1   force =    -0.00000002    0.00000001    2.42163867
     atom    4 type  2   force =     0.02464553    0.04268730   39.30399809
     atom    5 type  2   force =    -0.04929105   -0.00000000   39.30399810
     atom    6 type  2   force =     0.02464552   -0.04268730   39.30399810
     atom    7 type  2   force =     0.16795504    0.00000000  -37.53622577
     atom    8 type  2   force =    -0.08397752   -0.14545334  -37.53622576
     atom    9 type  2   force =    -0.08397752    0.14545333  -37.53622577
     atom   10 type  3   force =    -0.00000000   -0.00000000  -12.83816133
     The local contribution  to forces
     atom    1 type  1   force =     0.00000000    0.00000000   -2.67991129
     atom    2 type  1   force =     0.00000021   -0.00000012   -2.41836938
     atom    3 type  1   force =    -0.00000021    0.00000012   -2.41836938
     atom    4 type  2   force =    -0.02389553   -0.04138828  -38.13599084
     atom    5 type  2   force =     0.04779107    0.00000000  -38.13599084
     atom    6 type  2   force =    -0.02389553    0.04138828  -38.13599084
     atom    7 type  2   force =    -0.15836650   -0.00000000   36.43807435
     atom    8 type  2   force =     0.07918325    0.13714942   36.43807435
     atom    9 type  2   force =     0.07918325   -0.13714942   36.43807435
     atom   10 type  3   force =     0.00000000    0.00000000   12.92339300
     The core correction contribution to forces
     atom    1 type  1   force =    -0.00000000   -0.00000000    0.00007574
     atom    2 type  1   force =     0.00000000   -0.00000000   -0.00000003
     atom    3 type  1   force =    -0.00000000    0.00000000   -0.00000003
     atom    4 type  2   force =     0.00000742    0.00001286    0.01065434
     atom    5 type  2   force =    -0.00001484    0.00000000    0.01065434
     atom    6 type  2   force =     0.00000742   -0.00001286    0.01065434
     atom    7 type  2   force =     0.00010301   -0.00000000   -0.00985329
     atom    8 type  2   force =    -0.00005150   -0.00008921   -0.00985329
     atom    9 type  2   force =    -0.00005150    0.00008921   -0.00985329
     atom   10 type  3   force =    -0.00000000   -0.00000000    0.00002609
     The Hubbard contrib.    to forces
     atom    1 type  1   force =     0.00000000    0.00000000    0.00000000
     atom    2 type  1   force =     0.00000000    0.00000000    0.00000000
     atom    3 type  1   force =     0.00000000    0.00000000    0.00000000
     atom    4 type  2   force =     0.00000000    0.00000000    0.00000000
     atom    5 type  2   force =     0.00000000    0.00000000    0.00000000
     atom    6 type  2   force =     0.00000000    0.00000000    0.00000000
     atom    7 type  2   force =     0.00000000    0.00000000    0.00000000
     atom    8 type  2   force =     0.00000000    0.00000000    0.00000000
     atom    9 type  2   force =     0.00000000    0.00000000    0.00000000
     atom   10 type  3   force =     0.00000000    0.00000000    0.00000000
     The SCF correction term to forces
     atom    1 type  1   force =     0.00000000    0.00000000    0.00002136
     atom    2 type  1   force =    -0.00000000    0.00000000    0.00002884
     atom    3 type  1   force =     0.00000000   -0.00000000    0.00002884
     atom    4 type  2   force =     0.00005706    0.00009882   -0.00016649
     atom    5 type  2   force =    -0.00011411    0.00000000   -0.00016649
     atom    6 type  2   force =     0.00005706   -0.00009882   -0.00016649
     atom    7 type  2   force =     0.00011192   -0.00000000    0.00018923
     atom    8 type  2   force =    -0.00005596   -0.00009693    0.00018923
     atom    9 type  2   force =    -0.00005596    0.00009693    0.00018923
     atom   10 type  3   force =     0.00000000    0.00000000    0.00003062

     Total force =     0.059673     Total SCF correction =     0.000520

     Writing all to output data dir ./out/pw.save/ :
     XML data file, charge density, pseudopotentials, collected wavefunctions
 
     init_run     :     22.46s CPU      5.08s WALL (       1 calls)
     electrons    :    292.94s CPU     67.03s WALL (       1 calls)
     forces       :      1.12s CPU      0.81s WALL (       1 calls)

     Called by init_run:
     wfcinit      :      0.49s CPU      0.65s WALL (       1 calls)
     wfcinit:atom :      0.05s CPU      0.05s WALL (      28 calls)
     wfcinit:wfcr :      0.30s CPU      0.34s WALL (      28 calls)
     potinit      :     21.25s CPU      3.63s WALL (       1 calls)
     hinit0       :      0.56s CPU      0.55s WALL (       1 calls)

     Called by electrons:
     c_bands      :     26.05s CPU     26.15s WALL (      23 calls)
     sum_band     :      4.76s CPU      4.77s WALL (      23 calls)
     v_of_rho     :      0.62s CPU      0.45s WALL (      24 calls)
     v_h          :      0.36s CPU      0.10s WALL (      24 calls)
     v_xc         :      0.27s CPU      0.36s WALL (      25 calls)
     newd         :      0.59s CPU      0.54s WALL (      24 calls)
                                        0.54s GPU  (      24 calls)
     PAW_pot      :    268.86s CPU     34.78s WALL (      24 calls)
     mix_rho      :      1.36s CPU      1.32s WALL (      23 calls)

     Called by c_bands:
     init_us_2    :      0.88s CPU      0.86s WALL (    1344 calls)
     cegterg      :     20.84s CPU     20.97s WALL (     644 calls)

     Called by sum_band:
     sum_band:wei :      0.04s CPU      0.04s WALL (      23 calls)
                                        0.04s GPU  (      23 calls)
     sum_band:loo :      3.25s CPU      3.24s WALL (      23 calls)
                                        3.24s GPU  (      23 calls)
     sum_band:buf :      1.05s CPU      1.08s WALL (     644 calls)
                                        1.07s GPU  (     644 calls)
     sum_band:ini :      0.43s CPU      0.42s WALL (     644 calls)
                                        0.42s GPU  (     644 calls)
     sum_band:cal :      0.08s CPU      0.11s WALL (     644 calls)
                                        0.08s GPU  (     644 calls)
     sum_band:bec :      0.32s CPU      0.34s WALL (     644 calls)
                                        0.33s GPU  (     644 calls)
     addusdens    :      0.95s CPU      0.96s WALL (      23 calls)
                                        0.96s GPU  (      23 calls)
     addusd:skk   :      0.01s CPU      0.01s WALL (      69 calls)
                                        0.01s GPU  (      69 calls)

     Called by *egterg:
     cdiaghg      :      8.39s CPU      8.50s WALL (    3753 calls)
                                        8.45s GPU  (    3753 calls)
     cegterg:over :      1.03s CPU      1.04s WALL (    3109 calls)
     cegterg:upda :      0.99s CPU      0.99s WALL (    3109 calls)
     cegterg:last :      0.19s CPU      0.19s WALL (    1239 calls)
     h_psi        :      8.14s CPU      8.29s WALL (    3781 calls)
                                        8.24s GPU  (    3781 calls)
     s_psi        :      1.18s CPU      1.22s WALL (    3781 calls)
     g_psi        :      0.02s CPU      0.13s WALL (    3109 calls)
                                        0.09s GPU  (    3109 calls)

     Called by h_psi:
     h_psi:calbec :      0.16s CPU      0.37s WALL (    3781 calls)
                                        0.32s GPU  (    3781 calls)
     vloc_psi     :      6.27s CPU      6.30s WALL (    3781 calls)
                                        6.25s GPU  (    3781 calls)
     add_vuspsi   :      1.12s CPU      1.33s WALL (    3781 calls)
                                        1.28s GPU  (    3781 calls)

     General routines
     calbec       :      0.20s CPU      0.23s WALL (    4537 calls)
     fft          :      7.57s CPU      1.26s WALL (     613 calls)
                                        0.04s GPU  (     565 calls)
     ffts         :      3.63s CPU      0.95s WALL (    1166 calls)
                                        0.04s GPU  (    1118 calls)
     fftw         :      0.33s CPU      4.00s WALL (   18466 calls)
                                        3.79s GPU  (   18466 calls)
     interpolate  :     11.55s CPU      2.25s WALL (      48 calls)
 
     Parallel routines

     PAW routines
     PAW_pot      :    268.86s CPU     34.78s WALL (      24 calls)
     PAW_symme    :      0.04s CPU      0.01s WALL (      47 calls)
 
     PWSCF        :   5m17.33s CPU   1m13.60s WALL

 
   This run was terminated on:   5:49:12  12Jul2026            

=------------------------------------------------------------------------------=
   JOB DONE.
=------------------------------------------------------------------------------=
Warning: ieee_divide_by_zero is signaling
Warning: ieee_inexact is signaling
FORTRAN STOP
