
     Program PWSCF v.7.3.1 starts on 12Jul2026 at  2:13: 7 

     This program is part of the open-source Quantum ESPRESSO suite
     for quantum simulation of materials; please cite
         "P. Giannozzi et al., J. Phys.:Condens. Matter 21 395502 (2009);
         "P. Giannozzi et al., J. Phys.:Condens. Matter 29 465901 (2017);
         "P. Giannozzi et al., J. Chem. Phys. 152 154105 (2020);
          URL http://www.quantum-espresso.org", 
     in publications or presentations arising from this work. More details at
     http://www.quantum-espresso.org/quote

     Parallel version (MPI & OpenMP), running on      14 processor cores
     Number of MPI processes:                 1
     Threads/MPI process:                    14

     MPI processes distributed on     1 nodes
     853777 MiB available memory on the printing compute node when the environment starts
 
     Reading input from pw.in

     Current dimensions of program PWSCF are:
     Max number of different atomic species (ntypx) = 10
     Max number of k-points (npk) =  40000
     Max angular momentum in pseudopotentials (lmaxx) =  4
     file Co.pbe-spn-kjpaw_psl.0.3.1.UPF: wavefunction(s)  3P 3D renormalized
     file O.pbe-n-kjpaw_psl.1.0.0.UPF: wavefunction(s)  2S 2P renormalized
     file Na.pbe-spn-kjpaw_psl.1.0.0.UPF: wavefunction(s)  2P renormalized
 
     Subspace diagonalization in iterative solution of the eigenvalue problem:
     a serial algorithm will be used

 
     G-vector sticks info
     --------------------
     sticks:   dense  smooth     PW     G-vecs:    dense   smooth      PW
     Sum         979     499    151                47419    16845    2747
 
     Using Slab Decomposition
 


     bravais-lattice index     =            4
     lattice parameter (alat)  =       5.4575  a.u.
     unit-cell volume          =     268.0923 (a.u.)^3
     number of atoms/cell      =            4
     number of atomic types    =            3
     number of electrons       =        38.00
     number of Kohn-Sham states=           27
     kinetic-energy cutoff     =      60.0000  Ry
     charge density cutoff     =     480.0000  Ry
     scf convergence threshold =      1.0E-08
     mixing beta               =       0.3000
     number of iterations used =            8  plain     mixing
     Exchange-correlation= SLA  PW   PBX  PBC
                           (   1   4   3   4   0   0   0)

     GPU acceleration is ACTIVE.  1 visible GPUs per MPI rank
     GPU-aware MPI enabled


     GPU used by master process:

        Device Number: 0
        Device name: NVIDIA A100-SXM4-80GB
        Compute capability : 80
        Ratio of single to double precision performance  : 2
        Memory Clock Rate (KHz): 1593000
        Memory Bus Width (bits): 5120
        Peak Memory Bandwidth (GB/s): ******

     celldm(1)=   5.457529  celldm(2)=   0.000000  celldm(3)=   1.904432
     celldm(4)=   0.000000  celldm(5)=   0.000000  celldm(6)=   0.000000

     crystal axes: (cart. coord. in units of alat)
               a(1) = (   1.000000   0.000000   0.000000 )  
               a(2) = (  -0.500000   0.866025   0.000000 )  
               a(3) = (   0.000000   0.000000   1.904432 )  

     reciprocal axes: (cart. coord. in units 2 pi/alat)
               b(1) = (  1.000000  0.577350 -0.000000 )  
               b(2) = (  0.000000  1.154701  0.000000 )  
               b(3) = (  0.000000 -0.000000  0.525091 )  


     PseudoPot. # 1 for Co read from file:
     ../../pseudo/Co.pbe-spn-kjpaw_psl.0.3.1.UPF
     MD5 check sum: 3c0a43779828c046024e4f3be63f8e67
     Pseudo is Projector augmented-wave + core cor, Zval = 17.0
     Generated using &quot;atomic&quot; code by A. Dal Corso  v.6.2.2
     Shape of augmentation charge: PSQ
     Using radial grid of 1193 points,  6 beta functions with: 
                l(1) =   0
                l(2) =   0
                l(3) =   1
                l(4) =   1
                l(5) =   2
                l(6) =   2
     Q(r) pseudized with 0 coefficients 


     PseudoPot. # 2 for O  read from file:
     ../../pseudo/O.pbe-n-kjpaw_psl.1.0.0.UPF
     MD5 check sum: e99d9cef9b487d1ca56f5b95ecd0fd7a
     Pseudo is Projector augmented-wave + core cor, Zval =  6.0
     Generated using &quot;atomic&quot; code by A. Dal Corso  v.6.3
     Shape of augmentation charge: PSQ
     Using radial grid of 1095 points,  4 beta functions with: 
                l(1) =   0
                l(2) =   0
                l(3) =   1
                l(4) =   1
     Q(r) pseudized with 0 coefficients 


     PseudoPot. # 3 for Na read from file:
     ../../pseudo/Na.pbe-spn-kjpaw_psl.1.0.0.UPF
     MD5 check sum: 05b4deb74e3932c23ab016979dc8b5d4
     Pseudo is Projector augmented-wave + core cor, Zval =  9.0
     Generated using &quot;atomic&quot; code by A. Dal Corso  v.6.3
     Shape of augmentation charge: PSQ
     Using radial grid of 1121 points,  4 beta functions with: 
                l(1) =   0
                l(2) =   0
                l(3) =   1
                l(4) =   1
     Q(r) pseudized with 0 coefficients 


     atomic species   valence    mass     pseudopotential
     Co               17.00    58.93300     Co( 1.00)
     O                 6.00    15.99900     O ( 1.00)
     Na                9.00    22.98977     Na( 1.00)

     Starting magnetic structure 
     atomic species   magnetization
     Co              0.300
     O               0.000
     Na              0.000

      6 Sym. Ops. (no inversion) found


                                    s                        frac. trans.

      isym =  1     identity                                     

 cryst.   s( 1) = (     1          0          0      )
                  (     0          1          0      )
                  (     0          0          1      )

 cart.    s( 1) = (  1.0000000  0.0000000  0.0000000 )
                  (  0.0000000  1.0000000  0.0000000 )
                  (  0.0000000  0.0000000  1.0000000 )


      isym =  2     120 deg rotation - cryst. axis [0,0,1]       

 cryst.   s( 2) = (     0          1          0      )
                  (    -1         -1          0      )
                  (     0          0          1      )

 cart.    s( 2) = ( -0.5000000 -0.8660254  0.0000000 )
                  (  0.8660254 -0.5000000  0.0000000 )
                  (  0.0000000  0.0000000  1.0000000 )


      isym =  3     120 deg rotation - cryst. axis [0,0,-1]      

 cryst.   s( 3) = (    -1         -1          0      )
                  (     1          0          0      )
                  (     0          0          1      )

 cart.    s( 3) = ( -0.5000000  0.8660254  0.0000000 )
                  ( -0.8660254 -0.5000000  0.0000000 )
                  (  0.0000000  0.0000000  1.0000000 )


      isym =  4     inv. 180 deg rotation - cart. axis [1,0,0]   

 cryst.   s( 4) = (    -1          0          0      )
                  (     1          1          0      )
                  (     0          0          1      )

 cart.    s( 4) = ( -1.0000000  0.0000000  0.0000000 )
                  (  0.0000000  1.0000000  0.0000000 )
                  (  0.0000000  0.0000000  1.0000000 )


      isym =  5     inv. 180 deg rotation - cryst. axis [0,1,0]  

 cryst.   s( 5) = (     1          1          0      )
                  (     0         -1          0      )
                  (     0          0          1      )

 cart.    s( 5) = (  0.5000000  0.8660254  0.0000000 )
                  (  0.8660254 -0.5000000  0.0000000 )
                  (  0.0000000  0.0000000  1.0000000 )


      isym =  6     inv. 180 deg rotation - cryst. axis [1,1,0]  

 cryst.   s( 6) = (     0         -1          0      )
                  (    -1          0          0      )
                  (     0          0          1      )

 cart.    s( 6) = (  0.5000000 -0.8660254  0.0000000 )
                  ( -0.8660254 -0.5000000  0.0000000 )
                  (  0.0000000  0.0000000  1.0000000 )


     point group C_3v (3m)  
     there are  3 classes
     the character table:

       E     2C3   3s_v 
A_1    1.00  1.00  1.00
A_2    1.00  1.00 -1.00
E      2.00 -1.00  0.00

     the symmetry operations in each class and the name of the first element:

     E        1
          identity                                               
     2C3      2    3
          120 deg rotation - cryst. axis [0,0,1]                 
     3s_v     4    5    6
          inv. 180 deg rotation - cart. axis [1,0,0]             

   Cartesian axes

     site n.     atom                  positions (alat units)
         1        Co     tau(   1) = (   0.0000000   0.0000000   0.0000000  )
         2        O      tau(   2) = (  -0.0000000   0.5773503   0.3324100  )
         3        O      tau(   3) = (   0.5000000   0.2886751   1.5720222  )
         4        Na     tau(   4) = (  -0.0000000   0.5773503   1.0560942  )

   Crystallographic axes

     site n.     atom                  positions (cryst. coord.)
         1        Co     tau(   1) = (  0.0000000  0.0000000  0.0000000  )
         2        O      tau(   2) = (  0.3333333  0.6666667  0.1745455  )
         3        O      tau(   3) = (  0.6666667  0.3333333  0.8254545  )
         4        Na     tau(   4) = (  0.3333333  0.6666667  0.5545455  )

     number of k points=    25  Marzari-Vanderbilt smearing, width (Ry)=  0.0200
                       cart. coord. in units 2pi/alat
        k(    1) = (   0.0000000   0.0000000   0.0000000), wk =   0.0052083
        k(    2) = (   0.0000000   0.0000000   0.1750303), wk =   0.0104167
        k(    3) = (   0.0000000   0.1443376   0.0000000), wk =   0.0312500
        k(    4) = (   0.0000000   0.1443376   0.1750303), wk =   0.0312500
        k(    5) = (   0.0000000   0.2886751   0.0000000), wk =   0.0312500
        k(    6) = (   0.0000000   0.2886751   0.1750303), wk =   0.0312500
        k(    7) = (   0.0000000   0.4330127   0.0000000), wk =   0.0312500
        k(    8) = (   0.0000000   0.4330127   0.1750303), wk =   0.0312500
        k(    9) = (   0.0000000  -0.5773503   0.0000000), wk =   0.0156250
        k(   10) = (   0.0000000  -0.5773503   0.1750303), wk =   0.0312500
        k(   11) = (   0.1250000   0.2165064   0.0000000), wk =   0.0312500
        k(   12) = (   0.1250000   0.2165064   0.1750303), wk =   0.0625000
        k(   13) = (   0.1250000   0.3608439   0.0000000), wk =   0.0625000
        k(   14) = (   0.1250000   0.3608439   0.1750303), wk =   0.0625000
        k(   15) = (   0.1250000   0.5051815   0.0000000), wk =   0.0625000
        k(   16) = (   0.1250000   0.5051815   0.1750303), wk =   0.0625000
        k(   17) = (   0.2500000   0.4330127   0.0000000), wk =   0.0312500
        k(   18) = (   0.2500000   0.4330127   0.1750303), wk =   0.0625000
        k(   19) = (   0.2500000   0.5773503   0.0000000), wk =   0.0312500
        k(   20) = (   0.2500000   0.5773503   0.1750303), wk =   0.0625000
        k(   21) = (   0.0000000  -0.1443376   0.1750303), wk =   0.0312500
        k(   22) = (   0.0000000  -0.2886751   0.1750303), wk =   0.0312500
        k(   23) = (   0.0000000  -0.4330127   0.1750303), wk =   0.0312500
        k(   24) = (  -0.1250000  -0.3608439   0.1750303), wk =   0.0625000
        k(   25) = (  -0.1250000  -0.5051815   0.1750303), wk =   0.0625000

                       cryst. coord.
        k(    1) = (   0.0000000   0.0000000   0.0000000), wk =   0.0052083
        k(    2) = (   0.0000000   0.0000000   0.3333333), wk =   0.0104167
        k(    3) = (   0.0000000   0.1250000   0.0000000), wk =   0.0312500
        k(    4) = (   0.0000000   0.1250000   0.3333333), wk =   0.0312500
        k(    5) = (   0.0000000   0.2500000   0.0000000), wk =   0.0312500
        k(    6) = (   0.0000000   0.2500000   0.3333333), wk =   0.0312500
        k(    7) = (   0.0000000   0.3750000   0.0000000), wk =   0.0312500
        k(    8) = (   0.0000000   0.3750000   0.3333333), wk =   0.0312500
        k(    9) = (   0.0000000  -0.5000000   0.0000000), wk =   0.0156250
        k(   10) = (   0.0000000  -0.5000000   0.3333333), wk =   0.0312500
        k(   11) = (   0.1250000   0.1250000   0.0000000), wk =   0.0312500
        k(   12) = (   0.1250000   0.1250000   0.3333333), wk =   0.0625000
        k(   13) = (   0.1250000   0.2500000   0.0000000), wk =   0.0625000
        k(   14) = (   0.1250000   0.2500000   0.3333333), wk =   0.0625000
        k(   15) = (   0.1250000   0.3750000   0.0000000), wk =   0.0625000
        k(   16) = (   0.1250000   0.3750000   0.3333333), wk =   0.0625000
        k(   17) = (   0.2500000   0.2500000   0.0000000), wk =   0.0312500
        k(   18) = (   0.2500000   0.2500000   0.3333333), wk =   0.0625000
        k(   19) = (   0.2500000   0.3750000   0.0000000), wk =   0.0312500
        k(   20) = (   0.2500000   0.3750000   0.3333333), wk =   0.0625000
        k(   21) = (   0.0000000  -0.1250000   0.3333333), wk =   0.0312500
        k(   22) = (   0.0000000  -0.2500000   0.3333333), wk =   0.0312500
        k(   23) = (   0.0000000  -0.3750000   0.3333333), wk =   0.0312500
        k(   24) = (  -0.1250000  -0.2500000   0.3333333), wk =   0.0625000
        k(   25) = (  -0.1250000  -0.3750000   0.3333333), wk =   0.0625000

     Dense  grid:    47419 G-vectors     FFT dimensions: (  40,  40,  75)

     Smooth grid:    16845 G-vectors     FFT dimensions: (  27,  27,  54)

     Dynamical RAM for                 wfc:       0.87 MB

     Dynamical RAM for     wfc (w. buffer):      44.21 MB

     Dynamical RAM for           str. fact:       2.17 MB

     Dynamical RAM for           local pot:       0.00 MB

     Dynamical RAM for          nlocal pot:       1.35 MB

     Dynamical RAM for                qrad:       5.27 MB

     Dynamical RAM for          rho,v,vnew:       9.83 MB

     Dynamical RAM for               rhoin:       3.28 MB

     Dynamical RAM for            rho*nmix:      23.15 MB

     Dynamical RAM for           G-vectors:       2.84 MB

     Dynamical RAM for          h,s,v(r/c):       0.13 MB

     Dynamical RAM for          <psi|beta>:       0.02 MB

     Dynamical RAM for                 psi:       1.73 MB

     Dynamical RAM for                hpsi:       1.73 MB

     Dynamical RAM for                spsi:       1.73 MB

     Dynamical RAM for      wfcinit/wfcrot:       1.75 MB

     Dynamical RAM for           addusdens:     136.75 MB

     Dynamical RAM for          addusforce:     138.21 MB

     Estimated static dynamical RAM per process >      77.34 MB

     Estimated max dynamical RAM per process >     238.71 MB

     Check: negative core charge=   -0.000009
     Generating pointlists ...
     new r_m :   0.2748 (alat units)  1.4998 (a.u.) for type    1
     new r_m :   0.2748 (alat units)  1.4998 (a.u.) for type    2
     new r_m :   0.2985 (alat units)  1.6292 (a.u.) for type    3

     Initial potential from superposition of free atoms

     starting charge      37.9934, renormalised to      38.0000
     Starting wfcs are   23 randomized atomic wfcs +    4 random wfcs
     Checking if some PAW data can be deallocated... 

     total cpu time spent up to now is        2.9 secs

     Self-consistent Calculation
[tb_dev] Currently allocated     6.54E-01 Mbytes, locked:    0 /   6
[tb_pin] Currently allocated     0.00E+00 Mbytes, locked:    0 /   0

     iteration #  1     ecut=    60.00 Ry     beta= 0.30
     Davidson diagonalization with overlap

---- Real-time Memory Report at c_bands before calling an iterative solver
           651 MiB given to the printing process from OS
             0 MiB allocation reported by mallinfo(arena+hblkhd)
        852540 MiB available memory on the node where the printing process lives
     GPU memory used/free/total (MiB): 924 / 80226 / 81151
------------------
     ethr =  1.00E-02,  avg # of iterations =  9.5

     total cpu time spent up to now is        4.9 secs

     total energy              =    -568.82443577 Ry
     estimated scf accuracy    <       1.42603121 Ry

     total magnetization       =     4.00 Bohr mag/cell
     absolute magnetization    =     4.00 Bohr mag/cell
[tb_dev] Currently allocated     3.05E-05 Mbytes, locked:    0 /   2
[tb_pin] Currently allocated     0.00E+00 Mbytes, locked:    0 /   0

     iteration #  2     ecut=    60.00 Ry     beta= 0.30
     Davidson diagonalization with overlap

---- Real-time Memory Report at c_bands before calling an iterative solver
           692 MiB given to the printing process from OS
             0 MiB allocation reported by mallinfo(arena+hblkhd)
        852410 MiB available memory on the node where the printing process lives
     GPU memory used/free/total (MiB): 936 / 80214 / 81151
------------------
     ethr =  3.75E-03,  avg # of iterations =  2.2

     total cpu time spent up to now is        6.0 secs

     total energy              =    -568.94227894 Ry
     estimated scf accuracy    <       2.15783716 Ry

     total magnetization       =     0.98 Bohr mag/cell
     absolute magnetization    =     1.38 Bohr mag/cell
[tb_dev] Currently allocated     3.05E-05 Mbytes, locked:    0 /   2
[tb_pin] Currently allocated     0.00E+00 Mbytes, locked:    0 /   0

     iteration #  3     ecut=    60.00 Ry     beta= 0.30
     Davidson diagonalization with overlap

---- Real-time Memory Report at c_bands before calling an iterative solver
           695 MiB given to the printing process from OS
             0 MiB allocation reported by mallinfo(arena+hblkhd)
        852400 MiB available memory on the node where the printing process lives
     GPU memory used/free/total (MiB): 936 / 80214 / 81151
------------------
     ethr =  3.75E-03,  avg # of iterations =  1.1

     total cpu time spent up to now is        7.0 secs

     total energy              =    -569.18325115 Ry
     estimated scf accuracy    <       0.17668055 Ry

     total magnetization       =     3.67 Bohr mag/cell
     absolute magnetization    =     3.67 Bohr mag/cell
[tb_dev] Currently allocated     3.05E-05 Mbytes, locked:    0 /   2
[tb_pin] Currently allocated     0.00E+00 Mbytes, locked:    0 /   0

     iteration #  4     ecut=    60.00 Ry     beta= 0.30
     Davidson diagonalization with overlap

---- Real-time Memory Report at c_bands before calling an iterative solver
           696 MiB given to the printing process from OS
             0 MiB allocation reported by mallinfo(arena+hblkhd)
        852387 MiB available memory on the node where the printing process lives
     GPU memory used/free/total (MiB): 936 / 80214 / 81151
------------------
     ethr =  4.65E-04,  avg # of iterations =  3.8

     total cpu time spent up to now is        8.4 secs

     total energy              =    -569.24437624 Ry
     estimated scf accuracy    <       0.12782257 Ry

     total magnetization       =     2.44 Bohr mag/cell
     absolute magnetization    =     2.46 Bohr mag/cell
[tb_dev] Currently allocated     3.05E-05 Mbytes, locked:    0 /   2
[tb_pin] Currently allocated     0.00E+00 Mbytes, locked:    0 /   0

     iteration #  5     ecut=    60.00 Ry     beta= 0.30
     Davidson diagonalization with overlap

---- Real-time Memory Report at c_bands before calling an iterative solver
           697 MiB given to the printing process from OS
             0 MiB allocation reported by mallinfo(arena+hblkhd)
        852384 MiB available memory on the node where the printing process lives
     GPU memory used/free/total (MiB): 936 / 80214 / 81151
------------------
     ethr =  3.36E-04,  avg # of iterations =  1.6

     total cpu time spent up to now is        9.4 secs

     total energy              =    -569.26364039 Ry
     estimated scf accuracy    <       0.11027736 Ry

     total magnetization       =     2.12 Bohr mag/cell
     absolute magnetization    =     2.17 Bohr mag/cell
[tb_dev] Currently allocated     3.05E-05 Mbytes, locked:    0 /   2
[tb_pin] Currently allocated     0.00E+00 Mbytes, locked:    0 /   0

     iteration #  6     ecut=    60.00 Ry     beta= 0.30
     Davidson diagonalization with overlap

---- Real-time Memory Report at c_bands before calling an iterative solver
           700 MiB given to the printing process from OS
             0 MiB allocation reported by mallinfo(arena+hblkhd)
        852395 MiB available memory on the node where the printing process lives
     GPU memory used/free/total (MiB): 936 / 80214 / 81151
------------------
     ethr =  2.90E-04,  avg # of iterations =  1.5

     total cpu time spent up to now is       10.5 secs

     total energy              =    -569.25071809 Ry
     estimated scf accuracy    <       0.07673510 Ry

     total magnetization       =     0.86 Bohr mag/cell
     absolute magnetization    =     1.10 Bohr mag/cell
[tb_dev] Currently allocated     3.05E-05 Mbytes, locked:    0 /   2
[tb_pin] Currently allocated     0.00E+00 Mbytes, locked:    0 /   0

     iteration #  7     ecut=    60.00 Ry     beta= 0.30
     Davidson diagonalization with overlap

---- Real-time Memory Report at c_bands before calling an iterative solver
           701 MiB given to the printing process from OS
             0 MiB allocation reported by mallinfo(arena+hblkhd)
        852383 MiB available memory on the node where the printing process lives
     GPU memory used/free/total (MiB): 936 / 80214 / 81151
------------------
     ethr =  2.02E-04,  avg # of iterations =  1.1

     total cpu time spent up to now is       11.6 secs

     total energy              =    -569.26450720 Ry
     estimated scf accuracy    <       0.04187668 Ry

     total magnetization       =     2.01 Bohr mag/cell
     absolute magnetization    =     2.06 Bohr mag/cell
[tb_dev] Currently allocated     3.05E-05 Mbytes, locked:    0 /   2
[tb_pin] Currently allocated     0.00E+00 Mbytes, locked:    0 /   0

     iteration #  8     ecut=    60.00 Ry     beta= 0.30
     Davidson diagonalization with overlap

---- Real-time Memory Report at c_bands before calling an iterative solver
           702 MiB given to the printing process from OS
             0 MiB allocation reported by mallinfo(arena+hblkhd)
        852364 MiB available memory on the node where the printing process lives
     GPU memory used/free/total (MiB): 936 / 80214 / 81151
------------------
     ethr =  1.10E-04,  avg # of iterations =  1.3

     total cpu time spent up to now is       12.6 secs

     total energy              =    -569.17492230 Ry
     estimated scf accuracy    <       0.04359747 Ry

     total magnetization       =     1.94 Bohr mag/cell
     absolute magnetization    =     2.00 Bohr mag/cell
[tb_dev] Currently allocated     3.05E-05 Mbytes, locked:    0 /   2
[tb_pin] Currently allocated     0.00E+00 Mbytes, locked:    0 /   0

     iteration #  9     ecut=    60.00 Ry     beta= 0.30
     Davidson diagonalization with overlap

---- Real-time Memory Report at c_bands before calling an iterative solver
           703 MiB given to the printing process from OS
             0 MiB allocation reported by mallinfo(arena+hblkhd)
        852363 MiB available memory on the node where the printing process lives
     GPU memory used/free/total (MiB): 936 / 80214 / 81151
------------------
     ethr =  1.10E-04,  avg # of iterations =  2.0

     total cpu time spent up to now is       13.7 secs

     total energy              =    -569.24113803 Ry
     estimated scf accuracy    <       0.08654438 Ry

     total magnetization       =     3.66 Bohr mag/cell
     absolute magnetization    =     3.67 Bohr mag/cell
[tb_dev] Currently allocated     3.05E-05 Mbytes, locked:    0 /   2
[tb_pin] Currently allocated     0.00E+00 Mbytes, locked:    0 /   0

     iteration # 10     ecut=    60.00 Ry     beta= 0.30
     Davidson diagonalization with overlap

---- Real-time Memory Report at c_bands before calling an iterative solver
           705 MiB given to the printing process from OS
             0 MiB allocation reported by mallinfo(arena+hblkhd)
        852332 MiB available memory on the node where the printing process lives
     GPU memory used/free/total (MiB): 936 / 80214 / 81151
------------------
     ethr =  1.10E-04,  avg # of iterations =  1.1

     total cpu time spent up to now is       14.8 secs

     total energy              =    -569.21594043 Ry
     estimated scf accuracy    <       0.04168771 Ry

     total magnetization       =     2.83 Bohr mag/cell
     absolute magnetization    =     2.86 Bohr mag/cell
[tb_dev] Currently allocated     3.05E-05 Mbytes, locked:    0 /   2
[tb_pin] Currently allocated     0.00E+00 Mbytes, locked:    0 /   0

     iteration # 11     ecut=    60.00 Ry     beta= 0.30
     Davidson diagonalization with overlap

---- Real-time Memory Report at c_bands before calling an iterative solver
           705 MiB given to the printing process from OS
             0 MiB allocation reported by mallinfo(arena+hblkhd)
        852320 MiB available memory on the node where the printing process lives
     GPU memory used/free/total (MiB): 936 / 80214 / 81151
------------------
     ethr =  1.10E-04,  avg # of iterations =  1.1

     total cpu time spent up to now is       15.8 secs

     total energy              =    -569.24158114 Ry
     estimated scf accuracy    <       0.07221866 Ry

     total magnetization       =     3.50 Bohr mag/cell
     absolute magnetization    =     3.52 Bohr mag/cell
[tb_dev] Currently allocated     3.05E-05 Mbytes, locked:    0 /   2
[tb_pin] Currently allocated     0.00E+00 Mbytes, locked:    0 /   0

     iteration # 12     ecut=    60.00 Ry     beta= 0.30
     Davidson diagonalization with overlap

---- Real-time Memory Report at c_bands before calling an iterative solver
           705 MiB given to the printing process from OS
             0 MiB allocation reported by mallinfo(arena+hblkhd)
        852311 MiB available memory on the node where the printing process lives
     GPU memory used/free/total (MiB): 936 / 80214 / 81151
------------------
     ethr =  1.10E-04,  avg # of iterations =  1.1

     total cpu time spent up to now is       16.8 secs

     total energy              =    -569.25745034 Ry
     estimated scf accuracy    <       0.04344083 Ry

     total magnetization       =     2.87 Bohr mag/cell
     absolute magnetization    =     2.90 Bohr mag/cell
[tb_dev] Currently allocated     3.05E-05 Mbytes, locked:    0 /   2
[tb_pin] Currently allocated     0.00E+00 Mbytes, locked:    0 /   0

     iteration # 13     ecut=    60.00 Ry     beta= 0.30
     Davidson diagonalization with overlap

---- Real-time Memory Report at c_bands before calling an iterative solver
           705 MiB given to the printing process from OS
             0 MiB allocation reported by mallinfo(arena+hblkhd)
        852297 MiB available memory on the node where the printing process lives
     GPU memory used/free/total (MiB): 936 / 80214 / 81151
------------------
     ethr =  1.10E-04,  avg # of iterations =  2.4

     total cpu time spent up to now is       18.0 secs

     total energy              =    -569.27356314 Ry
     estimated scf accuracy    <       0.05373096 Ry

     total magnetization       =     0.99 Bohr mag/cell
     absolute magnetization    =     1.24 Bohr mag/cell
[tb_dev] Currently allocated     3.05E-05 Mbytes, locked:    0 /   2
[tb_pin] Currently allocated     0.00E+00 Mbytes, locked:    0 /   0

     iteration # 14     ecut=    60.00 Ry     beta= 0.30
     Davidson diagonalization with overlap

---- Real-time Memory Report at c_bands before calling an iterative solver
           705 MiB given to the printing process from OS
             0 MiB allocation reported by mallinfo(arena+hblkhd)
        852278 MiB available memory on the node where the printing process lives
     GPU memory used/free/total (MiB): 936 / 80214 / 81151
------------------
     ethr =  1.10E-04,  avg # of iterations =  1.0

     total cpu time spent up to now is       19.0 secs

     total energy              =    -569.28596564 Ry
     estimated scf accuracy    <       0.04340477 Ry

     total magnetization       =     1.60 Bohr mag/cell
     absolute magnetization    =     1.73 Bohr mag/cell
[tb_dev] Currently allocated     3.05E-05 Mbytes, locked:    0 /   2
[tb_pin] Currently allocated     0.00E+00 Mbytes, locked:    0 /   0

     iteration # 15     ecut=    60.00 Ry     beta= 0.30
     Davidson diagonalization with overlap

---- Real-time Memory Report at c_bands before calling an iterative solver
           705 MiB given to the printing process from OS
             0 MiB allocation reported by mallinfo(arena+hblkhd)
        852262 MiB available memory on the node where the printing process lives
     GPU memory used/free/total (MiB): 936 / 80214 / 81151
------------------
     ethr =  1.10E-04,  avg # of iterations =  1.2

     total cpu time spent up to now is       20.0 secs

     total energy              =    -569.27846506 Ry
     estimated scf accuracy    <       0.05433133 Ry

     total magnetization       =     1.11 Bohr mag/cell
     absolute magnetization    =     1.32 Bohr mag/cell
[tb_dev] Currently allocated     3.05E-05 Mbytes, locked:    0 /   2
[tb_pin] Currently allocated     0.00E+00 Mbytes, locked:    0 /   0

     iteration # 16     ecut=    60.00 Ry     beta= 0.30
     Davidson diagonalization with overlap

---- Real-time Memory Report at c_bands before calling an iterative solver
           705 MiB given to the printing process from OS
             0 MiB allocation reported by mallinfo(arena+hblkhd)
        852251 MiB available memory on the node where the printing process lives
     GPU memory used/free/total (MiB): 936 / 80214 / 81151
------------------
     ethr =  1.10E-04,  avg # of iterations =  1.0

     total cpu time spent up to now is       21.0 secs

     total energy              =    -569.26399725 Ry
     estimated scf accuracy    <       0.04743597 Ry

     total magnetization       =     1.54 Bohr mag/cell
     absolute magnetization    =     1.69 Bohr mag/cell
[tb_dev] Currently allocated     3.05E-05 Mbytes, locked:    0 /   2
[tb_pin] Currently allocated     0.00E+00 Mbytes, locked:    0 /   0

     iteration # 17     ecut=    60.00 Ry     beta= 0.30
     Davidson diagonalization with overlap

---- Real-time Memory Report at c_bands before calling an iterative solver
           705 MiB given to the printing process from OS
             0 MiB allocation reported by mallinfo(arena+hblkhd)
        852268 MiB available memory on the node where the printing process lives
     GPU memory used/free/total (MiB): 936 / 80214 / 81151
------------------
     ethr =  1.10E-04,  avg # of iterations =  1.0

     total cpu time spent up to now is       22.0 secs

     total energy              =    -569.20801408 Ry
     estimated scf accuracy    <       0.03822278 Ry

     total magnetization       =     2.05 Bohr mag/cell
     absolute magnetization    =     2.15 Bohr mag/cell
[tb_dev] Currently allocated     3.05E-05 Mbytes, locked:    0 /   2
[tb_pin] Currently allocated     0.00E+00 Mbytes, locked:    0 /   0

     iteration # 18     ecut=    60.00 Ry     beta= 0.30
     Davidson diagonalization with overlap

---- Real-time Memory Report at c_bands before calling an iterative solver
           705 MiB given to the printing process from OS
             0 MiB allocation reported by mallinfo(arena+hblkhd)
        852267 MiB available memory on the node where the printing process lives
     GPU memory used/free/total (MiB): 936 / 80214 / 81151
------------------
     ethr =  1.01E-04,  avg # of iterations =  1.5

     total cpu time spent up to now is       23.1 secs

     total energy              =    -569.22356601 Ry
     estimated scf accuracy    <       0.06189482 Ry

     total magnetization       =     3.16 Bohr mag/cell
     absolute magnetization    =     3.17 Bohr mag/cell
[tb_dev] Currently allocated     3.05E-05 Mbytes, locked:    0 /   2
[tb_pin] Currently allocated     0.00E+00 Mbytes, locked:    0 /   0

     iteration # 19     ecut=    60.00 Ry     beta= 0.30
     Davidson diagonalization with overlap

---- Real-time Memory Report at c_bands before calling an iterative solver
           705 MiB given to the printing process from OS
             0 MiB allocation reported by mallinfo(arena+hblkhd)
        852268 MiB available memory on the node where the printing process lives
     GPU memory used/free/total (MiB): 936 / 80214 / 81151
------------------
     ethr =  1.01E-04,  avg # of iterations =  1.1

     total cpu time spent up to now is       24.2 secs

     total energy              =    -569.23353832 Ry
     estimated scf accuracy    <       0.06469864 Ry

     total magnetization       =     3.24 Bohr mag/cell
     absolute magnetization    =     3.25 Bohr mag/cell
[tb_dev] Currently allocated     3.05E-05 Mbytes, locked:    0 /   2
[tb_pin] Currently allocated     0.00E+00 Mbytes, locked:    0 /   0

     iteration # 20     ecut=    60.00 Ry     beta= 0.30
     Davidson diagonalization with overlap

---- Real-time Memory Report at c_bands before calling an iterative solver
           705 MiB given to the printing process from OS
             0 MiB allocation reported by mallinfo(arena+hblkhd)
        852253 MiB available memory on the node where the printing process lives
     GPU memory used/free/total (MiB): 936 / 80214 / 81151
------------------
     ethr =  1.01E-04,  avg # of iterations =  1.0

     total cpu time spent up to now is       25.2 secs

     total energy              =    -569.25479531 Ry
     estimated scf accuracy    <       0.05336006 Ry

     total magnetization       =     3.03 Bohr mag/cell
     absolute magnetization    =     3.06 Bohr mag/cell
[tb_dev] Currently allocated     3.05E-05 Mbytes, locked:    0 /   2
[tb_pin] Currently allocated     0.00E+00 Mbytes, locked:    0 /   0

     iteration # 21     ecut=    60.00 Ry     beta= 0.30
     Davidson diagonalization with overlap

---- Real-time Memory Report at c_bands before calling an iterative solver
           705 MiB given to the printing process from OS
             0 MiB allocation reported by mallinfo(arena+hblkhd)
        852245 MiB available memory on the node where the printing process lives
     GPU memory used/free/total (MiB): 936 / 80214 / 81151
------------------
     ethr =  1.01E-04,  avg # of iterations =  1.1

     total cpu time spent up to now is       26.4 secs

     total energy              =    -569.24880597 Ry
     estimated scf accuracy    <       0.03345443 Ry

     total magnetization       =     2.14 Bohr mag/cell
     absolute magnetization    =     2.25 Bohr mag/cell
[tb_dev] Currently allocated     3.05E-05 Mbytes, locked:    0 /   2
[tb_pin] Currently allocated     0.00E+00 Mbytes, locked:    0 /   0

     iteration # 22     ecut=    60.00 Ry     beta= 0.30
     Davidson diagonalization with overlap

---- Real-time Memory Report at c_bands before calling an iterative solver
           705 MiB given to the printing process from OS
             0 MiB allocation reported by mallinfo(arena+hblkhd)
        852239 MiB available memory on the node where the printing process lives
     GPU memory used/free/total (MiB): 936 / 80214 / 81151
------------------
     ethr =  8.80E-05,  avg # of iterations =  1.0

     total cpu time spent up to now is       27.4 secs

     total energy              =    -569.26618261 Ry
     estimated scf accuracy    <       0.03793422 Ry

     total magnetization       =     2.63 Bohr mag/cell
     absolute magnetization    =     2.68 Bohr mag/cell
[tb_dev] Currently allocated     3.05E-05 Mbytes, locked:    0 /   2
[tb_pin] Currently allocated     0.00E+00 Mbytes, locked:    0 /   0

     iteration # 23     ecut=    60.00 Ry     beta= 0.30
     Davidson diagonalization with overlap

---- Real-time Memory Report at c_bands before calling an iterative solver
           705 MiB given to the printing process from OS
             0 MiB allocation reported by mallinfo(arena+hblkhd)
        852263 MiB available memory on the node where the printing process lives
     GPU memory used/free/total (MiB): 936 / 80214 / 81151
------------------
     ethr =  8.80E-05,  avg # of iterations =  1.1

     total cpu time spent up to now is       28.5 secs

     total energy              =    -569.25354485 Ry
     estimated scf accuracy    <       0.03794392 Ry

     total magnetization       =     1.70 Bohr mag/cell
     absolute magnetization    =     1.86 Bohr mag/cell
[tb_dev] Currently allocated     3.05E-05 Mbytes, locked:    0 /   2
[tb_pin] Currently allocated     0.00E+00 Mbytes, locked:    0 /   0

     iteration # 24     ecut=    60.00 Ry     beta= 0.30
     Davidson diagonalization with overlap

---- Real-time Memory Report at c_bands before calling an iterative solver
           705 MiB given to the printing process from OS
             0 MiB allocation reported by mallinfo(arena+hblkhd)
        852263 MiB available memory on the node where the printing process lives
     GPU memory used/free/total (MiB): 936 / 80214 / 81151
------------------
     ethr =  8.80E-05,  avg # of iterations =  4.4
     Minimization algorithm failed to find Fermi energy: reverting to bisection
     Possible cause: smearing is larger than the electronic band-gap.

     total cpu time spent up to now is       29.9 secs

     total energy              =    -569.32775691 Ry
     estimated scf accuracy    <       0.22960987 Ry

     total magnetization       =    -0.09 Bohr mag/cell
     absolute magnetization    =     0.35 Bohr mag/cell
[tb_dev] Currently allocated     3.05E-05 Mbytes, locked:    0 /   2
[tb_pin] Currently allocated     0.00E+00 Mbytes, locked:    0 /   0

     iteration # 25     ecut=    60.00 Ry     beta= 0.30
     Davidson diagonalization with overlap

---- Real-time Memory Report at c_bands before calling an iterative solver
           705 MiB given to the printing process from OS
             0 MiB allocation reported by mallinfo(arena+hblkhd)
        852265 MiB available memory on the node where the printing process lives
     GPU memory used/free/total (MiB): 936 / 80214 / 81151
------------------
     ethr =  8.80E-05,  avg # of iterations =  1.0

     total cpu time spent up to now is       30.9 secs

     total energy              =    -569.29566814 Ry
     estimated scf accuracy    <       0.14184214 Ry

     total magnetization       =     0.09 Bohr mag/cell
     absolute magnetization    =     0.56 Bohr mag/cell
[tb_dev] Currently allocated     3.05E-05 Mbytes, locked:    0 /   2
[tb_pin] Currently allocated     0.00E+00 Mbytes, locked:    0 /   0

     iteration # 26     ecut=    60.00 Ry     beta= 0.30
     Davidson diagonalization with overlap

---- Real-time Memory Report at c_bands before calling an iterative solver
           705 MiB given to the printing process from OS
             0 MiB allocation reported by mallinfo(arena+hblkhd)
        852265 MiB available memory on the node where the printing process lives
     GPU memory used/free/total (MiB): 936 / 80214 / 81151
------------------
     ethr =  8.80E-05,  avg # of iterations =  2.0

     total cpu time spent up to now is       32.0 secs

     total energy              =    -569.30001928 Ry
     estimated scf accuracy    <       0.07621945 Ry

     total magnetization       =     0.60 Bohr mag/cell
     absolute magnetization    =     0.98 Bohr mag/cell
[tb_dev] Currently allocated     3.05E-05 Mbytes, locked:    0 /   2
[tb_pin] Currently allocated     0.00E+00 Mbytes, locked:    0 /   0

     iteration # 27     ecut=    60.00 Ry     beta= 0.30
     Davidson diagonalization with overlap

---- Real-time Memory Report at c_bands before calling an iterative solver
           705 MiB given to the printing process from OS
             0 MiB allocation reported by mallinfo(arena+hblkhd)
        852270 MiB available memory on the node where the printing process lives
     GPU memory used/free/total (MiB): 936 / 80214 / 81151
------------------
     ethr =  8.80E-05,  avg # of iterations =  1.0

     total cpu time spent up to now is       33.0 secs

     total energy              =    -569.30237648 Ry
     estimated scf accuracy    <       0.07051325 Ry

     total magnetization       =     0.75 Bohr mag/cell
     absolute magnetization    =     1.09 Bohr mag/cell
[tb_dev] Currently allocated     3.05E-05 Mbytes, locked:    0 /   2
[tb_pin] Currently allocated     0.00E+00 Mbytes, locked:    0 /   0

     iteration # 28     ecut=    60.00 Ry     beta= 0.30
     Davidson diagonalization with overlap

---- Real-time Memory Report at c_bands before calling an iterative solver
           705 MiB given to the printing process from OS
             0 MiB allocation reported by mallinfo(arena+hblkhd)
        852267 MiB available memory on the node where the printing process lives
     GPU memory used/free/total (MiB): 936 / 80214 / 81151
------------------
     ethr =  8.80E-05,  avg # of iterations =  1.0

     total cpu time spent up to now is       34.1 secs

     total energy              =    -569.30019872 Ry
     estimated scf accuracy    <       0.05919058 Ry

     total magnetization       =     0.54 Bohr mag/cell
     absolute magnetization    =     0.91 Bohr mag/cell
[tb_dev] Currently allocated     3.05E-05 Mbytes, locked:    0 /   2
[tb_pin] Currently allocated     0.00E+00 Mbytes, locked:    0 /   0

     iteration # 29     ecut=    60.00 Ry     beta= 0.30
     Davidson diagonalization with overlap

---- Real-time Memory Report at c_bands before calling an iterative solver
           705 MiB given to the printing process from OS
             0 MiB allocation reported by mallinfo(arena+hblkhd)
        852269 MiB available memory on the node where the printing process lives
     GPU memory used/free/total (MiB): 936 / 80214 / 81151
------------------
     ethr =  8.80E-05,  avg # of iterations =  1.0

     total cpu time spent up to now is       35.1 secs

     total energy              =    -569.29071667 Ry
     estimated scf accuracy    <       0.05531457 Ry

     total magnetization       =     0.61 Bohr mag/cell
     absolute magnetization    =     0.96 Bohr mag/cell
[tb_dev] Currently allocated     3.05E-05 Mbytes, locked:    0 /   2
[tb_pin] Currently allocated     0.00E+00 Mbytes, locked:    0 /   0

     iteration # 30     ecut=    60.00 Ry     beta= 0.30
     Davidson diagonalization with overlap

---- Real-time Memory Report at c_bands before calling an iterative solver
           705 MiB given to the printing process from OS
             0 MiB allocation reported by mallinfo(arena+hblkhd)
        852272 MiB available memory on the node where the printing process lives
     GPU memory used/free/total (MiB): 936 / 80214 / 81151
------------------
     ethr =  8.80E-05,  avg # of iterations =  1.1

     total cpu time spent up to now is       36.1 secs

     total energy              =    -569.30283853 Ry
     estimated scf accuracy    <       0.05756113 Ry

     total magnetization       =     0.75 Bohr mag/cell
     absolute magnetization    =     1.05 Bohr mag/cell
[tb_dev] Currently allocated     3.05E-05 Mbytes, locked:    0 /   2
[tb_pin] Currently allocated     0.00E+00 Mbytes, locked:    0 /   0

     iteration # 31     ecut=    60.00 Ry     beta= 0.30
     Davidson diagonalization with overlap

---- Real-time Memory Report at c_bands before calling an iterative solver
           705 MiB given to the printing process from OS
             0 MiB allocation reported by mallinfo(arena+hblkhd)
        852273 MiB available memory on the node where the printing process lives
     GPU memory used/free/total (MiB): 936 / 80214 / 81151
------------------
     ethr =  8.80E-05,  avg # of iterations =  1.0

     total cpu time spent up to now is       37.1 secs

     total energy              =    -569.27501050 Ry
     estimated scf accuracy    <       0.05395406 Ry

     total magnetization       =     0.43 Bohr mag/cell
     absolute magnetization    =     0.81 Bohr mag/cell
[tb_dev] Currently allocated     3.05E-05 Mbytes, locked:    0 /   2
[tb_pin] Currently allocated     0.00E+00 Mbytes, locked:    0 /   0

     iteration # 32     ecut=    60.00 Ry     beta= 0.30
     Davidson diagonalization with overlap

---- Real-time Memory Report at c_bands before calling an iterative solver
           705 MiB given to the printing process from OS
             0 MiB allocation reported by mallinfo(arena+hblkhd)
        852278 MiB available memory on the node where the printing process lives
     GPU memory used/free/total (MiB): 936 / 80214 / 81151
------------------
     ethr =  8.80E-05,  avg # of iterations =  1.0

     total cpu time spent up to now is       38.1 secs

     total energy              =    -569.29974940 Ry
     estimated scf accuracy    <       0.06341865 Ry

     total magnetization       =     1.12 Bohr mag/cell
     absolute magnetization    =     1.33 Bohr mag/cell
[tb_dev] Currently allocated     3.05E-05 Mbytes, locked:    0 /   2
[tb_pin] Currently allocated     0.00E+00 Mbytes, locked:    0 /   0

     iteration # 33     ecut=    60.00 Ry     beta= 0.30
     Davidson diagonalization with overlap

---- Real-time Memory Report at c_bands before calling an iterative solver
           705 MiB given to the printing process from OS
             0 MiB allocation reported by mallinfo(arena+hblkhd)
        852278 MiB available memory on the node where the printing process lives
     GPU memory used/free/total (MiB): 936 / 80214 / 81151
------------------
     ethr =  8.80E-05,  avg # of iterations =  1.0

     total cpu time spent up to now is       39.2 secs

     total energy              =    -569.26059291 Ry
     estimated scf accuracy    <       0.05112087 Ry

     total magnetization       =     0.25 Bohr mag/cell
     absolute magnetization    =     0.67 Bohr mag/cell
[tb_dev] Currently allocated     3.05E-05 Mbytes, locked:    0 /   2
[tb_pin] Currently allocated     0.00E+00 Mbytes, locked:    0 /   0

     iteration # 34     ecut=    60.00 Ry     beta= 0.30
     Davidson diagonalization with overlap

---- Real-time Memory Report at c_bands before calling an iterative solver
           705 MiB given to the printing process from OS
             0 MiB allocation reported by mallinfo(arena+hblkhd)
        852278 MiB available memory on the node where the printing process lives
     GPU memory used/free/total (MiB): 936 / 80214 / 81151
------------------
     ethr =  8.80E-05,  avg # of iterations =  1.0

     total cpu time spent up to now is       40.2 secs

     total energy              =    -569.29203900 Ry
     estimated scf accuracy    <       0.06197594 Ry

     total magnetization       =     1.32 Bohr mag/cell
     absolute magnetization    =     1.52 Bohr mag/cell
[tb_dev] Currently allocated     3.05E-05 Mbytes, locked:    0 /   2
[tb_pin] Currently allocated     0.00E+00 Mbytes, locked:    0 /   0

     iteration # 35     ecut=    60.00 Ry     beta= 0.30
     Davidson diagonalization with overlap

---- Real-time Memory Report at c_bands before calling an iterative solver
           705 MiB given to the printing process from OS
             0 MiB allocation reported by mallinfo(arena+hblkhd)
        852273 MiB available memory on the node where the printing process lives
     GPU memory used/free/total (MiB): 936 / 80214 / 81151
------------------
     ethr =  8.80E-05,  avg # of iterations =  1.0

     negative rho (up, down):  0.000E+00 7.906E-04

     total cpu time spent up to now is       41.2 secs

     total energy              =    -568.84269585 Ry
     estimated scf accuracy    <       0.06307344 Ry

     total magnetization       =     0.50 Bohr mag/cell
     absolute magnetization    =     0.88 Bohr mag/cell
[tb_dev] Currently allocated     3.05E-05 Mbytes, locked:    0 /   2
[tb_pin] Currently allocated     0.00E+00 Mbytes, locked:    0 /   0

     iteration # 36     ecut=    60.00 Ry     beta= 0.30
     Davidson diagonalization with overlap

---- Real-time Memory Report at c_bands before calling an iterative solver
           705 MiB given to the printing process from OS
             0 MiB allocation reported by mallinfo(arena+hblkhd)
        852274 MiB available memory on the node where the printing process lives
     GPU memory used/free/total (MiB): 936 / 80214 / 81151
------------------
     ethr =  8.80E-05,  avg # of iterations =  4.0

     total cpu time spent up to now is       42.7 secs

     total energy              =    -569.07310666 Ry
     estimated scf accuracy    <       0.27895416 Ry

     total magnetization       =     3.91 Bohr mag/cell
     absolute magnetization    =     3.92 Bohr mag/cell
[tb_dev] Currently allocated     3.05E-05 Mbytes, locked:    0 /   2
[tb_pin] Currently allocated     0.00E+00 Mbytes, locked:    0 /   0

     iteration # 37     ecut=    60.00 Ry     beta= 0.30
     Davidson diagonalization with overlap

---- Real-time Memory Report at c_bands before calling an iterative solver
           705 MiB given to the printing process from OS
             0 MiB allocation reported by mallinfo(arena+hblkhd)
        852803 MiB available memory on the node where the printing process lives
     GPU memory used/free/total (MiB): 936 / 80214 / 81151
------------------
     ethr =  8.80E-05,  avg # of iterations =  4.7
     Minimization algorithm failed to find Fermi energy: reverting to bisection
     Possible cause: smearing is larger than the electronic band-gap.

     total cpu time spent up to now is       44.2 secs

     total energy              =    -569.34325391 Ry
     estimated scf accuracy    <       0.04179356 Ry

     total magnetization       =     0.13 Bohr mag/cell
     absolute magnetization    =     0.37 Bohr mag/cell
[tb_dev] Currently allocated     3.05E-05 Mbytes, locked:    0 /   2
[tb_pin] Currently allocated     0.00E+00 Mbytes, locked:    0 /   0

     iteration # 38     ecut=    60.00 Ry     beta= 0.30
     Davidson diagonalization with overlap

---- Real-time Memory Report at c_bands before calling an iterative solver
           705 MiB given to the printing process from OS
             0 MiB allocation reported by mallinfo(arena+hblkhd)
        852537 MiB available memory on the node where the printing process lives
     GPU memory used/free/total (MiB): 936 / 80214 / 81151
------------------
     ethr =  8.80E-05,  avg # of iterations =  1.9

     total cpu time spent up to now is       45.3 secs

     WARNING: integrated charge=    38.00204842, expected=    38.00000000

     total energy              =    -569.33765281 Ry
     estimated scf accuracy    <       0.02785557 Ry

     total magnetization       =     0.00 Bohr mag/cell
     absolute magnetization    =     0.12 Bohr mag/cell
[tb_dev] Currently allocated     3.05E-05 Mbytes, locked:    0 /   2
[tb_pin] Currently allocated     0.00E+00 Mbytes, locked:    0 /   0

     iteration # 39     ecut=    60.00 Ry     beta= 0.30
     Davidson diagonalization with overlap

---- Real-time Memory Report at c_bands before calling an iterative solver
           705 MiB given to the printing process from OS
             0 MiB allocation reported by mallinfo(arena+hblkhd)
        852416 MiB available memory on the node where the printing process lives
     GPU memory used/free/total (MiB): 936 / 80214 / 81151
------------------
     ethr =  7.33E-05,  avg # of iterations =  1.2
     Minimization algorithm failed to find Fermi energy: reverting to bisection
     Possible cause: smearing is larger than the electronic band-gap.

     total cpu time spent up to now is       46.3 secs

     WARNING: integrated charge=    38.00230916, expected=    38.00000000

     total energy              =    -569.34370759 Ry
     estimated scf accuracy    <       0.00425936 Ry

     total magnetization       =     0.12 Bohr mag/cell
     absolute magnetization    =     0.20 Bohr mag/cell
[tb_dev] Currently allocated     3.05E-05 Mbytes, locked:    0 /   2
[tb_pin] Currently allocated     0.00E+00 Mbytes, locked:    0 /   0

     iteration # 40     ecut=    60.00 Ry     beta= 0.30
     Davidson diagonalization with overlap

---- Real-time Memory Report at c_bands before calling an iterative solver
           705 MiB given to the printing process from OS
             0 MiB allocation reported by mallinfo(arena+hblkhd)
        852308 MiB available memory on the node where the printing process lives
     GPU memory used/free/total (MiB): 936 / 80214 / 81151
------------------
     ethr =  1.12E-05,  avg # of iterations =  2.4

     total cpu time spent up to now is       47.4 secs

     WARNING: integrated charge=    38.00310975, expected=    38.00000000

     total energy              =    -569.34208741 Ry
     estimated scf accuracy    <       0.00372600 Ry

     total magnetization       =     0.00 Bohr mag/cell
     absolute magnetization    =     0.05 Bohr mag/cell
[tb_dev] Currently allocated     3.05E-05 Mbytes, locked:    0 /   2
[tb_pin] Currently allocated     0.00E+00 Mbytes, locked:    0 /   0

     iteration # 41     ecut=    60.00 Ry     beta= 0.30
     Davidson diagonalization with overlap

---- Real-time Memory Report at c_bands before calling an iterative solver
           705 MiB given to the printing process from OS
             0 MiB allocation reported by mallinfo(arena+hblkhd)
        852197 MiB available memory on the node where the printing process lives
     GPU memory used/free/total (MiB): 936 / 80214 / 81151
------------------
     ethr =  9.81E-06,  avg # of iterations =  1.1

     total cpu time spent up to now is       48.5 secs

     WARNING: integrated charge=    38.00448695, expected=    38.00000000

     total energy              =    -569.34220753 Ry
     estimated scf accuracy    <       0.00108342 Ry

     total magnetization       =     0.00 Bohr mag/cell
     absolute magnetization    =     0.06 Bohr mag/cell
[tb_dev] Currently allocated     3.05E-05 Mbytes, locked:    0 /   2
[tb_pin] Currently allocated     0.00E+00 Mbytes, locked:    0 /   0

     iteration # 42     ecut=    60.00 Ry     beta= 0.30
     Davidson diagonalization with overlap

---- Real-time Memory Report at c_bands before calling an iterative solver
           705 MiB given to the printing process from OS
             0 MiB allocation reported by mallinfo(arena+hblkhd)
        852164 MiB available memory on the node where the printing process lives
     GPU memory used/free/total (MiB): 936 / 80214 / 81151
------------------
     ethr =  2.85E-06,  avg # of iterations =  4.8

     total cpu time spent up to now is       49.9 secs

     WARNING: integrated charge=    38.00522627, expected=    38.00000000

     total energy              =    -569.34153929 Ry
     estimated scf accuracy    <       0.00107666 Ry

     total magnetization       =     0.00 Bohr mag/cell
     absolute magnetization    =     0.02 Bohr mag/cell
[tb_dev] Currently allocated     3.05E-05 Mbytes, locked:    0 /   2
[tb_pin] Currently allocated     0.00E+00 Mbytes, locked:    0 /   0

     iteration # 43     ecut=    60.00 Ry     beta= 0.30
     Davidson diagonalization with overlap

---- Real-time Memory Report at c_bands before calling an iterative solver
           705 MiB given to the printing process from OS
             0 MiB allocation reported by mallinfo(arena+hblkhd)
        852151 MiB available memory on the node where the printing process lives
     GPU memory used/free/total (MiB): 936 / 80214 / 81151
------------------
     ethr =  2.83E-06,  avg # of iterations =  1.7

     total cpu time spent up to now is       51.0 secs

     WARNING: integrated charge=    38.00601990, expected=    38.00000000

     total energy              =    -569.34303587 Ry
     estimated scf accuracy    <       0.00011302 Ry

     total magnetization       =     0.00 Bohr mag/cell
     absolute magnetization    =     0.03 Bohr mag/cell
[tb_dev] Currently allocated     3.05E-05 Mbytes, locked:    0 /   2
[tb_pin] Currently allocated     0.00E+00 Mbytes, locked:    0 /   0

     iteration # 44     ecut=    60.00 Ry     beta= 0.30
     Davidson diagonalization with overlap

---- Real-time Memory Report at c_bands before calling an iterative solver
           705 MiB given to the printing process from OS
             0 MiB allocation reported by mallinfo(arena+hblkhd)
        852131 MiB available memory on the node where the printing process lives
     GPU memory used/free/total (MiB): 936 / 80214 / 81151
------------------
     ethr =  2.97E-07,  avg # of iterations =  4.6

     total cpu time spent up to now is       52.4 secs

     WARNING: integrated charge=    38.00658402, expected=    38.00000000

     total energy              =    -569.34296410 Ry
     estimated scf accuracy    <       0.00005004 Ry

     total magnetization       =     0.00 Bohr mag/cell
     absolute magnetization    =     0.01 Bohr mag/cell
[tb_dev] Currently allocated     3.05E-05 Mbytes, locked:    0 /   2
[tb_pin] Currently allocated     0.00E+00 Mbytes, locked:    0 /   0

     iteration # 45     ecut=    60.00 Ry     beta= 0.30
     Davidson diagonalization with overlap

---- Real-time Memory Report at c_bands before calling an iterative solver
           705 MiB given to the printing process from OS
             0 MiB allocation reported by mallinfo(arena+hblkhd)
        852115 MiB available memory on the node where the printing process lives
     GPU memory used/free/total (MiB): 936 / 80214 / 81151
------------------
     ethr =  1.32E-07,  avg # of iterations =  2.2

     total cpu time spent up to now is       53.5 secs

     WARNING: integrated charge=    38.00662289, expected=    38.00000000

     total energy              =    -569.34308544 Ry
     estimated scf accuracy    <       0.00000892 Ry

     total magnetization       =     0.00 Bohr mag/cell
     absolute magnetization    =     0.00 Bohr mag/cell
[tb_dev] Currently allocated     3.05E-05 Mbytes, locked:    0 /   2
[tb_pin] Currently allocated     0.00E+00 Mbytes, locked:    0 /   0

     iteration # 46     ecut=    60.00 Ry     beta= 0.30
     Davidson diagonalization with overlap

---- Real-time Memory Report at c_bands before calling an iterative solver
           705 MiB given to the printing process from OS
             0 MiB allocation reported by mallinfo(arena+hblkhd)
        852114 MiB available memory on the node where the printing process lives
     GPU memory used/free/total (MiB): 936 / 80214 / 81151
------------------
     ethr =  2.35E-08,  avg # of iterations =  5.4

     total cpu time spent up to now is       55.0 secs

     WARNING: integrated charge=    38.00657655, expected=    38.00000000

     total energy              =    -569.34313392 Ry
     estimated scf accuracy    <       0.00000372 Ry

     total magnetization       =     0.00 Bohr mag/cell
     absolute magnetization    =     0.00 Bohr mag/cell
[tb_dev] Currently allocated     3.05E-05 Mbytes, locked:    0 /   2
[tb_pin] Currently allocated     0.00E+00 Mbytes, locked:    0 /   0

     iteration # 47     ecut=    60.00 Ry     beta= 0.30
     Davidson diagonalization with overlap

---- Real-time Memory Report at c_bands before calling an iterative solver
           705 MiB given to the printing process from OS
             0 MiB allocation reported by mallinfo(arena+hblkhd)
        852115 MiB available memory on the node where the printing process lives
     GPU memory used/free/total (MiB): 936 / 80214 / 81151
------------------
     ethr =  9.78E-09,  avg # of iterations =  2.5

     total cpu time spent up to now is       56.2 secs

     WARNING: integrated charge=    38.00647739, expected=    38.00000000

     total energy              =    -569.34315394 Ry
     estimated scf accuracy    <       0.00000168 Ry

     total magnetization       =     0.00 Bohr mag/cell
     absolute magnetization    =     0.00 Bohr mag/cell
[tb_dev] Currently allocated     3.05E-05 Mbytes, locked:    0 /   2
[tb_pin] Currently allocated     0.00E+00 Mbytes, locked:    0 /   0

     iteration # 48     ecut=    60.00 Ry     beta= 0.30
     Davidson diagonalization with overlap

---- Real-time Memory Report at c_bands before calling an iterative solver
           705 MiB given to the printing process from OS
             0 MiB allocation reported by mallinfo(arena+hblkhd)
        852110 MiB available memory on the node where the printing process lives
     GPU memory used/free/total (MiB): 936 / 80214 / 81151
------------------
     ethr =  4.43E-09,  avg # of iterations =  1.7

     total cpu time spent up to now is       57.3 secs

     WARNING: integrated charge=    38.00623987, expected=    38.00000000

     total energy              =    -569.34317012 Ry
     estimated scf accuracy    <       0.00000080 Ry

     total magnetization       =     0.00 Bohr mag/cell
     absolute magnetization    =     0.00 Bohr mag/cell
[tb_dev] Currently allocated     3.05E-05 Mbytes, locked:    0 /   2
[tb_pin] Currently allocated     0.00E+00 Mbytes, locked:    0 /   0

     iteration # 49     ecut=    60.00 Ry     beta= 0.30
     Davidson diagonalization with overlap

---- Real-time Memory Report at c_bands before calling an iterative solver
           705 MiB given to the printing process from OS
             0 MiB allocation reported by mallinfo(arena+hblkhd)
        852107 MiB available memory on the node where the printing process lives
     GPU memory used/free/total (MiB): 936 / 80214 / 81151
------------------
     ethr =  2.09E-09,  avg # of iterations =  3.1

     total cpu time spent up to now is       58.5 secs

     WARNING: integrated charge=    38.00621227, expected=    38.00000000

     total energy              =    -569.34319518 Ry
     estimated scf accuracy    <       0.00000003 Ry

     total magnetization       =     0.00 Bohr mag/cell
     absolute magnetization    =     0.00 Bohr mag/cell
[tb_dev] Currently allocated     3.05E-05 Mbytes, locked:    0 /   2
[tb_pin] Currently allocated     0.00E+00 Mbytes, locked:    0 /   0

     iteration # 50     ecut=    60.00 Ry     beta= 0.30
     Davidson diagonalization with overlap

---- Real-time Memory Report at c_bands before calling an iterative solver
           705 MiB given to the printing process from OS
             0 MiB allocation reported by mallinfo(arena+hblkhd)
        852545 MiB available memory on the node where the printing process lives
     GPU memory used/free/total (MiB): 936 / 80214 / 81151
------------------
     ethr =  7.11E-11,  avg # of iterations =  9.1

     total cpu time spent up to now is       60.6 secs

     WARNING: integrated charge=    38.00618726, expected=    38.00000000

     total energy              =    -569.34319508 Ry
     estimated scf accuracy    <       0.00000002 Ry

     total magnetization       =     0.00 Bohr mag/cell
     absolute magnetization    =     0.00 Bohr mag/cell
[tb_dev] Currently allocated     3.05E-05 Mbytes, locked:    0 /   2
[tb_pin] Currently allocated     0.00E+00 Mbytes, locked:    0 /   0

     iteration # 51     ecut=    60.00 Ry     beta= 0.30
     Davidson diagonalization with overlap

---- Real-time Memory Report at c_bands before calling an iterative solver
           705 MiB given to the printing process from OS
             0 MiB allocation reported by mallinfo(arena+hblkhd)
        852292 MiB available memory on the node where the printing process lives
     GPU memory used/free/total (MiB): 936 / 80214 / 81151
------------------
     ethr =  3.97E-11,  avg # of iterations =  2.0
 
     Magnetic moment per site  (integrated on atomic sphere of radius R)
     atom   1 (R=0.275)  charge= 14.1684  magn=  0.0001
     atom   2 (R=0.275)  charge=  5.2975  magn= -0.0001
     atom   3 (R=0.275)  charge=  5.3430  magn= -0.0000
     atom   4 (R=0.299)  charge=  7.8469  magn=  0.0000

     total cpu time spent up to now is       61.6 secs

     End of self-consistent calculation

 ------ SPIN UP ------------


          k = 0.0000 0.0000 0.0000 (  2113 PWs)   bands (ev):

   -84.7970 -48.0983 -48.0983 -47.9502 -41.7642 -13.7172 -13.6029 -13.6029
    -9.7851  -7.7946   3.5533   4.8919   4.8919   7.5560   8.0464   8.0464
     9.1315   9.1315  10.1370  12.4931  12.4931  12.6077  18.0938  19.8764
    24.9841  27.0314  27.0314

     occupation numbers 
     1.0000   1.0000   1.0000   1.0000   1.0000   1.0000   1.0000   1.0000
     1.0000   1.0000   1.0000   1.0000   1.0000   1.0000   1.0000   1.0000
     1.0000   1.0000   1.0009   0.0000   0.0000   0.0000   0.0000   0.0000
     0.0000   0.0000   0.0000

          k = 0.0000 0.0000 0.1750 (  2114 PWs)   bands (ev):

   -84.7970 -48.0984 -48.0984 -47.9500 -41.7642 -13.7365 -13.6031 -13.6031
    -9.6425  -7.9497   3.9235   4.8876   4.8876   6.7939   8.0559   8.0559
     9.1312   9.1312  10.2407  12.4873  12.4873  13.4521  17.3096  19.7844
    25.5042  27.4053  27.4053

     occupation numbers 
     1.0000   1.0000   1.0000   1.0000   1.0000   1.0000   1.0000   1.0000
     1.0000   1.0000   1.0000   1.0000   1.0000   1.0000   1.0000   1.0000
     1.0000   1.0000   1.0045   0.0000   0.0000   0.0000   0.0000   0.0000
     0.0000   0.0000   0.0000

          k = 0.0000 0.1443 0.0000 (  2123 PWs)   bands (ev):

   -84.7963 -48.1070 -48.1005 -47.9489 -41.7588 -13.7083 -13.6471 -13.6132
    -9.6122  -7.7948   3.7835   4.6336   4.9845   7.0284   7.5989   7.8375
     9.3485   9.4960  10.1691  12.0394  12.3959  13.1949  18.6985  20.2883
    24.6696  25.4709  27.4218

     occupation numbers 
     1.0000   1.0000   1.0000   1.0000   1.0000   1.0000   1.0000   1.0000
     1.0000   1.0000   1.0000   1.0000   1.0000   1.0000   1.0000   1.0000
     1.0000   1.0000   1.0015   0.0000   0.0000   0.0000   0.0000   0.0000
     0.0000   0.0000   0.0000

          k = 0.0000 0.1443 0.1750 (  2102 PWs)   bands (ev):

   -84.7962 -48.1069 -48.1004 -47.9487 -41.7587 -13.7231 -13.6480 -13.6130
    -9.4845  -7.9311   4.0827   4.5604   4.9815   7.0544   7.3207   7.6042
     9.3371   9.4966  10.3019  11.8498  12.3922  13.9958  17.8835  20.4596
    24.7613  26.1471  26.5911

     occupation numbers 
     1.0000   1.0000   1.0000   1.0000   1.0000   1.0000   1.0000   1.0000
     1.0000   1.0000   1.0000   1.0000   1.0000   1.0000   1.0000   1.0000
     1.0000   1.0000   1.0102   0.0000   0.0000   0.0000   0.0000   0.0000
     0.0000   0.0000   0.0000

          k = 0.0000 0.2887 0.0000 (  2112 PWs)   bands (ev):

   -84.7944 -48.1278 -48.1055 -47.9456 -41.7456 -13.7886 -13.6479 -13.6374
    -9.1634  -7.8054   4.1714   4.3942   5.2007   5.5589   7.0027   7.8919
     9.4390   9.8055  10.1621  11.5411  12.2791  14.3633  19.6604  21.0869
    22.6279  24.6346  26.1508

     occupation numbers 
     1.0000   1.0000   1.0000   1.0000   1.0000   1.0000   1.0000   1.0000
     1.0000   1.0000   1.0000   1.0000   1.0000   1.0000   1.0000   1.0000
     1.0000   1.0000   1.0014   0.0003   0.0000   0.0000   0.0000   0.0000
     0.0000   0.0000   0.0000

          k = 0.0000 0.2887 0.1750 (  2100 PWs)   bands (ev):

   -84.7944 -48.1277 -48.1054 -47.9456 -41.7455 -13.7891 -13.6561 -13.6372
    -9.0763  -7.8919   3.9894   4.5723   5.2008   5.6964   7.0022   7.7755
     9.4029   9.8053  10.2534  11.2170  12.2790  14.8724  19.0466  21.4956
    22.7127  24.5834  25.5866

     occupation numbers 
     1.0000   1.0000   1.0000   1.0000   1.0000   1.0000   1.0000   1.0000
     1.0000   1.0000   1.0000   1.0000   1.0000   1.0000   1.0000   1.0000
     1.0000   1.0000   1.0054   0.0480   0.0000   0.0000   0.0000   0.0000
     0.0000   0.0000   0.0000

          k = 0.0000 0.4330 0.0000 (  2098 PWs)   bands (ev):

   -84.7925 -48.1486 -48.1103 -47.9423 -41.7323 -13.9033 -13.6613 -13.6098
    -8.6413  -7.8504   3.5793   4.5121   5.3693   5.4885   6.6923   7.2309
     9.3653   9.7431  10.0183  11.7337  12.3237  15.6811  19.5182  20.3724
    22.2781  24.1085  25.4466

     occupation numbers 
     1.0000   1.0000   1.0000   1.0000   1.0000   1.0000   1.0000   1.0000
     1.0000   1.0000   1.0000   1.0000   1.0000   1.0000   1.0000   1.0000
     1.0000   1.0000   1.0001   0.0000   0.0000   0.0000   0.0000   0.0000
     0.0000   0.0000   0.0000

          k = 0.0000 0.4330 0.1750 (  2109 PWs)   bands (ev):

   -84.7925 -48.1486 -48.1104 -47.9425 -41.7323 -13.9029 -13.6614 -13.6142
    -8.6088  -7.8748   3.4782   4.4375   5.3750   5.6374   6.6841   7.3737
     9.3455   9.7429  10.0274  11.5552  12.3257  15.7637  19.1445  20.6165
    22.8276  24.0308  25.4382

     occupation numbers 
     1.0000   1.0000   1.0000   1.0000   1.0000   1.0000   1.0000   1.0000
     1.0000   1.0000   1.0000   1.0000   1.0000   1.0000   1.0000   1.0000
     1.0000   1.0000   1.0001   0.0002   0.0000   0.0000   0.0000   0.0000
     0.0000   0.0000   0.0000

          k = 0.0000-0.5774 0.0000 (  2102 PWs)   bands (ev):

   -84.7918 -48.1573 -48.1123 -47.9410 -41.7268 -13.9505 -13.6712 -13.5935
    -8.3709  -7.9082   3.1606   4.5748   5.4047   5.8828   6.6443   6.7441
     9.2571   9.6431   9.9367  11.9362  12.3772  16.6766  18.3828  20.1538
    22.3471  24.0757  25.4231

     occupation numbers 
     1.0000   1.0000   1.0000   1.0000   1.0000   1.0000   1.0000   1.0000
     1.0000   1.0000   1.0000   1.0000   1.0000   1.0000   1.0000   1.0000
     1.0000   1.0000   1.0000   0.0000   0.0000   0.0000   0.0000   0.0000
     0.0000   0.0000   0.0000

          k = 0.0000-0.5774 0.1750 (  2116 PWs)   bands (ev):

   -84.7918 -48.1572 -48.1126 -47.9411 -41.7269 -13.9499 -13.6716 -13.5964
    -8.3665  -7.9031   3.0934   4.4940   5.4107   5.8898   6.6353   6.9738
     9.2450   9.6432   9.9277  11.9400  12.3784  16.2367  18.2307  21.0973
    22.3504  24.4545  25.3676

     occupation numbers 
     1.0000   1.0000   1.0000   1.0000   1.0000   1.0000   1.0000   1.0000
     1.0000   1.0000   1.0000   1.0000   1.0000   1.0000   1.0000   1.0000
     1.0000   1.0000   1.0000   0.0000   0.0000   0.0000   0.0000   0.0000
     0.0000   0.0000   0.0000

          k = 0.1250 0.2165 0.0000 (  2101 PWs)   bands (ev):

   -84.7949 -48.1207 -48.1048 -47.9465 -41.7494 -13.7505 -13.6577 -13.6351
    -9.3013  -7.7993   4.1718   4.3787   5.0852   6.0349   6.9331   7.9911
     9.4948   9.7957  10.1659  11.7578  12.0551  14.0696  19.4994  20.9526
    23.2489  24.8563  26.5202

     occupation numbers 
     1.0000   1.0000   1.0000   1.0000   1.0000   1.0000   1.0000   1.0000
     1.0000   1.0000   1.0000   1.0000   1.0000   1.0000   1.0000   1.0000
     1.0000   1.0000   1.0014   0.0000   0.0000   0.0000   0.0000   0.0000
     0.0000   0.0000   0.0000

          k = 0.1250 0.2165 0.1750 (  2101 PWs)   bands (ev):

   -84.7949 -48.1207 -48.1049 -47.9465 -41.7494 -13.7527 -13.6662 -13.6354
    -9.1972  -7.9062   4.1342   4.4968   5.0924   6.1214   6.9384   7.7386
     9.4950   9.7399  10.2550  11.5022  12.1544  14.5046  18.8945  21.4367
    23.2504  25.0810  25.5560

     occupation numbers 
     1.0000   1.0000   1.0000   1.0000   1.0000   1.0000   1.0000   1.0000
     1.0000   1.0000   1.0000   1.0000   1.0000   1.0000   1.0000   1.0000
     1.0000   1.0000   1.0055   0.0005   0.0000   0.0000   0.0000   0.0000
     0.0000   0.0000   0.0000

          k = 0.1250 0.3608 0.0000 (  2106 PWs)   bands (ev):

   -84.7931 -48.1394 -48.1120 -47.9433 -41.7362 -13.8516 -13.6738 -13.6207
    -8.8161  -7.8204   4.0383   4.4719   5.2000   5.3933   6.4193   7.5971
     9.5229   9.8981  10.0632  11.6649  12.0106  15.2533  19.9716  21.1880
    22.2435  24.0174  25.5914

     occupation numbers 
     1.0000   1.0000   1.0000   1.0000   1.0000   1.0000   1.0000   1.0000
     1.0000   1.0000   1.0000   1.0000   1.0000   1.0000   1.0000   1.0000
     1.0000   1.0000   1.0002   0.0000   0.0000   0.0000   0.0000   0.0000
     0.0000   0.0000   0.0000

          k = 0.1250 0.3608 0.1750 (  2102 PWs)   bands (ev):

   -84.7931 -48.1394 -48.1119 -47.9434 -41.7362 -13.8513 -13.6737 -13.6261
    -8.7578  -7.8735   3.8817   4.4473   5.2923   5.5404   6.4230   7.6174
     9.5150   9.8696  10.0670  11.4618  12.0746  15.3910  19.8356  20.9409
    23.1219  23.8993  25.1619

     occupation numbers 
     1.0000   1.0000   1.0000   1.0000   1.0000   1.0000   1.0000   1.0000
     1.0000   1.0000   1.0000   1.0000   1.0000   1.0000   1.0000   1.0000
     1.0000   1.0000   1.0003   0.0012   0.0000   0.0000   0.0000   0.0000
     0.0000   0.0000   0.0000

          k = 0.1250 0.5052 0.0000 (  2104 PWs)   bands (ev):

   -84.7918 -48.1525 -48.1171 -47.9410 -41.7268 -13.9226 -13.7003 -13.5933
    -8.4123  -7.8673   3.4453   4.4631   5.3664   5.8061   6.2273   6.9067
     9.4121   9.7132  10.0175  11.8598  12.1206  16.4927  18.9040  20.6961
    22.6489  23.8031  25.2281

     occupation numbers 
     1.0000   1.0000   1.0000   1.0000   1.0000   1.0000   1.0000   1.0000
     1.0000   1.0000   1.0000   1.0000   1.0000   1.0000   1.0000   1.0000
     1.0000   1.0000   1.0001   0.0000   0.0000   0.0000   0.0000   0.0000
     0.0000   0.0000   0.0000

          k = 0.1250 0.5052 0.1750 (  2107 PWs)   bands (ev):

   -84.7918 -48.1525 -48.1171 -47.9411 -41.7269 -13.9221 -13.7001 -13.5963
    -8.4029  -7.8675   3.3767   4.3882   5.3650   5.8548   6.2361   7.0632
     9.3981   9.7187  10.0000  11.8300  12.1565  16.3220  18.6494  21.2203
    22.8693  24.1070  25.1616

     occupation numbers 
     1.0000   1.0000   1.0000   1.0000   1.0000   1.0000   1.0000   1.0000
     1.0000   1.0000   1.0000   1.0000   1.0000   1.0000   1.0000   1.0000
     1.0000   1.0000   1.0001   0.0000   0.0000   0.0000   0.0000   0.0000
     0.0000   0.0000   0.0000

          k = 0.2500 0.4330 0.0000 (  2095 PWs)   bands (ev):

   -84.7918 -48.1460 -48.1235 -47.9410 -41.7268 -13.8844 -13.7390 -13.5932
    -8.4482  -7.8318   3.9366   4.2891   5.0634   5.7091   6.0270   7.0419
     9.5247   9.7610  10.1372  11.7306  11.9071  16.3702  19.3653  21.5988
    22.6363  23.4737  25.1173

     occupation numbers 
     1.0000   1.0000   1.0000   1.0000   1.0000   1.0000   1.0000   1.0000
     1.0000   1.0000   1.0000   1.0000   1.0000   1.0000   1.0000   1.0000
     1.0000   1.0000   1.0009   0.0000   0.0000   0.0000   0.0000   0.0000
     0.0000   0.0000   0.0000

          k = 0.2500 0.4330 0.1750 (  2101 PWs)   bands (ev):

   -84.7918 -48.1459 -48.1235 -47.9411 -41.7268 -13.8840 -13.7390 -13.5965
    -8.4225  -7.8497   3.8601   4.2152   5.0642   5.8392   6.0542   7.0628
     9.5308   9.7667  10.0819  11.8088  11.9166  16.1781  19.3515  21.7214
    23.1098  23.7465  24.7174

     occupation numbers 
     1.0000   1.0000   1.0000   1.0000   1.0000   1.0000   1.0000   1.0000
     1.0000   1.0000   1.0000   1.0000   1.0000   1.0000   1.0000   1.0000
     1.0000   1.0000   1.0003   0.0000   0.0000   0.0000   0.0000   0.0000
     0.0000   0.0000   0.0000

          k = 0.2500 0.5774 0.0000 (  2102 PWs)   bands (ev):

   -84.7912 -48.1465 -48.1306 -47.9401 -41.7230 -13.8849 -13.7789 -13.5821
    -8.2924  -7.8314   3.8213   4.3405   4.8193   5.9071   6.2046   6.5603
     9.3517   9.8969  10.0908  11.8163  11.8488  17.1335  18.6774  21.6791
    22.8305  23.6962  24.9436

     occupation numbers 
     1.0000   1.0000   1.0000   1.0000   1.0000   1.0000   1.0000   1.0000
     1.0000   1.0000   1.0000   1.0000   1.0000   1.0000   1.0000   1.0000
     1.0000   1.0000   1.0004   0.0000   0.0000   0.0000   0.0000   0.0000
     0.0000   0.0000   0.0000

          k = 0.2500 0.5774 0.1750 (  2105 PWs)   bands (ev):

   -84.7912 -48.1464 -48.1306 -47.9402 -41.7230 -13.8846 -13.7790 -13.5843
    -8.2907  -7.8245   3.7604   4.2970   4.8038   5.9372   6.2280   6.6206
     9.3607   9.8968  10.0610  11.8846  11.9217  16.9615  18.5033  22.2127
    23.0907  23.6403  24.5754

     occupation numbers 
     1.0000   1.0000   1.0000   1.0000   1.0000   1.0000   1.0000   1.0000
     1.0000   1.0000   1.0000   1.0000   1.0000   1.0000   1.0000   1.0000
     1.0000   1.0000   1.0002   0.0000   0.0000   0.0000   0.0000   0.0000
     0.0000   0.0000   0.0000

          k = 0.0000-0.1443 0.1750 (  2102 PWs)   bands (ev):

   -84.7962 -48.1069 -48.1004 -47.9487 -41.7587 -13.7233 -13.6479 -13.6130
    -9.4827  -7.9332   4.0937   4.5616   4.9793   6.9646   7.4014   7.6076
     9.3230   9.4981  10.2825  11.9589  12.3900  13.8649  17.9562  20.4499
    24.7802  26.0051  26.8512

     occupation numbers 
     1.0000   1.0000   1.0000   1.0000   1.0000   1.0000   1.0000   1.0000
     1.0000   1.0000   1.0000   1.0000   1.0000   1.0000   1.0000   1.0000
     1.0000   1.0000   1.0080   0.0000   0.0000   0.0000   0.0000   0.0000
     0.0000   0.0000   0.0000

          k = 0.0000-0.2887 0.1750 (  2100 PWs)   bands (ev):

   -84.7944 -48.1277 -48.1054 -47.9456 -41.7455 -13.7895 -13.6564 -13.6372
    -9.0646  -7.9056   4.0456   4.5304   5.1956   5.7210   7.0099   7.6920
     9.3925   9.8069  10.1750  11.5156  12.2748  14.5010  19.3783  21.5892
    22.6673  24.5290  25.7889

     occupation numbers 
     1.0000   1.0000   1.0000   1.0000   1.0000   1.0000   1.0000   1.0000
     1.0000   1.0000   1.0000   1.0000   1.0000   1.0000   1.0000   1.0000
     1.0000   1.0000   1.0017   0.0004   0.0000   0.0000   0.0000   0.0000
     0.0000   0.0000   0.0000

          k = 0.0000-0.4330 0.1750 (  2109 PWs)   bands (ev):

   -84.7925 -48.1486 -48.1104 -47.9425 -41.7323 -13.9032 -13.6614 -13.6146
    -8.5845  -7.9017   3.4863   4.4349   5.3689   5.7366   6.6926   7.2165
     9.3475   9.7430   9.9932  11.7767  12.3225  15.3156  19.5137  21.1909
    22.2090  24.5445  25.1614

     occupation numbers 
     1.0000   1.0000   1.0000   1.0000   1.0000   1.0000   1.0000   1.0000
     1.0000   1.0000   1.0000   1.0000   1.0000   1.0000   1.0000   1.0000
     1.0000   1.0000   1.0001   0.0000   0.0000   0.0000   0.0000   0.0000
     0.0000   0.0000   0.0000

          k =-0.1250-0.3608 0.1750 (  2102 PWs)   bands (ev):

   -84.7931 -48.1394 -48.1119 -47.9434 -41.7362 -13.8515 -13.6737 -13.6263
    -8.7464  -7.8864   3.9012   4.4320   5.2781   5.5915   6.4278   7.5381
     9.5280   9.8804  10.0112  11.6593  12.0228  15.1591  20.0634  21.1918
    22.8137  24.1459  25.0040

     occupation numbers 
     1.0000   1.0000   1.0000   1.0000   1.0000   1.0000   1.0000   1.0000
     1.0000   1.0000   1.0000   1.0000   1.0000   1.0000   1.0000   1.0000
     1.0000   1.0000   1.0001   0.0000   0.0000   0.0000   0.0000   0.0000
     0.0000   0.0000   0.0000

          k =-0.1250-0.5052 0.1750 (  2107 PWs)   bands (ev):

   -84.7918 -48.1525 -48.1171 -47.9411 -41.7269 -13.9222 -13.7001 -13.5965
    -8.3889  -7.8826   3.3746   4.3961   5.3651   5.8999   6.2508   6.9779
     9.4101   9.7153   9.9831  11.9272  12.1322  16.0901  18.8457  21.6718
    22.4146  24.2945  25.0330

     occupation numbers 
     1.0000   1.0000   1.0000   1.0000   1.0000   1.0000   1.0000   1.0000
     1.0000   1.0000   1.0000   1.0000   1.0000   1.0000   1.0000   1.0000
     1.0000   1.0000   1.0000   0.0000   0.0000   0.0000   0.0000   0.0000
     0.0000   0.0000   0.0000

 ------ SPIN DOWN ----------


          k = 0.0000 0.0000 0.0000 (  2113 PWs)   bands (ev):

   -84.7968 -48.0981 -48.0981 -47.9498 -41.7642 -13.7172 -13.6029 -13.6029
    -9.7853  -7.7949   3.5532   4.8920   4.8920   7.5557   8.0462   8.0462
     9.1318   9.1318  10.1369  12.4932  12.4932  12.6077  18.0938  19.8764
    24.9842  27.0315  27.0315

     occupation numbers 
     1.0000   1.0000   1.0000   1.0000   1.0000   1.0000   1.0000   1.0000
     1.0000   1.0000   1.0000   1.0000   1.0000   1.0000   1.0000   1.0000
     1.0000   1.0000   1.0009   0.0000   0.0000   0.0000   0.0000   0.0000
     0.0000   0.0000   0.0000

          k = 0.0000 0.0000 0.1750 (  2114 PWs)   bands (ev):

   -84.7968 -48.0983 -48.0983 -47.9496 -41.7642 -13.7365 -13.6031 -13.6031
    -9.6426  -7.9500   3.9234   4.8876   4.8876   6.7936   8.0556   8.0556
     9.1315   9.1315  10.2407  12.4874  12.4874  13.4520  17.3095  19.7844
    25.5041  27.4053  27.4053

     occupation numbers 
     1.0000   1.0000   1.0000   1.0000   1.0000   1.0000   1.0000   1.0000
[...]

          k = 0.0000 0.4330 0.0000 (  2098 PWs)   bands (ev):

   -84.7923 -48.1484 -48.1102 -47.9419 -41.7323 -13.9033 -13.6613 -13.6098
    -8.6415  -7.8507   3.5792   4.5120   5.3694   5.4884   6.6921   7.2307
     9.3654   9.7432  10.0183  11.7339  12.3240  15.6811  19.5183  20.3725
    22.2781  24.1085  25.4466

     occupation numbers 
     1.0000   1.0000   1.0000   1.0000   1.0000   1.0000   1.0000   1.0000
     1.0000   1.0000   1.0000   1.0000   1.0000   1.0000   1.0000   1.0000
     1.0000   1.0000   1.0001   0.0000   0.0000   0.0000   0.0000   0.0000
     0.0000   0.0000   0.0000

          k = 0.0000 0.4330 0.1750 (  2109 PWs)   bands (ev):

   -84.7923 -48.1485 -48.1102 -47.9421 -41.7323 -13.9029 -13.6614 -13.6142
    -8.6089  -7.8751   3.4781   4.4374   5.3750   5.6373   6.6839   7.3735
     9.3456   9.7429  10.0274  11.5554  12.3260  15.7637  19.1445  20.6165
    22.8277  24.0307  25.4382

     occupation numbers 
     1.0000   1.0000   1.0000   1.0000   1.0000   1.0000   1.0000   1.0000
     1.0000   1.0000   1.0000   1.0000   1.0000   1.0000   1.0000   1.0000
     1.0000   1.0000   1.0001   0.0002   0.0000   0.0000   0.0000   0.0000
     0.0000   0.0000   0.0000

          k = 0.0000-0.5774 0.0000 (  2102 PWs)   bands (ev):

   -84.7915 -48.1571 -48.1122 -47.9406 -41.7268 -13.9505 -13.6712 -13.5935
    -8.3711  -7.9086   3.1605   4.5746   5.4047   5.8827   6.6441   6.7438
     9.2572   9.6432   9.9368  11.9364  12.3775  16.6766  18.3828  20.1538
    22.3471  24.0756  25.4230

     occupation numbers 
     1.0000   1.0000   1.0000   1.0000   1.0000   1.0000   1.0000   1.0000
     1.0000   1.0000   1.0000   1.0000   1.0000   1.0000   1.0000   1.0000
     1.0000   1.0000   1.0000   0.0000   0.0000   0.0000   0.0000   0.0000
     0.0000   0.0000   0.0000

          k = 0.0000-0.5774 0.1750 (  2116 PWs)   bands (ev):

   -84.7916 -48.1571 -48.1124 -47.9407 -41.7269 -13.9499 -13.6716 -13.5964
    -8.3667  -7.9034   3.0934   4.4939   5.4108   5.8897   6.6351   6.9735
     9.2451   9.6432   9.9278  11.9402  12.3786  16.2367  18.2308  21.0973
    22.3504  24.4545  25.3676

     occupation numbers 
     1.0000   1.0000   1.0000   1.0000   1.0000   1.0000   1.0000   1.0000
     1.0000   1.0000   1.0000   1.0000   1.0000   1.0000   1.0000   1.0000
     1.0000   1.0000   1.0000   0.0000   0.0000   0.0000   0.0000   0.0000
     0.0000   0.0000   0.0000

          k = 0.1250 0.2165 0.0000 (  2101 PWs)   bands (ev):

   -84.7947 -48.1205 -48.1047 -47.9461 -41.7494 -13.7504 -13.6577 -13.6351
    -9.3015  -7.7995   4.1717   4.3786   5.0853   6.0348   6.9330   7.9908
     9.4949   9.7958  10.1659  11.7580  12.0553  14.0696  19.4994  20.9525
    23.2490  24.8563  26.5201

     occupation numbers 
     1.0000   1.0000   1.0000   1.0000   1.0000   1.0000   1.0000   1.0000
     1.0000   1.0000   1.0000   1.0000   1.0000   1.0000   1.0000   1.0000
     1.0000   1.0000   1.0014   0.0000   0.0000   0.0000   0.0000   0.0000
     0.0000   0.0000   0.0000

          k = 0.1250 0.2165 0.1750 (  2101 PWs)   bands (ev):

   -84.7947 -48.1206 -48.1047 -47.9461 -41.7494 -13.7527 -13.6662 -13.6354
    -9.1974  -7.9065   4.1342   4.4967   5.0925   6.1212   6.9384   7.7383
     9.4951   9.7400  10.2550  11.5024  12.1545  14.5045  18.8945  21.4367
    23.2504  25.0810  25.5560

     occupation numbers 
     1.0000   1.0000   1.0000   1.0000   1.0000   1.0000   1.0000   1.0000
     1.0000   1.0000   1.0000   1.0000   1.0000   1.0000   1.0000   1.0000
     1.0000   1.0000   1.0055   0.0005   0.0000   0.0000   0.0000   0.0000
     0.0000   0.0000   0.0000

          k = 0.1250 0.3608 0.0000 (  2106 PWs)   bands (ev):

   -84.7929 -48.1392 -48.1119 -47.9429 -41.7362 -13.8516 -13.6737 -13.6207
    -8.8163  -7.8206   4.0382   4.4718   5.2000   5.3932   6.4192   7.5969
     9.5229   9.8981  10.0632  11.6651  12.0109  15.2533  19.9716  21.1880
    22.2435  24.0174  25.5914

     occupation numbers 
     1.0000   1.0000   1.0000   1.0000   1.0000   1.0000   1.0000   1.0000
     1.0000   1.0000   1.0000   1.0000   1.0000   1.0000   1.0000   1.0000
     1.0000   1.0000   1.0002   0.0000   0.0000   0.0000   0.0000   0.0000
     0.0000   0.0000   0.0000

          k = 0.1250 0.3608 0.1750 (  2102 PWs)   bands (ev):

   -84.7928 -48.1393 -48.1118 -47.9429 -41.7362 -13.8513 -13.6737 -13.6261
    -8.7580  -7.8738   3.8817   4.4472   5.2923   5.5403   6.4229   7.6171
     9.5151   9.8696  10.0669  11.4620  12.0749  15.3910  19.8356  20.9409
    23.1220  23.8993  25.1619

     occupation numbers 
     1.0000   1.0000   1.0000   1.0000   1.0000   1.0000   1.0000   1.0000
     1.0000   1.0000   1.0000   1.0000   1.0000   1.0000   1.0000   1.0000
     1.0000   1.0000   1.0002   0.0012   0.0000   0.0000   0.0000   0.0000
     0.0000   0.0000   0.0000

          k = 0.1250 0.5052 0.0000 (  2104 PWs)   bands (ev):

   -84.7915 -48.1524 -48.1170 -47.9406 -41.7268 -13.9225 -13.7003 -13.5933
    -8.4125  -7.8676   3.4452   4.4630   5.3664   5.8060   6.2272   6.9065
     9.4121   9.7133  10.0175  11.8600  12.1209  16.4927  18.9041  20.6961
    22.6489  23.8031  25.2280

     occupation numbers 
     1.0000   1.0000   1.0000   1.0000   1.0000   1.0000   1.0000   1.0000
     1.0000   1.0000   1.0000   1.0000   1.0000   1.0000   1.0000   1.0000
     1.0000   1.0000   1.0001   0.0000   0.0000   0.0000   0.0000   0.0000
     0.0000   0.0000   0.0000

          k = 0.1250 0.5052 0.1750 (  2107 PWs)   bands (ev):

   -84.7915 -48.1524 -48.1169 -47.9407 -41.7269 -13.9221 -13.7001 -13.5963
    -8.4031  -7.8678   3.3766   4.3881   5.3650   5.8547   6.2360   7.0630
     9.3982   9.7187  10.0001  11.8303  12.1568  16.3220  18.6494  21.2203
    22.8693  24.1069  25.1614

     occupation numbers 
     1.0000   1.0000   1.0000   1.0000   1.0000   1.0000   1.0000   1.0000
     1.0000   1.0000   1.0000   1.0000   1.0000   1.0000   1.0000   1.0000
     1.0000   1.0000   1.0001   0.0000   0.0000   0.0000   0.0000   0.0000
     0.0000   0.0000   0.0000

          k = 0.2500 0.4330 0.0000 (  2095 PWs)   bands (ev):

   -84.7915 -48.1458 -48.1234 -47.9406 -41.7268 -13.8844 -13.7390 -13.5932
    -8.4484  -7.8321   3.9365   4.2890   5.0634   5.7090   6.0269   7.0417
     9.5247   9.7611  10.1373  11.7309  11.9074  16.3702  19.3653  21.5988
    22.6363  23.4737  25.1164

     occupation numbers 
     1.0000   1.0000   1.0000   1.0000   1.0000   1.0000   1.0000   1.0000
     1.0000   1.0000   1.0000   1.0000   1.0000   1.0000   1.0000   1.0000
     1.0000   1.0000   1.0009   0.0000   0.0000   0.0000   0.0000   0.0000
     0.0000   0.0000   0.0000

          k = 0.2500 0.4330 0.1750 (  2101 PWs)   bands (ev):

   -84.7915 -48.1458 -48.1234 -47.9407 -41.7268 -13.8840 -13.7390 -13.5965
    -8.4227  -7.8501   3.8601   4.2151   5.0642   5.8391   6.0541   7.0626
     9.5308   9.7668  10.0819  11.8091  11.9169  16.1781  19.3515  21.7214
    23.1098  23.7465  24.7175

     occupation numbers 
     1.0000   1.0000   1.0000   1.0000   1.0000   1.0000   1.0000   1.0000
     1.0000   1.0000   1.0000   1.0000   1.0000   1.0000   1.0000   1.0000
     1.0000   1.0000   1.0003   0.0000   0.0000   0.0000   0.0000   0.0000
     0.0000   0.0000   0.0000

          k = 0.2500 0.5774 0.0000 (  2102 PWs)   bands (ev):

   -84.7910 -48.1464 -48.1304 -47.9397 -41.7230 -13.8849 -13.7789 -13.5821
    -8.2926  -7.8317   3.8213   4.3405   4.8192   5.9071   6.2045   6.5601
     9.3517   9.8969  10.0908  11.8166  11.8490  17.1336  18.6774  21.6791
    22.8304  23.6962  24.9436

     occupation numbers 
     1.0000   1.0000   1.0000   1.0000   1.0000   1.0000   1.0000   1.0000
     1.0000   1.0000   1.0000   1.0000   1.0000   1.0000   1.0000   1.0000
     1.0000   1.0000   1.0004   0.0000   0.0000   0.0000   0.0000   0.0000
     0.0000   0.0000   0.0000

          k = 0.2500 0.5774 0.1750 (  2105 PWs)   bands (ev):

   -84.7910 -48.1463 -48.1305 -47.9398 -41.7230 -13.8846 -13.7789 -13.5843
    -8.2909  -7.8248   3.7603   4.2970   4.8037   5.9372   6.2279   6.6204
     9.3607   9.8968  10.0610  11.8849  11.9220  16.9615  18.5033  22.2127
    23.0906  23.6402  24.5712

     occupation numbers 
     1.0000   1.0000   1.0000   1.0000   1.0000   1.0000   1.0000   1.0000
     1.0000   1.0000   1.0000   1.0000   1.0000   1.0000   1.0000   1.0000
     1.0000   1.0000   1.0002   0.0000   0.0000   0.0000   0.0000   0.0000
     0.0000   0.0000   0.0000

          k = 0.0000-0.1443 0.1750 (  2102 PWs)   bands (ev):

   -84.7960 -48.1068 -48.1002 -47.9483 -41.7587 -13.7233 -13.6479 -13.6130
    -9.4829  -7.9335   4.0935   4.5615   4.9793   6.9645   7.4012   7.6075
     9.3232   9.4982  10.2824  11.9591  12.3901  13.8648  17.9561  20.4499
    24.7802  26.0051  26.8513

     occupation numbers 
     1.0000   1.0000   1.0000   1.0000   1.0000   1.0000   1.0000   1.0000
     1.0000   1.0000   1.0000   1.0000   1.0000   1.0000   1.0000   1.0000
     1.0000   1.0000   1.0080   0.0000   0.0000   0.0000   0.0000   0.0000
     0.0000   0.0000   0.0000

          k = 0.0000-0.2887 0.1750 (  2100 PWs)   bands (ev):

   -84.7941 -48.1276 -48.1052 -47.9451 -41.7455 -13.7895 -13.6564 -13.6372
    -9.0648  -7.9059   4.0455   4.5303   5.1957   5.7210   7.0097   7.6917
     9.3927   9.8070  10.1749  11.5158  12.2750  14.5010  19.3782  21.5893
    22.6673  24.5290  25.7889

     occupation numbers 
     1.0000   1.0000   1.0000   1.0000   1.0000   1.0000   1.0000   1.0000
     1.0000   1.0000   1.0000   1.0000   1.0000   1.0000   1.0000   1.0000
     1.0000   1.0000   1.0017   0.0004   0.0000   0.0000   0.0000   0.0000
     0.0000   0.0000   0.0000

          k = 0.0000-0.4330 0.1750 (  2109 PWs)   bands (ev):

   -84.7923 -48.1485 -48.1102 -47.9421 -41.7323 -13.9032 -13.6614 -13.6146
    -8.5846  -7.9020   3.4863   4.4348   5.3689   5.7365   6.6924   7.2162
     9.3476   9.7430   9.9932  11.7769  12.3228  15.3156  19.5138  21.1909
    22.2091  24.5445  25.1615

     occupation numbers 
     1.0000   1.0000   1.0000   1.0000   1.0000   1.0000   1.0000   1.0000
     1.0000   1.0000   1.0000   1.0000   1.0000   1.0000   1.0000   1.0000
     1.0000   1.0000   1.0001   0.0000   0.0000   0.0000   0.0000   0.0000
     0.0000   0.0000   0.0000

          k =-0.1250-0.3608 0.1750 (  2102 PWs)   bands (ev):

   -84.7928 -48.1392 -48.1118 -47.9430 -41.7362 -13.8515 -13.6737 -13.6263
    -8.7466  -7.8867   3.9011   4.4319   5.2781   5.5914   6.4277   7.5378
     9.5281   9.8804  10.0112  11.6595  12.0231  15.1591  20.0634  21.1918
    22.8137  24.1459  25.0040

     occupation numbers 
     1.0000   1.0000   1.0000   1.0000   1.0000   1.0000   1.0000   1.0000
     1.0000   1.0000   1.0000   1.0000   1.0000   1.0000   1.0000   1.0000
     1.0000   1.0000   1.0001   0.0000   0.0000   0.0000   0.0000   0.0000
     0.0000   0.0000   0.0000

          k =-0.1250-0.5052 0.1750 (  2107 PWs)   bands (ev):

   -84.7916 -48.1524 -48.1169 -47.9407 -41.7268 -13.9222 -13.7001 -13.5965
    -8.3891  -7.8829   3.3745   4.3961   5.3651   5.8998   6.2507   6.9777
     9.4102   9.7154   9.9832  11.9274  12.1325  16.0901  18.8457  21.6718
    22.4145  24.2944  25.0336

     occupation numbers 
     1.0000   1.0000   1.0000   1.0000   1.0000   1.0000   1.0000   1.0000
     1.0000   1.0000   1.0000   1.0000   1.0000   1.0000   1.0000   1.0000
     1.0000   1.0000   1.0000   0.0000   0.0000   0.0000   0.0000   0.0000
     0.0000   0.0000   0.0000

     the Fermi energy is    10.9838 ev

     WARNING: integrated charge=    38.00618257, expected=    38.00000000

!    total energy              =    -569.34319406 Ry
     total all-electron energy =     -3412.833749 Ry
     estimated scf accuracy    <          2.8E-09 Ry
     smearing contrib. (-TS)   =       0.00009424 Ry
     internal energy E=F+TS    =    -569.34328830 Ry

     The total energy is F=E-TS. E is the sum of the following terms:
     one-electron contribution =    -316.44812190 Ry
     hartree contribution      =     180.11546268 Ry
     xc contribution           =     -60.48014704 Ry
     ewald contribution        =    -250.60712582 Ry
     one-center paw contrib.   =    -121.92335622 Ry
      -> PAW hartree energy AE =     347.02101740 Ry
      -> PAW hartree energy PS =    -346.99837049 Ry
      -> PAW xc energy AE      =    -179.41624327 Ry
      -> PAW xc energy PS      =      57.47024014 Ry
      -> total E_H with PAW    =     180.13810958 Ry
      -> total E_XC with PAW   =    -182.42615017 Ry

     total magnetization       =     0.00 Bohr mag/cell
     absolute magnetization    =     0.00 Bohr mag/cell

     convergence has been achieved in  51 iterations

     Forces acting on atoms (cartesian axes, Ry/au):

     atom    1 type  1   force =    -0.00000000   -0.00000000    0.03461352
     atom    2 type  2   force =     0.00000000    0.00000000   -0.01822442
     atom    3 type  2   force =    -0.00000000   -0.00000000   -0.02483483
     atom    4 type  3   force =     0.00000000    0.00000000    0.00844572
     The non-local contrib.  to forces
     atom    1 type  1   force =     0.00000000    0.00000000   -0.05508877
     atom    2 type  2   force =    -0.00000000   -0.00000000   -0.75776962
     atom    3 type  2   force =     0.00000000    0.00000000    0.49844691
     atom    4 type  3   force =    -0.00000000   -0.00000000   -0.03060250
     The ionic contribution  to forces
     atom    1 type  1   force =    -0.00000000    0.00000000    7.77055756
     atom    2 type  2   force =     0.00000000   -0.00000000   19.84075154
     atom    3 type  2   force =    -0.00000000    0.00000000  -16.59523488
     atom    4 type  3   force =     0.00000000   -0.00000000  -11.01607422
     The local contribution  to forces
     atom    1 type  1   force =     0.00000000    0.00000000   -7.68084317
     atom    2 type  2   force =     0.00000001   -0.00000001  -19.10823752
     atom    3 type  2   force =    -0.00000001    0.00000001   16.07651471
     atom    4 type  3   force =     0.00000006   -0.00000004   11.05514975
     The core correction contribution to forces
     atom    1 type  1   force =     0.00000000   -0.00000000   -0.00008520
     atom    2 type  2   force =    -0.00000000    0.00000000    0.00699094
     atom    3 type  2   force =     0.00000000   -0.00000000   -0.00452869
     atom    4 type  3   force =     0.00000000   -0.00000000    0.00000271
     The Hubbard contrib.    to forces
     atom    1 type  1   force =     0.00000000    0.00000000    0.00000000
     atom    2 type  2   force =     0.00000000    0.00000000    0.00000000
     atom    3 type  2   force =     0.00000000    0.00000000    0.00000000
     atom    4 type  3   force =     0.00000000    0.00000000    0.00000000
     The SCF correction term to forces
     atom    1 type  1   force =     0.00000000   -0.00000000    0.00007865
     atom    2 type  2   force =     0.00000000   -0.00000000    0.00004579
     atom    3 type  2   force =    -0.00000000    0.00000000   -0.00002733
     atom    4 type  3   force =     0.00000000   -0.00000000   -0.00002447

     Total force =     0.047099     Total SCF correction =     0.000098

     Writing all to output data dir ./out/pw.save/ :
     XML data file, charge density, pseudopotentials, collected wavefunctions
 
     init_run     :     10.52s CPU      2.46s WALL (       1 calls)
     electrons    :    259.74s CPU     58.74s WALL (       1 calls)
     forces       :      0.80s CPU      0.54s WALL (       1 calls)

     Called by init_run:
     wfcinit      :      0.24s CPU      0.31s WALL (       1 calls)
     wfcinit:atom :      0.04s CPU      0.04s WALL (      50 calls)
     wfcinit:wfcr :      0.15s CPU      0.20s WALL (      50 calls)
     potinit      :      9.77s CPU      1.61s WALL (       1 calls)
     hinit0       :      0.43s CPU      0.43s WALL (       1 calls)

     Called by electrons:
     c_bands      :     23.83s CPU     23.35s WALL (      51 calls)
     sum_band     :      5.43s CPU      5.26s WALL (      51 calls)
     v_of_rho     :      0.78s CPU      0.33s WALL (      52 calls)
     v_h          :      0.56s CPU      0.06s WALL (      52 calls)
     v_xc         :      0.23s CPU      0.27s WALL (      53 calls)
     newd         :      1.14s CPU      0.82s WALL (      52 calls)
                                        0.82s GPU  (      52 calls)
     PAW_pot      :    231.16s CPU     28.65s WALL (      52 calls)
     mix_rho      :      0.81s CPU      0.78s WALL (      51 calls)

     Called by c_bands:
     init_us_2    :      2.13s CPU      2.00s WALL (    5200 calls)
     cegterg      :     20.11s CPU     19.81s WALL (    2550 calls)

     Called by sum_band:
     sum_band:wei :      0.06s CPU      0.07s WALL (      51 calls)
                                        0.07s GPU  (      51 calls)
     sum_band:loo :      3.46s CPU      3.29s WALL (      51 calls)
                                        3.29s GPU  (      51 calls)
     sum_band:buf :      0.32s CPU      0.37s WALL (    2550 calls)
                                        0.34s GPU  (    2550 calls)
     sum_band:ini :      1.03s CPU      1.01s WALL (    2550 calls)
                                        0.98s GPU  (    2550 calls)
     sum_band:cal :      0.10s CPU      0.15s WALL (    2550 calls)
                                        0.12s GPU  (    2550 calls)
     sum_band:bec :      0.56s CPU      0.59s WALL (    2550 calls)
                                        0.56s GPU  (    2550 calls)
     addusdens    :      1.64s CPU      1.65s WALL (      51 calls)
                                        1.64s GPU  (      51 calls)
     addusd:skk   :      0.01s CPU      0.01s WALL (     153 calls)
                                        0.01s GPU  (     153 calls)

     Called by *egterg:
     cdiaghg      :      6.83s CPU      7.04s WALL (    8060 calls)
                                        6.94s GPU  (    8060 calls)
     cegterg:over :      0.88s CPU      0.91s WALL (    5510 calls)
     cegterg:upda :      1.29s CPU      1.30s WALL (    5510 calls)
     cegterg:last :      0.22s CPU      0.20s WALL (    3972 calls)
     h_psi        :      7.58s CPU      7.33s WALL (    8110 calls)
                                        7.23s GPU  (    8110 calls)
     s_psi        :      1.25s CPU      1.29s WALL (    8110 calls)
     g_psi        :      0.03s CPU      0.13s WALL (    5510 calls)
                                        0.06s GPU  (    5510 calls)

     Called by h_psi:
     h_psi:calbec :      0.22s CPU      0.42s WALL (    8110 calls)
                                        0.32s GPU  (    8110 calls)
     vloc_psi     :      5.38s CPU      5.03s WALL (    8110 calls)
                                        4.93s GPU  (    8110 calls)
     add_vuspsi   :      1.13s CPU      1.31s WALL (    8110 calls)
                                        1.21s GPU  (    8110 calls)

     General routines
     calbec       :      0.26s CPU      0.29s WALL (   10860 calls)
     fft          :      3.78s CPU      0.69s WALL (    1313 calls)
                                        0.04s GPU  (    1209 calls)
     ffts         :      2.08s CPU      0.35s WALL (     206 calls)
                                        0.00s GPU  (     102 calls)
     fftw         :      0.51s CPU      1.77s WALL (   31830 calls)
                                        1.41s GPU  (   31830 calls)
     interpolate  :      6.12s CPU      1.02s WALL (     104 calls)
 
     Parallel routines

     PAW routines
     PAW_pot      :    231.16s CPU     28.65s WALL (      52 calls)
     PAW_symme    :      0.06s CPU      0.01s WALL (     103 calls)
 
     PWSCF        :   4m31.86s CPU   1m 2.24s WALL

 
   This run was terminated on:   2:14: 9  12Jul2026            

=------------------------------------------------------------------------------=
   JOB DONE.
=------------------------------------------------------------------------------=
Warning: ieee_divide_by_zero is signaling
Warning: ieee_inexact is signaling
FORTRAN STOP
