
     Program PWSCF v.7.3.1 starts on 12Jul2026 at  3:59:35 

     This program is part of the open-source Quantum ESPRESSO suite
     for quantum simulation of materials; please cite
         "P. Giannozzi et al., J. Phys.:Condens. Matter 21 395502 (2009);
         "P. Giannozzi et al., J. Phys.:Condens. Matter 29 465901 (2017);
         "P. Giannozzi et al., J. Chem. Phys. 152 154105 (2020);
          URL http://www.quantum-espresso.org", 
     in publications or presentations arising from this work. More details at
     http://www.quantum-espresso.org/quote

     Parallel version (MPI & OpenMP), running on      14 processor cores
     Number of MPI processes:                 1
     Threads/MPI process:                    14

     MPI processes distributed on     1 nodes
     842270 MiB available memory on the printing compute node when the environment starts
 
     Reading input from pw.in

     Current dimensions of program PWSCF are:
     Max number of different atomic species (ntypx) = 10
     Max number of k-points (npk) =  40000
     Max angular momentum in pseudopotentials (lmaxx) =  4
     file Co.pbe-spn-kjpaw_psl.0.3.1.UPF: wavefunction(s)  3P 3D renormalized
     file O.pbe-n-kjpaw_psl.1.0.0.UPF: wavefunction(s)  2S 2P renormalized
     file Na.pbe-spn-kjpaw_psl.1.0.0.UPF: wavefunction(s)  2P renormalized
 
     Subspace diagonalization in iterative solution of the eigenvalue problem:
     a serial algorithm will be used

 
     G-vector sticks info
     --------------------
     sticks:   dense  smooth     PW     G-vecs:    dense   smooth      PW
     Sum        2941    1483    421               256907    90927   13609
 
     Using Slab Decomposition
 


     bravais-lattice index     =            4
     lattice parameter (alat)  =       9.4527  a.u.
     unit-cell volume          =    1447.6983 (a.u.)^3
     number of atoms/cell      =           10
     number of atomic types    =            3
     number of electrons       =        96.00
     number of Kohn-Sham states=           64
     kinetic-energy cutoff     =      60.0000  Ry
     charge density cutoff     =     480.0000  Ry
     scf convergence threshold =      1.0E-07
     mixing beta               =       0.3000
     number of iterations used =            8  local-TF  mixing
     Exchange-correlation= SLA  PW   PBX  PBC
                           (   1   4   3   4   0   0   0)

     GPU acceleration is ACTIVE.  1 visible GPUs per MPI rank
     GPU-aware MPI enabled


     GPU used by master process:

        Device Number: 0
        Device name: NVIDIA A100-SXM4-80GB
        Compute capability : 80
        Ratio of single to double precision performance  : 2
        Memory Clock Rate (KHz): 1593000
        Memory Bus Width (bits): 5120
        Peak Memory Bandwidth (GB/s): ******

     celldm(1)=   9.452718  celldm(2)=   0.000000  celldm(3)=   1.979144
     celldm(4)=   0.000000  celldm(5)=   0.000000  celldm(6)=   0.000000

     crystal axes: (cart. coord. in units of alat)
               a(1) = (   1.000000   0.000000   0.000000 )  
               a(2) = (  -0.500000   0.866025   0.000000 )  
               a(3) = (   0.000000   0.000000   1.979144 )  

     reciprocal axes: (cart. coord. in units 2 pi/alat)
               b(1) = (  1.000000  0.577350 -0.000000 )  
               b(2) = (  0.000000  1.154701  0.000000 )  
               b(3) = (  0.000000 -0.000000  0.505269 )  


     PseudoPot. # 1 for Co read from file:
     ../../pseudo/Co.pbe-spn-kjpaw_psl.0.3.1.UPF
     MD5 check sum: 3c0a43779828c046024e4f3be63f8e67
     Pseudo is Projector augmented-wave + core cor, Zval = 17.0
     Generated using &quot;atomic&quot; code by A. Dal Corso  v.6.2.2
     Shape of augmentation charge: PSQ
     Using radial grid of 1193 points,  6 beta functions with: 
                l(1) =   0
                l(2) =   0
                l(3) =   1
                l(4) =   1
                l(5) =   2
                l(6) =   2
     Q(r) pseudized with 0 coefficients 


     PseudoPot. # 2 for O  read from file:
     ../../pseudo/O.pbe-n-kjpaw_psl.1.0.0.UPF
     MD5 check sum: e99d9cef9b487d1ca56f5b95ecd0fd7a
     Pseudo is Projector augmented-wave + core cor, Zval =  6.0
     Generated using &quot;atomic&quot; code by A. Dal Corso  v.6.3
     Shape of augmentation charge: PSQ
     Using radial grid of 1095 points,  4 beta functions with: 
                l(1) =   0
                l(2) =   0
                l(3) =   1
                l(4) =   1
     Q(r) pseudized with 0 coefficients 


     PseudoPot. # 3 for Na read from file:
     ../../pseudo/Na.pbe-spn-kjpaw_psl.1.0.0.UPF
     MD5 check sum: 05b4deb74e3932c23ab016979dc8b5d4
     Pseudo is Projector augmented-wave + core cor, Zval =  9.0
     Generated using &quot;atomic&quot; code by A. Dal Corso  v.6.3
     Shape of augmentation charge: PSQ
     Using radial grid of 1121 points,  4 beta functions with: 
                l(1) =   0
                l(2) =   0
                l(3) =   1
                l(4) =   1
     Q(r) pseudized with 0 coefficients 


     atomic species   valence    mass     pseudopotential
     Co               17.00    58.93300     Co( 1.00)
     O                 6.00    15.99900     O ( 1.00)
     Na                9.00    22.98977     Na( 1.00)

     Starting magnetic structure 
     atomic species   magnetization
     Co              0.300
     O               0.000
     Na              0.000

      6 Sym. Ops. (no inversion) found


                                    s                        frac. trans.

      isym =  1     identity                                     

 cryst.   s( 1) = (     1          0          0      )
                  (     0          1          0      )
                  (     0          0          1      )

 cart.    s( 1) = (  1.0000000  0.0000000  0.0000000 )
                  (  0.0000000  1.0000000  0.0000000 )
                  (  0.0000000  0.0000000  1.0000000 )


      isym =  2     120 deg rotation - cryst. axis [0,0,1]       

 cryst.   s( 2) = (     0          1          0      )
                  (    -1         -1          0      )
                  (     0          0          1      )

 cart.    s( 2) = ( -0.5000000 -0.8660254  0.0000000 )
                  (  0.8660254 -0.5000000  0.0000000 )
                  (  0.0000000  0.0000000  1.0000000 )


      isym =  3     120 deg rotation - cryst. axis [0,0,-1]      

 cryst.   s( 3) = (    -1         -1          0      )
                  (     1          0          0      )
                  (     0          0          1      )

 cart.    s( 3) = ( -0.5000000  0.8660254  0.0000000 )
                  ( -0.8660254 -0.5000000  0.0000000 )
                  (  0.0000000  0.0000000  1.0000000 )


      isym =  4     inv. 180 deg rotation - cart. axis [0,1,0]   

 cryst.   s( 4) = (     1          0          0      )
                  (    -1         -1          0      )
                  (     0          0          1      )

 cart.    s( 4) = (  1.0000000  0.0000000  0.0000000 )
                  (  0.0000000 -1.0000000  0.0000000 )
                  (  0.0000000  0.0000000  1.0000000 )


      isym =  5     inv. 180 deg rotation - cryst. axis [1,-1,0] 

 cryst.   s( 5) = (     0          1          0      )
                  (     1          0          0      )
                  (     0          0          1      )

 cart.    s( 5) = ( -0.5000000  0.8660254  0.0000000 )
                  (  0.8660254  0.5000000  0.0000000 )
                  (  0.0000000  0.0000000  1.0000000 )


      isym =  6     inv. 180 deg rotation - cryst. axis [2,1,0]  

 cryst.   s( 6) = (    -1         -1          0      )
                  (     0          1          0      )
                  (     0          0          1      )

 cart.    s( 6) = ( -0.5000000 -0.8660254  0.0000000 )
                  ( -0.8660254  0.5000000  0.0000000 )
                  (  0.0000000  0.0000000  1.0000000 )


     point group C_3v (3m)  
     there are  3 classes
     the character table:

       E     2C3   3s_v 
A_1    1.00  1.00  1.00
A_2    1.00  1.00 -1.00
E      2.00 -1.00  0.00

     the symmetry operations in each class and the name of the first element:

     E        1
          identity                                               
     2C3      2    3
          120 deg rotation - cryst. axis [0,0,1]                 
     3s_v     4    6    5
          inv. 180 deg rotation - cart. axis [0,1,0]             

   Cartesian axes

     site n.     atom                  positions (alat units)
         1        Co     tau(   1) = (   0.0000000   0.0000000   0.0000000  )
         2        Co     tau(   2) = (  -0.0000000   0.5773503   0.0000000  )
         3        Co     tau(   3) = (   0.5000000   0.2886751   0.0000000  )
         4        O      tau(   4) = (   0.1666667   0.2886751   0.1919170  )
         5        O      tau(   5) = (   0.6666667   0.0000000   0.1919170  )
         6        O      tau(   6) = (  -0.3333333   0.5773503   0.1919170  )
         7        O      tau(   7) = (   0.3333333   0.0000000   1.7872269  )
         8        O      tau(   8) = (   0.3333333   0.5773503   1.7872269  )
         9        O      tau(   9) = (  -0.1666667   0.2886751   1.7872269  )
        10        Na     tau(  10) = (   0.0000000   0.0000000   1.1395071  )

   Crystallographic axes

     site n.     atom                  positions (cryst. coord.)
         1        Co     tau(   1) = (  0.0000000  0.0000000  0.0000000  )
         2        Co     tau(   2) = (  0.3333333  0.6666667  0.0000000  )
         3        Co     tau(   3) = (  0.6666667  0.3333333  0.0000000  )
         4        O      tau(   4) = (  0.3333333  0.3333333  0.0969697  )
         5        O      tau(   5) = (  0.6666667  0.0000000  0.0969697  )
         6        O      tau(   6) = (  0.0000000  0.6666667  0.0969697  )
         7        O      tau(   7) = (  0.3333333  0.0000000  0.9030303  )
         8        O      tau(   8) = (  0.6666667  0.6666667  0.9030303  )
         9        O      tau(   9) = ( -0.0000000  0.3333333  0.9030303  )
        10        Na     tau(  10) = (  0.0000000  0.0000000  0.5757576  )

     number of k points=    17  Marzari-Vanderbilt smearing, width (Ry)=  0.0200
                       cart. coord. in units 2pi/alat
        k(    1) = (   0.0000000   0.0000000   0.0000000), wk =   0.0092593
        k(    2) = (   0.0000000   0.0000000   0.1684230), wk =   0.0185185
        k(    3) = (   0.0000000   0.1924501   0.0000000), wk =   0.0555556
        k(    4) = (   0.0000000   0.1924501   0.1684230), wk =   0.1111111
        k(    5) = (   0.0000000   0.3849002   0.0000000), wk =   0.0555556
        k(    6) = (   0.0000000   0.3849002   0.1684230), wk =   0.1111111
        k(    7) = (   0.0000000  -0.5773503   0.0000000), wk =   0.0277778
        k(    8) = (   0.0000000  -0.5773503   0.1684230), wk =   0.0555556
        k(    9) = (   0.1666667   0.2886751   0.0000000), wk =   0.0555556
        k(   10) = (   0.1666667   0.2886751   0.1684230), wk =   0.0555556
        k(   11) = (   0.1666667   0.4811252   0.0000000), wk =   0.1111111
        k(   12) = (   0.1666667   0.4811252   0.1684230), wk =   0.1111111
        k(   13) = (   0.3333333   0.5773503   0.0000000), wk =   0.0185185
        k(   14) = (   0.3333333   0.5773503   0.1684230), wk =   0.0185185
        k(   15) = (  -0.1666667  -0.2886751   0.1684230), wk =   0.0555556
        k(   16) = (  -0.1666667  -0.4811252   0.1684230), wk =   0.1111111
        k(   17) = (  -0.3333333  -0.5773503   0.1684230), wk =   0.0185185

                       cryst. coord.
        k(    1) = (   0.0000000   0.0000000   0.0000000), wk =   0.0092593
        k(    2) = (   0.0000000   0.0000000   0.3333333), wk =   0.0185185
        k(    3) = (   0.0000000   0.1666667   0.0000000), wk =   0.0555556
        k(    4) = (   0.0000000   0.1666667   0.3333333), wk =   0.1111111
        k(    5) = (   0.0000000   0.3333333   0.0000000), wk =   0.0555556
        k(    6) = (   0.0000000   0.3333333   0.3333333), wk =   0.1111111
        k(    7) = (   0.0000000  -0.5000000   0.0000000), wk =   0.0277778
        k(    8) = (   0.0000000  -0.5000000   0.3333333), wk =   0.0555556
        k(    9) = (   0.1666667   0.1666667   0.0000000), wk =   0.0555556
        k(   10) = (   0.1666667   0.1666667   0.3333333), wk =   0.0555556
        k(   11) = (   0.1666667   0.3333333   0.0000000), wk =   0.1111111
        k(   12) = (   0.1666667   0.3333333   0.3333333), wk =   0.1111111
        k(   13) = (   0.3333333   0.3333333   0.0000000), wk =   0.0185185
        k(   14) = (   0.3333333   0.3333333   0.3333333), wk =   0.0185185
        k(   15) = (  -0.1666667  -0.1666667   0.3333333), wk =   0.0555556
        k(   16) = (  -0.1666667  -0.3333333   0.3333333), wk =   0.1111111
        k(   17) = (  -0.3333333  -0.3333333   0.3333333), wk =   0.0185185

     Dense  grid:   256907 G-vectors     FFT dimensions: (  72,  72, 135)

     Smooth grid:    90927 G-vectors     FFT dimensions: (  48,  48,  96)

     Dynamical RAM for                 wfc:      11.10 MB

     Dynamical RAM for     wfc (w. buffer):     388.35 MB

     Dynamical RAM for           str. fact:      11.76 MB

     Dynamical RAM for           local pot:       0.00 MB

     Dynamical RAM for          nlocal pot:      19.07 MB

     Dynamical RAM for                qrad:       5.27 MB

     Dynamical RAM for          rho,v,vnew:      55.56 MB

     Dynamical RAM for               rhoin:      18.52 MB

     Dynamical RAM for            rho*nmix:     125.44 MB

     Dynamical RAM for           G-vectors:      15.39 MB

     Dynamical RAM for          h,s,v(r/c):       0.75 MB

     Dynamical RAM for          <psi|beta>:       0.11 MB

     Dynamical RAM for                 psi:      22.19 MB

     Dynamical RAM for                hpsi:      22.19 MB

     Dynamical RAM for                spsi:      22.19 MB

     Dynamical RAM for      wfcinit/wfcrot:      22.29 MB

     Dynamical RAM for           addusdens:     756.58 MB

     Dynamical RAM for          addusforce:     795.83 MB

     Estimated static dynamical RAM per process >     561.64 MB

     Estimated max dynamical RAM per process >       1.45 GB

     Check: negative core charge=   -0.000006
     Generating pointlists ...
     new r_m :   0.1587 (alat units)  1.4998 (a.u.) for type    1
     new r_m :   0.1587 (alat units)  1.4998 (a.u.) for type    2
     new r_m :   0.3005 (alat units)  2.8404 (a.u.) for type    3

     Initial potential from superposition of free atoms

     starting charge      95.9928, renormalised to      96.0000
     Starting wfcs are   59 randomized atomic wfcs +    5 random wfcs
     Checking if some PAW data can be deallocated... 

     total cpu time spent up to now is        5.2 secs

     Self-consistent Calculation
[tb_dev] Currently allocated     9.94E-01 Mbytes, locked:    0 /   6
[tb_pin] Currently allocated     0.00E+00 Mbytes, locked:    0 /   0

     iteration #  1     ecut=    60.00 Ry     beta= 0.30
     Davidson diagonalization with overlap

---- Real-time Memory Report at c_bands before calling an iterative solver
          1140 MiB given to the printing process from OS
             0 MiB allocation reported by mallinfo(arena+hblkhd)
        841044 MiB available memory on the node where the printing process lives
     GPU memory used/free/total (MiB): 1984 / 79166 / 81151
------------------
     ethr =  1.00E-02,  avg # of iterations = 10.5

     total cpu time spent up to now is        9.1 secs

     total energy              =   -1488.24437050 Ry
     estimated scf accuracy    <       6.33693335 Ry

     total magnetization       =    14.00 Bohr mag/cell
     absolute magnetization    =    14.00 Bohr mag/cell
[tb_dev] Currently allocated     7.63E-05 Mbytes, locked:    0 /   2
[tb_pin] Currently allocated     0.00E+00 Mbytes, locked:    0 /   0

     iteration #  2     ecut=    60.00 Ry     beta= 0.30
     Davidson diagonalization with overlap

---- Real-time Memory Report at c_bands before calling an iterative solver
          1201 MiB given to the printing process from OS
             0 MiB allocation reported by mallinfo(arena+hblkhd)
        840535 MiB available memory on the node where the printing process lives
     GPU memory used/free/total (MiB): 2072 / 79078 / 81151
------------------
     ethr =  6.60E-03,  avg # of iterations =  2.0

     total cpu time spent up to now is       11.7 secs

     total energy              =   -1488.62259261 Ry
     estimated scf accuracy    <       1.12241599 Ry

     total magnetization       =    10.44 Bohr mag/cell
     absolute magnetization    =    10.44 Bohr mag/cell
[tb_dev] Currently allocated     7.63E-05 Mbytes, locked:    0 /   2
[tb_pin] Currently allocated     0.00E+00 Mbytes, locked:    0 /   0

     iteration #  3     ecut=    60.00 Ry     beta= 0.30
     Davidson diagonalization with overlap

---- Real-time Memory Report at c_bands before calling an iterative solver
          1214 MiB given to the printing process from OS
             0 MiB allocation reported by mallinfo(arena+hblkhd)
        840446 MiB available memory on the node where the printing process lives
     GPU memory used/free/total (MiB): 2072 / 79078 / 81151
------------------
     ethr =  1.17E-03,  avg # of iterations =  4.1

     total cpu time spent up to now is       14.6 secs

     total energy              =   -1488.93018624 Ry
     estimated scf accuracy    <       2.27255560 Ry

     total magnetization       =     4.20 Bohr mag/cell
     absolute magnetization    =     4.93 Bohr mag/cell
[tb_dev] Currently allocated     7.63E-05 Mbytes, locked:    0 /   2
[tb_pin] Currently allocated     0.00E+00 Mbytes, locked:    0 /   0

     iteration #  4     ecut=    60.00 Ry     beta= 0.30
     Davidson diagonalization with overlap

---- Real-time Memory Report at c_bands before calling an iterative solver
          1226 MiB given to the printing process from OS
             0 MiB allocation reported by mallinfo(arena+hblkhd)
        840408 MiB available memory on the node where the printing process lives
     GPU memory used/free/total (MiB): 2072 / 79078 / 81151
------------------
     ethr =  1.17E-03,  avg # of iterations =  1.7

     total cpu time spent up to now is       17.1 secs

     total energy              =   -1488.99276174 Ry
     estimated scf accuracy    <       1.63502070 Ry

     total magnetization       =     4.78 Bohr mag/cell
     absolute magnetization    =     5.33 Bohr mag/cell
[tb_dev] Currently allocated     7.63E-05 Mbytes, locked:    0 /   2
[tb_pin] Currently allocated     0.00E+00 Mbytes, locked:    0 /   0

     iteration #  5     ecut=    60.00 Ry     beta= 0.30
     Davidson diagonalization with overlap

---- Real-time Memory Report at c_bands before calling an iterative solver
          1232 MiB given to the printing process from OS
             0 MiB allocation reported by mallinfo(arena+hblkhd)
        840381 MiB available memory on the node where the printing process lives
     GPU memory used/free/total (MiB): 2072 / 79078 / 81151
------------------
     ethr =  1.17E-03,  avg # of iterations =  1.8

     total cpu time spent up to now is       19.6 secs

     total energy              =   -1489.13453045 Ry
     estimated scf accuracy    <       0.61945633 Ry

     total magnetization       =     3.90 Bohr mag/cell
     absolute magnetization    =     4.85 Bohr mag/cell
[tb_dev] Currently allocated     7.63E-05 Mbytes, locked:    0 /   2
[tb_pin] Currently allocated     0.00E+00 Mbytes, locked:    0 /   0

     iteration #  6     ecut=    60.00 Ry     beta= 0.30
     Davidson diagonalization with overlap

---- Real-time Memory Report at c_bands before calling an iterative solver
          1240 MiB given to the printing process from OS
             0 MiB allocation reported by mallinfo(arena+hblkhd)
        840253 MiB available memory on the node where the printing process lives
     GPU memory used/free/total (MiB): 2072 / 79078 / 81151
------------------
     ethr =  6.45E-04,  avg # of iterations =  3.1

     total cpu time spent up to now is       22.4 secs

     total energy              =   -1489.14709574 Ry
     estimated scf accuracy    <       0.84322668 Ry

     total magnetization       =     2.01 Bohr mag/cell
     absolute magnetization    =     3.38 Bohr mag/cell
[tb_dev] Currently allocated     7.63E-05 Mbytes, locked:    0 /   2
[tb_pin] Currently allocated     0.00E+00 Mbytes, locked:    0 /   0

     iteration #  7     ecut=    60.00 Ry     beta= 0.30
     Davidson diagonalization with overlap

---- Real-time Memory Report at c_bands before calling an iterative solver
          1250 MiB given to the printing process from OS
             0 MiB allocation reported by mallinfo(arena+hblkhd)
        840169 MiB available memory on the node where the printing process lives
     GPU memory used/free/total (MiB): 2072 / 79078 / 81151
------------------
     ethr =  6.45E-04,  avg # of iterations =  4.3

     total cpu time spent up to now is       25.2 secs

     total energy              =   -1489.18501389 Ry
     estimated scf accuracy    <       0.59830193 Ry

     total magnetization       =     0.56 Bohr mag/cell
     absolute magnetization    =     1.08 Bohr mag/cell
[tb_dev] Currently allocated     7.63E-05 Mbytes, locked:    0 /   2
[tb_pin] Currently allocated     0.00E+00 Mbytes, locked:    0 /   0

     iteration #  8     ecut=    60.00 Ry     beta= 0.30
     Davidson diagonalization with overlap

---- Real-time Memory Report at c_bands before calling an iterative solver
          1257 MiB given to the printing process from OS
             0 MiB allocation reported by mallinfo(arena+hblkhd)
        840156 MiB available memory on the node where the printing process lives
     GPU memory used/free/total (MiB): 2072 / 79078 / 81151
------------------
     ethr =  6.23E-04,  avg # of iterations =  1.4

     total cpu time spent up to now is       27.7 secs

     total energy              =   -1489.18433220 Ry
     estimated scf accuracy    <       0.32557967 Ry

     total magnetization       =     2.02 Bohr mag/cell
     absolute magnetization    =     2.19 Bohr mag/cell
[tb_dev] Currently allocated     7.63E-05 Mbytes, locked:    0 /   2
[tb_pin] Currently allocated     0.00E+00 Mbytes, locked:    0 /   0

     iteration #  9     ecut=    60.00 Ry     beta= 0.30
     Davidson diagonalization with overlap

---- Real-time Memory Report at c_bands before calling an iterative solver
          1265 MiB given to the printing process from OS
             0 MiB allocation reported by mallinfo(arena+hblkhd)
        840072 MiB available memory on the node where the printing process lives
     GPU memory used/free/total (MiB): 2072 / 79078 / 81151
------------------
     ethr =  3.39E-04,  avg # of iterations =  4.9

     total cpu time spent up to now is       30.7 secs

     total energy              =   -1489.07811660 Ry
     estimated scf accuracy    <       0.17869647 Ry

     total magnetization       =     2.24 Bohr mag/cell
     absolute magnetization    =     2.40 Bohr mag/cell
[tb_dev] Currently allocated     7.63E-05 Mbytes, locked:    0 /   2
[tb_pin] Currently allocated     0.00E+00 Mbytes, locked:    0 /   0

     iteration # 10     ecut=    60.00 Ry     beta= 0.30
     Davidson diagonalization with overlap

---- Real-time Memory Report at c_bands before calling an iterative solver
          1278 MiB given to the printing process from OS
             0 MiB allocation reported by mallinfo(arena+hblkhd)
        839240 MiB available memory on the node where the printing process lives
     GPU memory used/free/total (MiB): 2494 / 78657 / 81151
------------------
     c_bands:  1 eigenvalues not converged
     c_bands:  1 eigenvalues not converged
     c_bands:  2 eigenvalues not converged
     ethr =  1.86E-04,  avg # of iterations = 14.5

     total cpu time spent up to now is       35.1 secs

     total energy              =   -1489.04787038 Ry
     estimated scf accuracy    <       0.55355523 Ry

     total magnetization       =     2.85 Bohr mag/cell
     absolute magnetization    =     2.96 Bohr mag/cell
[tb_dev] Currently allocated     7.63E-05 Mbytes, locked:    0 /   2
[tb_pin] Currently allocated     0.00E+00 Mbytes, locked:    0 /   0

     iteration # 11     ecut=    60.00 Ry     beta= 0.30
     Davidson diagonalization with overlap

---- Real-time Memory Report at c_bands before calling an iterative solver
          1278 MiB given to the printing process from OS
             0 MiB allocation reported by mallinfo(arena+hblkhd)
        840023 MiB available memory on the node where the printing process lives
     GPU memory used/free/total (MiB): 2072 / 79078 / 81151
------------------
     ethr =  1.86E-04,  avg # of iterations =  2.3

     total cpu time spent up to now is       37.8 secs

     total energy              =   -1489.15861999 Ry
     estimated scf accuracy    <       0.11588990 Ry

     total magnetization       =     2.07 Bohr mag/cell
     absolute magnetization    =     2.17 Bohr mag/cell
[tb_dev] Currently allocated     7.63E-05 Mbytes, locked:    0 /   2
[tb_pin] Currently allocated     0.00E+00 Mbytes, locked:    0 /   0

     iteration # 12     ecut=    60.00 Ry     beta= 0.30
     Davidson diagonalization with overlap

---- Real-time Memory Report at c_bands before calling an iterative solver
          1278 MiB given to the printing process from OS
             0 MiB allocation reported by mallinfo(arena+hblkhd)
        839997 MiB available memory on the node where the printing process lives
     GPU memory used/free/total (MiB): 2072 / 79078 / 81151
------------------
     ethr =  1.21E-04,  avg # of iterations =  1.6

     total cpu time spent up to now is       40.3 secs

     total energy              =   -1489.16010315 Ry
     estimated scf accuracy    <       0.04834623 Ry

     total magnetization       =     2.24 Bohr mag/cell
     absolute magnetization    =     2.29 Bohr mag/cell
[tb_dev] Currently allocated     7.63E-05 Mbytes, locked:    0 /   2
[tb_pin] Currently allocated     0.00E+00 Mbytes, locked:    0 /   0

     iteration # 13     ecut=    60.00 Ry     beta= 0.30
     Davidson diagonalization with overlap

---- Real-time Memory Report at c_bands before calling an iterative solver
          1278 MiB given to the printing process from OS
             0 MiB allocation reported by mallinfo(arena+hblkhd)
        839992 MiB available memory on the node where the printing process lives
     GPU memory used/free/total (MiB): 2072 / 79078 / 81151
------------------
     ethr =  5.04E-05,  avg # of iterations =  1.9

     total cpu time spent up to now is       42.8 secs

     total energy              =   -1489.15151566 Ry
     estimated scf accuracy    <       0.08139835 Ry

     total magnetization       =     2.08 Bohr mag/cell
     absolute magnetization    =     2.17 Bohr mag/cell
[tb_dev] Currently allocated     7.63E-05 Mbytes, locked:    0 /   2
[tb_pin] Currently allocated     0.00E+00 Mbytes, locked:    0 /   0

     iteration # 14     ecut=    60.00 Ry     beta= 0.30
     Davidson diagonalization with overlap

---- Real-time Memory Report at c_bands before calling an iterative solver
          1278 MiB given to the printing process from OS
             0 MiB allocation reported by mallinfo(arena+hblkhd)
        840034 MiB available memory on the node where the printing process lives
     GPU memory used/free/total (MiB): 2072 / 79078 / 81151
------------------
     ethr =  5.04E-05,  avg # of iterations =  1.7

     total cpu time spent up to now is       45.5 secs

     total energy              =   -1489.15397875 Ry
     estimated scf accuracy    <       0.00379258 Ry

     total magnetization       =     2.39 Bohr mag/cell
     absolute magnetization    =     2.46 Bohr mag/cell
[tb_dev] Currently allocated     7.63E-05 Mbytes, locked:    0 /   2
[tb_pin] Currently allocated     0.00E+00 Mbytes, locked:    0 /   0

     iteration # 15     ecut=    60.00 Ry     beta= 0.30
     Davidson diagonalization with overlap

---- Real-time Memory Report at c_bands before calling an iterative solver
          1278 MiB given to the printing process from OS
             0 MiB allocation reported by mallinfo(arena+hblkhd)
        840075 MiB available memory on the node where the printing process lives
     GPU memory used/free/total (MiB): 2072 / 79078 / 81151
------------------
     c_bands:  1 eigenvalues not converged
     c_bands:  1 eigenvalues not converged
     c_bands:  1 eigenvalues not converged
     ethr =  3.95E-06,  avg # of iterations = 12.8

     total cpu time spent up to now is       49.9 secs

     total energy              =   -1489.15500777 Ry
     estimated scf accuracy    <       0.00274009 Ry

     total magnetization       =     2.55 Bohr mag/cell
     absolute magnetization    =     2.63 Bohr mag/cell
[tb_dev] Currently allocated     7.63E-05 Mbytes, locked:    0 /   2
[tb_pin] Currently allocated     0.00E+00 Mbytes, locked:    0 /   0

     iteration # 16     ecut=    60.00 Ry     beta= 0.30
     Davidson diagonalization with overlap

---- Real-time Memory Report at c_bands before calling an iterative solver
          1278 MiB given to the printing process from OS
             0 MiB allocation reported by mallinfo(arena+hblkhd)
        840111 MiB available memory on the node where the printing process lives
     GPU memory used/free/total (MiB): 2072 / 79078 / 81151
------------------
     ethr =  2.85E-06,  avg # of iterations =  2.0

     total cpu time spent up to now is       52.4 secs

     total energy              =   -1489.15514541 Ry
     estimated scf accuracy    <       0.00035555 Ry

     total magnetization       =     2.48 Bohr mag/cell
     absolute magnetization    =     2.59 Bohr mag/cell
[tb_dev] Currently allocated     7.63E-05 Mbytes, locked:    0 /   2
[tb_pin] Currently allocated     0.00E+00 Mbytes, locked:    0 /   0

     iteration # 17     ecut=    60.00 Ry     beta= 0.30
     Davidson diagonalization with overlap

---- Real-time Memory Report at c_bands before calling an iterative solver
          1278 MiB given to the printing process from OS
             0 MiB allocation reported by mallinfo(arena+hblkhd)
        840125 MiB available memory on the node where the printing process lives
     GPU memory used/free/total (MiB): 2072 / 79078 / 81151
------------------
     c_bands:  1 eigenvalues not converged
     ethr =  3.70E-07,  avg # of iterations =  8.9

     total cpu time spent up to now is       56.1 secs

     total energy              =   -1489.15530343 Ry
     estimated scf accuracy    <       0.00028753 Ry

     total magnetization       =     2.43 Bohr mag/cell
     absolute magnetization    =     2.55 Bohr mag/cell
[tb_dev] Currently allocated     7.63E-05 Mbytes, locked:    0 /   2
[tb_pin] Currently allocated     0.00E+00 Mbytes, locked:    0 /   0

     iteration # 18     ecut=    60.00 Ry     beta= 0.30
     Davidson diagonalization with overlap

---- Real-time Memory Report at c_bands before calling an iterative solver
          1278 MiB given to the printing process from OS
             0 MiB allocation reported by mallinfo(arena+hblkhd)
        840088 MiB available memory on the node where the printing process lives
     GPU memory used/free/total (MiB): 2072 / 79078 / 81151
------------------
     ethr =  3.00E-07,  avg # of iterations =  1.7

     total cpu time spent up to now is       58.6 secs

     total energy              =   -1489.15533164 Ry
     estimated scf accuracy    <       0.00004461 Ry

     total magnetization       =     2.45 Bohr mag/cell
     absolute magnetization    =     2.58 Bohr mag/cell
[tb_dev] Currently allocated     7.63E-05 Mbytes, locked:    0 /   2
[tb_pin] Currently allocated     0.00E+00 Mbytes, locked:    0 /   0

     iteration # 19     ecut=    60.00 Ry     beta= 0.30
     Davidson diagonalization with overlap

---- Real-time Memory Report at c_bands before calling an iterative solver
          1278 MiB given to the printing process from OS
             0 MiB allocation reported by mallinfo(arena+hblkhd)
        840086 MiB available memory on the node where the printing process lives
     GPU memory used/free/total (MiB): 2072 / 79078 / 81151
------------------
     ethr =  4.65E-08,  avg # of iterations =  5.0

     total cpu time spent up to now is       61.6 secs

     total energy              =   -1489.15534303 Ry
     estimated scf accuracy    <       0.00005589 Ry

     total magnetization       =     2.43 Bohr mag/cell
     absolute magnetization    =     2.57 Bohr mag/cell
[tb_dev] Currently allocated     7.63E-05 Mbytes, locked:    0 /   2
[tb_pin] Currently allocated     0.00E+00 Mbytes, locked:    0 /   0

     iteration # 20     ecut=    60.00 Ry     beta= 0.30
     Davidson diagonalization with overlap

---- Real-time Memory Report at c_bands before calling an iterative solver
          1278 MiB given to the printing process from OS
             0 MiB allocation reported by mallinfo(arena+hblkhd)
        840084 MiB available memory on the node where the printing process lives
     GPU memory used/free/total (MiB): 2072 / 79078 / 81151
------------------
     ethr =  4.65E-08,  avg # of iterations =  1.6

     total cpu time spent up to now is       64.1 secs

     total energy              =   -1489.15535384 Ry
     estimated scf accuracy    <       0.00001841 Ry

     total magnetization       =     2.45 Bohr mag/cell
     absolute magnetization    =     2.59 Bohr mag/cell
[tb_dev] Currently allocated     7.63E-05 Mbytes, locked:    0 /   2
[tb_pin] Currently allocated     0.00E+00 Mbytes, locked:    0 /   0

     iteration # 21     ecut=    60.00 Ry     beta= 0.30
     Davidson diagonalization with overlap

---- Real-time Memory Report at c_bands before calling an iterative solver
          1278 MiB given to the printing process from OS
             0 MiB allocation reported by mallinfo(arena+hblkhd)
        840062 MiB available memory on the node where the printing process lives
     GPU memory used/free/total (MiB): 2072 / 79078 / 81151
------------------
     ethr =  1.92E-08,  avg # of iterations =  2.3

     total cpu time spent up to now is       66.7 secs

     total energy              =   -1489.15535973 Ry
     estimated scf accuracy    <       0.00000311 Ry

     total magnetization       =     2.43 Bohr mag/cell
     absolute magnetization    =     2.59 Bohr mag/cell
[tb_dev] Currently allocated     7.63E-05 Mbytes, locked:    0 /   2
[tb_pin] Currently allocated     0.00E+00 Mbytes, locked:    0 /   0

     iteration # 22     ecut=    60.00 Ry     beta= 0.30
     Davidson diagonalization with overlap

---- Real-time Memory Report at c_bands before calling an iterative solver
          1278 MiB given to the printing process from OS
             0 MiB allocation reported by mallinfo(arena+hblkhd)
        840908 MiB available memory on the node where the printing process lives
     GPU memory used/free/total (MiB): 2072 / 79078 / 81151
------------------
     ethr =  3.24E-09,  avg # of iterations =  7.7

     total cpu time spent up to now is       70.2 secs

     total energy              =   -1489.15536252 Ry
     estimated scf accuracy    <       0.00000129 Ry

     total magnetization       =     2.43 Bohr mag/cell
     absolute magnetization    =     2.59 Bohr mag/cell
[tb_dev] Currently allocated     7.63E-05 Mbytes, locked:    0 /   2
[tb_pin] Currently allocated     0.00E+00 Mbytes, locked:    0 /   0

     iteration # 23     ecut=    60.00 Ry     beta= 0.30
     Davidson diagonalization with overlap

---- Real-time Memory Report at c_bands before calling an iterative solver
          1278 MiB given to the printing process from OS
             0 MiB allocation reported by mallinfo(arena+hblkhd)
        840901 MiB available memory on the node where the printing process lives
     GPU memory used/free/total (MiB): 2072 / 79078 / 81151
------------------
     ethr =  1.34E-09,  avg # of iterations =  3.4
 
     Magnetic moment per site  (integrated on atomic sphere of radius R)
     atom   1 (R=0.159)  charge= 14.0913  magn=  0.6377
     atom   2 (R=0.159)  charge= 14.0900  magn=  0.6354
     atom   3 (R=0.159)  charge= 14.0900  magn=  0.6354
     atom   4 (R=0.159)  charge=  5.2074  magn=  0.0734
     atom   5 (R=0.159)  charge=  5.2074  magn=  0.0734
     atom   6 (R=0.159)  charge=  5.2074  magn=  0.0734
     atom   7 (R=0.159)  charge=  5.2190  magn=  0.0590
     atom   8 (R=0.159)  charge=  5.2190  magn=  0.0590
     atom   9 (R=0.159)  charge=  5.2190  magn=  0.0590
     atom  10 (R=0.300)  charge=  8.1085  magn= -0.0201

     total cpu time spent up to now is       72.9 secs

     End of self-consistent calculation

 ------ SPIN UP ------------


          k = 0.0000 0.0000 0.0000 ( 11393 PWs)   bands (ev):

   -93.4640 -93.4586 -93.4583 -56.7108 -56.7108 -56.7099 -56.7099 -56.6719
   -56.6719 -56.6686 -56.6603 -56.6584 -52.1748 -24.0927 -24.0927 -24.0472
   -16.8237 -15.1831 -15.1831 -15.1133 -15.1133 -14.9027  -3.0508  -2.9287
    -2.9287  -2.8659  -2.8659  -2.6781  -2.6781  -2.4731  -2.4592  -0.9305
    -0.9305  -0.8477  -0.8477  -0.4865  -0.4712   0.4521   0.7603   0.7603
     0.7753   0.7767   1.0686   1.0686   1.8297   1.8297   1.8529   1.8529
     1.9247   2.3578   3.9800   3.9800   3.9970   3.9970   4.7284   4.7284
     6.0987   8.4745   9.2598   9.2598  10.0962  10.0962  10.5112  10.9380

     occupation numbers 
     1.0000   1.0000   1.0000   1.0000   1.0000   1.0000   1.0000   1.0000
     1.0000   1.0000   1.0000   1.0000   1.0000   1.0000   1.0000   1.0000
     1.0000   1.0000   1.0000   1.0000   1.0000   1.0000   1.0000   1.0000
     1.0000   1.0000   1.0000   1.0000   1.0000   1.0000   1.0000   1.0000
     1.0000   1.0000   1.0000   1.0000   1.0000   1.0000   1.0000   1.0000
     1.0000   1.0000   1.0000   1.0000   1.0143   1.0143   1.0185   1.0185
     1.0368   0.7390   0.0000   0.0000   0.0000   0.0000   0.0000   0.0000
     0.0000   0.0000   0.0000   0.0000   0.0000   0.0000   0.0000   0.0000

          k = 0.0000 0.0000 0.1684 ( 11332 PWs)   bands (ev):

   -93.4640 -93.4586 -93.4583 -56.7107 -56.7107 -56.7099 -56.7099 -56.6719
   -56.6719 -56.6685 -56.6602 -56.6583 -52.1748 -24.0926 -24.0926 -24.0470
   -16.8237 -15.1831 -15.1831 -15.1133 -15.1133 -14.9028  -3.0491  -2.9286
    -2.9286  -2.8658  -2.8658  -2.6781  -2.6781  -2.4730  -2.4591  -0.9304
    -0.9304  -0.8476  -0.8476  -0.4865  -0.4711   0.4195   0.7603   0.7603
     0.7753   0.7767   1.0685   1.0685   1.8297   1.8297   1.8529   1.8529
     2.0137   2.3330   3.9804   3.9804   3.9973   3.9973   4.7284   4.7284
     5.9024   9.0467   9.2537   9.2537  10.0894  10.0895  10.3826  10.9365

     occupation numbers 
     1.0000   1.0000   1.0000   1.0000   1.0000   1.0000   1.0000   1.0000
     1.0000   1.0000   1.0000   1.0000   1.0000   1.0000   1.0000   1.0000
     1.0000   1.0000   1.0000   1.0000   1.0000   1.0000   1.0000   1.0000
     1.0000   1.0000   1.0000   1.0000   1.0000   1.0000   1.0000   1.0000
     1.0000   1.0000   1.0000   1.0000   1.0000   1.0000   1.0000   1.0000
     1.0000   1.0000   1.0000   1.0000   1.0143   1.0143   1.0185   1.0185
     1.0666   0.8025   0.0000   0.0000   0.0000   0.0000   0.0000   0.0000
     0.0000   0.0000   0.0000   0.0000   0.0000   0.0000   0.0000   0.0000

          k = 0.0000 0.1925 0.0000 ( 11360 PWs)   bands (ev):

   -93.4636 -93.4588 -93.4585 -56.7190 -56.7166 -56.7005 -56.6993 -56.6768
   -56.6732 -56.6678 -56.6606 -56.6587 -52.1748 -24.0928 -24.0927 -24.0471
   -16.7208 -15.3045 -15.2255 -15.1235 -15.0711 -14.9068  -3.3204  -3.0639
    -2.9345  -2.9032  -2.7816  -2.7749  -2.6091  -2.1035  -1.9128  -1.2106
    -1.1568  -1.0075  -0.9382  -0.1767  -0.1108   0.1755   0.2562   0.6990
     0.8570   0.9236   1.2084   1.4322   1.5802   1.5930   1.9381   2.0097
     2.0183   2.5377   3.9811   4.0064   4.0282   4.0874   4.4453   4.6572
     6.3066   7.5953   8.5857   8.7893   9.2779  10.9486  11.1859  11.6944

     occupation numbers 
     1.0000   1.0000   1.0000   1.0000   1.0000   1.0000   1.0000   1.0000
     1.0000   1.0000   1.0000   1.0000   1.0000   1.0000   1.0000   1.0000
     1.0000   1.0000   1.0000   1.0000   1.0000   1.0000   1.0000   1.0000
     1.0000   1.0000   1.0000   1.0000   1.0000   1.0000   1.0000   1.0000
     1.0000   1.0000   1.0000   1.0000   1.0000   1.0000   1.0000   1.0000
     1.0000   1.0000   1.0000   1.0000   1.0003   1.0004   1.0410   1.0652
     1.0680   0.2747   0.0000   0.0000   0.0000   0.0000   0.0000   0.0000
     0.0000   0.0000   0.0000   0.0000   0.0000   0.0000   0.0000   0.0000

          k = 0.0000 0.1925 0.1684 ( 11375 PWs)   bands (ev):

   -93.4636 -93.4588 -93.4585 -56.7190 -56.7166 -56.7005 -56.6993 -56.6768
   -56.6732 -56.6679 -56.6606 -56.6587 -52.1748 -24.0928 -24.0927 -24.0472
   -16.7208 -15.3045 -15.2255 -15.1235 -15.0711 -14.9069  -3.3204  -3.0639
    -2.9332  -2.9032  -2.7816  -2.7750  -2.6091  -2.1035  -1.9128  -1.2106
    -1.1569  -1.0074  -0.9382  -0.1767  -0.1108   0.1756   0.2545   0.6723
     0.8570   0.9236   1.2084   1.4309   1.5803   1.5931   1.9380   2.0097
     2.0833   2.5250   3.9820   4.0066   4.0280   4.0878   4.4556   4.6557
     6.1343   7.5872   8.5797   9.2168   9.3515  10.8970  11.1227  11.1898

     occupation numbers 
     1.0000   1.0000   1.0000   1.0000   1.0000   1.0000   1.0000   1.0000
     1.0000   1.0000   1.0000   1.0000   1.0000   1.0000   1.0000   1.0000
     1.0000   1.0000   1.0000   1.0000   1.0000   1.0000   1.0000   1.0000
     1.0000   1.0000   1.0000   1.0000   1.0000   1.0000   1.0000   1.0000
     1.0000   1.0000   1.0000   1.0000   1.0000   1.0000   1.0000   1.0000
     1.0000   1.0000   1.0000   1.0000   1.0003   1.0004   1.0410   1.0652
     1.0826   0.3017   0.0000   0.0000   0.0000   0.0000   0.0000   0.0000
     0.0000   0.0000   0.0000   0.0000   0.0000   0.0000   0.0000   0.0000

          k = 0.0000 0.3849 0.0000 ( 11350 PWs)   bands (ev):

   -93.4624 -93.4596 -93.4589 -56.7250 -56.7142 -56.6909 -56.6896 -56.6888
   -56.6768 -56.6660 -56.6616 -56.6595 -52.1748 -24.0930 -24.0928 -24.0470
   -16.4345 -15.6166 -15.2695 -15.1689 -15.0067 -14.9222  -3.7346  -2.9568
    -2.9438  -2.8853  -2.6124  -2.5159  -2.4433  -1.9212  -1.6603  -1.3290
    -1.2967  -1.2085  -0.7875  -0.7762  -0.3496   0.1200   0.4622   0.9552
     1.0355   1.2592   1.3102   1.3178   1.3916   1.7714   1.7902   2.0634
     2.0732   3.0956   3.9519   3.9620   4.0098   4.0240   4.4079   4.4528
     5.7395   6.8856   8.0009   8.6142   9.2348   9.6645  11.6033  11.7202

     occupation numbers 
     1.0000   1.0000   1.0000   1.0000   1.0000   1.0000   1.0000   1.0000
     1.0000   1.0000   1.0000   1.0000   1.0000   1.0000   1.0000   1.0000
     1.0000   1.0000   1.0000   1.0000   1.0000   1.0000   1.0000   1.0000
     1.0000   1.0000   1.0000   1.0000   1.0000   1.0000   1.0000   1.0000
     1.0000   1.0000   1.0000   1.0000   1.0000   1.0000   1.0000   1.0000
     1.0000   1.0000   1.0000   1.0000   1.0000   1.0070   1.0089   1.0798
     1.0814   0.0001   0.0000   0.0000   0.0000   0.0000   0.0000   0.0000
     0.0000   0.0000   0.0000   0.0000   0.0000   0.0000   0.0000   0.0000

          k = 0.0000 0.3849 0.1684 ( 11369 PWs)   bands (ev):

   -93.4624 -93.4596 -93.4589 -56.7250 -56.7142 -56.6910 -56.6896 -56.6888
   -56.6768 -56.6661 -56.6617 -56.6595 -52.1748 -24.0930 -24.0928 -24.0472
   -16.4345 -15.6166 -15.2695 -15.1689 -15.0068 -14.9222  -3.7345  -2.9570
    -2.9440  -2.8853  -2.6114  -2.5159  -2.4433  -1.9212  -1.6603  -1.3287
    -1.2967  -1.2086  -0.7875  -0.7758  -0.3497   0.1202   0.4621   0.9552
     1.0222   1.2592   1.3102   1.3178   1.3919   1.7674   1.7901   2.0714
     2.0822   3.0916   3.9516   3.9937   4.0104   4.0280   4.4081   4.4426
     5.7370   6.7776   7.9982   8.6026   9.2584  10.0013  11.6134  11.7727

     occupation numbers 
     1.0000   1.0000   1.0000   1.0000   1.0000   1.0000   1.0000   1.0000
     1.0000   1.0000   1.0000   1.0000   1.0000   1.0000   1.0000   1.0000
     1.0000   1.0000   1.0000   1.0000   1.0000   1.0000   1.0000   1.0000
     1.0000   1.0000   1.0000   1.0000   1.0000   1.0000   1.0000   1.0000
     1.0000   1.0000   1.0000   1.0000   1.0000   1.0000   1.0000   1.0000
     1.0000   1.0000   1.0000   1.0000   1.0000   1.0066   1.0089   1.0812
     1.0825   0.0001   0.0000   0.0000   0.0000   0.0000   0.0000   0.0000
     0.0000   0.0000   0.0000   0.0000   0.0000   0.0000   0.0000   0.0000

          k = 0.0000-0.5774 0.0000 ( 11352 PWs)   bands (ev):

   -93.4611 -93.4608 -93.4590 -56.7271 -56.7042 -56.7033 -56.6852 -56.6832
   -56.6824 -56.6642 -56.6630 -56.6598 -52.1748 -24.0932 -24.0929 -24.0470
   -16.0326 -16.0306 -15.2866 -15.1924 -14.9552 -14.9544  -3.8859  -3.0069
    -2.9957  -2.5033  -2.5016  -2.2032  -2.1624  -2.1583  -2.0260  -1.4271
    -1.4075  -1.2571  -0.8967  -0.8966  -0.4036   0.2357   0.9636   0.9681
     0.9719   1.1671   1.2746   1.2762   1.6373   1.8157   1.8231   1.9870
     1.9886   3.7296   3.8029   3.9228   4.0114   4.1260   4.2732   4.5356
     4.6049   7.5721   7.8000   8.1838   8.4075  10.6174  10.9210  11.4090

     occupation numbers 
     1.0000   1.0000   1.0000   1.0000   1.0000   1.0000   1.0000   1.0000
     1.0000   1.0000   1.0000   1.0000   1.0000   1.0000   1.0000   1.0000
     1.0000   1.0000   1.0000   1.0000   1.0000   1.0000   1.0000   1.0000
     1.0000   1.0000   1.0000   1.0000   1.0000   1.0000   1.0000   1.0000
     1.0000   1.0000   1.0000   1.0000   1.0000   1.0000   1.0000   1.0000
     1.0000   1.0000   1.0000   1.0000   1.0009   1.0122   1.0133   1.0576
     1.0581   0.0000   0.0000   0.0000   0.0000   0.0000   0.0000   0.0000
     0.0000   0.0000   0.0000   0.0000   0.0000   0.0000   0.0000   0.0000

          k = 0.0000-0.5774 0.1684 ( 11376 PWs)   bands (ev):

   -93.4611 -93.4608 -93.4590 -56.7271 -56.7042 -56.7034 -56.6852 -56.6833
   -56.6824 -56.6643 -56.6631 -56.6599 -52.1748 -24.0932 -24.0929 -24.0471
   -16.0326 -16.0306 -15.2866 -15.1924 -14.9553 -14.9544  -3.8859  -3.0072
    -2.9959  -2.5033  -2.5016  -2.2032  -2.1622  -2.1580  -2.0260  -1.4264
    -1.4071  -1.2571  -0.8967  -0.8966  -0.4035   0.2360   0.9636   0.9668
     0.9699   1.1671   1.2747   1.2763   1.6372   1.8188   1.8249   1.9827
     1.9860   3.6617   3.7769   4.0058   4.0464   4.1623   4.2356   4.5351
     4.6050   7.5349   7.7998   8.1392   8.3938  10.7469  11.0938  11.3982

     occupation numbers 
     1.0000   1.0000   1.0000   1.0000   1.0000   1.0000   1.0000   1.0000
     1.0000   1.0000   1.0000   1.0000   1.0000   1.0000   1.0000   1.0000
     1.0000   1.0000   1.0000   1.0000   1.0000   1.0000   1.0000   1.0000
     1.0000   1.0000   1.0000   1.0000   1.0000   1.0000   1.0000   1.0000
     1.0000   1.0000   1.0000   1.0000   1.0000   1.0000   1.0000   1.0000
     1.0000   1.0000   1.0000   1.0000   1.0009   1.0126   1.0136   1.0561
     1.0572   0.0000   0.0000   0.0000   0.0000   0.0000   0.0000   0.0000
     0.0000   0.0000   0.0000   0.0000   0.0000   0.0000   0.0000   0.0000

          k = 0.1667 0.2887 0.0000 ( 11373 PWs)   bands (ev):

   -93.4628 -93.4592 -93.4589 -56.7201 -56.7199 -56.6924 -56.6922 -56.6857
   -56.6752 -56.6666 -56.6613 -56.6593 -52.1748 -24.0930 -24.0928 -24.0471
   -16.5262 -15.4164 -15.4156 -15.0636 -15.0636 -14.9168  -3.3987  -3.3981
    -2.9225  -2.7064  -2.7006  -2.6952  -2.4799  -1.7798  -1.7724  -1.2428
    -1.2356  -1.0803  -1.0729  -0.6373  -0.0230   0.1622   0.1643   0.8933
     1.0879   1.0883   1.3114   1.3941   1.3944   1.6496   1.9588   1.9603
     2.0801   2.9027   3.9515   3.9602   4.0201   4.2093   4.2102   4.5796
     6.5905   6.7370   6.9650   9.3333  10.0206  10.3695  10.5692  10.8835

     occupation numbers 
     1.0000   1.0000   1.0000   1.0000   1.0000   1.0000   1.0000   1.0000
     1.0000   1.0000   1.0000   1.0000   1.0000   1.0000   1.0000   1.0000
     1.0000   1.0000   1.0000   1.0000   1.0000   1.0000   1.0000   1.0000
     1.0000   1.0000   1.0000   1.0000   1.0000   1.0000   1.0000   1.0000
     1.0000   1.0000   1.0000   1.0000   1.0000   1.0000   1.0000   1.0000
     1.0000   1.0000   1.0000   1.0000   1.0000   1.0011   1.0479   1.0483
     1.0823   0.0033   0.0000   0.0000   0.0000   0.0000   0.0000   0.0000
     0.0000   0.0000   0.0000   0.0000   0.0000   0.0000   0.0000   0.0000

          k = 0.1667 0.2887 0.1684 ( 11359 PWs)   bands (ev):

   -93.4628 -93.4592 -93.4589 -56.7200 -56.7199 -56.6923 -56.6921 -56.6857
   -56.6753 -56.6666 -56.6612 -56.6593 -52.1748 -24.0929 -24.0928 -24.0471
   -16.5262 -15.4164 -15.4156 -15.0636 -15.0636 -14.9168  -3.3987  -3.3981
    -2.9228  -2.7058  -2.7001  -2.6952  -2.4799  -1.7798  -1.7725  -1.2426
    -1.2355  -1.0803  -1.0729  -0.6369  -0.0230   0.1623   0.1644   0.8793
     1.0878   1.0883   1.3043   1.3942   1.3945   1.6496   1.9586   1.9601
     2.1108   2.8915   3.9506   3.9593   4.0553   4.2102   4.2112   4.5796
     6.5166   6.6617   6.9632   9.7067  10.0869  10.3696  10.5727  10.8675

     occupation numbers 
     1.0000   1.0000   1.0000   1.0000   1.0000   1.0000   1.0000   1.0000
     1.0000   1.0000   1.0000   1.0000   1.0000   1.0000   1.0000   1.0000
     1.0000   1.0000   1.0000   1.0000   1.0000   1.0000   1.0000   1.0000
     1.0000   1.0000   1.0000   1.0000   1.0000   1.0000   1.0000   1.0000
     1.0000   1.0000   1.0000   1.0000   1.0000   1.0000   1.0000   1.0000
     1.0000   1.0000   1.0000   1.0000   1.0000   1.0011   1.0478   1.0483
     1.0828   0.0039   0.0000   0.0000   0.0000   0.0000   0.0000   0.0000
     0.0000   0.0000   0.0000   0.0000   0.0000   0.0000   0.0000   0.0000

          k = 0.1667 0.4811 0.0000 ( 11356 PWs)   bands (ev):

   -93.4615 -93.4601 -93.4593 -56.7229 -56.7130 -56.6998 -56.6853 -56.6850
   -56.6792 -56.6647 -56.6624 -56.6601 -52.1748 -24.0931 -24.0929 -24.0471
   -16.1820 -15.7747 -15.4884 -15.0739 -14.9913 -14.9427  -3.6671  -3.1880
    -3.0482  -2.5928  -2.4207  -2.4162  -2.2795  -1.9980  -1.9573  -1.4673
    -1.4341  -1.2767  -0.8508  -0.5820  -0.4581   0.2965   0.6515   0.9644
     1.1411   1.2852   1.3005   1.3695   1.5337   1.7327   1.7730   1.9458
     1.9744   3.5389   3.7690   3.8509   3.9181   4.3127   4.4610   4.5249
     5.1211   6.4024   7.4136   8.6992   9.9102  10.1674  10.3738  11.5773

     occupation numbers 
     1.0000   1.0000   1.0000   1.0000   1.0000   1.0000   1.0000   1.0000
     1.0000   1.0000   1.0000   1.0000   1.0000   1.0000   1.0000   1.0000
     1.0000   1.0000   1.0000   1.0000   1.0000   1.0000   1.0000   1.0000
     1.0000   1.0000   1.0000   1.0000   1.0000   1.0000   1.0000   1.0000
     1.0000   1.0000   1.0000   1.0000   1.0000   1.0000   1.0000   1.0000
     1.0000   1.0000   1.0000   1.0000   1.0001   1.0041   1.0071   1.0435
     1.0532   0.0000   0.0000   0.0000   0.0000   0.0000   0.0000   0.0000
     0.0000   0.0000   0.0000   0.0000   0.0000   0.0000   0.0000   0.0000

          k = 0.1667 0.4811 0.1684 ( 11345 PWs)   bands (ev):

   -93.4615 -93.4601 -93.4593 -56.7229 -56.7130 -56.6998 -56.6853 -56.6850
   -56.6792 -56.6646 -56.6624 -56.6601 -52.1748 -24.0931 -24.0928 -24.0471
   -16.1820 -15.7747 -15.4884 -15.0739 -14.9913 -14.9427  -3.6671  -3.1881
    -3.0485  -2.5928  -2.4205  -2.4161  -2.2793  -1.9980  -1.9573  -1.4668
    -1.4336  -1.2765  -0.8508  -0.5820  -0.4581   0.2968   0.6514   0.9624
     1.1411   1.2852   1.3005   1.3668   1.5340   1.7326   1.7713   1.9454
     1.9810   3.4575   3.7581   3.9093   3.9669   4.3182   4.4549   4.5251
     5.1356   6.4089   7.3240   8.6599   9.9002  10.1635  10.6412  11.7034

     occupation numbers 
     1.0000   1.0000   1.0000   1.0000   1.0000   1.0000   1.0000   1.0000
     1.0000   1.0000   1.0000   1.0000   1.0000   1.0000   1.0000   1.0000
     1.0000   1.0000   1.0000   1.0000   1.0000   1.0000   1.0000   1.0000
     1.0000   1.0000   1.0000   1.0000   1.0000   1.0000   1.0000   1.0000
     1.0000   1.0000   1.0000   1.0000   1.0000   1.0000   1.0000   1.0000
     1.0000   1.0000   1.0000   1.0000   1.0001   1.0041   1.0070   1.0434
     1.0555   0.0000   0.0000   0.0000   0.0000   0.0000   0.0000   0.0000
     0.0000   0.0000   0.0000   0.0000   0.0000   0.0000   0.0000   0.0000

          k = 0.3333 0.5774 0.0000 ( 11370 PWs)   bands (ev):

   -93.4605 -93.4605 -93.4600 -56.7135 -56.7135 -56.7129 -56.6821 -56.6821
   -56.6815 -56.6633 -56.6633 -56.6607 -52.1748 -24.0931 -24.0931 -24.0471
   -15.8361 -15.8337 -15.8337 -14.9898 -14.9890 -14.9890  -3.3020  -3.2978
    -3.2978  -2.4332  -2.4230  -2.4230  -2.1210  -2.1210  -2.1182  -1.5549
    -1.5299  -1.5299  -0.4999  -0.4999  -0.4971   0.6519   0.6519   0.6613
     1.3388   1.3388   1.3389   1.5467   1.5467   1.5489   1.8001   1.8060
     1.8060   3.6512   3.6972   3.6972   4.4476   4.5311   4.5311   4.5318
     5.0994   5.0994   7.9206   8.7642   8.7642  11.0995  11.4768  11.4768

     occupation numbers 
     1.0000   1.0000   1.0000   1.0000   1.0000   1.0000   1.0000   1.0000
     1.0000   1.0000   1.0000   1.0000   1.0000   1.0000   1.0000   1.0000
     1.0000   1.0000   1.0000   1.0000   1.0000   1.0000   1.0000   1.0000
     1.0000   1.0000   1.0000   1.0000   1.0000   1.0000   1.0000   1.0000
     1.0000   1.0000   1.0000   1.0000   1.0000   1.0000   1.0000   1.0000
     1.0000   1.0000   1.0000   1.0002   1.0002   1.0002   1.0101   1.0108
     1.0108   0.0000   0.0000   0.0000   0.0000   0.0000   0.0000   0.0000
     0.0000   0.0000   0.0000   0.0000   0.0000   0.0000   0.0000   0.0000

          k = 0.3333 0.5774 0.1684 ( 11352 PWs)   bands (ev):

   -93.4605 -93.4605 -93.4600 -56.7135 -56.7135 -56.7128 -56.6821 -56.6821
   -56.6815 -56.6632 -56.6632 -56.6607 -52.1748 -24.0930 -24.0930 -24.0471
   -15.8361 -15.8337 -15.8337 -14.9898 -14.9890 -14.9890  -3.3021  -3.2978
    -3.2978  -2.4333  -2.4231  -2.4231  -2.1210  -2.1210  -2.1182  -1.5541
    -1.5295  -1.5295  -0.4999  -0.4999  -0.4971   0.6520   0.6520   0.6613
     1.3383   1.3385   1.3385   1.5467   1.5467   1.5489   1.8016   1.8068
     1.8068   3.6154   3.6838   3.6838   4.5003   4.5312   4.5312   4.5318
     5.1260   5.1260   7.8652   8.7011   8.7011  11.2577  11.6798  11.6798

     occupation numbers 
     1.0000   1.0000   1.0000   1.0000   1.0000   1.0000   1.0000   1.0000
     1.0000   1.0000   1.0000   1.0000   1.0000   1.0000   1.0000   1.0000
     1.0000   1.0000   1.0000   1.0000   1.0000   1.0000   1.0000   1.0000
     1.0000   1.0000   1.0000   1.0000   1.0000   1.0000   1.0000   1.0000
     1.0000   1.0000   1.0000   1.0000   1.0000   1.0000   1.0000   1.0000
     1.0000   1.0000   1.0000   1.0002   1.0002   1.0002   1.0103   1.0109
     1.0109   0.0000   0.0000   0.0000   0.0000   0.0000   0.0000   0.0000
     0.0000   0.0000   0.0000   0.0000   0.0000   0.0000   0.0000   0.0000

          k =-0.1667-0.2887 0.1684 ( 11359 PWs)   bands (ev):

   -93.4628 -93.4592 -93.4589 -56.7200 -56.7199 -56.6923 -56.6921 -56.6857
   -56.6753 -56.6666 -56.6612 -56.6593 -52.1748 -24.0929 -24.0928 -24.0471
   -16.5262 -15.4164 -15.4156 -15.0636 -15.0636 -14.9168  -3.3987  -3.3981
    -2.9227  -2.7059  -2.7002  -2.6952  -2.4799  -1.7798  -1.7724  -1.2427
    -1.2355  -1.0802  -1.0728  -0.6371  -0.0229   0.1622   0.1644   0.8793
     1.0879   1.0884   1.3050   1.3942   1.3945   1.6496   1.9585   1.9600
     2.1044   2.9144   3.9525   3.9610   4.0238   4.2094   4.2103   4.5796
     6.5391   6.6668   6.9568   9.6578  10.1136  10.3699  10.6239  10.8715

     occupation numbers 
     1.0000   1.0000   1.0000   1.0000   1.0000   1.0000   1.0000   1.0000
     1.0000   1.0000   1.0000   1.0000   1.0000   1.0000   1.0000   1.0000
     1.0000   1.0000   1.0000   1.0000   1.0000   1.0000   1.0000   1.0000
     1.0000   1.0000   1.0000   1.0000   1.0000   1.0000   1.0000   1.0000
     1.0000   1.0000   1.0000   1.0000   1.0000   1.0000   1.0000   1.0000
     1.0000   1.0000   1.0000   1.0000   1.0000   1.0011   1.0477   1.0482
     1.0832   0.0027   0.0000   0.0000   0.0000   0.0000   0.0000   0.0000
     0.0000   0.0000   0.0000   0.0000   0.0000   0.0000   0.0000   0.0000

          k =-0.1667-0.4811 0.1684 ( 11345 PWs)   bands (ev):

   -93.4615 -93.4601 -93.4593 -56.7229 -56.7130 -56.6998 -56.6853 -56.6850
   -56.6792 -56.6646 -56.6624 -56.6601 -52.1748 -24.0931 -24.0928 -24.0471
   -16.1820 -15.7747 -15.4884 -15.0739 -14.9913 -14.9427  -3.6671  -3.1881
    -3.0484  -2.5929  -2.4205  -2.4161  -2.2793  -1.9980  -1.9573  -1.4666
    -1.4335  -1.2765  -0.8508  -0.5820  -0.4581   0.2965   0.6511   0.9615
     1.1412   1.2852   1.3006   1.3676   1.5342   1.7323   1.7725   1.9441
     1.9755   3.5423   3.7713   3.8609   3.9176   4.3136   4.4590   4.5250
     5.1166   6.3927   7.3792   8.7166   9.9804  10.1700  10.5187  11.5373

     occupation numbers 
     1.0000   1.0000   1.0000   1.0000   1.0000   1.0000   1.0000   1.0000
     1.0000   1.0000   1.0000   1.0000   1.0000   1.0000   1.0000   1.0000
     1.0000   1.0000   1.0000   1.0000   1.0000   1.0000   1.0000   1.0000
     1.0000   1.0000   1.0000   1.0000   1.0000   1.0000   1.0000   1.0000
     1.0000   1.0000   1.0000   1.0000   1.0000   1.0000   1.0000   1.0000
     1.0000   1.0000   1.0000   1.0000   1.0001   1.0041   1.0071   1.0429
     1.0536   0.0000   0.0000   0.0000   0.0000   0.0000   0.0000   0.0000
     0.0000   0.0000   0.0000   0.0000   0.0000   0.0000   0.0000   0.0000

          k =-0.3333-0.5774 0.1684 ( 11352 PWs)   bands (ev):

   -93.4605 -93.4605 -93.4600 -56.7135 -56.7135 -56.7128 -56.6821 -56.6821
   -56.6815 -56.6632 -56.6632 -56.6607 -52.1748 -24.0930 -24.0930 -24.0471
   -15.8361 -15.8337 -15.8337 -14.9898 -14.9890 -14.9890  -3.3021  -3.2978
    -3.2978  -2.4334  -2.4232  -2.4232  -2.1210  -2.1210  -2.1182  -1.5539
    -1.5294  -1.5294  -0.4999  -0.4999  -0.4971   0.6515   0.6515   0.6606
     1.3389   1.3389   1.3389   1.5466   1.5466   1.5489   1.7987   1.8053
     1.8053   3.6568   3.6990   3.6990   4.4389   4.5312   4.5312   4.5318
     5.0952   5.0952   7.9480   8.7885   8.7885  11.0236  11.4302  11.4302

     occupation numbers 
     1.0000   1.0000   1.0000   1.0000   1.0000   1.0000   1.0000   1.0000
     1.0000   1.0000   1.0000   1.0000   1.0000   1.0000   1.0000   1.0000
     1.0000   1.0000   1.0000   1.0000   1.0000   1.0000   1.0000   1.0000
     1.0000   1.0000   1.0000   1.0000   1.0000   1.0000   1.0000   1.0000
     1.0000   1.0000   1.0000   1.0000   1.0000   1.0000   1.0000   1.0000
     1.0000   1.0000   1.0000   1.0002   1.0002   1.0002   1.0099   1.0107
     1.0107   0.0000   0.0000   0.0000   0.0000   0.0000   0.0000   0.0000
     0.0000   0.0000   0.0000   0.0000   0.0000   0.0000   0.0000   0.0000

 ------ SPIN DOWN ----------


          k = 0.0000 0.0000 0.0000 ( 11393 PWs)   bands (ev):

   -92.6845 -92.6794 -92.6769 -56.0039 -56.0039 -56.0024 -56.0024 -55.9632
   -55.9632 -55.8052 -55.7966 -55.7936 -52.1794 -24.0987 -24.0987 -24.0521
   -16.7156 -15.0757 -15.0757 -14.9824 -14.9824 -14.7849  -2.7564  -2.7564
    -2.7127  -2.6924  -2.6924  -2.4298  -2.4298  -2.3735  -2.3597  -0.6607
    -0.6607  -0.5289  -0.5289  -0.4048  -0.3888   0.6274   1.1500   1.1500
     1.4310   1.4310   1.8062   1.8102   2.0377   2.4766   2.4766   2.5080
     2.5080   3.0031   4.3256   4.3256   4.3341   4.3341   5.0606   5.0606
     6.1179   8.5365   9.2005   9.2006   9.9487   9.9487  10.4073  10.7289

     occupation numbers 
     1.0000   1.0000   1.0000   1.0000   1.0000   1.0000   1.0000   1.0000
     1.0000   1.0000   1.0000   1.0000   1.0000   1.0000   1.0000   1.0000
     1.0000   1.0000   1.0000   1.0000   1.0000   1.0000   1.0000   1.0000
     1.0000   1.0000   1.0000   1.0000   1.0000   1.0000   1.0000   1.0000
     1.0000   1.0000   1.0000   1.0000   1.0000   1.0000   1.0000   1.0000
     1.0000   1.0000   1.0109   1.0114   1.0738   0.4172   0.4172   0.3403
     0.3403   0.0005   0.0000   0.0000   0.0000   0.0000   0.0000   0.0000
     0.0000   0.0000   0.0000   0.0000   0.0000   0.0000   0.0000   0.0000

          k = 0.0000 0.0000 0.1684 ( 11332 PWs)   bands (ev):

   -92.6845 -92.6794 -92.6769 -56.0038 -56.0038 -56.0024 -56.0024 -55.9632
   -55.9632 -55.8051 -55.7965 -55.7935 -52.1793 -24.0986 -24.0986 -24.0519
   -16.7156 -15.0757 -15.0757 -14.9824 -14.9824 -14.7850  -2.7563  -2.7563
    -2.7106  -2.6923  -2.6923  -2.4298  -2.4298  -2.3734  -2.3596  -0.6607
    -0.6607  -0.5288  -0.5288  -0.4048  -0.3888   0.5843   1.1500   1.1500
     1.4310   1.4310   1.8063   1.8102   2.1473   2.4766   2.4766   2.5080
     2.5080   2.9654   4.3260   4.3260   4.3344   4.3344   5.0606   5.0606
     5.9253   9.1058   9.1944   9.1944   9.9422   9.9422  10.3168  10.7274

     occupation numbers 
     1.0000   1.0000   1.0000   1.0000   1.0000   1.0000   1.0000   1.0000
     1.0000   1.0000   1.0000   1.0000   1.0000   1.0000   1.0000   1.0000
     1.0000   1.0000   1.0000   1.0000   1.0000   1.0000   1.0000   1.0000
     1.0000   1.0000   1.0000   1.0000   1.0000   1.0000   1.0000   1.0000
     1.0000   1.0000   1.0000   1.0000   1.0000   1.0000   1.0000   1.0000
     1.0000   1.0000   1.0109   1.0114   1.0742   0.4173   0.4173   0.3403
     0.3403   0.0011   0.0000   0.0000   0.0000   0.0000   0.0000   0.0000
     0.0000   0.0000   0.0000   0.0000   0.0000   0.0000   0.0000   0.0000

          k = 0.0000 0.1925 0.0000 ( 11360 PWs)   bands (ev):

   -92.6840 -92.6797 -92.6771 -56.0122 -56.0097 -55.9929 -55.9917 -55.9682
   -55.9645 -55.8044 -55.7969 -55.7939 -52.1793 -24.0988 -24.0987 -24.0519
   -16.6123 -15.1912 -15.1161 -14.9951 -14.9467 -14.7886  -3.1582  -2.9132
    -2.7159  -2.6204  -2.6053  -2.5268  -2.3657  -1.9824  -1.7800  -1.0131
    -0.9517  -0.6969  -0.6369   0.0055   0.0729   0.4421   0.5789   0.8888
     1.7406   1.8490   1.8615   1.9143   2.2476   2.2613   2.2703   2.5589
     2.6219   3.0375   4.3198   4.3673   4.3753   4.4169   4.7763   4.9846
     6.3304   7.4878   8.4952   8.8398   9.1428  10.9471  11.0848  11.6076

     occupation numbers 
     1.0000   1.0000   1.0000   1.0000   1.0000   1.0000   1.0000   1.0000
     1.0000   1.0000   1.0000   1.0000   1.0000   1.0000   1.0000   1.0000
     1.0000   1.0000   1.0000   1.0000   1.0000   1.0000   1.0000   1.0000
     1.0000   1.0000   1.0000   1.0000   1.0000   1.0000   1.0000   1.0000
     1.0000   1.0000   1.0000   1.0000   1.0000   1.0000   1.0000   1.0000
     1.0046   1.0178   1.0203   1.0336   0.9776   0.9550   0.9389   0.2328
     0.1333   0.0003   0.0000   0.0000   0.0000   0.0000   0.0000   0.0000
     0.0000   0.0000   0.0000   0.0000   0.0000   0.0000   0.0000   0.0000

          k = 0.0000 0.1925 0.1684 ( 11375 PWs)   bands (ev):

   -92.6840 -92.6797 -92.6771 -56.0121 -56.0097 -55.9929 -55.9916 -55.9683
   -55.9645 -55.8045 -55.7969 -55.7939 -52.1793 -24.0989 -24.0987 -24.0520
   -16.6123 -15.1912 -15.1161 -14.9951 -14.9467 -14.7886  -3.1582  -2.9132
    -2.7159  -2.6203  -2.6038  -2.5267  -2.3657  -1.9824  -1.7800  -1.0132
    -0.9518  -0.6967  -0.6369   0.0055   0.0729   0.4426   0.5730   0.8578
     1.7409   1.8445   1.8615   1.9143   2.2612   2.2703   2.3549   2.5588
     2.6217   2.9921   4.3210   4.3675   4.3751   4.4175   4.7890   4.9828
     6.1578   7.4799   8.4892   9.0844   9.4031  10.9235  11.0581  11.1765

     occupation numbers 
     1.0000   1.0000   1.0000   1.0000   1.0000   1.0000   1.0000   1.0000
     1.0000   1.0000   1.0000   1.0000   1.0000   1.0000   1.0000   1.0000
     1.0000   1.0000   1.0000   1.0000   1.0000   1.0000   1.0000   1.0000
     1.0000   1.0000   1.0000   1.0000   1.0000   1.0000   1.0000   1.0000
     1.0000   1.0000   1.0000   1.0000   1.0000   1.0000   1.0000   1.0000
     1.0046   1.0169   1.0203   1.0336   0.9552   0.9390   0.7468   0.2330
     0.1335   0.0007   0.0000   0.0000   0.0000   0.0000   0.0000   0.0000
     0.0000   0.0000   0.0000   0.0000   0.0000   0.0000   0.0000   0.0000

          k = 0.0000 0.3849 0.0000 ( 11350 PWs)   bands (ev):

   -92.6829 -92.6803 -92.6775 -56.0184 -56.0072 -55.9829 -55.9819 -55.9804
   -55.9682 -55.8025 -55.7980 -55.7947 -52.1793 -24.0991 -24.0988 -24.0519
   -16.3248 -15.5035 -15.1612 -15.0402 -14.8845 -14.8027  -3.5684  -2.7652
    -2.7231  -2.7158  -2.3686  -2.2873  -2.2112  -1.7570  -1.4791  -1.0439
    -1.0254  -0.9626  -0.6131  -0.5576  -0.0620   0.3106   0.6675   1.2082
     1.8937   1.9029   2.0327   2.0545   2.2493   2.2634   2.4167   2.6372
     2.7546   3.1229   4.2898   4.3034   4.3539   4.4057   4.7209   4.7706
     5.6233   6.9097   7.9040   8.4614   9.2567   9.7285  11.6216  11.7499

     occupation numbers 
     1.0000   1.0000   1.0000   1.0000   1.0000   1.0000   1.0000   1.0000
     1.0000   1.0000   1.0000   1.0000   1.0000   1.0000   1.0000   1.0000
     1.0000   1.0000   1.0000   1.0000   1.0000   1.0000   1.0000   1.0000
     1.0000   1.0000   1.0000   1.0000   1.0000   1.0000   1.0000   1.0000
     1.0000   1.0000   1.0000   1.0000   1.0000   1.0000   1.0000   1.0000
     1.0279   1.0304   1.0724   1.0780   0.9751   0.9514   0.5784   0.1147
     0.0298   0.0000   0.0000   0.0000   0.0000   0.0000   0.0000   0.0000
     0.0000   0.0000   0.0000   0.0000   0.0000   0.0000   0.0000   0.0000

          k = 0.0000 0.3849 0.1684 ( 11369 PWs)   bands (ev):

   -92.6829 -92.6803 -92.6775 -56.0184 -56.0072 -55.9830 -55.9819 -55.9804
   -55.9682 -55.8026 -55.7981 -55.7947 -52.1793 -24.0991 -24.0989 -24.0520
   -16.3248 -15.5035 -15.1612 -15.0402 -14.8845 -14.8027  -3.5684  -2.7653
    -2.7234  -2.7159  -2.3686  -2.2862  -2.2111  -1.7570  -1.4791  -1.0438
    -1.0254  -0.9623  -0.6131  -0.5569  -0.0621   0.3108   0.6672   1.1910
     1.8937   1.9029   2.0327   2.0546   2.2408   2.2636   2.4166   2.6359
     2.8386   3.0655   4.2922   4.3276   4.3608   4.4056   4.7212   4.7602
     5.6217   6.7986   7.9016   8.4506   9.2774  10.0727  11.6319  11.8170

     occupation numbers 
     1.0000   1.0000   1.0000   1.0000   1.0000   1.0000   1.0000   1.0000
     1.0000   1.0000   1.0000   1.0000   1.0000   1.0000   1.0000   1.0000
     1.0000   1.0000   1.0000   1.0000   1.0000   1.0000   1.0000   1.0000
     1.0000   1.0000   1.0000   1.0000   1.0000   1.0000   1.0000   1.0000
     1.0000   1.0000   1.0000   1.0000   1.0000   1.0000   1.0000   1.0000
     1.0279   1.0304   1.0724   1.0780   0.9881   0.9511   0.5787   0.1163
     0.0091   0.0001   0.0000   0.0000   0.0000   0.0000   0.0000   0.0000
     0.0000   0.0000   0.0000   0.0000   0.0000   0.0000   0.0000   0.0000

          k = 0.0000-0.5774 0.0000 ( 11352 PWs)   bands (ev):

   -92.6820 -92.6810 -92.6777 -56.0206 -55.9970 -55.9956 -55.9770 -55.9753
   -55.9737 -55.8008 -55.7993 -55.7951 -52.1793 -24.0992 -24.0989 -24.0519
   -15.9213 -15.9193 -15.1791 -15.0634 -14.8343 -14.8334  -3.7178  -2.7973
    -2.7844  -2.3065  -2.3049  -2.1054  -1.8996  -1.8933  -1.8012  -1.1746
    -1.1508  -0.9076  -0.6567  -0.6553  -0.3236   0.4054   1.1568   1.1608
     1.8339   1.9284   1.9705   1.9720   2.3249   2.5054   2.5120   2.6640
     2.6718   3.7895   4.1047   4.1699   4.2747   4.4193   4.5532   4.5984
     4.9102   7.5862   7.7017   8.2128   8.2571  10.6788  10.9856  11.4262

     occupation numbers 
     1.0000   1.0000   1.0000   1.0000   1.0000   1.0000   1.0000   1.0000
     1.0000   1.0000   1.0000   1.0000   1.0000   1.0000   1.0000   1.0000
     1.0000   1.0000   1.0000   1.0000   1.0000   1.0000   1.0000   1.0000
     1.0000   1.0000   1.0000   1.0000   1.0000   1.0000   1.0000   1.0000
     1.0000   1.0000   1.0000   1.0000   1.0000   1.0000   1.0000   1.0000
     1.0150   1.0379   1.0518   1.0524   0.8223   0.3463   0.3311   0.0869
     0.0800   0.0000   0.0000   0.0000   0.0000   0.0000   0.0000   0.0000
     0.0000   0.0000   0.0000   0.0000   0.0000   0.0000   0.0000   0.0000

          k = 0.0000-0.5774 0.1684 ( 11376 PWs)   bands (ev):

   -92.6820 -92.6810 -92.6777 -56.0206 -55.9971 -55.9957 -55.9769 -55.9753
   -55.9738 -55.8009 -55.7994 -55.7952 -52.1793 -24.0993 -24.0989 -24.0520
   -15.9213 -15.9193 -15.1791 -15.0634 -14.8343 -14.8334  -3.7178  -2.7976
    -2.7846  -2.3065  -2.3049  -2.1054  -1.8994  -1.8930  -1.8012  -1.1735
    -1.1502  -0.9076  -0.6567  -0.6553  -0.3235   0.4058   1.1549   1.1578
     1.8338   1.9284   1.9705   1.9720   2.3248   2.4991   2.5085   2.6695
     2.6747   3.7490   4.0390   4.2545   4.3877   4.4186   4.5243   4.5620
     4.9103   7.5458   7.7021   8.1655   8.2437  10.8105  11.1625  11.4164

     occupation numbers 
     1.0000   1.0000   1.0000   1.0000   1.0000   1.0000   1.0000   1.0000
     1.0000   1.0000   1.0000   1.0000   1.0000   1.0000   1.0000   1.0000
     1.0000   1.0000   1.0000   1.0000   1.0000   1.0000   1.0000   1.0000
     1.0000   1.0000   1.0000   1.0000   1.0000   1.0000   1.0000   1.0000
     1.0000   1.0000   1.0000   1.0000   1.0000   1.0000   1.0000   1.0000
     1.0150   1.0379   1.0519   1.0524   0.8225   0.3614   0.3391   0.0819
     0.0774   0.0000   0.0000   0.0000   0.0000   0.0000   0.0000   0.0000
     0.0000   0.0000   0.0000   0.0000   0.0000   0.0000   0.0000   0.0000

          k = 0.1667 0.2887 0.0000 ( 11373 PWs)   bands (ev):

   -92.6833 -92.6801 -92.6774 -56.0133 -56.0130 -55.9845 -55.9843 -55.9775
   -55.9666 -55.8031 -55.7977 -55.7946 -52.1793 -24.0990 -24.0989 -24.0520
   -16.4169 -15.3029 -15.3021 -14.9405 -14.9404 -14.7977  -3.2288  -3.2288
    -2.6928  -2.5415  -2.5328  -2.3738  -2.2448  -1.6104  -1.6028  -1.0368
    -1.0318  -0.7972  -0.7873  -0.4091   0.2848   0.3640   0.3668   1.0891
     1.8774   2.0225   2.0240   2.0965   2.0971   2.1319   2.5566   2.5581
     2.6235   3.0727   4.3223   4.3328   4.3624   4.5304   4.5321   4.8962
     6.5131   6.7437   6.8215   9.3934  10.0325  10.2653  10.5904  10.7601

     occupation numbers 
     1.0000   1.0000   1.0000   1.0000   1.0000   1.0000   1.0000   1.0000
     1.0000   1.0000   1.0000   1.0000   1.0000   1.0000   1.0000   1.0000
     1.0000   1.0000   1.0000   1.0000   1.0000   1.0000   1.0000   1.0000
     1.0000   1.0000   1.0000   1.0000   1.0000   1.0000   1.0000   1.0000
     1.0000   1.0000   1.0000   1.0000   1.0000   1.0000   1.0000   1.0000
     1.0239   1.0693   1.0698   1.0833   1.0833   1.0792   0.2372   0.2343
     0.1313   0.0001   0.0000   0.0000   0.0000   0.0000   0.0000   0.0000
     0.0000   0.0000   0.0000   0.0000   0.0000   0.0000   0.0000   0.0000

          k = 0.1667 0.2887 0.1684 ( 11359 PWs)   bands (ev):

   -92.6833 -92.6801 -92.6774 -56.0133 -56.0130 -55.9844 -55.9842 -55.9774
   -55.9667 -55.8032 -55.7976 -55.7945 -52.1793 -24.0990 -24.0988 -24.0520
   -16.4169 -15.3028 -15.3021 -14.9404 -14.9404 -14.7977  -3.2288  -3.2288
    -2.6932  -2.5415  -2.5328  -2.3724  -2.2448  -1.6104  -1.6028  -1.0367
    -1.0318  -0.7971  -0.7872  -0.4083   0.2848   0.3642   0.3669   1.0674
     1.8706   2.0225   2.0240   2.0966   2.0972   2.1319   2.5563   2.5579
     2.7268   2.9988   4.3211   4.3315   4.3977   4.5316   4.5334   4.8962
     6.4868   6.6166   6.8202   9.7624  10.1044  10.2629  10.5972  10.7547

     occupation numbers 
     1.0000   1.0000   1.0000   1.0000   1.0000   1.0000   1.0000   1.0000
     1.0000   1.0000   1.0000   1.0000   1.0000   1.0000   1.0000   1.0000
     1.0000   1.0000   1.0000   1.0000   1.0000   1.0000   1.0000   1.0000
     1.0000   1.0000   1.0000   1.0000   1.0000   1.0000   1.0000   1.0000
     1.0000   1.0000   1.0000   1.0000   1.0000   1.0000   1.0000   1.0000
     1.0223   1.0693   1.0698   1.0833   1.0833   1.0792   0.2376   0.2347
     0.0423   0.0006   0.0000   0.0000   0.0000   0.0000   0.0000   0.0000
     0.0000   0.0000   0.0000   0.0000   0.0000   0.0000   0.0000   0.0000

          k = 0.1667 0.4811 0.0000 ( 11356 PWs)   bands (ev):

   -92.6821 -92.6808 -92.6778 -56.0163 -56.0059 -55.9923 -55.9773 -55.9767
   -55.9707 -55.8012 -55.7989 -55.7953 -52.1793 -24.0991 -24.0989 -24.0520
   -16.0713 -15.6622 -15.3750 -14.9514 -14.8696 -14.8223  -3.4922  -2.9904
    -2.8322  -2.4300  -2.2810  -2.1702  -2.0333  -1.7929  -1.7519  -1.1933
    -1.1342  -0.9371  -0.6492  -0.4483  -0.1968   0.4952   0.8563   1.1898
     1.9403   1.9718   1.9970   2.0292   2.3184   2.3279   2.4099   2.5710
     2.7764   3.5637   4.1015   4.1431   4.3174   4.6107   4.7654   4.8300
     5.0145   6.2737   7.4343   8.7221   9.9263  10.0609  10.4294  11.6357

     occupation numbers 
     1.0000   1.0000   1.0000   1.0000   1.0000   1.0000   1.0000   1.0000
     1.0000   1.0000   1.0000   1.0000   1.0000   1.0000   1.0000   1.0000
     1.0000   1.0000   1.0000   1.0000   1.0000   1.0000   1.0000   1.0000
     1.0000   1.0000   1.0000   1.0000   1.0000   1.0000   1.0000   1.0000
     1.0000   1.0000   1.0000   1.0000   1.0000   1.0000   1.0000   1.0000
     1.0417   1.0523   1.0610   1.0713   0.8377   0.8149   0.5971   0.2107
     0.0223   0.0000   0.0000   0.0000   0.0000   0.0000   0.0000   0.0000
     0.0000   0.0000   0.0000   0.0000   0.0000   0.0000   0.0000   0.0000

          k = 0.1667 0.4811 0.1684 ( 11345 PWs)   bands (ev):

   -92.6821 -92.6808 -92.6778 -56.0163 -56.0060 -55.9922 -55.9772 -55.9767
   -55.9707 -55.8012 -55.7988 -55.7953 -52.1793 -24.0991 -24.0989 -24.0520
   -16.0713 -15.6622 -15.3750 -14.9514 -14.8696 -14.8223  -3.4922  -2.9905
    -2.8325  -2.4300  -2.2811  -2.1699  -2.0330  -1.7929  -1.7520  -1.1924
    -1.1336  -0.9369  -0.6492  -0.4483  -0.1967   0.4955   0.8561   1.1855
     1.9402   1.9696   1.9969   2.0291   2.3160   2.3275   2.4099   2.5714
     2.7923   3.5022   4.1152   4.1918   4.3135   4.6259   4.7603   4.8305
     5.0320   6.2822   7.3397   8.6804   9.9220  10.0447  10.7107  11.7626

     occupation numbers 
     1.0000   1.0000   1.0000   1.0000   1.0000   1.0000   1.0000   1.0000
     1.0000   1.0000   1.0000   1.0000   1.0000   1.0000   1.0000   1.0000
     1.0000   1.0000   1.0000   1.0000   1.0000   1.0000   1.0000   1.0000
     1.0000   1.0000   1.0000   1.0000   1.0000   1.0000   1.0000   1.0000
     1.0000   1.0000   1.0000   1.0000   1.0000   1.0000   1.0000   1.0000
     1.0417   1.0515   1.0609   1.0713   0.8432   0.8159   0.5971   0.2100
     0.0179   0.0000   0.0000   0.0000   0.0000   0.0000   0.0000   0.0000
     0.0000   0.0000   0.0000   0.0000   0.0000   0.0000   0.0000   0.0000

          k = 0.3333 0.5774 0.0000 ( 11370 PWs)   bands (ev):

   -92.6814 -92.6814 -92.6780 -56.0069 -56.0059 -56.0059 -55.9744 -55.9732
   -55.9732 -55.7998 -55.7998 -55.7958 -52.1793 -24.0991 -24.0991 -24.0520
   -15.7239 -15.7214 -15.7214 -14.8683 -14.8676 -14.8676  -3.1031  -3.0976
    -3.0976  -2.2819  -2.2707  -2.2707  -1.9046  -1.9046  -1.9019  -1.2185
    -1.1913  -1.1913  -0.2917  -0.2917  -0.2891   0.8693   0.8693   0.8795
     1.9899   1.9935   1.9935   2.1840   2.1840   2.1840   2.5779   2.5859
     2.5859   3.9991   4.0871   4.0871   4.4386   4.8314   4.8314   4.8316
     4.9567   4.9567   7.9323   8.7918   8.7918  11.1428  11.5410  11.5410

     occupation numbers 
     1.0000   1.0000   1.0000   1.0000   1.0000   1.0000   1.0000   1.0000
     1.0000   1.0000   1.0000   1.0000   1.0000   1.0000   1.0000   1.0000
     1.0000   1.0000   1.0000   1.0000   1.0000   1.0000   1.0000   1.0000
     1.0000   1.0000   1.0000   1.0000   1.0000   1.0000   1.0000   1.0000
     1.0000   1.0000   1.0000   1.0000   1.0000   1.0000   1.0000   1.0000
     1.0585   1.0598   1.0598   1.0525   1.0525   1.0525   0.1987   0.1855
     0.1855   0.0000   0.0000   0.0000   0.0000   0.0000   0.0000   0.0000
     0.0000   0.0000   0.0000   0.0000   0.0000   0.0000   0.0000   0.0000

          k = 0.3333 0.5774 0.1684 ( 11352 PWs)   bands (ev):

   -92.6813 -92.6813 -92.6780 -56.0069 -56.0058 -56.0058 -55.9743 -55.9731
   -55.9731 -55.7998 -55.7998 -55.7958 -52.1793 -24.0991 -24.0991 -24.0520
   -15.7239 -15.7214 -15.7214 -14.8683 -14.8675 -14.8675  -3.1033  -3.0976
    -3.0976  -2.2820  -2.2708  -2.2708  -1.9046  -1.9046  -1.9018  -1.2175
    -1.1907  -1.1907  -0.2918  -0.2918  -0.2891   0.8693   0.8693   0.8793
     1.9889   1.9929   1.9929   2.1840   2.1840   2.1840   2.5803   2.5872
     2.5872   3.9288   4.0608   4.0608   4.5284   4.8315   4.8315   4.8317
     4.9972   4.9972   7.8723   8.7258   8.7258  11.3012  11.7472  11.7472

     occupation numbers 
     1.0000   1.0000   1.0000   1.0000   1.0000   1.0000   1.0000   1.0000
     1.0000   1.0000   1.0000   1.0000   1.0000   1.0000   1.0000   1.0000
     1.0000   1.0000   1.0000   1.0000   1.0000   1.0000   1.0000   1.0000
     1.0000   1.0000   1.0000   1.0000   1.0000   1.0000   1.0000   1.0000
     1.0000   1.0000   1.0000   1.0000   1.0000   1.0000   1.0000   1.0000
     1.0582   1.0596   1.0596   1.0525   1.0525   1.0525   0.1948   0.1835
     0.1835   0.0000   0.0000   0.0000   0.0000   0.0000   0.0000   0.0000
     0.0000   0.0000   0.0000   0.0000   0.0000   0.0000   0.0000   0.0000

          k =-0.1667-0.2887 0.1684 ( 11359 PWs)   bands (ev):

   -92.6833 -92.6801 -92.6774 -56.0133 -56.0130 -55.9844 -55.9842 -55.9774
   -55.9667 -55.8032 -55.7976 -55.7945 -52.1793 -24.0990 -24.0988 -24.0520
   -16.4169 -15.3028 -15.3021 -14.9405 -14.9404 -14.7977  -3.2288  -3.2288
    -2.6931  -2.5415  -2.5328  -2.3725  -2.2448  -1.6104  -1.6028  -1.0367
    -1.0318  -0.7970  -0.7871  -0.4086   0.2848   0.3641   0.3668   1.0684
     1.8684   2.0225   2.0240   2.0966   2.0972   2.1319   2.5560   2.5577
     2.7176   3.0231   4.3239   4.3339   4.3671   4.5305   4.5321   4.8962
     6.4905   6.6433   6.8137   9.7150  10.1273  10.2641  10.6463  10.7556

     occupation numbers 
     1.0000   1.0000   1.0000   1.0000   1.0000   1.0000   1.0000   1.0000
     1.0000   1.0000   1.0000   1.0000   1.0000   1.0000   1.0000   1.0000
     1.0000   1.0000   1.0000   1.0000   1.0000   1.0000   1.0000   1.0000
     1.0000   1.0000   1.0000   1.0000   1.0000   1.0000   1.0000   1.0000
     1.0000   1.0000   1.0000   1.0000   1.0000   1.0000   1.0000   1.0000
     1.0218   1.0693   1.0698   1.0833   1.0833   1.0792   0.2381   0.2350
     0.0473   0.0004   0.0000   0.0000   0.0000   0.0000   0.0000   0.0000
     0.0000   0.0000   0.0000   0.0000   0.0000   0.0000   0.0000   0.0000

          k =-0.1667-0.4811 0.1684 ( 11345 PWs)   bands (ev):

   -92.6821 -92.6808 -92.6778 -56.0163 -56.0060 -55.9922 -55.9772 -55.9767
   -55.9707 -55.8012 -55.7988 -55.7953 -52.1793 -24.0991 -24.0989 -24.0520
   -16.0713 -15.6622 -15.3750 -14.9514 -14.8696 -14.8223  -3.4922  -2.9906
    -2.8324  -2.4301  -2.2810  -2.1700  -2.0331  -1.7930  -1.7519  -1.1923
    -1.1335  -0.9367  -0.6492  -0.4483  -0.1967   0.4952   0.8556   1.1845
     1.9403   1.9695   1.9970   2.0291   2.3162   2.3280   2.4096   2.5692
     2.7819   3.5728   4.1064   4.1453   4.3185   4.6126   4.7637   4.8301
     5.0092   6.2644   7.3973   8.7375   9.9848  10.0692  10.5813  11.5932

     occupation numbers 
     1.0000   1.0000   1.0000   1.0000   1.0000   1.0000   1.0000   1.0000
     1.0000   1.0000   1.0000   1.0000   1.0000   1.0000   1.0000   1.0000
     1.0000   1.0000   1.0000   1.0000   1.0000   1.0000   1.0000   1.0000
     1.0000   1.0000   1.0000   1.0000   1.0000   1.0000   1.0000   1.0000
     1.0000   1.0000   1.0000   1.0000   1.0000   1.0000   1.0000   1.0000
     1.0417   1.0515   1.0610   1.0713   0.8428   0.8147   0.5980   0.2139
     0.0207   0.0000   0.0000   0.0000   0.0000   0.0000   0.0000   0.0000
     0.0000   0.0000   0.0000   0.0000   0.0000   0.0000   0.0000   0.0000

          k =-0.3333-0.5774 0.1684 ( 11352 PWs)   bands (ev):

   -92.6813 -92.6813 -92.6780 -56.0069 -56.0058 -56.0058 -55.9743 -55.9731
   -55.9731 -55.7998 -55.7998 -55.7958 -52.1793 -24.0991 -24.0991 -24.0520
   -15.7239 -15.7214 -15.7214 -14.8683 -14.8675 -14.8675  -3.1033  -3.0976
    -3.0976  -2.2821  -2.2708  -2.2708  -1.9046  -1.9046  -1.9018  -1.2172
    -1.1906  -1.1906  -0.2917  -0.2917  -0.2890   0.8686   0.8686   0.8783
     1.9890   1.9930   1.9930   2.1839   2.1839   2.1840   2.5765   2.5853
     2.5853   4.0105   4.0905   4.0905   4.4263   4.8315   4.8315   4.8317
     4.9523   4.9523   7.9574   8.8138   8.8138  11.0639  11.4928  11.4929

     occupation numbers 
     1.0000   1.0000   1.0000   1.0000   1.0000   1.0000   1.0000   1.0000
     1.0000   1.0000   1.0000   1.0000   1.0000   1.0000   1.0000   1.0000
     1.0000   1.0000   1.0000   1.0000   1.0000   1.0000   1.0000   1.0000
     1.0000   1.0000   1.0000   1.0000   1.0000   1.0000   1.0000   1.0000
     1.0000   1.0000   1.0000   1.0000   1.0000   1.0000   1.0000   1.0000
     1.0582   1.0596   1.0596   1.0525   1.0525   1.0525   0.2012   0.1865
     0.1865   0.0000   0.0000   0.0000   0.0000   0.0000   0.0000   0.0000
     0.0000   0.0000   0.0000   0.0000   0.0000   0.0000   0.0000   0.0000

     the Fermi energy is     2.4831 ev

!    total energy              =   -1489.15536380 Ry
     total all-electron energy =     -9588.390171 Ry
     estimated scf accuracy    <       0.00000009 Ry
     smearing contrib. (-TS)   =       0.00887911 Ry
     internal energy E=F+TS    =   -1489.16424291 Ry

     The total energy is F=E-TS. E is the sum of the following terms:
     one-electron contribution =   -2448.83740799 Ry
     hartree contribution      =    1251.22047091 Ry
     xc contribution           =    -150.36773082 Ry
     ewald contribution        =     194.34332386 Ry
     one-center paw contrib.   =    -335.52289888 Ry
      -> PAW hartree energy AE =     883.02526389 Ry
      -> PAW hartree energy PS =    -880.75134347 Ry
      -> PAW xc energy AE      =    -480.15150273 Ry
      -> PAW xc energy PS      =     142.35468343 Ry
      -> total E_H with PAW    =    1253.49439134 Ry
      -> total E_XC with PAW   =    -488.16455012 Ry

     total magnetization       =     2.43 Bohr mag/cell
     absolute magnetization    =     2.59 Bohr mag/cell

     convergence has been achieved in  23 iterations

     Forces acting on atoms (cartesian axes, Ry/au):

     atom    1 type  1   force =     0.00000000    0.00000000    0.01089596
     atom    2 type  1   force =    -0.00000000   -0.00000000    0.00803984
     atom    3 type  1   force =     0.00000000    0.00000000    0.00803984
     atom    4 type  2   force =     0.00006579    0.00011395   -0.02979792
     atom    5 type  2   force =    -0.00013158   -0.00000000   -0.02979792
     atom    6 type  2   force =     0.00006579   -0.00011395   -0.02979792
     atom    7 type  2   force =    -0.00202970    0.00000000    0.01335408
     atom    8 type  2   force =     0.00101485    0.00175777    0.01335408
     atom    9 type  2   force =     0.00101485   -0.00175777    0.01335408
     atom   10 type  3   force =     0.00000000    0.00000000    0.02235587
     The non-local contrib.  to forces
     atom    1 type  1   force =     0.00000000    0.00000000   -0.00751798
     atom    2 type  1   force =     0.00000000   -0.00000000    0.00352557
     atom    3 type  1   force =     0.00000000   -0.00000000    0.00352557
     atom    4 type  2   force =    -0.00031329   -0.00054263   -1.21796964
     atom    5 type  2   force =     0.00062658    0.00000000   -1.21796964
     atom    6 type  2   force =    -0.00031329    0.00054263   -1.21796964
     atom    7 type  2   force =    -0.01657078   -0.00000000    1.09163665
     atom    8 type  2   force =     0.00828539    0.01435072    1.09163665
     atom    9 type  2   force =     0.00828539   -0.01435072    1.09163665
     atom   10 type  3   force =     0.00000000    0.00000000   -0.12011518
     The ionic contribution  to forces
     atom    1 type  1   force =    -0.00000000   -0.00000000    4.06800420
     atom    2 type  1   force =     0.00000002   -0.00000001    3.61854463
     atom    3 type  1   force =    -0.00000002    0.00000001    3.61854463
     atom    4 type  2   force =     0.02096571    0.03631368   39.74670305
     atom    5 type  2   force =    -0.04193142   -0.00000000   39.74670305
     atom    6 type  2   force =     0.02096571   -0.03631368   39.74670305
     atom    7 type  2   force =     0.23889525    0.00000000  -37.09689373
     atom    8 type  2   force =    -0.11944763   -0.20688936  -37.09689372
     atom    9 type  2   force =    -0.11944762    0.20688936  -37.09689373
     atom   10 type  3   force =     0.00000000   -0.00000000  -19.25452142
     The local contribution  to forces
     atom    1 type  1   force =     0.00000000    0.00000000   -4.04918491
     atom    2 type  1   force =     0.00000021   -0.00000012   -3.61360482
     atom    3 type  1   force =    -0.00000021    0.00000012   -3.61360482
     atom    4 type  2   force =    -0.02066780   -0.03579768  -38.56933977
     atom    5 type  2   force =     0.04133560    0.00000000  -38.56933977
     atom    6 type  2   force =    -0.02066780    0.03579768  -38.56933977
     atom    7 type  2   force =    -0.22465983    0.00000000   36.02830249
     atom    8 type  2   force =     0.11232992    0.19456112   36.02830249
     atom    9 type  2   force =     0.11232992   -0.19456112   36.02830249
     atom   10 type  3   force =     0.00000000    0.00000000   19.39688005
     The core correction contribution to forces
     atom    1 type  1   force =     0.00000000    0.00000000    0.00005902
     atom    2 type  1   force =     0.00000000   -0.00000000    0.00003854
     atom    3 type  1   force =    -0.00000000    0.00000000    0.00003854
     atom    4 type  2   force =     0.00000046    0.00000080    0.01077014
     atom    5 type  2   force =    -0.00000092    0.00000000    0.01077014
     atom    6 type  2   force =     0.00000046   -0.00000080    0.01077014
     atom    7 type  2   force =     0.00014797   -0.00000000   -0.00952628
     atom    8 type  2   force =    -0.00007398   -0.00012814   -0.00952628
     atom    9 type  2   force =    -0.00007398    0.00012814   -0.00952628
     atom   10 type  3   force =    -0.00000000   -0.00000000    0.00004192
     The Hubbard contrib.    to forces
     atom    1 type  1   force =     0.00000000    0.00000000    0.00000000
     atom    2 type  1   force =     0.00000000    0.00000000    0.00000000
     atom    3 type  1   force =     0.00000000    0.00000000    0.00000000
     atom    4 type  2   force =     0.00000000    0.00000000    0.00000000
     atom    5 type  2   force =     0.00000000    0.00000000    0.00000000
     atom    6 type  2   force =     0.00000000    0.00000000    0.00000000
     atom    7 type  2   force =     0.00000000    0.00000000    0.00000000
     atom    8 type  2   force =     0.00000000    0.00000000    0.00000000
     atom    9 type  2   force =     0.00000000    0.00000000    0.00000000
     atom   10 type  3   force =     0.00000000    0.00000000    0.00000000
     The SCF correction term to forces
     atom    1 type  1   force =     0.00000000    0.00000000   -0.00049901
     atom    2 type  1   force =    -0.00000000    0.00000000   -0.00049873
     atom    3 type  1   force =     0.00000000   -0.00000000   -0.00049873
     atom    4 type  2   force =     0.00008071    0.00013979    0.00000366
     atom    5 type  2   force =    -0.00016142    0.00000000    0.00000366
     atom    6 type  2   force =     0.00008071   -0.00013979    0.00000366
     atom    7 type  2   force =     0.00015770   -0.00000000   -0.00019969
     atom    8 type  2   force =    -0.00007885   -0.00013657   -0.00019969
     atom    9 type  2   force =    -0.00007885    0.00013657   -0.00019969
     atom   10 type  3   force =     0.00000000    0.00000000    0.00003585

     Total force =     0.062920     Total SCF correction =     0.001010

     Writing all to output data dir ./out/pw.save/ :
     XML data file, charge density, pseudopotentials, collected wavefunctions
 
     init_run     :     18.56s CPU      4.76s WALL (       1 calls)
     electrons    :    253.19s CPU     67.72s WALL (       1 calls)
     forces       :      1.23s CPU      0.89s WALL (       1 calls)

     Called by init_run:
     wfcinit      :      0.57s CPU      0.73s WALL (       1 calls)
     wfcinit:atom :      0.06s CPU      0.06s WALL (      34 calls)
     wfcinit:wfcr :      0.34s CPU      0.38s WALL (      34 calls)
     potinit      :     17.28s CPU      3.24s WALL (       1 calls)
     hinit0       :      0.55s CPU      0.54s WALL (       1 calls)

     Called by electrons:
     c_bands      :     29.42s CPU     29.62s WALL (      23 calls)
     sum_band     :      5.38s CPU      5.38s WALL (      23 calls)
     v_of_rho     :      0.60s CPU      0.38s WALL (      24 calls)
     v_h          :      0.36s CPU      0.09s WALL (      24 calls)
     v_xc         :      0.26s CPU      0.30s WALL (      25 calls)
     newd         :      0.59s CPU      0.52s WALL (      24 calls)
                                        0.52s GPU  (      24 calls)
     PAW_pot      :    223.66s CPU     31.36s WALL (      24 calls)
     mix_rho      :      1.30s CPU      1.31s WALL (      23 calls)

     Called by c_bands:
     init_us_2    :      1.00s CPU      0.98s WALL (    1632 calls)
     cegterg      :     23.30s CPU     23.51s WALL (     782 calls)

     Called by sum_band:
     sum_band:wei :      0.05s CPU      0.05s WALL (      23 calls)
                                        0.05s GPU  (      23 calls)
     sum_band:loo :      3.93s CPU      3.92s WALL (      23 calls)
                                        3.92s GPU  (      23 calls)
     sum_band:buf :      1.31s CPU      1.34s WALL (     782 calls)
                                        1.33s GPU  (     782 calls)
     sum_band:ini :      0.49s CPU      0.49s WALL (     782 calls)
                                        0.48s GPU  (     782 calls)
     sum_band:cal :      0.11s CPU      0.15s WALL (     782 calls)
                                        0.10s GPU  (     782 calls)
     sum_band:bec :      0.39s CPU      0.40s WALL (     782 calls)
                                        0.39s GPU  (     782 calls)
     addusdens    :      0.91s CPU      0.92s WALL (      23 calls)
                                        0.92s GPU  (      23 calls)
     addusd:skk   :      0.01s CPU      0.01s WALL (      69 calls)
                                        0.01s GPU  (      69 calls)

     Called by *egterg:
     cdiaghg      :      9.34s CPU      9.45s WALL (    4227 calls)
                                        9.40s GPU  (    4227 calls)
     cegterg:over :      1.12s CPU      1.13s WALL (    3445 calls)
     cegterg:upda :      1.06s CPU      1.06s WALL (    3445 calls)
     cegterg:last :      0.23s CPU      0.23s WALL (    1491 calls)
     h_psi        :      9.26s CPU      9.49s WALL (    4261 calls)
                                        9.43s GPU  (    4261 calls)
     s_psi        :      1.30s CPU      1.33s WALL (    4261 calls)
     g_psi        :      0.02s CPU      0.15s WALL (    3445 calls)
                                        0.10s GPU  (    3445 calls)

     Called by h_psi:
     h_psi:calbec :      0.19s CPU      0.42s WALL (    4261 calls)
                                        0.37s GPU  (    4261 calls)
     vloc_psi     :      7.18s CPU      7.30s WALL (    4261 calls)
                                        7.25s GPU  (    4261 calls)
     add_vuspsi   :      1.23s CPU      1.45s WALL (    4261 calls)
                                        1.40s GPU  (    4261 calls)

     General routines
     calbec       :      0.24s CPU      0.27s WALL (    5179 calls)
     fft          :      5.73s CPU      1.07s WALL (     613 calls)
                                        0.04s GPU  (     565 calls)
     ffts         :      3.06s CPU      0.90s WALL (    1192 calls)
                                        0.04s GPU  (    1144 calls)
     fftw         :      0.33s CPU      4.70s WALL (   21504 calls)
                                        4.46s GPU  (   21504 calls)
     interpolate  :      9.10s CPU      1.99s WALL (      48 calls)
 
     Parallel routines

     PAW routines
     PAW_pot      :    223.66s CPU     31.36s WALL (      24 calls)
     PAW_symme    :      0.04s CPU      0.01s WALL (      47 calls)
 
     PWSCF        :   4m33.87s CPU   1m14.09s WALL

 
   This run was terminated on:   4: 0:49  12Jul2026            

=------------------------------------------------------------------------------=
   JOB DONE.
=------------------------------------------------------------------------------=
Warning: ieee_divide_by_zero is signaling
Warning: ieee_inexact is signaling
FORTRAN STOP
