
     Program PWSCF v.7.3.1 starts on 12Jul2026 at  5:36:30 

     This program is part of the open-source Quantum ESPRESSO suite
     for quantum simulation of materials; please cite
         "P. Giannozzi et al., J. Phys.:Condens. Matter 21 395502 (2009);
         "P. Giannozzi et al., J. Phys.:Condens. Matter 29 465901 (2017);
         "P. Giannozzi et al., J. Chem. Phys. 152 154105 (2020);
          URL http://www.quantum-espresso.org", 
     in publications or presentations arising from this work. More details at
     http://www.quantum-espresso.org/quote

     Parallel version (MPI & OpenMP), running on      14 processor cores
     Number of MPI processes:                 1
     Threads/MPI process:                    14

     MPI processes distributed on     1 nodes
     1348931 MiB available memory on the printing compute node when the environment starts
 
     Reading input from pw.in

     Current dimensions of program PWSCF are:
     Max number of different atomic species (ntypx) = 10
     Max number of k-points (npk) =  40000
     Max angular momentum in pseudopotentials (lmaxx) =  4
     file Co.pbe-spn-kjpaw_psl.0.3.1.UPF: wavefunction(s)  3P 3D renormalized
     file O.pbe-n-kjpaw_psl.1.0.0.UPF: wavefunction(s)  2S 2P renormalized
     file K.pbe-spn-kjpaw_psl.1.0.0.UPF: wavefunction(s)  3S renormalized
 
     Subspace diagonalization in iterative solution of the eigenvalue problem:
     a serial algorithm will be used

 
     G-vector sticks info
     --------------------
     sticks:   dense  smooth     PW     G-vecs:    dense   smooth      PW
     Sum        1003     499    151                60133    21263    3497
 
     Using Slab Decomposition
 


     bravais-lattice index     =            4
     lattice parameter (alat)  =       5.4802  a.u.
     unit-cell volume          =     339.1348 (a.u.)^3
     number of atoms/cell      =            4
     number of atomic types    =            3
     number of electrons       =        38.00
     number of Kohn-Sham states=           27
     kinetic-energy cutoff     =      60.0000  Ry
     charge density cutoff     =     480.0000  Ry
     scf convergence threshold =      1.0E-07
     mixing beta               =       0.3000
     number of iterations used =            8  local-TF  mixing
     Exchange-correlation= SLA  PW   PBX  PBC
                           (   1   4   3   4   0   0   0)

     GPU acceleration is ACTIVE.  1 visible GPUs per MPI rank
     GPU-aware MPI enabled


     GPU used by master process:

        Device Number: 0
        Device name: NVIDIA A100-SXM4-80GB
        Compute capability : 80
        Ratio of single to double precision performance  : 2
        Memory Clock Rate (KHz): 1593000
        Memory Bus Width (bits): 5120
        Peak Memory Bandwidth (GB/s): ******

     celldm(1)=   5.480206  celldm(2)=   0.000000  celldm(3)=   2.379310
     celldm(4)=   0.000000  celldm(5)=   0.000000  celldm(6)=   0.000000

     crystal axes: (cart. coord. in units of alat)
               a(1) = (   1.000000   0.000000   0.000000 )  
               a(2) = (  -0.500000   0.866025   0.000000 )  
               a(3) = (   0.000000   0.000000   2.379310 )  

     reciprocal axes: (cart. coord. in units 2 pi/alat)
               b(1) = (  1.000000  0.577350 -0.000000 )  
               b(2) = (  0.000000  1.154701  0.000000 )  
               b(3) = (  0.000000 -0.000000  0.420290 )  


     PseudoPot. # 1 for Co read from file:
     ../../pseudo/Co.pbe-spn-kjpaw_psl.0.3.1.UPF
     MD5 check sum: 3c0a43779828c046024e4f3be63f8e67
     Pseudo is Projector augmented-wave + core cor, Zval = 17.0
     Generated using &quot;atomic&quot; code by A. Dal Corso  v.6.2.2
     Shape of augmentation charge: PSQ
     Using radial grid of 1193 points,  6 beta functions with: 
                l(1) =   0
                l(2) =   0
                l(3) =   1
                l(4) =   1
                l(5) =   2
                l(6) =   2
     Q(r) pseudized with 0 coefficients 


     PseudoPot. # 2 for O  read from file:
     ../../pseudo/O.pbe-n-kjpaw_psl.1.0.0.UPF
     MD5 check sum: e99d9cef9b487d1ca56f5b95ecd0fd7a
     Pseudo is Projector augmented-wave + core cor, Zval =  6.0
     Generated using &quot;atomic&quot; code by A. Dal Corso  v.6.3
     Shape of augmentation charge: PSQ
     Using radial grid of 1095 points,  4 beta functions with: 
                l(1) =   0
                l(2) =   0
                l(3) =   1
                l(4) =   1
     Q(r) pseudized with 0 coefficients 


     PseudoPot. # 3 for K  read from file:
     ../../pseudo/K.pbe-spn-kjpaw_psl.1.0.0.UPF
     MD5 check sum: 34cc42130a09071ebe376fd42eb21491
     Pseudo is Projector augmented-wave + core cor, Zval =  9.0
     Generated using &quot;atomic&quot; code by A. Dal Corso  v.6.2.2
     Shape of augmentation charge: PSQ
     Using radial grid of 1165 points,  6 beta functions with: 
                l(1) =   0
                l(2) =   0
                l(3) =   1
                l(4) =   1
                l(5) =   2
                l(6) =   2
     Q(r) pseudized with 0 coefficients 


     atomic species   valence    mass     pseudopotential
     Co               17.00    58.93300     Co( 1.00)
     O                 6.00    15.99900     O ( 1.00)
     K                 9.00    39.09830     K ( 1.00)

     Starting magnetic structure 
     atomic species   magnetization
     Co              0.300
     O               0.000
     K               0.000

     12 Sym. Ops., with inversion, found


                                    s                        frac. trans.

      isym =  1     identity                                     

 cryst.   s( 1) = (     1          0          0      )
                  (     0          1          0      )
                  (     0          0          1      )

 cart.    s( 1) = (  1.0000000  0.0000000  0.0000000 )
                  (  0.0000000  1.0000000  0.0000000 )
                  (  0.0000000  0.0000000  1.0000000 )


      isym =  2     180 deg rotation - cart. axis [1,0,0]        

 cryst.   s( 2) = (     1          0          0      )
                  (    -1         -1          0      )
                  (     0          0         -1      )

 cart.    s( 2) = (  1.0000000  0.0000000  0.0000000 )
                  (  0.0000000 -1.0000000  0.0000000 )
                  (  0.0000000  0.0000000 -1.0000000 )


      isym =  3     120 deg rotation - cryst. axis [0,0,1]       

 cryst.   s( 3) = (     0          1          0      )
                  (    -1         -1          0      )
                  (     0          0          1      )

 cart.    s( 3) = ( -0.5000000 -0.8660254  0.0000000 )
                  (  0.8660254 -0.5000000  0.0000000 )
                  (  0.0000000  0.0000000  1.0000000 )


      isym =  4     120 deg rotation - cryst. axis [0,0,-1]      

 cryst.   s( 4) = (    -1         -1          0      )
                  (     1          0          0      )
                  (     0          0          1      )

 cart.    s( 4) = ( -0.5000000  0.8660254  0.0000000 )
                  ( -0.8660254 -0.5000000  0.0000000 )
                  (  0.0000000  0.0000000  1.0000000 )


      isym =  5     180 deg rotation - cryst. axis [0,1,0]       

 cryst.   s( 5) = (    -1         -1          0      )
                  (     0          1          0      )
                  (     0          0         -1      )

 cart.    s( 5) = ( -0.5000000 -0.8660254  0.0000000 )
                  ( -0.8660254  0.5000000  0.0000000 )
                  (  0.0000000  0.0000000 -1.0000000 )


      isym =  6     180 deg rotation - cryst. axis [1,1,0]       

 cryst.   s( 6) = (     0          1          0      )
                  (     1          0          0      )
                  (     0          0         -1      )

 cart.    s( 6) = ( -0.5000000  0.8660254  0.0000000 )
                  (  0.8660254  0.5000000  0.0000000 )
                  (  0.0000000  0.0000000 -1.0000000 )


      isym =  7     inversion                                    

 cryst.   s( 7) = (    -1          0          0      )
                  (     0         -1          0      )
                  (     0          0         -1      )

 cart.    s( 7) = ( -1.0000000  0.0000000  0.0000000 )
                  (  0.0000000 -1.0000000  0.0000000 )
                  (  0.0000000  0.0000000 -1.0000000 )


      isym =  8     inv. 180 deg rotation - cart. axis [1,0,0]   

 cryst.   s( 8) = (    -1          0          0      )
                  (     1          1          0      )
                  (     0          0          1      )

 cart.    s( 8) = ( -1.0000000  0.0000000  0.0000000 )
                  (  0.0000000  1.0000000  0.0000000 )
                  (  0.0000000  0.0000000  1.0000000 )


      isym =  9     inv. 120 deg rotation - cryst. axis [0,0,1]  

 cryst.   s( 9) = (     0         -1          0      )
                  (     1          1          0      )
                  (     0          0         -1      )

 cart.    s( 9) = (  0.5000000  0.8660254  0.0000000 )
                  ( -0.8660254  0.5000000  0.0000000 )
                  (  0.0000000  0.0000000 -1.0000000 )


      isym = 10     inv. 120 deg rotation - cryst. axis [0,0,-1] 

 cryst.   s(10) = (     1          1          0      )
                  (    -1          0          0      )
                  (     0          0         -1      )

 cart.    s(10) = (  0.5000000 -0.8660254  0.0000000 )
                  (  0.8660254  0.5000000  0.0000000 )
                  (  0.0000000  0.0000000 -1.0000000 )


      isym = 11     inv. 180 deg rotation - cryst. axis [0,1,0]  

 cryst.   s(11) = (     1          1          0      )
                  (     0         -1          0      )
                  (     0          0          1      )

 cart.    s(11) = (  0.5000000  0.8660254  0.0000000 )
                  (  0.8660254 -0.5000000  0.0000000 )
                  (  0.0000000  0.0000000  1.0000000 )


      isym = 12     inv. 180 deg rotation - cryst. axis [1,1,0]  

 cryst.   s(12) = (     0         -1          0      )
                  (    -1          0          0      )
                  (     0          0          1      )

 cart.    s(12) = (  0.5000000 -0.8660254  0.0000000 )
                  ( -0.8660254 -0.5000000  0.0000000 )
                  (  0.0000000  0.0000000  1.0000000 )


     point group D_3d (-3m) 
     there are  6 classes
     the character table:

       E     2C3   3C2'  i     2S6   3s_d 
A_1g   1.00  1.00  1.00  1.00  1.00  1.00
A_2g   1.00  1.00 -1.00  1.00  1.00 -1.00
E_g    2.00 -1.00  0.00  2.00 -1.00  0.00
A_1u   1.00  1.00  1.00 -1.00 -1.00 -1.00
A_2u   1.00  1.00 -1.00 -1.00 -1.00  1.00
E_u    2.00 -1.00  0.00 -2.00  1.00  0.00

     the symmetry operations in each class and the name of the first element:

     E        1
          identity                                               
     2C3      3    4
          120 deg rotation - cryst. axis [0,0,1]                 
     3C2'     2    5    6
          180 deg rotation - cart. axis [1,0,0]                  
     i        7
          inversion                                              
     2S6      9   10
          inv. 120 deg rotation - cryst. axis [0,0,1]            
     3s_d     8   11   12
          inv. 180 deg rotation - cart. axis [1,0,0]             

   Cartesian axes

     site n.     atom                  positions (alat units)
         1        Co     tau(   1) = (   0.0000000   0.0000000   0.0000000  )
         2        O      tau(   2) = (  -0.0000000   0.5773503   0.3310345  )
         3        O      tau(   3) = (   0.5000000   0.2886751   2.0482759  )
         4        K      tau(   4) = (   0.0000000   0.0000000   1.1896552  )

   Crystallographic axes

     site n.     atom                  positions (cryst. coord.)
         1        Co     tau(   1) = (  0.0000000  0.0000000  0.0000000  )
         2        O      tau(   2) = (  0.3333333  0.6666667  0.1391304  )
         3        O      tau(   3) = (  0.6666667  0.3333333  0.8608696  )
         4        K      tau(   4) = (  0.0000000  0.0000000  0.5000000  )

     number of k points=    25  Marzari-Vanderbilt smearing, width (Ry)=  0.0200
                       cart. coord. in units 2pi/alat
        k(    1) = (   0.0000000   0.0000000   0.0000000), wk =   0.0052083
        k(    2) = (   0.0000000   0.0000000   0.1400966), wk =   0.0104167
        k(    3) = (   0.0000000   0.1443376   0.0000000), wk =   0.0312500
        k(    4) = (   0.0000000   0.1443376   0.1400966), wk =   0.0312500
        k(    5) = (   0.0000000   0.2886751   0.0000000), wk =   0.0312500
        k(    6) = (   0.0000000   0.2886751   0.1400966), wk =   0.0312500
        k(    7) = (   0.0000000   0.4330127   0.0000000), wk =   0.0312500
        k(    8) = (   0.0000000   0.4330127   0.1400966), wk =   0.0312500
        k(    9) = (   0.0000000  -0.5773503   0.0000000), wk =   0.0156250
        k(   10) = (   0.0000000  -0.5773503   0.1400966), wk =   0.0312500
        k(   11) = (   0.1250000   0.2165064   0.0000000), wk =   0.0312500
        k(   12) = (   0.1250000   0.2165064   0.1400966), wk =   0.0625000
        k(   13) = (   0.1250000   0.3608439   0.0000000), wk =   0.0625000
        k(   14) = (   0.1250000   0.3608439   0.1400966), wk =   0.0625000
        k(   15) = (   0.1250000   0.5051815   0.0000000), wk =   0.0625000
        k(   16) = (   0.1250000   0.5051815   0.1400966), wk =   0.0625000
        k(   17) = (   0.2500000   0.4330127   0.0000000), wk =   0.0312500
        k(   18) = (   0.2500000   0.4330127   0.1400966), wk =   0.0625000
        k(   19) = (   0.2500000   0.5773503   0.0000000), wk =   0.0312500
        k(   20) = (   0.2500000   0.5773503   0.1400966), wk =   0.0625000
        k(   21) = (   0.0000000   0.1443376  -0.1400966), wk =   0.0312500
        k(   22) = (   0.0000000   0.2886751  -0.1400966), wk =   0.0312500
        k(   23) = (   0.0000000   0.4330127  -0.1400966), wk =   0.0312500
        k(   24) = (  -0.1250000   0.3608439  -0.1400966), wk =   0.0625000
        k(   25) = (  -0.1250000   0.5051815  -0.1400966), wk =   0.0625000

                       cryst. coord.
        k(    1) = (   0.0000000   0.0000000   0.0000000), wk =   0.0052083
        k(    2) = (   0.0000000   0.0000000   0.3333333), wk =   0.0104167
        k(    3) = (   0.0000000   0.1250000   0.0000000), wk =   0.0312500
        k(    4) = (   0.0000000   0.1250000   0.3333333), wk =   0.0312500
        k(    5) = (   0.0000000   0.2500000   0.0000000), wk =   0.0312500
        k(    6) = (   0.0000000   0.2500000   0.3333333), wk =   0.0312500
        k(    7) = (   0.0000000   0.3750000   0.0000000), wk =   0.0312500
        k(    8) = (   0.0000000   0.3750000   0.3333333), wk =   0.0312500
        k(    9) = (   0.0000000  -0.5000000   0.0000000), wk =   0.0156250
        k(   10) = (   0.0000000  -0.5000000   0.3333333), wk =   0.0312500
        k(   11) = (   0.1250000   0.1250000   0.0000000), wk =   0.0312500
        k(   12) = (   0.1250000   0.1250000   0.3333333), wk =   0.0625000
        k(   13) = (   0.1250000   0.2500000   0.0000000), wk =   0.0625000
        k(   14) = (   0.1250000   0.2500000   0.3333333), wk =   0.0625000
        k(   15) = (   0.1250000   0.3750000   0.0000000), wk =   0.0625000
        k(   16) = (   0.1250000   0.3750000   0.3333333), wk =   0.0625000
        k(   17) = (   0.2500000   0.2500000   0.0000000), wk =   0.0312500
        k(   18) = (   0.2500000   0.2500000   0.3333333), wk =   0.0625000
        k(   19) = (   0.2500000   0.3750000   0.0000000), wk =   0.0312500
        k(   20) = (   0.2500000   0.3750000   0.3333333), wk =   0.0625000
        k(   21) = (   0.0000000   0.1250000  -0.3333333), wk =   0.0312500
        k(   22) = (   0.0000000   0.2500000  -0.3333333), wk =   0.0312500
        k(   23) = (   0.0000000   0.3750000  -0.3333333), wk =   0.0312500
        k(   24) = (  -0.1250000   0.3750000  -0.3333333), wk =   0.0625000
        k(   25) = (  -0.1250000   0.5000000  -0.3333333), wk =   0.0625000

     Dense  grid:    60133 G-vectors     FFT dimensions: (  40,  40,  96)

     Smooth grid:    21263 G-vectors     FFT dimensions: (  27,  27,  72)

     Dynamical RAM for                 wfc:       1.10 MB

     Dynamical RAM for     wfc (w. buffer):      55.93 MB

     Dynamical RAM for           str. fact:       2.75 MB

     Dynamical RAM for           local pot:       0.00 MB

     Dynamical RAM for          nlocal pot:       2.11 MB

     Dynamical RAM for                qrad:       5.27 MB

     Dynamical RAM for          rho,v,vnew:      12.54 MB

     Dynamical RAM for               rhoin:       4.18 MB

     Dynamical RAM for            rho*nmix:      29.36 MB

     Dynamical RAM for           G-vectors:       3.60 MB

     Dynamical RAM for          h,s,v(r/c):       0.13 MB

     Dynamical RAM for          <psi|beta>:       0.02 MB

     Dynamical RAM for                 psi:       2.19 MB

     Dynamical RAM for                hpsi:       2.19 MB

     Dynamical RAM for                spsi:       2.19 MB

     Dynamical RAM for      wfcinit/wfcrot:       2.21 MB

     Dynamical RAM for           addusdens:     173.42 MB

     Dynamical RAM for          addusforce:     175.27 MB

     Estimated static dynamical RAM per process >      97.09 MB

     Estimated max dynamical RAM per process >     301.72 MB

     Check: negative core charge=   -0.000008
     Generating pointlists ...
     new r_m :   0.2745 (alat units)  1.5045 (a.u.) for type    1
     new r_m :   0.2745 (alat units)  1.5045 (a.u.) for type    2
     new r_m :   0.4125 (alat units)  2.2606 (a.u.) for type    3

     Initial potential from superposition of free atoms

     starting charge      37.9809, renormalised to      38.0000
     Starting wfcs are   26 randomized atomic wfcs +    1 random wfcs
     Checking if some PAW data can be deallocated... 

     total cpu time spent up to now is        3.9 secs

     Self-consistent Calculation
[tb_dev] Currently allocated     6.58E-01 Mbytes, locked:    0 /   6
[tb_pin] Currently allocated     0.00E+00 Mbytes, locked:    0 /   0

     iteration #  1     ecut=    60.00 Ry     beta= 0.30
     Davidson diagonalization with overlap

---- Real-time Memory Report at c_bands before calling an iterative solver
           690 MiB given to the printing process from OS
             0 MiB allocation reported by mallinfo(arena+hblkhd)
       1363118 MiB available memory on the node where the printing process lives
     GPU memory used/free/total (MiB): 1002 / 80148 / 81151
------------------
     ethr =  1.00E-02,  avg # of iterations =  8.7

     total cpu time spent up to now is        6.1 secs

     total energy              =    -572.85380949 Ry
     estimated scf accuracy    <       1.50738541 Ry

     total magnetization       =     4.00 Bohr mag/cell
     absolute magnetization    =     4.00 Bohr mag/cell
[tb_dev] Currently allocated     3.05E-05 Mbytes, locked:    0 /   2
[tb_pin] Currently allocated     0.00E+00 Mbytes, locked:    0 /   0

     iteration #  2     ecut=    60.00 Ry     beta= 0.30
     Davidson diagonalization with overlap

---- Real-time Memory Report at c_bands before calling an iterative solver
           733 MiB given to the printing process from OS
             0 MiB allocation reported by mallinfo(arena+hblkhd)
       1361816 MiB available memory on the node where the printing process lives
     GPU memory used/free/total (MiB): 1018 / 80132 / 81151
------------------
     ethr =  3.97E-03,  avg # of iterations =  2.0

     total cpu time spent up to now is        7.4 secs

     total energy              =    -572.79630479 Ry
     estimated scf accuracy    <       0.53655233 Ry

     total magnetization       =     4.05 Bohr mag/cell
     absolute magnetization    =     4.05 Bohr mag/cell
[tb_dev] Currently allocated     3.05E-05 Mbytes, locked:    0 /   2
[tb_pin] Currently allocated     0.00E+00 Mbytes, locked:    0 /   0

     iteration #  3     ecut=    60.00 Ry     beta= 0.30
     Davidson diagonalization with overlap

---- Real-time Memory Report at c_bands before calling an iterative solver
           736 MiB given to the printing process from OS
             0 MiB allocation reported by mallinfo(arena+hblkhd)
       1360763 MiB available memory on the node where the printing process lives
     GPU memory used/free/total (MiB): 1018 / 80132 / 81151
------------------
     ethr =  1.41E-03,  avg # of iterations =  3.3

     total cpu time spent up to now is        8.9 secs

     total energy              =    -573.04930143 Ry
     estimated scf accuracy    <       1.09904030 Ry

     total magnetization       =     1.51 Bohr mag/cell
     absolute magnetization    =     1.59 Bohr mag/cell
[tb_dev] Currently allocated     3.05E-05 Mbytes, locked:    0 /   2
[tb_pin] Currently allocated     0.00E+00 Mbytes, locked:    0 /   0

     iteration #  4     ecut=    60.00 Ry     beta= 0.30
     Davidson diagonalization with overlap

---- Real-time Memory Report at c_bands before calling an iterative solver
           737 MiB given to the printing process from OS
             0 MiB allocation reported by mallinfo(arena+hblkhd)
       1359521 MiB available memory on the node where the printing process lives
     GPU memory used/free/total (MiB): 1018 / 80132 / 81151
------------------
     ethr =  1.41E-03,  avg # of iterations =  1.5

     total cpu time spent up to now is       10.1 secs

     total energy              =    -573.09021758 Ry
     estimated scf accuracy    <       1.83562839 Ry

     total magnetization       =     1.10 Bohr mag/cell
     absolute magnetization    =     1.30 Bohr mag/cell
[tb_dev] Currently allocated     3.05E-05 Mbytes, locked:    0 /   2
[tb_pin] Currently allocated     0.00E+00 Mbytes, locked:    0 /   0

     iteration #  5     ecut=    60.00 Ry     beta= 0.30
     Davidson diagonalization with overlap

---- Real-time Memory Report at c_bands before calling an iterative solver
           737 MiB given to the printing process from OS
             0 MiB allocation reported by mallinfo(arena+hblkhd)
       1358328 MiB available memory on the node where the printing process lives
     GPU memory used/free/total (MiB): 1018 / 80132 / 81151
------------------
     ethr =  1.41E-03,  avg # of iterations =  1.2

     total cpu time spent up to now is       11.4 secs

     total energy              =    -572.94313834 Ry
     estimated scf accuracy    <       1.72453441 Ry

     total magnetization       =     0.68 Bohr mag/cell
     absolute magnetization    =     1.14 Bohr mag/cell
[tb_dev] Currently allocated     3.05E-05 Mbytes, locked:    0 /   2
[tb_pin] Currently allocated     0.00E+00 Mbytes, locked:    0 /   0

     iteration #  6     ecut=    60.00 Ry     beta= 0.30
     Davidson diagonalization with overlap

---- Real-time Memory Report at c_bands before calling an iterative solver
           740 MiB given to the printing process from OS
             0 MiB allocation reported by mallinfo(arena+hblkhd)
       1357362 MiB available memory on the node where the printing process lives
     GPU memory used/free/total (MiB): 1018 / 80132 / 81151
------------------
     ethr =  1.41E-03,  avg # of iterations =  2.0

     total cpu time spent up to now is       12.7 secs

     total energy              =    -573.01355889 Ry
     estimated scf accuracy    <       0.34060984 Ry

     total magnetization       =     0.18 Bohr mag/cell
     absolute magnetization    =     0.73 Bohr mag/cell
[tb_dev] Currently allocated     3.05E-05 Mbytes, locked:    0 /   2
[tb_pin] Currently allocated     0.00E+00 Mbytes, locked:    0 /   0

     iteration #  7     ecut=    60.00 Ry     beta= 0.30
     Davidson diagonalization with overlap

---- Real-time Memory Report at c_bands before calling an iterative solver
           740 MiB given to the printing process from OS
             0 MiB allocation reported by mallinfo(arena+hblkhd)
       1356294 MiB available memory on the node where the printing process lives
     GPU memory used/free/total (MiB): 1018 / 80132 / 81151
------------------
     ethr =  8.96E-04,  avg # of iterations =  1.7

     total cpu time spent up to now is       14.0 secs

     total energy              =    -573.02752773 Ry
     estimated scf accuracy    <       0.18953731 Ry

     total magnetization       =     0.05 Bohr mag/cell
     absolute magnetization    =     0.54 Bohr mag/cell
[tb_dev] Currently allocated     3.05E-05 Mbytes, locked:    0 /   2
[tb_pin] Currently allocated     0.00E+00 Mbytes, locked:    0 /   0

     iteration #  8     ecut=    60.00 Ry     beta= 0.30
     Davidson diagonalization with overlap

---- Real-time Memory Report at c_bands before calling an iterative solver
           742 MiB given to the printing process from OS
             0 MiB allocation reported by mallinfo(arena+hblkhd)
       1355378 MiB available memory on the node where the printing process lives
     GPU memory used/free/total (MiB): 1018 / 80132 / 81151
------------------
     ethr =  4.99E-04,  avg # of iterations =  3.0

     total cpu time spent up to now is       15.4 secs

     total energy              =    -572.98785986 Ry
     estimated scf accuracy    <       0.10286730 Ry

     total magnetization       =    -0.00 Bohr mag/cell
     absolute magnetization    =     0.17 Bohr mag/cell
[tb_dev] Currently allocated     3.05E-05 Mbytes, locked:    0 /   2
[tb_pin] Currently allocated     0.00E+00 Mbytes, locked:    0 /   0

     iteration #  9     ecut=    60.00 Ry     beta= 0.30
     Davidson diagonalization with overlap

---- Real-time Memory Report at c_bands before calling an iterative solver
           744 MiB given to the printing process from OS
             0 MiB allocation reported by mallinfo(arena+hblkhd)
       1353736 MiB available memory on the node where the printing process lives
     GPU memory used/free/total (MiB): 1018 / 80132 / 81151
------------------
     ethr =  2.71E-04,  avg # of iterations =  4.3

     total cpu time spent up to now is       17.0 secs

     total energy              =    -573.01991312 Ry
     estimated scf accuracy    <       0.06957313 Ry

     total magnetization       =    -0.16 Bohr mag/cell
     absolute magnetization    =     0.23 Bohr mag/cell
[tb_dev] Currently allocated     3.05E-05 Mbytes, locked:    0 /   2
[tb_pin] Currently allocated     0.00E+00 Mbytes, locked:    0 /   0

     iteration # 10     ecut=    60.00 Ry     beta= 0.30
     Davidson diagonalization with overlap

---- Real-time Memory Report at c_bands before calling an iterative solver
           746 MiB given to the printing process from OS
             0 MiB allocation reported by mallinfo(arena+hblkhd)
       1352585 MiB available memory on the node where the printing process lives
     GPU memory used/free/total (MiB): 1018 / 80132 / 81151
------------------
     ethr =  1.83E-04,  avg # of iterations =  1.6
     Minimization algorithm failed to find Fermi energy: reverting to bisection
     Possible cause: smearing is larger than the electronic band-gap.

     total cpu time spent up to now is       18.3 secs

     total energy              =    -573.02685478 Ry
     estimated scf accuracy    <       0.00837386 Ry

     total magnetization       =    -0.07 Bohr mag/cell
     absolute magnetization    =     0.08 Bohr mag/cell
[tb_dev] Currently allocated     3.05E-05 Mbytes, locked:    0 /   2
[tb_pin] Currently allocated     0.00E+00 Mbytes, locked:    0 /   0

     iteration # 11     ecut=    60.00 Ry     beta= 0.30
     Davidson diagonalization with overlap

---- Real-time Memory Report at c_bands before calling an iterative solver
           746 MiB given to the printing process from OS
             0 MiB allocation reported by mallinfo(arena+hblkhd)
       1350436 MiB available memory on the node where the printing process lives
     GPU memory used/free/total (MiB): 1018 / 80132 / 81151
------------------
     c_bands:  1 eigenvalues not converged
     c_bands:  1 eigenvalues not converged
     c_bands:  2 eigenvalues not converged
     ethr =  2.20E-05,  avg # of iterations = 12.9
     Minimization algorithm failed to find Fermi energy: reverting to bisection
     Possible cause: smearing is larger than the electronic band-gap.

     total cpu time spent up to now is       21.0 secs

     total energy              =    -573.02783179 Ry
     estimated scf accuracy    <       0.00525801 Ry

     total magnetization       =    -0.12 Bohr mag/cell
     absolute magnetization    =     0.13 Bohr mag/cell
[tb_dev] Currently allocated     3.05E-05 Mbytes, locked:    0 /   2
[tb_pin] Currently allocated     0.00E+00 Mbytes, locked:    0 /   0

     iteration # 12     ecut=    60.00 Ry     beta= 0.30
     Davidson diagonalization with overlap

---- Real-time Memory Report at c_bands before calling an iterative solver
           746 MiB given to the printing process from OS
             0 MiB allocation reported by mallinfo(arena+hblkhd)
       1345756 MiB available memory on the node where the printing process lives
     GPU memory used/free/total (MiB): 1018 / 80132 / 81151
------------------
     ethr =  1.38E-05,  avg # of iterations =  1.9
     Minimization algorithm failed to find Fermi energy: reverting to bisection
     Possible cause: smearing is larger than the electronic band-gap.

     total cpu time spent up to now is       22.4 secs

     total energy              =    -573.02764985 Ry
     estimated scf accuracy    <       0.00467366 Ry

     total magnetization       =    -0.15 Bohr mag/cell
     absolute magnetization    =     0.16 Bohr mag/cell
[tb_dev] Currently allocated     3.05E-05 Mbytes, locked:    0 /   2
[tb_pin] Currently allocated     0.00E+00 Mbytes, locked:    0 /   0

     iteration # 13     ecut=    60.00 Ry     beta= 0.30
     Davidson diagonalization with overlap

---- Real-time Memory Report at c_bands before calling an iterative solver
           746 MiB given to the printing process from OS
             0 MiB allocation reported by mallinfo(arena+hblkhd)
       1343781 MiB available memory on the node where the printing process lives
     GPU memory used/free/total (MiB): 1018 / 80132 / 81151
------------------
     ethr =  1.23E-05,  avg # of iterations =  1.4
     Minimization algorithm failed to find Fermi energy: reverting to bisection
     Possible cause: smearing is larger than the electronic band-gap.

     total cpu time spent up to now is       23.6 secs

     total energy              =    -573.02769947 Ry
     estimated scf accuracy    <       0.00192561 Ry

     total magnetization       =    -0.19 Bohr mag/cell
     absolute magnetization    =     0.19 Bohr mag/cell
[tb_dev] Currently allocated     3.05E-05 Mbytes, locked:    0 /   2
[tb_pin] Currently allocated     0.00E+00 Mbytes, locked:    0 /   0

     iteration # 14     ecut=    60.00 Ry     beta= 0.30
     Davidson diagonalization with overlap

---- Real-time Memory Report at c_bands before calling an iterative solver
           746 MiB given to the printing process from OS
             0 MiB allocation reported by mallinfo(arena+hblkhd)
       1360951 MiB available memory on the node where the printing process lives
     GPU memory used/free/total (MiB): 1018 / 80132 / 81151
------------------
     c_bands:  1 eigenvalues not converged
     c_bands:  1 eigenvalues not converged
     ethr =  5.07E-06,  avg # of iterations =  3.0
     Minimization algorithm failed to find Fermi energy: reverting to bisection
     Possible cause: smearing is larger than the electronic band-gap.

     total cpu time spent up to now is       25.1 secs

     total energy              =    -573.02770904 Ry
     estimated scf accuracy    <       0.00093580 Ry

     total magnetization       =    -0.19 Bohr mag/cell
     absolute magnetization    =     0.20 Bohr mag/cell
[tb_dev] Currently allocated     3.05E-05 Mbytes, locked:    0 /   2
[tb_pin] Currently allocated     0.00E+00 Mbytes, locked:    0 /   0

     iteration # 15     ecut=    60.00 Ry     beta= 0.30
     Davidson diagonalization with overlap

---- Real-time Memory Report at c_bands before calling an iterative solver
           746 MiB given to the printing process from OS
             0 MiB allocation reported by mallinfo(arena+hblkhd)
       1360478 MiB available memory on the node where the printing process lives
     GPU memory used/free/total (MiB): 1018 / 80132 / 81151
------------------
     c_bands:  1 eigenvalues not converged
     c_bands:  1 eigenvalues not converged
     c_bands:  1 eigenvalues not converged
     c_bands:  1 eigenvalues not converged
     ethr =  2.46E-06,  avg # of iterations =  4.6
     Minimization algorithm failed to find Fermi energy: reverting to bisection
     Possible cause: smearing is larger than the electronic band-gap.

     total cpu time spent up to now is       26.7 secs

     total energy              =    -573.02770355 Ry
     estimated scf accuracy    <       0.00039972 Ry

     total magnetization       =    -0.20 Bohr mag/cell
     absolute magnetization    =     0.20 Bohr mag/cell
[tb_dev] Currently allocated     3.05E-05 Mbytes, locked:    0 /   2
[tb_pin] Currently allocated     0.00E+00 Mbytes, locked:    0 /   0

     iteration # 16     ecut=    60.00 Ry     beta= 0.30
     Davidson diagonalization with overlap

---- Real-time Memory Report at c_bands before calling an iterative solver
           746 MiB given to the printing process from OS
             0 MiB allocation reported by mallinfo(arena+hblkhd)
       1359207 MiB available memory on the node where the printing process lives
     GPU memory used/free/total (MiB): 1018 / 80132 / 81151
------------------
     c_bands:  1 eigenvalues not converged
     ethr =  1.05E-06,  avg # of iterations =  4.0
     Minimization algorithm failed to find Fermi energy: reverting to bisection
     Possible cause: smearing is larger than the electronic band-gap.

     total cpu time spent up to now is       28.3 secs

     total energy              =    -573.02767861 Ry
     estimated scf accuracy    <       0.00013529 Ry

     total magnetization       =    -0.20 Bohr mag/cell
     absolute magnetization    =     0.21 Bohr mag/cell
[tb_dev] Currently allocated     3.05E-05 Mbytes, locked:    0 /   2
[tb_pin] Currently allocated     0.00E+00 Mbytes, locked:    0 /   0

     iteration # 17     ecut=    60.00 Ry     beta= 0.30
     Davidson diagonalization with overlap

---- Real-time Memory Report at c_bands before calling an iterative solver
           746 MiB given to the printing process from OS
             0 MiB allocation reported by mallinfo(arena+hblkhd)
       1357522 MiB available memory on the node where the printing process lives
     GPU memory used/free/total (MiB): 1018 / 80132 / 81151
------------------
     c_bands:  1 eigenvalues not converged
     ethr =  3.56E-07,  avg # of iterations =  4.3

     total cpu time spent up to now is       29.9 secs

     total energy              =    -573.02771952 Ry
     estimated scf accuracy    <       0.00010662 Ry

     total magnetization       =    -0.20 Bohr mag/cell
     absolute magnetization    =     0.22 Bohr mag/cell
[tb_dev] Currently allocated     3.05E-05 Mbytes, locked:    0 /   2
[tb_pin] Currently allocated     0.00E+00 Mbytes, locked:    0 /   0

     iteration # 18     ecut=    60.00 Ry     beta= 0.30
     Davidson diagonalization with overlap

---- Real-time Memory Report at c_bands before calling an iterative solver
           746 MiB given to the printing process from OS
             0 MiB allocation reported by mallinfo(arena+hblkhd)
       1356443 MiB available memory on the node where the printing process lives
     GPU memory used/free/total (MiB): 1018 / 80132 / 81151
------------------
     ethr =  2.81E-07,  avg # of iterations =  1.6

     total cpu time spent up to now is       31.3 secs

     total energy              =    -573.02774132 Ry
     estimated scf accuracy    <       0.00001075 Ry

     total magnetization       =    -0.20 Bohr mag/cell
     absolute magnetization    =     0.21 Bohr mag/cell
[tb_dev] Currently allocated     3.05E-05 Mbytes, locked:    0 /   2
[tb_pin] Currently allocated     0.00E+00 Mbytes, locked:    0 /   0

     iteration # 19     ecut=    60.00 Ry     beta= 0.30
     Davidson diagonalization with overlap

---- Real-time Memory Report at c_bands before calling an iterative solver
           746 MiB given to the printing process from OS
             0 MiB allocation reported by mallinfo(arena+hblkhd)
       1355209 MiB available memory on the node where the printing process lives
     GPU memory used/free/total (MiB): 1018 / 80132 / 81151
------------------
     ethr =  2.83E-08,  avg # of iterations =  6.2

     total cpu time spent up to now is       33.1 secs

     total energy              =    -573.02774827 Ry
     estimated scf accuracy    <       0.00000090 Ry

     total magnetization       =    -0.20 Bohr mag/cell
     absolute magnetization    =     0.21 Bohr mag/cell
[tb_dev] Currently allocated     3.05E-05 Mbytes, locked:    0 /   2
[tb_pin] Currently allocated     0.00E+00 Mbytes, locked:    0 /   0

     iteration # 20     ecut=    60.00 Ry     beta= 0.30
     Davidson diagonalization with overlap

---- Real-time Memory Report at c_bands before calling an iterative solver
           746 MiB given to the printing process from OS
             0 MiB allocation reported by mallinfo(arena+hblkhd)
       1353841 MiB available memory on the node where the printing process lives
     GPU memory used/free/total (MiB): 1018 / 80132 / 81151
------------------
     ethr =  2.36E-09,  avg # of iterations =  4.6

     total cpu time spent up to now is       34.8 secs

     total energy              =    -573.02774870 Ry
     estimated scf accuracy    <       0.00000055 Ry

     total magnetization       =    -0.20 Bohr mag/cell
     absolute magnetization    =     0.21 Bohr mag/cell
[tb_dev] Currently allocated     3.05E-05 Mbytes, locked:    0 /   2
[tb_pin] Currently allocated     0.00E+00 Mbytes, locked:    0 /   0

     iteration # 21     ecut=    60.00 Ry     beta= 0.30
     Davidson diagonalization with overlap

---- Real-time Memory Report at c_bands before calling an iterative solver
           746 MiB given to the printing process from OS
             0 MiB allocation reported by mallinfo(arena+hblkhd)
       1353061 MiB available memory on the node where the printing process lives
     GPU memory used/free/total (MiB): 1018 / 80132 / 81151
------------------
     ethr =  1.45E-09,  avg # of iterations =  2.2
 
     Magnetic moment per site  (integrated on atomic sphere of radius R)
     atom   1 (R=0.275)  charge= 14.1683  magn= -0.1639
     atom   2 (R=0.275)  charge=  5.2757  magn= -0.0101
     atom   3 (R=0.275)  charge=  5.2757  magn= -0.0101
     atom   4 (R=0.413)  charge=  7.7482  magn=  0.0012

     total cpu time spent up to now is       36.1 secs

     End of self-consistent calculation

 ------ SPIN UP ------------


          k = 0.0000 0.0000 0.0000 (  2625 PWs)   bands (ev):

   -84.0744 -47.3419 -47.3419 -47.2848 -23.2342  -8.8812  -7.4085  -5.9307
    -5.2608  -5.2608   4.5766   5.7241   5.7241   8.0716   8.8733   8.8733
     9.8790   9.8790  10.4023  11.4206  13.2021  13.2021  14.6702  15.2345
    15.2345  17.4293  18.8260

     occupation numbers 
     1.0000   1.0000   1.0000   1.0000   1.0000   1.0000   1.0000   1.0000
     1.0000   1.0000   1.0000   1.0000   1.0000   1.0000   1.0000   1.0000
     1.0000   1.0000   1.0360   0.0017   0.0000   0.0000   0.0000   0.0000
     0.0000   0.0000   0.0000

          k = 0.0000 0.0000 0.1401 (  2690 PWs)   bands (ev):

   -84.0745 -47.3422 -47.3422 -47.2851 -23.2342  -8.9375  -7.2173  -6.0870
    -5.2609  -5.2609   4.7952   5.7257   5.7257   7.5892   8.8662   8.8662
     9.8798   9.8798  10.8065  11.2919  13.2191  13.2191  15.1892  15.2204
    15.2204  16.5670  18.8219

     occupation numbers 
     1.0000   1.0000   1.0000   1.0000   1.0000   1.0000   1.0000   1.0000
     1.0000   1.0000   1.0000   1.0000   1.0000   1.0000   1.0000   1.0000
     1.0000   1.0000   0.8186   0.0136   0.0000   0.0000   0.0000   0.0000
     0.0000   0.0000   0.0000

          k = 0.0000 0.1443 0.0000 (  2661 PWs)   bands (ev):

   -84.0737 -47.3503 -47.3440 -47.2837 -23.1478  -8.7160  -7.3576  -5.9029
    -5.6962  -5.3509   4.8066   5.4536   5.8186   7.8677   8.3793   8.4176
    10.1006  10.2522  10.7134  11.8133  12.7518  13.1085  14.6368  15.1447
    15.7802  16.5526  18.6318

     occupation numbers 
     1.0000   1.0000   1.0000   1.0000   1.0000   1.0000   1.0000   1.0000
     1.0000   1.0000   1.0000   1.0000   1.0000   1.0000   1.0000   1.0000
     1.0007   1.0070   0.9990   0.0000   0.0000   0.0000   0.0000   0.0000
     0.0000   0.0000   0.0000

          k = 0.0000 0.1443 0.1401 (  2670 PWs)   bands (ev):

   -84.0737 -47.3503 -47.3441 -47.2838 -23.1478  -8.7676  -7.1987  -6.0298
    -5.6916  -5.3510   4.9717   5.4075   5.8208   7.9061   8.0717   8.4121
    10.0915  10.2510  10.9597  11.7374  12.7398  13.1178  14.6155  15.5355
    15.7782  16.2280  18.7905

     occupation numbers 
     1.0000   1.0000   1.0000   1.0000   1.0000   1.0000   1.0000   1.0000
     1.0000   1.0000   1.0000   1.0000   1.0000   1.0000   1.0000   1.0000
     1.0006   1.0069   0.4096   0.0000   0.0000   0.0000   0.0000   0.0000
     0.0000   0.0000   0.0000

          k = 0.0000 0.2887 0.0000 (  2664 PWs)   bands (ev):

   -84.0720 -47.3701 -47.3488 -47.2808 -22.9309  -8.2880  -7.2548  -6.6543
    -5.8230  -5.5605   5.0229   5.3511   6.0434   6.4327   7.8165   8.5170
    10.1724  10.5685  10.8755  12.0771  12.3377  12.9809  14.7083  15.0708
    16.0824  17.2906  18.2086

     occupation numbers 
     1.0000   1.0000   1.0000   1.0000   1.0000   1.0000   1.0000   1.0000
     1.0000   1.0000   1.0000   1.0000   1.0000   1.0000   1.0000   1.0000
     1.0022   1.0830   0.6374   0.0000   0.0000   0.0000   0.0000   0.0000
     0.0000   0.0000   0.0000

          k = 0.0000 0.2887 0.1401 (  2656 PWs)   bands (ev):

   -84.0720 -47.3700 -47.3488 -47.2808 -22.9308  -8.3233  -7.1882  -6.6291
    -5.8841  -5.5605   4.9555   5.4256   6.0470   6.4958   7.8100   8.4549
    10.1833  10.5659  10.9324  11.7770  12.5361  12.9923  14.7213  14.9008
    16.3908  17.2953  18.1951

     occupation numbers 
     1.0000   1.0000   1.0000   1.0000   1.0000   1.0000   1.0000   1.0000
     1.0000   1.0000   1.0000   1.0000   1.0000   1.0000   1.0000   1.0000
     1.0026   1.0828   0.4811   0.0000   0.0000   0.0000   0.0000   0.0000
     0.0000   0.0000   0.0000

          k = 0.0000 0.4330 0.0000 (  2668 PWs)   bands (ev):

   -84.0703 -47.3898 -47.3536 -47.2778 -22.7004  -7.8634  -7.4648  -7.1822
    -5.7600  -5.7207   4.4149   5.4198   6.2293   6.3605   7.4928   8.0161
    10.0708  10.5137  10.7436  11.4825  12.2446  13.0030  14.0176  16.7107
    16.9387  17.8356  19.2743

     occupation numbers 
     1.0000   1.0000   1.0000   1.0000   1.0000   1.0000   1.0000   1.0000
     1.0000   1.0000   1.0000   1.0000   1.0000   1.0000   1.0000   1.0000
     1.0004   1.0726   0.9512   0.0005   0.0000   0.0000   0.0000   0.0000
     0.0000   0.0000   0.0000

          k = 0.0000 0.4330 0.1401 (  2668 PWs)   bands (ev):

   -84.0703 -47.3898 -47.3536 -47.2778 -22.7004  -7.8613  -7.5119  -7.1258
    -5.7600  -5.7331   4.4676   5.3302   6.2363   6.4564   7.4811   7.8960
    10.1373  10.5125  10.7234  11.4253  12.4383  13.0233  13.8761  16.7776
    16.8009  17.8025  19.2781

     occupation numbers 
     1.0000   1.0000   1.0000   1.0000   1.0000   1.0000   1.0000   1.0000
     1.0000   1.0000   1.0000   1.0000   1.0000   1.0000   1.0000   1.0000
     1.0013   1.0723   0.9844   0.0016   0.0000   0.0000   0.0000   0.0000
     0.0000   0.0000   0.0000

          k = 0.0000-0.5774 0.0000 (  2658 PWs)   bands (ev):

   -84.0695 -47.3980 -47.3555 -47.2765 -22.6004  -7.9941  -7.3131  -7.3052
    -5.8399  -5.6699   4.0003   5.4974   6.2740   6.5834   7.4370   7.7239
     9.9459  10.4160  10.6496  11.1601  12.3071  13.0462  13.7092  17.2236
    17.6940  17.9171  20.5681

     occupation numbers 
     1.0000   1.0000   1.0000   1.0000   1.0000   1.0000   1.0000   1.0000
     1.0000   1.0000   1.0000   1.0000   1.0000   1.0000   1.0000   1.0000
     1.0000   1.0402   1.0628   0.0731   0.0000   0.0000   0.0000   0.0000
     0.0000   0.0000   0.0000

          k = 0.0000-0.5774 0.1401 (  2664 PWs)   bands (ev):

   -84.0695 -47.3980 -47.3555 -47.2765 -22.6004  -7.9871  -7.3728  -7.2563
    -5.8399  -5.6659   4.0586   5.3996   6.2812   6.7275   7.4247   7.5047
    10.0196  10.4162  10.6681  11.1953  12.5207  13.0682  13.5512  16.8533
    17.6532  17.8740  21.2719

     occupation numbers 
     1.0000   1.0000   1.0000   1.0000   1.0000   1.0000   1.0000   1.0000
     1.0000   1.0000   1.0000   1.0000   1.0000   1.0000   1.0000   1.0000
     1.0001   1.0403   1.0493   0.0487   0.0000   0.0000   0.0000   0.0000
     0.0000   0.0000   0.0000

          k = 0.1250 0.2165 0.0000 (  2673 PWs)   bands (ev):

   -84.0725 -47.3634 -47.3483 -47.2817 -22.9958  -8.4188  -7.2795  -6.3371
    -5.8486  -5.5584   5.1781   5.1945   5.9264   6.9086   7.7317   8.5901
    10.2564  10.5269  10.8789  12.3919  12.5190  12.9904  13.8372  15.5201
    15.8169  17.0227  18.0974

     occupation numbers 
     1.0000   1.0000   1.0000   1.0000   1.0000   1.0000   1.0000   1.0000
     1.0000   1.0000   1.0000   1.0000   1.0000   1.0000   1.0000   1.0000
     1.0074   1.0762   0.6281   0.0000   0.0000   0.0000   0.0000   0.0000
     0.0000   0.0000   0.0000

          k = 0.1250 0.2165 0.1401 (  2654 PWs)   bands (ev):

   -84.0725 -47.3633 -47.3483 -47.2816 -22.9958  -8.4585  -7.1864  -6.3194
    -5.9251  -5.5591   5.0856   5.2946   5.9282   6.9755   7.7364   8.5233
    10.2551  10.5046  10.9390  12.1550  12.7271  12.9432  13.8392  15.2781
    16.1427  17.0200  18.1131

     occupation numbers 
     1.0000   1.0000   1.0000   1.0000   1.0000   1.0000   1.0000   1.0000
     1.0000   1.0000   1.0000   1.0000   1.0000   1.0000   1.0000   1.0000
     1.0073   1.0699   0.4634   0.0000   0.0000   0.0000   0.0000   0.0000
     0.0000   0.0000   0.0000

          k = 0.1250 0.3608 0.0000 (  2648 PWs)   bands (ev):

   -84.0707 -47.3810 -47.3550 -47.2786 -22.7700  -7.9660  -7.2205  -7.1082
    -5.8802  -5.7504   4.8802   5.3468   6.1084   6.2931   7.2216   8.2997
    10.2773  10.6265  10.7734  12.1900  12.5448  12.7731  14.4467  14.8444
    16.6091  17.3140  19.1250

     occupation numbers 
     1.0000   1.0000   1.0000   1.0000   1.0000   1.0000   1.0000   1.0000
     1.0000   1.0000   1.0000   1.0000   1.0000   1.0000   1.0000   1.0000
     1.0097   1.0745   0.8937   0.0000   0.0000   0.0000   0.0000   0.0000
     0.0000   0.0000   0.0000

          k = 0.1250 0.3608 0.1401 (  2658 PWs)   bands (ev):

   -84.0707 -47.3811 -47.3551 -47.2787 -22.7699  -7.9759  -7.2997  -6.9949
    -5.8803  -5.7754   4.8714   5.3202   6.1065   6.3628   7.2146   8.3022
    10.2907  10.6377  10.7594  12.0324  12.5721  12.8178  14.4506  14.8334
    16.6034  17.3797  19.1339

     occupation numbers 
     1.0000   1.0000   1.0000   1.0000   1.0000   1.0000   1.0000   1.0000
     1.0000   1.0000   1.0000   1.0000   1.0000   1.0000   1.0000   1.0000
     1.0114   1.0695   0.9220   0.0000   0.0000   0.0000   0.0000   0.0000
     0.0000   0.0000   0.0000

          k = 0.1250 0.5052 0.0000 (  2661 PWs)   bands (ev):

   -84.0695 -47.3935 -47.3599 -47.2765 -22.6016  -7.8367  -7.3857  -7.2080
    -6.0960  -5.6663   4.2929   5.3197   6.3285   6.5528   7.0513   7.7639
    10.1268  10.4844  10.7004  11.8273  12.4873  12.7882  13.8514  16.5825
    16.8948  17.1653  20.8194

     occupation numbers 
     1.0000   1.0000   1.0000   1.0000   1.0000   1.0000   1.0000   1.0000
     1.0000   1.0000   1.0000   1.0000   1.0000   1.0000   1.0000   1.0000
     1.0011   1.0634   1.0160   0.0000   0.0000   0.0000   0.0000   0.0000
     0.0000   0.0000   0.0000

          k = 0.1250 0.5052 0.1401 (  2664 PWs)   bands (ev):

   -84.0695 -47.3935 -47.3599 -47.2766 -22.6016  -7.8297  -7.4183  -7.1820
    -6.0963  -5.6673   4.3561   5.2715   6.2975   6.6555   7.0302   7.6172
    10.1816  10.4749  10.7168  11.8484  12.5662  12.7091  13.9170  16.4730
    16.8310  17.1505  20.7901

     occupation numbers 
     1.0000   1.0000   1.0000   1.0000   1.0000   1.0000   1.0000   1.0000
     1.0000   1.0000   1.0000   1.0000   1.0000   1.0000   1.0000   1.0000
     1.0026   1.0602   0.9942   0.0000   0.0000   0.0000   0.0000   0.0000
     0.0000   0.0000   0.0000

          k = 0.2500 0.4330 0.0000 (  2661 PWs)   bands (ev):

   -84.0695 -47.3874 -47.3661 -47.2765 -22.6028  -7.6864  -7.2845  -7.1980
    -6.4302  -5.6627   4.8799   5.0004   5.9906   6.6407   6.8164   7.8236
    10.2797  10.5280  10.7722  12.4030  12.4836  13.3479  14.2106  14.9107
    15.9490  17.1126  21.2837

     occupation numbers 
     1.0000   1.0000   1.0000   1.0000   1.0000   1.0000   1.0000   1.0000
     1.0000   1.0000   1.0000   1.0000   1.0000   1.0000   1.0000   1.0000
     1.0100   1.0764   0.8962   0.0000   0.0000   0.0000   0.0000   0.0000
     0.0000   0.0000   0.0000

          k = 0.2500 0.4330 0.1401 (  2664 PWs)   bands (ev):

   -84.0695 -47.3874 -47.3660 -47.2766 -22.6028  -7.6251  -7.4594  -7.0766
    -6.4359  -5.6651   4.9058   5.0102   6.0190   6.5975   6.7734   7.8432
    10.2728  10.5197  10.8230  12.2117  12.4846  13.3945  14.3509  14.8482
    16.0336  17.0271  21.3181

     occupation numbers 
     1.0000   1.0000   1.0000   1.0000   1.0000   1.0000   1.0000   1.0000
     1.0000   1.0000   1.0000   1.0000   1.0000   1.0000   1.0000   1.0000
     1.0092   1.0743   0.7778   0.0000   0.0000   0.0000   0.0000   0.0000
     0.0000   0.0000   0.0000

          k = 0.2500 0.5774 0.0000 (  2661 PWs)   bands (ev):

   -84.0690 -47.3879 -47.3727 -47.2756 -22.5317  -7.5957  -7.2727  -7.1745
    -6.7292  -5.6207   4.6982   5.1300   5.7117   6.7986   6.9954   7.4222
    10.1071  10.6495  10.7518  12.4180  12.4837  13.5164  14.1888  15.1631
    15.6356  17.2710  22.1773

     occupation numbers 
     1.0000   1.0000   1.0000   1.0000   1.0000   1.0000   1.0000   1.0000
     1.0000   1.0000   1.0000   1.0000   1.0000   1.0000   1.0000   1.0000
     1.0008   1.0629   0.9364   0.0000   0.0000   0.0000   0.0000   0.0000
     0.0000   0.0000   0.0000

          k = 0.2500 0.5774 0.1401 (  2673 PWs)   bands (ev):

   -84.0690 -47.3879 -47.3728 -47.2758 -22.5317  -7.5810  -7.3187  -7.1393
    -6.7347  -5.6209   4.7470   5.1459   5.7649   6.7153   6.9956   7.3379
    10.1255  10.6380  10.7990  12.2877  12.4185  13.4990  14.3936  15.2018
    15.7159  17.1762  22.2120

     occupation numbers 
     1.0000   1.0000   1.0000   1.0000   1.0000   1.0000   1.0000   1.0000
     1.0000   1.0000   1.0000   1.0000   1.0000   1.0000   1.0000   1.0000
     1.0010   1.0694   0.8367   0.0000   0.0000   0.0000   0.0000   0.0000
     0.0000   0.0000   0.0000

          k = 0.0000 0.1443-0.1401 (  2670 PWs)   bands (ev):

   -84.0737 -47.3503 -47.3441 -47.2838 -23.1478  -8.7673  -7.2002  -6.0297
    -5.6901  -5.3509   4.9726   5.3980   5.8194   7.8357   8.1668   8.4162
    10.0852  10.2498  10.9347  11.7754  12.7336  13.1191  14.6284  15.4462
    15.7693  16.2385  18.8921

     occupation numbers 
     1.0000   1.0000   1.0000   1.0000   1.0000   1.0000   1.0000   1.0000
     1.0000   1.0000   1.0000   1.0000   1.0000   1.0000   1.0000   1.0000
     1.0005   1.0068   0.4749   0.0000   0.0000   0.0000   0.0000   0.0000
     0.0000   0.0000   0.0000

          k = 0.0000 0.2887-0.1401 (  2656 PWs)   bands (ev):

   -84.0720 -47.3700 -47.3488 -47.2807 -22.9308  -8.3176  -7.2126  -6.6128
    -5.8794  -5.5605   4.9552   5.3449   6.0434   6.5459   7.8174   8.5597
    10.1590  10.5655  10.8698  11.9249  12.4366  12.9862  14.6702  14.9819
    16.1036  17.2882  18.2013

     occupation numbers 
     1.0000   1.0000   1.0000   1.0000   1.0000   1.0000   1.0000   1.0000
     1.0000   1.0000   1.0000   1.0000   1.0000   1.0000   1.0000   1.0000
     1.0018   1.0828   0.6532   0.0000   0.0000   0.0000   0.0000   0.0000
     0.0000   0.0000   0.0000

          k = 0.0000 0.4330-0.1401 (  2668 PWs)   bands (ev):

   -84.0702 -47.3898 -47.3536 -47.2778 -22.7004  -7.7686  -7.6554  -7.0792
    -5.7600  -5.7255   4.4145   5.3382   6.2318   6.4180   7.4889   8.0734
    10.0877  10.5116  10.7247  11.5383  12.2269  13.0167  13.9795  16.4366
    16.8550  17.8093  19.2746

     occupation numbers 
     1.0000   1.0000   1.0000   1.0000   1.0000   1.0000   1.0000   1.0000
     1.0000   1.0000   1.0000   1.0000   1.0000   1.0000   1.0000   1.0000
     1.0005   1.0720   0.9825   0.0002   0.0000   0.0000   0.0000   0.0000
     0.0000   0.0000   0.0000

          k =-0.1250 0.3608-0.1401 (  2658 PWs)   bands (ev):

   -84.0707 -47.3811 -47.3551 -47.2787 -22.7699  -7.9613  -7.3502  -6.9604
    -5.8808  -5.7716   4.8345   5.3136   6.0882   6.3998   7.2108   8.3887
    10.2587  10.6318  10.7634  12.1311  12.6004  12.6446  14.4695  14.8573
    16.4547  17.3746  19.1349

     occupation numbers 
     1.0000   1.0000   1.0000   1.0000   1.0000   1.0000   1.0000   1.0000
     1.0000   1.0000   1.0000   1.0000   1.0000   1.0000   1.0000   1.0000
     1.0077   1.0723   0.9142   0.0000   0.0000   0.0000   0.0000   0.0000
     0.0000   0.0000   0.0000

          k =-0.1250 0.5052-0.1401 (  2664 PWs)   bands (ev):

   -84.0695 -47.3935 -47.3599 -47.2766 -22.6016  -7.7999  -7.4904  -7.1408
    -6.0973  -5.6637   4.3287   5.2851   6.3336   6.5591   7.0333   7.7308
    10.1465  10.4757  10.7404  11.9448  12.3598  12.7609  13.9327  16.4856
    16.8804  17.0039  20.8098

     occupation numbers 
     1.0000   1.0000   1.0000   1.0000   1.0000   1.0000   1.0000   1.0000
     1.0000   1.0000   1.0000   1.0000   1.0000   1.0000   1.0000   1.0000
     1.0015   1.0605   0.9569   0.0000   0.0000   0.0000   0.0000   0.0000
     0.0000   0.0000   0.0000

 ------ SPIN DOWN ----------


          k = 0.0000 0.0000 0.0000 (  2625 PWs)   bands (ev):

   -84.2717 -47.5299 -47.5078 -47.5078 -23.2331  -8.8988  -7.4232  -5.9336
    -5.2602  -5.2602   4.5119   5.6740   5.6740   8.0406   8.8635   8.8635
     9.7444   9.7444  10.2541  11.2830  13.1166  13.1166  14.6595  15.2369
    15.2369  17.4103  18.8253

     occupation numbers 
     1.0000   1.0000   1.0000   1.0000   1.0000   1.0000   1.0000   1.0000
     1.0000   1.0000   1.0000   1.0000   1.0000   1.0000   1.0000   1.0000
     1.0000   1.0000   1.0072   0.0154   0.0000   0.0000   0.0000   0.0000
     0.0000   0.0000   0.0000

          k = 0.0000 0.0000 0.1401 (  2690 PWs)   bands (ev):

   -84.2718 -47.5303 -47.5081 -47.5081 -23.2331  -8.9546  -7.2343  -6.0880
    -5.2603  -5.2603   4.7267   5.6756   5.6756   7.5614   8.8564   8.8564
     9.7452   9.7452  10.5999  11.2154  13.1329  13.1329  15.1766  15.2235
    15.2235  16.5488  18.8214

     occupation numbers 
     1.0000   1.0000   1.0000   1.0000   1.0000   1.0000   1.0000   1.0000
     1.0000   1.0000   1.0000   1.0000   1.0000   1.0000   1.0000   1.0000
     1.0000   1.0000   1.0817   0.0381   0.0000   0.0000   0.0000   0.0000
     0.0000   0.0000   0.0000

          k = 0.0000 0.1443 0.0000 (  2661 PWs)   bands (ev):

   -84.2710 -47.5289 -47.5161 -47.5099 -23.1468  -8.7336  -7.3729  -5.9052
    -5.6954  -5.3503   4.7421   5.4080   5.7706   7.8401   8.3490   8.3876
     9.9706  10.1323  10.4945  11.7557  12.6646  13.0246  14.6389  15.1361
    15.7829  16.5409  19.2149

     occupation numbers 
     1.0000   1.0000   1.0000   1.0000   1.0000   1.0000   1.0000   1.0000
     1.0000   1.0000   1.0000   1.0000   1.0000   1.0000   1.0000   1.0000
     1.0001   1.0012   1.0667   0.0000   0.0000   0.0000   0.0000   0.0000
     0.0000   0.0000   0.0000

          k = 0.0000 0.1443 0.1401 (  2670 PWs)   bands (ev):

   -84.2710 -47.5290 -47.5161 -47.5099 -23.1468  -8.7848  -7.2161  -6.0305
    -5.6908  -5.3503   4.9053   5.3620   5.7727   7.8761   8.0436   8.3822
     9.9598  10.1310  10.7030  11.7198  12.6578  13.0337  14.6191  15.5227
    15.7811  16.2149  18.7774

     occupation numbers 
     1.0000   1.0000   1.0000   1.0000   1.0000   1.0000   1.0000   1.0000
     1.0000   1.0000   1.0000   1.0000   1.0000   1.0000   1.0000   1.0000
     1.0000   1.0011   1.0127   0.0000   0.0000   0.0000   0.0000   0.0000
     0.0000   0.0000   0.0000

          k = 0.0000 0.2887 0.0000 (  2664 PWs)   bands (ev):

   -84.2693 -47.5357 -47.5260 -47.5146 -22.9299  -8.3056  -7.2716  -6.6530
    -5.8239  -5.5598   4.9823   5.2973   6.0002   6.3978   7.7856   8.4885
    10.0179  10.4349  10.6287  12.0047  12.3092  12.9031  14.7073  15.0601
    16.0761  17.2931  18.2073

     occupation numbers 
     1.0000   1.0000   1.0000   1.0000   1.0000   1.0000   1.0000   1.0000
     1.0000   1.0000   1.0000   1.0000   1.0000   1.0000   1.0000   1.0000
     1.0001   1.0465   1.0736   0.0000   0.0000   0.0000   0.0000   0.0000
     0.0000   0.0000   0.0000

          k = 0.0000 0.2887 0.1401 (  2656 PWs)   bands (ev):

   -84.2693 -47.5357 -47.5260 -47.5146 -22.9299  -8.3407  -7.2053  -6.6289
    -5.8841  -5.5598   4.9155   5.3733   6.0037   6.4571   7.7793   8.4270
    10.0271  10.4322  10.6799  11.7170  12.5063  12.9144  14.7216  14.8921
    16.3786  17.2978  18.1940

     occupation numbers 
     1.0000   1.0000   1.0000   1.0000   1.0000   1.0000   1.0000   1.0000
     1.0000   1.0000   1.0000   1.0000   1.0000   1.0000   1.0000   1.0000
     1.0002   1.0456   1.0386   0.0000   0.0000   0.0000   0.0000   0.0000
     0.0000   0.0000   0.0000

          k = 0.0000 0.4330 0.0000 (  2668 PWs)   bands (ev):

   -84.2676 -47.5553 -47.5231 -47.5194 -22.6996  -7.8759  -7.4701  -7.1989
    -5.7592  -5.7202   4.3858   5.3965   6.1890   6.2978   7.4733   7.9858
     9.8734  10.3580  10.5238  11.4756  12.1615  12.9297  13.9947  16.7042
    16.9384  17.8339  19.2762

     occupation numbers 
     1.0000   1.0000   1.0000   1.0000   1.0000   1.0000   1.0000   1.0000
     1.0000   1.0000   1.0000   1.0000   1.0000   1.0000   1.0000   1.0000
     1.0000   1.0240   1.0754   0.0006   0.0000   0.0000   0.0000   0.0000
     0.0000   0.0000   0.0000

          k = 0.0000 0.4330 0.1401 (  2668 PWs)   bands (ev):

   -84.2676 -47.5553 -47.5231 -47.5194 -22.6995  -7.8746  -7.5165  -7.1426
    -5.7592  -5.7323   4.4378   5.3074   6.1959   6.3931   7.4616   7.8651
     9.9335  10.3567  10.5110  11.4135  12.3488  12.9498  13.8674  16.7694
    16.8018  17.8011  19.2800

     occupation numbers 
     1.0000   1.0000   1.0000   1.0000   1.0000   1.0000   1.0000   1.0000
     1.0000   1.0000   1.0000   1.0000   1.0000   1.0000   1.0000   1.0000
     1.0000   1.0237   1.0718   0.0019   0.0000   0.0000   0.0000   0.0000
     0.0000   0.0000   0.0000

          k = 0.0000-0.5774 0.0000 (  2658 PWs)   bands (ev):

   -84.2669 -47.5634 -47.5218 -47.5213 -22.5997  -7.9945  -7.3323  -7.3205
    -5.8390  -5.6688   3.9742   5.4813   6.2332   6.5189   7.4267   7.6961
     9.7160  10.2493  10.4517  11.1581  12.2306  12.9736  13.6731  17.2176
    17.6921  17.9128  20.5570

     occupation numbers 
     1.0000   1.0000   1.0000   1.0000   1.0000   1.0000   1.0000   1.0000
     1.0000   1.0000   1.0000   1.0000   1.0000   1.0000   1.0000   1.0000
     1.0000   1.0068   1.0522   0.0747   0.0000   0.0000   0.0000   0.0000
     0.0000   0.0000   0.0000

          k = 0.0000-0.5774 0.1401 (  2664 PWs)   bands (ev):

   -84.2669 -47.5634 -47.5218 -47.5213 -22.5997  -7.9873  -7.3907  -7.2731
    -5.8391  -5.6649   4.0321   5.3834   6.2403   6.6600   7.4144   7.4776
     9.7793  10.2495  10.4784  11.1993  12.4249  12.9955  13.5329  16.8519
    17.6516  17.8682  21.2589

     occupation numbers 
     1.0000   1.0000   1.0000   1.0000   1.0000   1.0000   1.0000   1.0000
     1.0000   1.0000   1.0000   1.0000   1.0000   1.0000   1.0000   1.0000
     1.0000   1.0068   1.0614   0.0464   0.0000   0.0000   0.0000   0.0000
     0.0000   0.0000   0.0000

          k = 0.1250 0.2165 0.0000 (  2673 PWs)   bands (ev):

   -84.2698 -47.5291 -47.5270 -47.5141 -22.9948  -8.4364  -7.2959  -6.3358
    -5.8500  -5.5577   5.1332   5.1373   5.8827   6.8793   7.6965   8.5622
    10.0981  10.4118  10.6227  12.3038  12.4833  12.9358  13.8403  15.5089
    15.8090  17.0253  18.0955

     occupation numbers 
     1.0000   1.0000   1.0000   1.0000   1.0000   1.0000   1.0000   1.0000
     1.0000   1.0000   1.0000   1.0000   1.0000   1.0000   1.0000   1.0000
     1.0006   1.0389   1.0760   0.0000   0.0000   0.0000   0.0000   0.0000
     0.0000   0.0000   0.0000

          k = 0.1250 0.2165 0.1401 (  2654 PWs)   bands (ev):

   -84.2698 -47.5290 -47.5268 -47.5141 -22.9948  -8.4759  -7.2040  -6.3186
    -5.9254  -5.5583   5.0444   5.2348   5.8843   6.9429   7.7011   8.4959
    10.0958  10.3889  10.6796  12.0870  12.6616  12.9109  13.8420  15.2670
    16.1290  17.0228  18.1115

     occupation numbers 
     1.0000   1.0000   1.0000   1.0000   1.0000   1.0000   1.0000   1.0000
     1.0000   1.0000   1.0000   1.0000   1.0000   1.0000   1.0000   1.0000
     1.0006   1.0320   1.0389   0.0000   0.0000   0.0000   0.0000   0.0000
     0.0000   0.0000   0.0000

          k = 0.1250 0.3608 0.0000 (  2648 PWs)   bands (ev):

   -84.2681 -47.5465 -47.5240 -47.5207 -22.7691  -7.9830  -7.2359  -7.1099
    -5.8793  -5.7504   4.8465   5.3176   6.0558   6.2504   7.1912   8.2709
    10.0879  10.4377  10.5867  12.1115  12.5082  12.7248  14.4316  14.8452
    16.6023  17.3110  19.1258

     occupation numbers 
     1.0000   1.0000   1.0000   1.0000   1.0000   1.0000   1.0000   1.0000
     1.0000   1.0000   1.0000   1.0000   1.0000   1.0000   1.0000   1.0000
     1.0005   1.0474   1.0831   0.0000   0.0000   0.0000   0.0000   0.0000
     0.0000   0.0000   0.0000

          k = 0.1250 0.3608 0.1401 (  2658 PWs)   bands (ev):

   -84.2681 -47.5466 -47.5240 -47.5207 -22.7691  -7.9932  -7.3086  -7.0033
    -5.8793  -5.7749   4.8372   5.2917   6.0590   6.3146   7.1842   8.2726
    10.0977  10.4449  10.5803  11.9637  12.5077  12.7902  14.4366  14.8336
    16.5958  17.3765  19.1347

     occupation numbers 
     1.0000   1.0000   1.0000   1.0000   1.0000   1.0000   1.0000   1.0000
     1.0000   1.0000   1.0000   1.0000   1.0000   1.0000   1.0000   1.0000
     1.0006   1.0499   1.0833   0.0000   0.0000   0.0000   0.0000   0.0000
     0.0000   0.0000   0.0000

          k = 0.1250 0.5052 0.0000 (  2661 PWs)   bands (ev):

   -84.2669 -47.5590 -47.5257 -47.5218 -22.6009  -7.8397  -7.4003  -7.2253
    -6.0950  -5.6654   4.2668   5.2976   6.2912   6.4999   7.0253   7.7348
     9.8664  10.3178  10.5363  11.8092  12.4224  12.7133  13.8274  16.5805
    16.8930  17.1592  20.8164

     occupation numbers 
     1.0000   1.0000   1.0000   1.0000   1.0000   1.0000   1.0000   1.0000
     1.0000   1.0000   1.0000   1.0000   1.0000   1.0000   1.0000   1.0000
     1.0000   1.0157   1.0783   0.0000   0.0000   0.0000   0.0000   0.0000
     0.0000   0.0000   0.0000

          k = 0.1250 0.5052 0.1401 (  2664 PWs)   bands (ev):

   -84.2669 -47.5590 -47.5257 -47.5219 -22.6009  -7.8325  -7.4329  -7.1994
    -6.0953  -5.6663   4.3297   5.2499   6.2609   6.6006   7.0042   7.5887
     9.9096  10.3098  10.5617  11.8365  12.4837  12.6407  13.8994  16.4711
    16.8308  17.1464  20.7858

     occupation numbers 
     1.0000   1.0000   1.0000   1.0000   1.0000   1.0000   1.0000   1.0000
     1.0000   1.0000   1.0000   1.0000   1.0000   1.0000   1.0000   1.0000
     1.0000   1.0143   1.0824   0.0000   0.0000   0.0000   0.0000   0.0000
     0.0000   0.0000   0.0000

          k = 0.2500 0.4330 0.0000 (  2661 PWs)   bands (ev):

   -84.2669 -47.5528 -47.5318 -47.5218 -22.6021  -7.6971  -7.2900  -7.2163
    -6.4292  -5.6618   4.8569   4.9707   5.9669   6.5829   6.7822   7.7943
     9.9849  10.3637  10.6402  12.3215  12.4015  13.3491  14.1976  14.9109
    15.9442  17.1062  21.2791

     occupation numbers 
     1.0000   1.0000   1.0000   1.0000   1.0000   1.0000   1.0000   1.0000
     1.0000   1.0000   1.0000   1.0000   1.0000   1.0000   1.0000   1.0000
     1.0001   1.0253   1.0682   0.0000   0.0000   0.0000   0.0000   0.0000
     0.0000   0.0000   0.0000

          k = 0.2500 0.4330 0.1401 (  2664 PWs)   bands (ev):

   -84.2669 -47.5528 -47.5317 -47.5219 -22.6021  -7.6363  -7.4687  -7.0909
    -6.4348  -5.6641   4.8824   4.9808   5.9953   6.5421   6.7396   7.8117
     9.9780  10.3529  10.6909  12.1395  12.3987  13.3945  14.3347  14.8487
    16.0293  17.0236  21.3148

     occupation numbers 
     1.0000   1.0000   1.0000   1.0000   1.0000   1.0000   1.0000   1.0000
     1.0000   1.0000   1.0000   1.0000   1.0000   1.0000   1.0000   1.0000
     1.0001   1.0228   1.0271   0.0000   0.0000   0.0000   0.0000   0.0000
     0.0000   0.0000   0.0000

          k = 0.2500 0.5774 0.0000 (  2661 PWs)   bands (ev):

   -84.2664 -47.5533 -47.5384 -47.5210 -22.5310  -7.6002  -7.2903  -7.1865
    -6.7290  -5.6195   4.6739   5.1062   5.6890   6.7595   6.9439   7.3986
     9.7932  10.4965  10.6112  12.3373  12.4042  13.5125  14.1789  15.1586
    15.6353  17.2651  22.1702

     occupation numbers 
     1.0000   1.0000   1.0000   1.0000   1.0000   1.0000   1.0000   1.0000
     1.0000   1.0000   1.0000   1.0000   1.0000   1.0000   1.0000   1.0000
     1.0000   1.0674   1.0794   0.0000   0.0000   0.0000   0.0000   0.0000
     0.0000   0.0000   0.0000

          k = 0.2500 0.5774 0.1401 (  2673 PWs)   bands (ev):

   -84.2664 -47.5533 -47.5384 -47.5211 -22.5309  -7.5847  -7.3359  -7.1528
    -6.7343  -5.6197   4.7225   5.1221   5.7427   6.6771   6.9432   7.3149
     9.8086  10.4852  10.6585  12.2148  12.3337  13.4981  14.3800  15.1983
    15.7123  17.1760  22.2036

     occupation numbers 
     1.0000   1.0000   1.0000   1.0000   1.0000   1.0000   1.0000   1.0000
     1.0000   1.0000   1.0000   1.0000   1.0000   1.0000   1.0000   1.0000
     1.0000   1.0637   1.0567   0.0000   0.0000   0.0000   0.0000   0.0000
     0.0000   0.0000   0.0000

          k = 0.0000 0.1443-0.1401 (  2670 PWs)   bands (ev):

   -84.2710 -47.5290 -47.5161 -47.5099 -23.1468  -8.7845  -7.2176  -6.0304
    -5.6893  -5.3503   4.9062   5.3526   5.7713   7.8077   8.1361   8.3862
     9.9566  10.1298  10.6791  11.7562  12.6490  13.0350  14.6316  15.4354
    15.7723  16.2241  18.8787

     occupation numbers 
     1.0000   1.0000   1.0000   1.0000   1.0000   1.0000   1.0000   1.0000
     1.0000   1.0000   1.0000   1.0000   1.0000   1.0000   1.0000   1.0000
     1.0000   1.0011   1.0393   0.0000   0.0000   0.0000   0.0000   0.0000
     0.0000   0.0000   0.0000

          k = 0.0000 0.2887-0.1401 (  2656 PWs)   bands (ev):

   -84.2693 -47.5357 -47.5260 -47.5146 -22.9299  -8.3350  -7.2291  -6.6130
    -5.8794  -5.5598   4.9173   5.2919   6.0002   6.5063   7.7866   8.5306
    10.0053  10.4318  10.6228  11.8577  12.4074  12.9084  14.6689  14.9727
    16.0934  17.2909  18.1998

     occupation numbers 
     1.0000   1.0000   1.0000   1.0000   1.0000   1.0000   1.0000   1.0000
     1.0000   1.0000   1.0000   1.0000   1.0000   1.0000   1.0000   1.0000
     1.0001   1.0454   1.0759   0.0000   0.0000   0.0000   0.0000   0.0000
     0.0000   0.0000   0.0000

          k = 0.0000 0.4330-0.1401 (  2668 PWs)   bands (ev):

   -84.2676 -47.5553 -47.5231 -47.5194 -22.6995  -7.7862  -7.6575  -7.0941
    -5.7592  -5.7249   4.3853   5.3148   6.1914   6.3571   7.4693   8.0396
     9.8811  10.3559  10.5169  11.5359  12.1378  12.9433  13.9576  16.4284
    16.8583  17.8076  19.2766

     occupation numbers 
     1.0000   1.0000   1.0000   1.0000   1.0000   1.0000   1.0000   1.0000
     1.0000   1.0000   1.0000   1.0000   1.0000   1.0000   1.0000   1.0000
     1.0000   1.0235   1.0735   0.0002   0.0000   0.0000   0.0000   0.0000
     0.0000   0.0000   0.0000

          k =-0.1250 0.3608-0.1401 (  2658 PWs)   bands (ev):

   -84.2681 -47.5466 -47.5240 -47.5207 -22.7691  -7.9789  -7.3587  -6.9689
    -5.8799  -5.7712   4.8014   5.2837   6.0405   6.3530   7.1804   8.3583
    10.0638  10.4380  10.5878  12.0543  12.5439  12.6193  14.4514  14.8579
    16.4478  17.3714  19.1360

     occupation numbers 
     1.0000   1.0000   1.0000   1.0000   1.0000   1.0000   1.0000   1.0000
     1.0000   1.0000   1.0000   1.0000   1.0000   1.0000   1.0000   1.0000
     1.0003   1.0475   1.0830   0.0000   0.0000   0.0000   0.0000   0.0000
     0.0000   0.0000   0.0000

          k =-0.1250 0.5052-0.1401 (  2664 PWs)   bands (ev):

   -84.2669 -47.5589 -47.5257 -47.5219 -22.6009  -7.8005  -7.5086  -7.1569
    -6.0963  -5.6627   4.3023   5.2637   6.2971   6.5065   7.0074   7.6995
     9.8784  10.3072  10.5838  11.9483  12.2756  12.6835  13.9111  16.4829
    16.8797  17.0009  20.8060

     occupation numbers 
     1.0000   1.0000   1.0000   1.0000   1.0000   1.0000   1.0000   1.0000
     1.0000   1.0000   1.0000   1.0000   1.0000   1.0000   1.0000   1.0000
     1.0000   1.0139   1.0832   0.0000   0.0000   0.0000   0.0000   0.0000
     0.0000   0.0000   0.0000

     the Fermi energy is    10.9633 ev

!    total energy              =    -573.02774885 Ry
     total all-electron energy =     -4292.138585 Ry
     estimated scf accuracy    <       0.00000005 Ry
     smearing contrib. (-TS)   =       0.00690250 Ry
     internal energy E=F+TS    =    -573.03465135 Ry

     The total energy is F=E-TS. E is the sum of the following terms:
     one-electron contribution =    -356.43205659 Ry
     hartree contribution      =     199.25451176 Ry
     xc contribution           =     -56.83753323 Ry
     ewald contribution        =    -196.83749925 Ry
     one-center paw contrib.   =    -162.18207405 Ry
      -> PAW hartree energy AE =     311.14312076 Ry
      -> PAW hartree energy PS =    -309.77767075 Ry
      -> PAW xc energy AE      =    -217.14714519 Ry
      -> PAW xc energy PS      =      53.59962113 Ry
      -> total E_H with PAW    =     200.61996177 Ry
      -> total E_XC with PAW   =    -220.38505729 Ry

     total magnetization       =    -0.20 Bohr mag/cell
     absolute magnetization    =     0.21 Bohr mag/cell

     convergence has been achieved in  21 iterations

     Forces acting on atoms (cartesian axes, Ry/au):

     atom    1 type  1   force =     0.00000000   -0.00000000    0.00000000
     atom    2 type  2   force =     0.00000000    0.00000000    0.04271467
     atom    3 type  2   force =     0.00000000    0.00000000   -0.04271467
     atom    4 type  3   force =     0.00000000   -0.00000000    0.00000000
     The non-local contrib.  to forces
     atom    1 type  1   force =     0.00000000    0.00000000    0.00000000
     atom    2 type  2   force =     0.00000000    0.00000000   -0.53141701
     atom    3 type  2   force =     0.00000000    0.00000000    0.53141701
     atom    4 type  3   force =     0.00000000    0.00000000    0.00000000
     The ionic contribution  to forces
     atom    1 type  1   force =    -0.00000000   -0.00000000   -0.00000000
     atom    2 type  2   force =     0.00000000   -0.00000000   25.49667156
     atom    3 type  2   force =    -0.00000000    0.00000000  -25.49667156
     atom    4 type  3   force =    -0.00000000    0.00000000    0.00000000
     The local contribution  to forces
     atom    1 type  1   force =    -0.00000000   -0.00000000    0.00000000
     atom    2 type  2   force =     0.00000001   -0.00000001  -24.92675909
     atom    3 type  2   force =    -0.00000001    0.00000001   24.92675909
     atom    4 type  3   force =     0.00000000    0.00000000    0.00000000
     The core correction contribution to forces
     atom    1 type  1   force =    -0.00000000   -0.00000000    0.00000000
     atom    2 type  2   force =    -0.00000000    0.00000000    0.00418543
     atom    3 type  2   force =     0.00000000   -0.00000000   -0.00418543
     atom    4 type  3   force =    -0.00000000   -0.00000000   -0.00000000
     The Hubbard contrib.    to forces
     atom    1 type  1   force =     0.00000000    0.00000000    0.00000000
     atom    2 type  2   force =     0.00000000    0.00000000    0.00000000
     atom    3 type  2   force =     0.00000000    0.00000000    0.00000000
     atom    4 type  3   force =     0.00000000    0.00000000    0.00000000
     The SCF correction term to forces
     atom    1 type  1   force =    -0.00000000   -0.00000000    0.00000000
     atom    2 type  2   force =    -0.00000000    0.00000000    0.00003379
     atom    3 type  2   force =     0.00000000   -0.00000000   -0.00003379
     atom    4 type  3   force =    -0.00000000   -0.00000000    0.00000000

     Total force =     0.060408     Total SCF correction =     0.000048

     Writing all to output data dir ./out/pw.save/ :
     XML data file, charge density, pseudopotentials, collected wavefunctions
 
     init_run     :     11.93s CPU      3.35s WALL (       1 calls)
     electrons    :    119.84s CPU     32.24s WALL (       1 calls)
     forces       :      0.75s CPU      0.55s WALL (       1 calls)

     Called by init_run:
     wfcinit      :      0.31s CPU      0.38s WALL (       1 calls)
     wfcinit:atom :      0.05s CPU      0.05s WALL (      50 calls)
     wfcinit:wfcr :      0.20s CPU      0.26s WALL (      50 calls)
     potinit      :     10.97s CPU      2.28s WALL (       1 calls)
     hinit0       :      0.55s CPU      0.57s WALL (       1 calls)

     Called by electrons:
     c_bands      :     13.46s CPU     13.47s WALL (      21 calls)
     sum_band     :      2.69s CPU      2.67s WALL (      21 calls)
     v_of_rho     :      0.35s CPU      0.16s WALL (      22 calls)
     v_h          :      0.24s CPU      0.03s WALL (      22 calls)
     v_xc         :      0.11s CPU      0.13s WALL (      23 calls)
     newd         :      0.70s CPU      0.56s WALL (      22 calls)
                                        0.56s GPU  (      22 calls)
     PAW_pot      :    106.39s CPU     15.50s WALL (      22 calls)
     mix_rho      :      0.59s CPU      0.55s WALL (      21 calls)

     Called by c_bands:
     init_us_2    :      0.88s CPU      0.86s WALL (    2200 calls)
     cegterg      :     11.87s CPU     11.91s WALL (    1050 calls)

     Called by sum_band:
     sum_band:wei :      0.04s CPU      0.04s WALL (      21 calls)
                                        0.04s GPU  (      21 calls)
     sum_band:loo :      1.45s CPU      1.41s WALL (      21 calls)
                                        1.41s GPU  (      21 calls)
     sum_band:buf :      0.15s CPU      0.18s WALL (    1050 calls)
                                        0.16s GPU  (    1050 calls)
     sum_band:ini :      0.42s CPU      0.42s WALL (    1050 calls)
                                        0.41s GPU  (    1050 calls)
     sum_band:cal :      0.04s CPU      0.06s WALL (    1050 calls)
                                        0.05s GPU  (    1050 calls)
     sum_band:bec :      0.23s CPU      0.25s WALL (    1050 calls)
                                        0.23s GPU  (    1050 calls)
     addusdens    :      1.09s CPU      1.09s WALL (      21 calls)
                                        1.09s GPU  (      21 calls)
     addusd:skk   :      0.00s CPU      0.00s WALL (      63 calls)
                                        0.00s GPU  (      63 calls)

     Called by *egterg:
     cdiaghg      :      4.08s CPU      4.23s WALL (    4856 calls)
                                        4.18s GPU  (    4856 calls)
     cegterg:over :      0.86s CPU      0.89s WALL (    3806 calls)
     cegterg:upda :      0.65s CPU      0.65s WALL (    3806 calls)
     cegterg:last :      0.12s CPU      0.11s WALL (    1916 calls)
     h_psi        :      4.31s CPU      4.35s WALL (    4906 calls)
                                        4.29s GPU  (    4906 calls)
     s_psi        :      0.74s CPU      0.78s WALL (    4906 calls)
     g_psi        :      0.02s CPU      0.09s WALL (    3806 calls)
                                        0.04s GPU  (    3806 calls)

     Called by h_psi:
     h_psi:calbec :      0.15s CPU      0.27s WALL (    4906 calls)
                                        0.21s GPU  (    4906 calls)
     vloc_psi     :      2.99s CPU      2.95s WALL (    4906 calls)
                                        2.89s GPU  (    4906 calls)
     add_vuspsi   :      0.67s CPU      0.79s WALL (    4906 calls)
                                        0.73s GPU  (    4906 calls)

     General routines
     calbec       :      0.16s CPU      0.19s WALL (    6156 calls)
     fft          :      2.79s CPU      0.87s WALL (     563 calls)
                                        0.07s GPU  (     519 calls)
     ffts         :      3.69s CPU      0.74s WALL (     716 calls)
                                        0.02s GPU  (     672 calls)
     fftw         :      0.30s CPU      0.99s WALL (   16212 calls)
                                        0.81s GPU  (   16212 calls)
     interpolate  :      6.55s CPU      1.53s WALL (      44 calls)
 
     Parallel routines

     PAW routines
     PAW_pot      :    106.39s CPU     15.50s WALL (      22 calls)
     PAW_symme    :      0.01s CPU      0.01s WALL (      43 calls)
 
     PWSCF        :   2m13.48s CPU     36.76s WALL

 
   This run was terminated on:   5:37: 7  12Jul2026            

=------------------------------------------------------------------------------=
   JOB DONE.
=------------------------------------------------------------------------------=
Warning: ieee_divide_by_zero is signaling
Warning: ieee_inexact is signaling
FORTRAN STOP
