
     Program PWSCF v.7.3.1 starts on 12Jul2026 at  7:11:55 

     This program is part of the open-source Quantum ESPRESSO suite
     for quantum simulation of materials; please cite
         "P. Giannozzi et al., J. Phys.:Condens. Matter 21 395502 (2009);
         "P. Giannozzi et al., J. Phys.:Condens. Matter 29 465901 (2017);
         "P. Giannozzi et al., J. Chem. Phys. 152 154105 (2020);
          URL http://www.quantum-espresso.org", 
     in publications or presentations arising from this work. More details at
     http://www.quantum-espresso.org/quote

     Parallel version (MPI & OpenMP), running on      14 processor cores
     Number of MPI processes:                 1
     Threads/MPI process:                    14

     MPI processes distributed on     1 nodes
     702631 MiB available memory on the printing compute node when the environment starts
 
     Reading input from pw.in

     Current dimensions of program PWSCF are:
     Max number of different atomic species (ntypx) = 10
     Max number of k-points (npk) =  40000
     Max angular momentum in pseudopotentials (lmaxx) =  4
     file Co.pbe-spn-kjpaw_psl.0.3.1.UPF: wavefunction(s)  3P 3D renormalized
     file O.pbe-n-kjpaw_psl.1.0.0.UPF: wavefunction(s)  2S 2P renormalized
     file Na.pbe-spn-kjpaw_psl.1.0.0.UPF: wavefunction(s)  2P renormalized
 
     Subspace diagonalization in iterative solution of the eigenvalue problem:
     a serial algorithm will be used

 
     G-vector sticks info
     --------------------
     sticks:   dense  smooth     PW     G-vecs:    dense   smooth      PW
     Sum        2941    1483    421               256907    90927   13645
 
     Using Slab Decomposition
 


     bravais-lattice index     =            4
     lattice parameter (alat)  =       9.4527  a.u.
     unit-cell volume          =    1447.6983 (a.u.)^3
     number of atoms/cell      =           10
     number of atomic types    =            3
     number of electrons       =        96.00
     number of Kohn-Sham states=           64
     kinetic-energy cutoff     =      60.0000  Ry
     charge density cutoff     =     480.0000  Ry
     scf convergence threshold =      1.0E-07
     mixing beta               =       0.3000
     number of iterations used =            8  local-TF  mixing
     Exchange-correlation= SLA  PW   PBX  PBC
                           (   1   4   3   4   0   0   0)

     GPU acceleration is ACTIVE.  1 visible GPUs per MPI rank
     GPU-aware MPI enabled


     GPU used by master process:

        Device Number: 0
        Device name: NVIDIA A100-SXM4-80GB
        Compute capability : 80
        Ratio of single to double precision performance  : 2
        Memory Clock Rate (KHz): 1593000
        Memory Bus Width (bits): 5120
        Peak Memory Bandwidth (GB/s): ******

     celldm(1)=   9.452718  celldm(2)=   0.000000  celldm(3)=   1.979144
     celldm(4)=   0.000000  celldm(5)=   0.000000  celldm(6)=   0.000000

     crystal axes: (cart. coord. in units of alat)
               a(1) = (   1.000000   0.000000   0.000000 )  
               a(2) = (  -0.500000   0.866025   0.000000 )  
               a(3) = (   0.000000   0.000000   1.979144 )  

     reciprocal axes: (cart. coord. in units 2 pi/alat)
               b(1) = (  1.000000  0.577350 -0.000000 )  
               b(2) = (  0.000000  1.154701  0.000000 )  
               b(3) = (  0.000000 -0.000000  0.505269 )  


     PseudoPot. # 1 for Co read from file:
     ../../pseudo/Co.pbe-spn-kjpaw_psl.0.3.1.UPF
     MD5 check sum: 3c0a43779828c046024e4f3be63f8e67
     Pseudo is Projector augmented-wave + core cor, Zval = 17.0
     Generated using &quot;atomic&quot; code by A. Dal Corso  v.6.2.2
     Shape of augmentation charge: PSQ
     Using radial grid of 1193 points,  6 beta functions with: 
                l(1) =   0
                l(2) =   0
                l(3) =   1
                l(4) =   1
                l(5) =   2
                l(6) =   2
     Q(r) pseudized with 0 coefficients 


     PseudoPot. # 2 for O  read from file:
     ../../pseudo/O.pbe-n-kjpaw_psl.1.0.0.UPF
     MD5 check sum: e99d9cef9b487d1ca56f5b95ecd0fd7a
     Pseudo is Projector augmented-wave + core cor, Zval =  6.0
     Generated using &quot;atomic&quot; code by A. Dal Corso  v.6.3
     Shape of augmentation charge: PSQ
     Using radial grid of 1095 points,  4 beta functions with: 
                l(1) =   0
                l(2) =   0
                l(3) =   1
                l(4) =   1
     Q(r) pseudized with 0 coefficients 


     PseudoPot. # 3 for Na read from file:
     ../../pseudo/Na.pbe-spn-kjpaw_psl.1.0.0.UPF
     MD5 check sum: 05b4deb74e3932c23ab016979dc8b5d4
     Pseudo is Projector augmented-wave + core cor, Zval =  9.0
     Generated using &quot;atomic&quot; code by A. Dal Corso  v.6.3
     Shape of augmentation charge: PSQ
     Using radial grid of 1121 points,  4 beta functions with: 
                l(1) =   0
                l(2) =   0
                l(3) =   1
                l(4) =   1
     Q(r) pseudized with 0 coefficients 


     atomic species   valence    mass     pseudopotential
     Co               17.00    58.93300     Co( 1.00)
     O                 6.00    15.99900     O ( 1.00)
     Na                9.00    22.98977     Na( 1.00)

     Starting magnetic structure 
     atomic species   magnetization
     Co              0.300
     O               0.000
     Na              0.000

      6 Sym. Ops. (no inversion) found


                                    s                        frac. trans.

      isym =  1     identity                                     

 cryst.   s( 1) = (     1          0          0      )
                  (     0          1          0      )
                  (     0          0          1      )

 cart.    s( 1) = (  1.0000000  0.0000000  0.0000000 )
                  (  0.0000000  1.0000000  0.0000000 )
                  (  0.0000000  0.0000000  1.0000000 )


      isym =  2     120 deg rotation - cryst. axis [0,0,1]       

 cryst.   s( 2) = (     0          1          0      )
                  (    -1         -1          0      )
                  (     0          0          1      )

 cart.    s( 2) = ( -0.5000000 -0.8660254  0.0000000 )
                  (  0.8660254 -0.5000000  0.0000000 )
                  (  0.0000000  0.0000000  1.0000000 )


      isym =  3     120 deg rotation - cryst. axis [0,0,-1]      

 cryst.   s( 3) = (    -1         -1          0      )
                  (     1          0          0      )
                  (     0          0          1      )

 cart.    s( 3) = ( -0.5000000  0.8660254  0.0000000 )
                  ( -0.8660254 -0.5000000  0.0000000 )
                  (  0.0000000  0.0000000  1.0000000 )


      isym =  4     inv. 180 deg rotation - cart. axis [0,1,0]   

 cryst.   s( 4) = (     1          0          0      )
                  (    -1         -1          0      )
                  (     0          0          1      )

 cart.    s( 4) = (  1.0000000  0.0000000  0.0000000 )
                  (  0.0000000 -1.0000000  0.0000000 )
                  (  0.0000000  0.0000000  1.0000000 )


      isym =  5     inv. 180 deg rotation - cryst. axis [1,-1,0] 

 cryst.   s( 5) = (     0          1          0      )
                  (     1          0          0      )
                  (     0          0          1      )

 cart.    s( 5) = ( -0.5000000  0.8660254  0.0000000 )
                  (  0.8660254  0.5000000  0.0000000 )
                  (  0.0000000  0.0000000  1.0000000 )


      isym =  6     inv. 180 deg rotation - cryst. axis [2,1,0]  

 cryst.   s( 6) = (    -1         -1          0      )
                  (     0          1          0      )
                  (     0          0          1      )

 cart.    s( 6) = ( -0.5000000 -0.8660254  0.0000000 )
                  ( -0.8660254  0.5000000  0.0000000 )
                  (  0.0000000  0.0000000  1.0000000 )


     point group C_3v (3m)  
     there are  3 classes
     the character table:

       E     2C3   3s_v 
A_1    1.00  1.00  1.00
A_2    1.00  1.00 -1.00
E      2.00 -1.00  0.00

     the symmetry operations in each class and the name of the first element:

     E        1
          identity                                               
     2C3      2    3
          120 deg rotation - cryst. axis [0,0,1]                 
     3s_v     4    6    5
          inv. 180 deg rotation - cart. axis [0,1,0]             

   Cartesian axes

     site n.     atom                  positions (alat units)
         1        Co     tau(   1) = (   0.0000000   0.0000000   0.0000000  )
         2        Co     tau(   2) = (  -0.0000000   0.5773503   0.0000000  )
         3        Co     tau(   3) = (   0.5000000   0.2886751   0.0000000  )
         4        O      tau(   4) = (   0.1666667   0.2886751   0.2039118  )
         5        O      tau(   5) = (   0.6666667   0.0000000   0.2039118  )
         6        O      tau(   6) = (  -0.3333333   0.5773503   0.2039118  )
         7        O      tau(   7) = (   0.3333333   0.0000000   1.7752321  )
         8        O      tau(   8) = (   0.3333333   0.5773503   1.7752321  )
         9        O      tau(   9) = (  -0.1666667   0.2886751   1.7752321  )
        10        Na     tau(  10) = (   0.0000000   0.0000000   1.0195590  )

   Crystallographic axes

     site n.     atom                  positions (cryst. coord.)
         1        Co     tau(   1) = (  0.0000000  0.0000000  0.0000000  )
         2        Co     tau(   2) = (  0.3333333  0.6666667  0.0000000  )
         3        Co     tau(   3) = (  0.6666667  0.3333333  0.0000000  )
         4        O      tau(   4) = (  0.3333333  0.3333333  0.1030303  )
         5        O      tau(   5) = (  0.6666667  0.0000000  0.1030303  )
         6        O      tau(   6) = (  0.0000000  0.6666667  0.1030303  )
         7        O      tau(   7) = (  0.3333333  0.0000000  0.8969697  )
         8        O      tau(   8) = (  0.6666667  0.6666667  0.8969697  )
         9        O      tau(   9) = ( -0.0000000  0.3333333  0.8969697  )
        10        Na     tau(  10) = (  0.0000000  0.0000000  0.5151515  )

     number of k points=    14  Marzari-Vanderbilt smearing, width (Ry)=  0.0200
                       cart. coord. in units 2pi/alat
        k(    1) = (   0.0000000   0.0000000   0.0000000), wk =   0.0138889
        k(    2) = (   0.0000000   0.0000000  -0.2526345), wk =   0.0138889
        k(    3) = (   0.0000000   0.1924501   0.0000000), wk =   0.0833333
        k(    4) = (   0.0000000   0.1924501  -0.2526345), wk =   0.0833333
        k(    5) = (   0.0000000   0.3849002   0.0000000), wk =   0.0833333
        k(    6) = (   0.0000000   0.3849002  -0.2526345), wk =   0.0833333
        k(    7) = (   0.0000000  -0.5773503   0.0000000), wk =   0.0416667
        k(    8) = (   0.0000000  -0.5773503  -0.2526345), wk =   0.0416667
        k(    9) = (   0.1666667   0.2886751   0.0000000), wk =   0.0833333
        k(   10) = (   0.1666667   0.2886751  -0.2526345), wk =   0.0833333
        k(   11) = (   0.1666667   0.4811252   0.0000000), wk =   0.1666667
        k(   12) = (   0.1666667   0.4811252  -0.2526345), wk =   0.1666667
        k(   13) = (   0.3333333   0.5773503   0.0000000), wk =   0.0277778
        k(   14) = (   0.3333333   0.5773503  -0.2526345), wk =   0.0277778

                       cryst. coord.
        k(    1) = (   0.0000000   0.0000000   0.0000000), wk =   0.0138889
        k(    2) = (   0.0000000   0.0000000  -0.5000000), wk =   0.0138889
        k(    3) = (   0.0000000   0.1666667   0.0000000), wk =   0.0833333
        k(    4) = (   0.0000000   0.1666667  -0.5000000), wk =   0.0833333
        k(    5) = (   0.0000000   0.3333333   0.0000000), wk =   0.0833333
        k(    6) = (   0.0000000   0.3333333  -0.5000000), wk =   0.0833333
        k(    7) = (   0.0000000  -0.5000000   0.0000000), wk =   0.0416667
        k(    8) = (   0.0000000  -0.5000000  -0.5000000), wk =   0.0416667
        k(    9) = (   0.1666667   0.1666667   0.0000000), wk =   0.0833333
        k(   10) = (   0.1666667   0.1666667  -0.5000000), wk =   0.0833333
        k(   11) = (   0.1666667   0.3333333   0.0000000), wk =   0.1666667
        k(   12) = (   0.1666667   0.3333333  -0.5000000), wk =   0.1666667
        k(   13) = (   0.3333333   0.3333333   0.0000000), wk =   0.0277778
        k(   14) = (   0.3333333   0.3333333  -0.5000000), wk =   0.0277778

     Dense  grid:   256907 G-vectors     FFT dimensions: (  72,  72, 135)

     Smooth grid:    90927 G-vectors     FFT dimensions: (  48,  48,  96)

     Dynamical RAM for                 wfc:      11.10 MB

     Dynamical RAM for     wfc (w. buffer):     321.78 MB

     Dynamical RAM for           str. fact:      11.76 MB

     Dynamical RAM for           local pot:       0.00 MB

     Dynamical RAM for          nlocal pot:      19.07 MB

     Dynamical RAM for                qrad:       5.27 MB

     Dynamical RAM for          rho,v,vnew:      55.56 MB

     Dynamical RAM for               rhoin:      18.52 MB

     Dynamical RAM for            rho*nmix:     125.44 MB

     Dynamical RAM for           G-vectors:      15.39 MB

     Dynamical RAM for          h,s,v(r/c):       0.75 MB

     Dynamical RAM for          <psi|beta>:       0.11 MB

     Dynamical RAM for                 psi:      22.19 MB

     Dynamical RAM for                hpsi:      22.19 MB

     Dynamical RAM for                spsi:      22.19 MB

     Dynamical RAM for      wfcinit/wfcrot:      22.29 MB

     Dynamical RAM for           addusdens:     756.58 MB

     Dynamical RAM for          addusforce:     795.83 MB

     Estimated static dynamical RAM per process >     495.07 MB

     Estimated max dynamical RAM per process >       1.38 GB

     Check: negative core charge=   -0.000006
     Generating pointlists ...
     new r_m :   0.1612 (alat units)  1.5237 (a.u.) for type    1
     new r_m :   0.1612 (alat units)  1.5237 (a.u.) for type    2
     new r_m :   0.3407 (alat units)  3.2205 (a.u.) for type    3

     Initial potential from superposition of free atoms

     starting charge      95.9928, renormalised to      96.0000
     Starting wfcs are   59 randomized atomic wfcs +    5 random wfcs
     Checking if some PAW data can be deallocated... 

     total cpu time spent up to now is        5.3 secs

     Self-consistent Calculation
[tb_dev] Currently allocated     9.94E-01 Mbytes, locked:    0 /   6
[tb_pin] Currently allocated     0.00E+00 Mbytes, locked:    0 /   0

     iteration #  1     ecut=    60.00 Ry     beta= 0.30
     Davidson diagonalization with overlap

---- Real-time Memory Report at c_bands before calling an iterative solver
          1075 MiB given to the printing process from OS
             0 MiB allocation reported by mallinfo(arena+hblkhd)
        700168 MiB available memory on the node where the printing process lives
     GPU memory used/free/total (MiB): 1998 / 79152 / 81151
------------------
     ethr =  1.00E-02,  avg # of iterations = 10.8

     total cpu time spent up to now is        8.9 secs

     total energy              =   -1488.22120434 Ry
     estimated scf accuracy    <       6.57023870 Ry

     total magnetization       =    14.00 Bohr mag/cell
     absolute magnetization    =    14.00 Bohr mag/cell
[tb_dev] Currently allocated     7.63E-05 Mbytes, locked:    0 /   2
[tb_pin] Currently allocated     0.00E+00 Mbytes, locked:    0 /   0

     iteration #  2     ecut=    60.00 Ry     beta= 0.30
     Davidson diagonalization with overlap

---- Real-time Memory Report at c_bands before calling an iterative solver
          1139 MiB given to the printing process from OS
             0 MiB allocation reported by mallinfo(arena+hblkhd)
        699733 MiB available memory on the node where the printing process lives
     GPU memory used/free/total (MiB): 2084 / 79066 / 81151
------------------
     ethr =  6.84E-03,  avg # of iterations =  1.8

     total cpu time spent up to now is       11.4 secs

     total energy              =   -1488.60669243 Ry
     estimated scf accuracy    <       1.08140883 Ry

     total magnetization       =    10.84 Bohr mag/cell
     absolute magnetization    =    10.84 Bohr mag/cell
[tb_dev] Currently allocated     7.63E-05 Mbytes, locked:    0 /   2
[tb_pin] Currently allocated     0.00E+00 Mbytes, locked:    0 /   0

     iteration #  3     ecut=    60.00 Ry     beta= 0.30
     Davidson diagonalization with overlap

---- Real-time Memory Report at c_bands before calling an iterative solver
          1150 MiB given to the printing process from OS
             0 MiB allocation reported by mallinfo(arena+hblkhd)
        699675 MiB available memory on the node where the printing process lives
     GPU memory used/free/total (MiB): 2084 / 79066 / 81151
------------------
     ethr =  1.13E-03,  avg # of iterations =  4.9

     total cpu time spent up to now is       14.3 secs

     total energy              =   -1488.95870091 Ry
     estimated scf accuracy    <       2.49479309 Ry

     total magnetization       =     4.52 Bohr mag/cell
     absolute magnetization    =     4.99 Bohr mag/cell
[tb_dev] Currently allocated     7.63E-05 Mbytes, locked:    0 /   2
[tb_pin] Currently allocated     0.00E+00 Mbytes, locked:    0 /   0

     iteration #  4     ecut=    60.00 Ry     beta= 0.30
     Davidson diagonalization with overlap

---- Real-time Memory Report at c_bands before calling an iterative solver
          1160 MiB given to the printing process from OS
             0 MiB allocation reported by mallinfo(arena+hblkhd)
        699693 MiB available memory on the node where the printing process lives
     GPU memory used/free/total (MiB): 2084 / 79066 / 81151
------------------
     ethr =  1.13E-03,  avg # of iterations =  1.9

     total cpu time spent up to now is       16.8 secs

     total energy              =   -1488.77077940 Ry
     estimated scf accuracy    <       2.60821701 Ry

     total magnetization       =     4.53 Bohr mag/cell
     absolute magnetization    =     5.00 Bohr mag/cell
[tb_dev] Currently allocated     7.63E-05 Mbytes, locked:    0 /   2
[tb_pin] Currently allocated     0.00E+00 Mbytes, locked:    0 /   0

     iteration #  5     ecut=    60.00 Ry     beta= 0.30
     Davidson diagonalization with overlap

---- Real-time Memory Report at c_bands before calling an iterative solver
          1166 MiB given to the printing process from OS
             0 MiB allocation reported by mallinfo(arena+hblkhd)
        699662 MiB available memory on the node where the printing process lives
     GPU memory used/free/total (MiB): 2084 / 79066 / 81151
------------------
     ethr =  1.13E-03,  avg # of iterations =  1.2

     total cpu time spent up to now is       19.2 secs

     total energy              =   -1488.95789790 Ry
     estimated scf accuracy    <       0.58703231 Ry

     total magnetization       =     9.44 Bohr mag/cell
     absolute magnetization    =     9.45 Bohr mag/cell
[tb_dev] Currently allocated     7.63E-05 Mbytes, locked:    0 /   2
[tb_pin] Currently allocated     0.00E+00 Mbytes, locked:    0 /   0

     iteration #  6     ecut=    60.00 Ry     beta= 0.30
     Davidson diagonalization with overlap

---- Real-time Memory Report at c_bands before calling an iterative solver
          1175 MiB given to the printing process from OS
             0 MiB allocation reported by mallinfo(arena+hblkhd)
        699610 MiB available memory on the node where the printing process lives
     GPU memory used/free/total (MiB): 2084 / 79066 / 81151
------------------
     ethr =  6.11E-04,  avg # of iterations =  2.1

     total cpu time spent up to now is       21.7 secs

     total energy              =   -1488.93000895 Ry
     estimated scf accuracy    <       0.89495786 Ry

     total magnetization       =    10.37 Bohr mag/cell
     absolute magnetization    =    10.38 Bohr mag/cell
[tb_dev] Currently allocated     7.63E-05 Mbytes, locked:    0 /   2
[tb_pin] Currently allocated     0.00E+00 Mbytes, locked:    0 /   0

     iteration #  7     ecut=    60.00 Ry     beta= 0.30
     Davidson diagonalization with overlap

---- Real-time Memory Report at c_bands before calling an iterative solver
          1183 MiB given to the printing process from OS
             0 MiB allocation reported by mallinfo(arena+hblkhd)
        699612 MiB available memory on the node where the printing process lives
     GPU memory used/free/total (MiB): 2084 / 79066 / 81151
------------------
     ethr =  6.11E-04,  avg # of iterations =  1.7

     total cpu time spent up to now is       24.2 secs

     total energy              =   -1488.91298864 Ry
     estimated scf accuracy    <       0.62518005 Ry

     total magnetization       =     7.97 Bohr mag/cell
     absolute magnetization    =     8.04 Bohr mag/cell
[tb_dev] Currently allocated     7.63E-05 Mbytes, locked:    0 /   2
[tb_pin] Currently allocated     0.00E+00 Mbytes, locked:    0 /   0

     iteration #  8     ecut=    60.00 Ry     beta= 0.30
     Davidson diagonalization with overlap

---- Real-time Memory Report at c_bands before calling an iterative solver
          1191 MiB given to the printing process from OS
             0 MiB allocation reported by mallinfo(arena+hblkhd)
        699594 MiB available memory on the node where the printing process lives
     GPU memory used/free/total (MiB): 2084 / 79066 / 81151
------------------
     c_bands:  1 eigenvalues not converged
     ethr =  6.11E-04,  avg # of iterations =  4.7

     negative rho (up, down):  0.000E+00 1.244E-03

     total cpu time spent up to now is       27.1 secs

     total energy              =   -1488.40809254 Ry
     estimated scf accuracy    <       1.84036295 Ry

     total magnetization       =     3.88 Bohr mag/cell
     absolute magnetization    =     4.42 Bohr mag/cell
[tb_dev] Currently allocated     7.63E-05 Mbytes, locked:    0 /   2
[tb_pin] Currently allocated     0.00E+00 Mbytes, locked:    0 /   0

     iteration #  9     ecut=    60.00 Ry     beta= 0.30
     Davidson diagonalization with overlap

---- Real-time Memory Report at c_bands before calling an iterative solver
          1199 MiB given to the printing process from OS
             0 MiB allocation reported by mallinfo(arena+hblkhd)
        699570 MiB available memory on the node where the printing process lives
     GPU memory used/free/total (MiB): 2084 / 79066 / 81151
------------------
     ethr =  6.11E-04,  avg # of iterations =  5.4

     negative rho (up, down):  0.000E+00 1.411E-03

     total cpu time spent up to now is       30.0 secs

     total energy              =   -1488.90369712 Ry
     estimated scf accuracy    <       1.86850457 Ry

     total magnetization       =    14.39 Bohr mag/cell
     absolute magnetization    =    14.49 Bohr mag/cell
[tb_dev] Currently allocated     7.63E-05 Mbytes, locked:    0 /   2
[tb_pin] Currently allocated     0.00E+00 Mbytes, locked:    0 /   0

     iteration # 10     ecut=    60.00 Ry     beta= 0.30
     Davidson diagonalization with overlap

---- Real-time Memory Report at c_bands before calling an iterative solver
          1207 MiB given to the printing process from OS
             0 MiB allocation reported by mallinfo(arena+hblkhd)
        699563 MiB available memory on the node where the printing process lives
     GPU memory used/free/total (MiB): 2084 / 79066 / 81151
------------------
     ethr =  6.11E-04,  avg # of iterations =  1.4

     negative rho (up, down):  0.000E+00 1.329E-02

     total cpu time spent up to now is       32.4 secs

     total energy              =   -1488.70117824 Ry
     estimated scf accuracy    <       2.00005369 Ry

     total magnetization       =    14.15 Bohr mag/cell
     absolute magnetization    =    14.29 Bohr mag/cell
[tb_dev] Currently allocated     7.63E-05 Mbytes, locked:    0 /   2
[tb_pin] Currently allocated     0.00E+00 Mbytes, locked:    0 /   0

     iteration # 11     ecut=    60.00 Ry     beta= 0.30
     Davidson diagonalization with overlap

---- Real-time Memory Report at c_bands before calling an iterative solver
          1207 MiB given to the printing process from OS
             0 MiB allocation reported by mallinfo(arena+hblkhd)
        699561 MiB available memory on the node where the printing process lives
     GPU memory used/free/total (MiB): 2084 / 79066 / 81151
------------------
     ethr =  6.11E-04,  avg # of iterations =  2.3

     negative rho (up, down):  0.000E+00 1.369E-02

     total cpu time spent up to now is       35.0 secs

     total energy              =   -1488.70833216 Ry
     estimated scf accuracy    <       3.35067643 Ry

     total magnetization       =    14.59 Bohr mag/cell
     absolute magnetization    =    14.84 Bohr mag/cell
[tb_dev] Currently allocated     7.63E-05 Mbytes, locked:    0 /   2
[tb_pin] Currently allocated     0.00E+00 Mbytes, locked:    0 /   0

     iteration # 12     ecut=    60.00 Ry     beta= 0.30
     Davidson diagonalization with overlap

---- Real-time Memory Report at c_bands before calling an iterative solver
          1207 MiB given to the printing process from OS
             0 MiB allocation reported by mallinfo(arena+hblkhd)
        699560 MiB available memory on the node where the printing process lives
     GPU memory used/free/total (MiB): 2084 / 79066 / 81151
------------------
     ethr =  6.11E-04,  avg # of iterations =  1.3

     total cpu time spent up to now is       37.4 secs

     total energy              =   -1488.35805926 Ry
     estimated scf accuracy    <       3.32579012 Ry

     total magnetization       =    14.30 Bohr mag/cell
     absolute magnetization    =    14.62 Bohr mag/cell
[tb_dev] Currently allocated     7.63E-05 Mbytes, locked:    0 /   2
[tb_pin] Currently allocated     0.00E+00 Mbytes, locked:    0 /   0

     iteration # 13     ecut=    60.00 Ry     beta= 0.30
     Davidson diagonalization with overlap

---- Real-time Memory Report at c_bands before calling an iterative solver
          1207 MiB given to the printing process from OS
             0 MiB allocation reported by mallinfo(arena+hblkhd)
        699564 MiB available memory on the node where the printing process lives
     GPU memory used/free/total (MiB): 2084 / 79066 / 81151
------------------
     ethr =  6.11E-04,  avg # of iterations =  4.3

     total cpu time spent up to now is       40.3 secs

     total energy              =   -1489.03987626 Ry
     estimated scf accuracy    <       0.85326434 Ry

     total magnetization       =     2.22 Bohr mag/cell
     absolute magnetization    =     3.38 Bohr mag/cell
[tb_dev] Currently allocated     7.63E-05 Mbytes, locked:    0 /   2
[tb_pin] Currently allocated     0.00E+00 Mbytes, locked:    0 /   0

     iteration # 14     ecut=    60.00 Ry     beta= 0.30
     Davidson diagonalization with overlap

---- Real-time Memory Report at c_bands before calling an iterative solver
          1207 MiB given to the printing process from OS
             0 MiB allocation reported by mallinfo(arena+hblkhd)
        699591 MiB available memory on the node where the printing process lives
     GPU memory used/free/total (MiB): 2084 / 79066 / 81151
------------------
     ethr =  6.11E-04,  avg # of iterations =  2.0

     total cpu time spent up to now is       42.8 secs

     total energy              =   -1489.09931517 Ry
     estimated scf accuracy    <       0.78159024 Ry

     total magnetization       =     3.03 Bohr mag/cell
     absolute magnetization    =     3.97 Bohr mag/cell
[tb_dev] Currently allocated     7.63E-05 Mbytes, locked:    0 /   2
[tb_pin] Currently allocated     0.00E+00 Mbytes, locked:    0 /   0

     iteration # 15     ecut=    60.00 Ry     beta= 0.30
     Davidson diagonalization with overlap

---- Real-time Memory Report at c_bands before calling an iterative solver
          1209 MiB given to the printing process from OS
             0 MiB allocation reported by mallinfo(arena+hblkhd)
        699573 MiB available memory on the node where the printing process lives
     GPU memory used/free/total (MiB): 2084 / 79066 / 81151
------------------
     ethr =  6.11E-04,  avg # of iterations =  1.0

     total cpu time spent up to now is       45.1 secs

     total energy              =   -1489.05748650 Ry
     estimated scf accuracy    <       0.78727542 Ry

     total magnetization       =     2.17 Bohr mag/cell
     absolute magnetization    =     3.19 Bohr mag/cell
[tb_dev] Currently allocated     7.63E-05 Mbytes, locked:    0 /   2
[tb_pin] Currently allocated     0.00E+00 Mbytes, locked:    0 /   0

     iteration # 16     ecut=    60.00 Ry     beta= 0.30
     Davidson diagonalization with overlap

---- Real-time Memory Report at c_bands before calling an iterative solver
          1209 MiB given to the printing process from OS
             0 MiB allocation reported by mallinfo(arena+hblkhd)
        699578 MiB available memory on the node where the printing process lives
     GPU memory used/free/total (MiB): 2084 / 79066 / 81151
------------------
     ethr =  6.11E-04,  avg # of iterations =  1.1

     total cpu time spent up to now is       47.5 secs

     total energy              =   -1489.07046679 Ry
     estimated scf accuracy    <       0.62541558 Ry

     total magnetization       =     2.59 Bohr mag/cell
     absolute magnetization    =     3.42 Bohr mag/cell
[tb_dev] Currently allocated     7.63E-05 Mbytes, locked:    0 /   2
[tb_pin] Currently allocated     0.00E+00 Mbytes, locked:    0 /   0

     iteration # 17     ecut=    60.00 Ry     beta= 0.30
     Davidson diagonalization with overlap

---- Real-time Memory Report at c_bands before calling an iterative solver
          1209 MiB given to the printing process from OS
             0 MiB allocation reported by mallinfo(arena+hblkhd)
        699536 MiB available memory on the node where the printing process lives
     GPU memory used/free/total (MiB): 2084 / 79066 / 81151
------------------
     ethr =  6.11E-04,  avg # of iterations =  1.5

     negative rho (up, down):  3.889E-07 0.000E+00

     total cpu time spent up to now is       50.0 secs

     total energy              =   -1489.05351362 Ry
     estimated scf accuracy    <       0.17725780 Ry

     total magnetization       =     2.00 Bohr mag/cell
     absolute magnetization    =     2.43 Bohr mag/cell
[tb_dev] Currently allocated     7.63E-05 Mbytes, locked:    0 /   2
[tb_pin] Currently allocated     0.00E+00 Mbytes, locked:    0 /   0

     iteration # 18     ecut=    60.00 Ry     beta= 0.30
     Davidson diagonalization with overlap

---- Real-time Memory Report at c_bands before calling an iterative solver
          1212 MiB given to the printing process from OS
             0 MiB allocation reported by mallinfo(arena+hblkhd)
        699552 MiB available memory on the node where the printing process lives
     GPU memory used/free/total (MiB): 2084 / 79066 / 81151
------------------
     c_bands:  1 eigenvalues not converged
     c_bands:  2 eigenvalues not converged
     ethr =  1.85E-04,  avg # of iterations = 11.9

     total cpu time spent up to now is       53.7 secs

     total energy              =   -1489.03401795 Ry
     estimated scf accuracy    <       0.26500017 Ry

     total magnetization       =     2.22 Bohr mag/cell
     absolute magnetization    =     2.41 Bohr mag/cell
[tb_dev] Currently allocated     7.63E-05 Mbytes, locked:    0 /   2
[tb_pin] Currently allocated     0.00E+00 Mbytes, locked:    0 /   0

     iteration # 19     ecut=    60.00 Ry     beta= 0.30
     Davidson diagonalization with overlap

---- Real-time Memory Report at c_bands before calling an iterative solver
          1212 MiB given to the printing process from OS
             0 MiB allocation reported by mallinfo(arena+hblkhd)
        699581 MiB available memory on the node where the printing process lives
     GPU memory used/free/total (MiB): 2084 / 79066 / 81151
------------------
     ethr =  1.85E-04,  avg # of iterations =  2.8

     total cpu time spent up to now is       56.3 secs

     total energy              =   -1489.13953877 Ry
     estimated scf accuracy    <       0.18893308 Ry

     total magnetization       =     2.04 Bohr mag/cell
     absolute magnetization    =     2.28 Bohr mag/cell
[tb_dev] Currently allocated     7.63E-05 Mbytes, locked:    0 /   2
[tb_pin] Currently allocated     0.00E+00 Mbytes, locked:    0 /   0

     iteration # 20     ecut=    60.00 Ry     beta= 0.30
     Davidson diagonalization with overlap

---- Real-time Memory Report at c_bands before calling an iterative solver
          1212 MiB given to the printing process from OS
             0 MiB allocation reported by mallinfo(arena+hblkhd)
        699577 MiB available memory on the node where the printing process lives
     GPU memory used/free/total (MiB): 2084 / 79066 / 81151
------------------
     ethr =  1.85E-04,  avg # of iterations =  1.0

     total cpu time spent up to now is       58.7 secs

     total energy              =   -1489.12689853 Ry
     estimated scf accuracy    <       0.14992127 Ry

     total magnetization       =     2.15 Bohr mag/cell
     absolute magnetization    =     2.28 Bohr mag/cell
[tb_dev] Currently allocated     7.63E-05 Mbytes, locked:    0 /   2
[tb_pin] Currently allocated     0.00E+00 Mbytes, locked:    0 /   0

     iteration # 21     ecut=    60.00 Ry     beta= 0.30
     Davidson diagonalization with overlap

---- Real-time Memory Report at c_bands before calling an iterative solver
          1212 MiB given to the printing process from OS
             0 MiB allocation reported by mallinfo(arena+hblkhd)
        699554 MiB available memory on the node where the printing process lives
     GPU memory used/free/total (MiB): 2084 / 79066 / 81151
------------------
     ethr =  1.56E-04,  avg # of iterations =  1.4

     total cpu time spent up to now is       61.2 secs

     total energy              =   -1489.11627220 Ry
     estimated scf accuracy    <       0.10723701 Ry

     total magnetization       =     2.12 Bohr mag/cell
     absolute magnetization    =     2.22 Bohr mag/cell
[tb_dev] Currently allocated     7.63E-05 Mbytes, locked:    0 /   2
[tb_pin] Currently allocated     0.00E+00 Mbytes, locked:    0 /   0

     iteration # 22     ecut=    60.00 Ry     beta= 0.30
     Davidson diagonalization with overlap

---- Real-time Memory Report at c_bands before calling an iterative solver
          1212 MiB given to the printing process from OS
             0 MiB allocation reported by mallinfo(arena+hblkhd)
        699518 MiB available memory on the node where the printing process lives
     GPU memory used/free/total (MiB): 2084 / 79066 / 81151
------------------
     ethr =  1.12E-04,  avg # of iterations =  2.1

     total cpu time spent up to now is       63.8 secs

     total energy              =   -1489.11415072 Ry
     estimated scf accuracy    <       0.05511044 Ry

     total magnetization       =     2.34 Bohr mag/cell
     absolute magnetization    =     2.40 Bohr mag/cell
[tb_dev] Currently allocated     7.63E-05 Mbytes, locked:    0 /   2
[tb_pin] Currently allocated     0.00E+00 Mbytes, locked:    0 /   0

     iteration # 23     ecut=    60.00 Ry     beta= 0.30
     Davidson diagonalization with overlap

---- Real-time Memory Report at c_bands before calling an iterative solver
          1212 MiB given to the printing process from OS
             0 MiB allocation reported by mallinfo(arena+hblkhd)
        699509 MiB available memory on the node where the printing process lives
     GPU memory used/free/total (MiB): 2084 / 79066 / 81151
------------------
     ethr =  5.74E-05,  avg # of iterations =  2.1

     total cpu time spent up to now is       66.3 secs

     total energy              =   -1489.10185430 Ry
     estimated scf accuracy    <       0.02761508 Ry

     total magnetization       =     2.31 Bohr mag/cell
     absolute magnetization    =     2.38 Bohr mag/cell
[tb_dev] Currently allocated     7.63E-05 Mbytes, locked:    0 /   2
[tb_pin] Currently allocated     0.00E+00 Mbytes, locked:    0 /   0

     iteration # 24     ecut=    60.00 Ry     beta= 0.30
     Davidson diagonalization with overlap

---- Real-time Memory Report at c_bands before calling an iterative solver
          1212 MiB given to the printing process from OS
             0 MiB allocation reported by mallinfo(arena+hblkhd)
        699509 MiB available memory on the node where the printing process lives
     GPU memory used/free/total (MiB): 2084 / 79066 / 81151
------------------
     c_bands:  2 eigenvalues not converged
     c_bands:  1 eigenvalues not converged
     c_bands:  2 eigenvalues not converged
     c_bands:  1 eigenvalues not converged
     ethr =  2.88E-05,  avg # of iterations =  9.4

     total cpu time spent up to now is       69.6 secs

     total energy              =   -1489.09284040 Ry
     estimated scf accuracy    <       0.28610732 Ry

     total magnetization       =     3.13 Bohr mag/cell
     absolute magnetization    =     3.22 Bohr mag/cell
[tb_dev] Currently allocated     7.63E-05 Mbytes, locked:    0 /   2
[tb_pin] Currently allocated     0.00E+00 Mbytes, locked:    0 /   0

     iteration # 25     ecut=    60.00 Ry     beta= 0.30
     Davidson diagonalization with overlap

---- Real-time Memory Report at c_bands before calling an iterative solver
          1212 MiB given to the printing process from OS
             0 MiB allocation reported by mallinfo(arena+hblkhd)
        699510 MiB available memory on the node where the printing process lives
     GPU memory used/free/total (MiB): 2084 / 79066 / 81151
------------------
     ethr =  2.88E-05,  avg # of iterations =  3.7

     total cpu time spent up to now is       72.3 secs

     total energy              =   -1489.11306210 Ry
     estimated scf accuracy    <       0.00268971 Ry

     total magnetization       =     2.47 Bohr mag/cell
     absolute magnetization    =     2.53 Bohr mag/cell
[tb_dev] Currently allocated     7.63E-05 Mbytes, locked:    0 /   2
[tb_pin] Currently allocated     0.00E+00 Mbytes, locked:    0 /   0

     iteration # 26     ecut=    60.00 Ry     beta= 0.30
     Davidson diagonalization with overlap

---- Real-time Memory Report at c_bands before calling an iterative solver
          1213 MiB given to the printing process from OS
             0 MiB allocation reported by mallinfo(arena+hblkhd)
        699501 MiB available memory on the node where the printing process lives
     GPU memory used/free/total (MiB): 2084 / 79066 / 81151
------------------
     c_bands:  1 eigenvalues not converged
     c_bands:  1 eigenvalues not converged
     c_bands:  1 eigenvalues not converged
     c_bands:  1 eigenvalues not converged
     c_bands:  2 eigenvalues not converged
     ethr =  2.80E-06,  avg # of iterations = 11.5

     total cpu time spent up to now is       75.9 secs

     total energy              =   -1489.11274766 Ry
     estimated scf accuracy    <       0.00762686 Ry

     total magnetization       =     2.33 Bohr mag/cell
     absolute magnetization    =     2.42 Bohr mag/cell
[tb_dev] Currently allocated     7.63E-05 Mbytes, locked:    0 /   2
[tb_pin] Currently allocated     0.00E+00 Mbytes, locked:    0 /   0

     iteration # 27     ecut=    60.00 Ry     beta= 0.30
     Davidson diagonalization with overlap

---- Real-time Memory Report at c_bands before calling an iterative solver
          1213 MiB given to the printing process from OS
             0 MiB allocation reported by mallinfo(arena+hblkhd)
        699527 MiB available memory on the node where the printing process lives
     GPU memory used/free/total (MiB): 2084 / 79066 / 81151
------------------
     c_bands:  1 eigenvalues not converged
     ethr =  2.80E-06,  avg # of iterations =  4.0

     total cpu time spent up to now is       78.7 secs

     total energy              =   -1489.11322442 Ry
     estimated scf accuracy    <       0.00011780 Ry

     total magnetization       =     2.45 Bohr mag/cell
     absolute magnetization    =     2.55 Bohr mag/cell
[tb_dev] Currently allocated     7.63E-05 Mbytes, locked:    0 /   2
[tb_pin] Currently allocated     0.00E+00 Mbytes, locked:    0 /   0

     iteration # 28     ecut=    60.00 Ry     beta= 0.30
     Davidson diagonalization with overlap

---- Real-time Memory Report at c_bands before calling an iterative solver
          1214 MiB given to the printing process from OS
             0 MiB allocation reported by mallinfo(arena+hblkhd)
        700265 MiB available memory on the node where the printing process lives
     GPU memory used/free/total (MiB): 2084 / 79066 / 81151
------------------
     ethr =  1.23E-07,  avg # of iterations = 10.1

     total cpu time spent up to now is       82.4 secs

     total energy              =   -1489.11328415 Ry
     estimated scf accuracy    <       0.00006321 Ry

     total magnetization       =     2.45 Bohr mag/cell
     absolute magnetization    =     2.56 Bohr mag/cell
[tb_dev] Currently allocated     7.63E-05 Mbytes, locked:    0 /   2
[tb_pin] Currently allocated     0.00E+00 Mbytes, locked:    0 /   0

     iteration # 29     ecut=    60.00 Ry     beta= 0.30
     Davidson diagonalization with overlap

---- Real-time Memory Report at c_bands before calling an iterative solver
          1214 MiB given to the printing process from OS
             0 MiB allocation reported by mallinfo(arena+hblkhd)
        699819 MiB available memory on the node where the printing process lives
     GPU memory used/free/total (MiB): 2084 / 79066 / 81151
------------------
     ethr =  6.58E-08,  avg # of iterations =  2.4

     total cpu time spent up to now is       85.0 secs

     total energy              =   -1489.11324638 Ry
     estimated scf accuracy    <       0.00087721 Ry

     total magnetization       =     2.49 Bohr mag/cell
     absolute magnetization    =     2.61 Bohr mag/cell
[tb_dev] Currently allocated     7.63E-05 Mbytes, locked:    0 /   2
[tb_pin] Currently allocated     0.00E+00 Mbytes, locked:    0 /   0

     iteration # 30     ecut=    60.00 Ry     beta= 0.30
     Davidson diagonalization with overlap

---- Real-time Memory Report at c_bands before calling an iterative solver
          1214 MiB given to the printing process from OS
             0 MiB allocation reported by mallinfo(arena+hblkhd)
        699350 MiB available memory on the node where the printing process lives
     GPU memory used/free/total (MiB): 2084 / 79066 / 81151
------------------
     ethr =  6.58E-08,  avg # of iterations =  1.6

     total cpu time spent up to now is       87.5 secs

     total energy              =   -1489.11332146 Ry
     estimated scf accuracy    <       0.00002083 Ry

     total magnetization       =     2.44 Bohr mag/cell
     absolute magnetization    =     2.57 Bohr mag/cell
[tb_dev] Currently allocated     7.63E-05 Mbytes, locked:    0 /   2
[tb_pin] Currently allocated     0.00E+00 Mbytes, locked:    0 /   0

     iteration # 31     ecut=    60.00 Ry     beta= 0.30
     Davidson diagonalization with overlap

---- Real-time Memory Report at c_bands before calling an iterative solver
          1214 MiB given to the printing process from OS
             0 MiB allocation reported by mallinfo(arena+hblkhd)
        699339 MiB available memory on the node where the printing process lives
     GPU memory used/free/total (MiB): 2084 / 79066 / 81151
------------------
     ethr =  2.17E-08,  avg # of iterations =  3.3

     total cpu time spent up to now is       90.1 secs

     total energy              =   -1489.11331383 Ry
     estimated scf accuracy    <       0.00012011 Ry

     total magnetization       =     2.43 Bohr mag/cell
     absolute magnetization    =     2.56 Bohr mag/cell
[tb_dev] Currently allocated     7.63E-05 Mbytes, locked:    0 /   2
[tb_pin] Currently allocated     0.00E+00 Mbytes, locked:    0 /   0

     iteration # 32     ecut=    60.00 Ry     beta= 0.30
     Davidson diagonalization with overlap

---- Real-time Memory Report at c_bands before calling an iterative solver
          1214 MiB given to the printing process from OS
             0 MiB allocation reported by mallinfo(arena+hblkhd)
        699340 MiB available memory on the node where the printing process lives
     GPU memory used/free/total (MiB): 2084 / 79066 / 81151
------------------
     ethr =  2.17E-08,  avg # of iterations =  1.6

     total cpu time spent up to now is       92.6 secs

     total energy              =   -1489.11332235 Ry
     estimated scf accuracy    <       0.00000029 Ry

     total magnetization       =     2.44 Bohr mag/cell
     absolute magnetization    =     2.58 Bohr mag/cell
[tb_dev] Currently allocated     7.63E-05 Mbytes, locked:    0 /   2
[tb_pin] Currently allocated     0.00E+00 Mbytes, locked:    0 /   0

     iteration # 33     ecut=    60.00 Ry     beta= 0.30
     Davidson diagonalization with overlap

---- Real-time Memory Report at c_bands before calling an iterative solver
          1214 MiB given to the printing process from OS
             0 MiB allocation reported by mallinfo(arena+hblkhd)
        699334 MiB available memory on the node where the printing process lives
     GPU memory used/free/total (MiB): 2084 / 79066 / 81151
------------------
     c_bands:  3 eigenvalues not converged
     c_bands:  1 eigenvalues not converged
     c_bands:  2 eigenvalues not converged
     c_bands:  2 eigenvalues not converged
     c_bands:  2 eigenvalues not converged
     c_bands:  1 eigenvalues not converged
     ethr =  3.04E-10,  avg # of iterations = 17.4

     total cpu time spent up to now is       97.5 secs

     total energy              =   -1489.11332416 Ry
     estimated scf accuracy    <       0.00000023 Ry

     total magnetization       =     2.44 Bohr mag/cell
     absolute magnetization    =     2.58 Bohr mag/cell
[tb_dev] Currently allocated     7.63E-05 Mbytes, locked:    0 /   2
[tb_pin] Currently allocated     0.00E+00 Mbytes, locked:    0 /   0

     iteration # 34     ecut=    60.00 Ry     beta= 0.30
     Davidson diagonalization with overlap

---- Real-time Memory Report at c_bands before calling an iterative solver
          1214 MiB given to the printing process from OS
             0 MiB allocation reported by mallinfo(arena+hblkhd)
        699313 MiB available memory on the node where the printing process lives
     GPU memory used/free/total (MiB): 2084 / 79066 / 81151
------------------
     ethr =  2.40E-10,  avg # of iterations =  2.3

     total cpu time spent up to now is      100.1 secs

     total energy              =   -1489.11332471 Ry
     estimated scf accuracy    <       0.00000014 Ry

     total magnetization       =     2.44 Bohr mag/cell
     absolute magnetization    =     2.58 Bohr mag/cell
[tb_dev] Currently allocated     7.63E-05 Mbytes, locked:    0 /   2
[tb_pin] Currently allocated     0.00E+00 Mbytes, locked:    0 /   0

     iteration # 35     ecut=    60.00 Ry     beta= 0.30
     Davidson diagonalization with overlap

---- Real-time Memory Report at c_bands before calling an iterative solver
          1214 MiB given to the printing process from OS
             0 MiB allocation reported by mallinfo(arena+hblkhd)
        699273 MiB available memory on the node where the printing process lives
     GPU memory used/free/total (MiB): 2084 / 79066 / 81151
------------------
     ethr =  1.47E-10,  avg # of iterations =  4.7
 
     Magnetic moment per site  (integrated on atomic sphere of radius R)
     atom   1 (R=0.161)  charge= 14.1600  magn=  0.6533
     atom   2 (R=0.161)  charge= 14.1592  magn=  0.6516
     atom   3 (R=0.161)  charge= 14.1592  magn=  0.6516
     atom   4 (R=0.161)  charge=  5.2532  magn=  0.0613
     atom   5 (R=0.161)  charge=  5.2532  magn=  0.0613
     atom   6 (R=0.161)  charge=  5.2532  magn=  0.0613
     atom   7 (R=0.161)  charge=  5.2559  magn=  0.0598
     atom   8 (R=0.161)  charge=  5.2559  magn=  0.0598
     atom   9 (R=0.161)  charge=  5.2559  magn=  0.0598
     atom  10 (R=0.341)  charge=  8.1542  magn= -0.0253

     total cpu time spent up to now is      103.1 secs

     End of self-consistent calculation

 ------ SPIN UP ------------


          k = 0.0000 0.0000 0.0000 ( 11393 PWs)   bands (ev):

   -93.5239 -93.5186 -93.5183 -56.7715 -56.7637 -56.7615 -56.7409 -56.7409
   -56.7402 -56.7402 -56.7038 -56.7038 -52.3036 -24.2212 -24.2212 -24.1780
   -16.5583 -15.0178 -15.0178 -15.0038 -15.0038 -14.9484  -3.0026  -2.7003
    -2.7003  -2.6870  -2.6870  -2.3393  -2.3393  -2.2680  -2.2593  -0.9302
    -0.9302  -0.9122  -0.9122  -0.5174  -0.5077   0.4633   0.7292   0.7292
     0.7649   0.7657   1.1341   1.1341   1.7149   1.7708   1.7708   1.7759
     1.7759   2.1928   3.7970   3.7970   3.8022   3.8022   4.4303   4.4303
     6.0251   8.4313   9.1747   9.1747   9.9962   9.9962  10.4961  10.8621

     occupation numbers 
     1.0000   1.0000   1.0000   1.0000   1.0000   1.0000   1.0000   1.0000
     1.0000   1.0000   1.0000   1.0000   1.0000   1.0000   1.0000   1.0000
     1.0000   1.0000   1.0000   1.0000   1.0000   1.0000   1.0000   1.0000
     1.0000   1.0000   1.0000   1.0000   1.0000   1.0000   1.0000   1.0000
     1.0000   1.0000   1.0000   1.0000   1.0000   1.0000   1.0000   1.0000
     1.0000   1.0000   1.0000   1.0000   1.0073   1.0145   1.0145   1.0153
     1.0153   0.9698   0.0000   0.0000   0.0000   0.0000   0.0000   0.0000
     0.0000   0.0000   0.0000   0.0000   0.0000   0.0000   0.0000   0.0000

          k = 0.0000 0.0000-0.2526 ( 11446 PWs)   bands (ev):

   -93.5239 -93.5186 -93.5183 -56.7717 -56.7638 -56.7616 -56.7410 -56.7410
   -56.7402 -56.7402 -56.7038 -56.7038 -52.3037 -24.2213 -24.2213 -24.1782
   -16.5584 -15.0179 -15.0179 -15.0038 -15.0038 -14.9485  -3.0000  -2.7003
    -2.7003  -2.6870  -2.6870  -2.3393  -2.3393  -2.2679  -2.2592  -0.9303
    -0.9303  -0.9122  -0.9122  -0.5176  -0.5078   0.4082   0.7291   0.7291
     0.7649   0.7657   1.1341   1.1341   1.7707   1.7707   1.7758   1.7758
     1.8221   2.1879   3.7974   3.7974   3.8025   3.8025   4.4303   4.4303
     5.7559   9.1648   9.1648   9.4427   9.9757   9.9859   9.9859  10.6738

     occupation numbers 
     1.0000   1.0000   1.0000   1.0000   1.0000   1.0000   1.0000   1.0000
     1.0000   1.0000   1.0000   1.0000   1.0000   1.0000   1.0000   1.0000
     1.0000   1.0000   1.0000   1.0000   1.0000   1.0000   1.0000   1.0000
     1.0000   1.0000   1.0000   1.0000   1.0000   1.0000   1.0000   1.0000
     1.0000   1.0000   1.0000   1.0000   1.0000   1.0000   1.0000   1.0000
     1.0000   1.0000   1.0000   1.0000   1.0145   1.0145   1.0153   1.0153
     1.0249   0.9776   0.0000   0.0000   0.0000   0.0000   0.0000   0.0000
     0.0000   0.0000   0.0000   0.0000   0.0000   0.0000   0.0000   0.0000

          k = 0.0000 0.1925 0.0000 ( 11360 PWs)   bands (ev):

   -93.5234 -93.5188 -93.5185 -56.7708 -56.7640 -56.7617 -56.7488 -56.7465
   -56.7311 -56.7300 -56.7084 -56.7049 -52.3036 -24.2213 -24.2212 -24.1778
   -16.4606 -15.1393 -15.0628 -15.0115 -14.9624 -14.9420  -3.1058  -2.8829
    -2.8736  -2.6911  -2.5972  -2.4581  -2.2779  -1.8936  -1.7160  -1.1833
    -1.1602  -1.0218  -0.9886  -0.2274  -0.1817   0.2161   0.3038   0.6833
     0.8374   0.9099   1.1704   1.4353   1.5298   1.5533   1.8285   1.8454
     1.9165   2.3980   3.7624   3.8491   3.8596   3.8667   4.1593   4.3669
     6.2307   7.5035   8.4935   8.7707   9.2167  10.8840  11.0884  11.6107

     occupation numbers 
     1.0000   1.0000   1.0000   1.0000   1.0000   1.0000   1.0000   1.0000
     1.0000   1.0000   1.0000   1.0000   1.0000   1.0000   1.0000   1.0000
     1.0000   1.0000   1.0000   1.0000   1.0000   1.0000   1.0000   1.0000
     1.0000   1.0000   1.0000   1.0000   1.0000   1.0000   1.0000   1.0000
     1.0000   1.0000   1.0000   1.0000   1.0000   1.0000   1.0000   1.0000
     1.0000   1.0000   1.0000   1.0001   1.0004   1.0006   1.0265   1.0310
     1.0538   0.4663   0.0000   0.0000   0.0000   0.0000   0.0000   0.0000
     0.0000   0.0000   0.0000   0.0000   0.0000   0.0000   0.0000   0.0000

          k = 0.0000 0.1925-0.2526 ( 11384 PWs)   bands (ev):

   -93.5234 -93.5188 -93.5185 -56.7709 -56.7640 -56.7618 -56.7488 -56.7465
   -56.7311 -56.7300 -56.7084 -56.7050 -52.3036 -24.2213 -24.2212 -24.1780
   -16.4606 -15.1393 -15.0628 -15.0115 -14.9624 -14.9421  -3.1058  -2.8810
    -2.8733  -2.6911  -2.5972  -2.4584  -2.2779  -1.8936  -1.7160  -1.1834
    -1.1603  -1.0216  -0.9886  -0.2274  -0.1817   0.2162   0.3017   0.6381
     0.8374   0.9099   1.1704   1.4343   1.5299   1.5534   1.8452   1.9150
     1.9162   2.3921   3.7637   3.8493   3.8601   3.8664   4.1753   4.3651
     5.9954   7.4944   8.4848   9.1509   9.7718  10.3223  10.9938  11.0793

     occupation numbers 
     1.0000   1.0000   1.0000   1.0000   1.0000   1.0000   1.0000   1.0000
     1.0000   1.0000   1.0000   1.0000   1.0000   1.0000   1.0000   1.0000
     1.0000   1.0000   1.0000   1.0000   1.0000   1.0000   1.0000   1.0000
     1.0000   1.0000   1.0000   1.0000   1.0000   1.0000   1.0000   1.0000
     1.0000   1.0000   1.0000   1.0000   1.0000   1.0000   1.0000   1.0000
     1.0000   1.0000   1.0000   1.0001   1.0004   1.0006   1.0310   1.0533
     1.0538   0.4821   0.0000   0.0000   0.0000   0.0000   0.0000   0.0000
     0.0000   0.0000   0.0000   0.0000   0.0000   0.0000   0.0000   0.0000

          k = 0.0000 0.3849 0.0000 ( 11350 PWs)   bands (ev):

   -93.5223 -93.5196 -93.5189 -56.7691 -56.7650 -56.7625 -56.7544 -56.7442
   -56.7219 -56.7207 -56.7199 -56.7084 -52.3036 -24.2215 -24.2213 -24.1778
   -16.1894 -15.4246 -15.1017 -15.0616 -14.9304 -14.9283  -3.5151  -2.7334
    -2.7181  -2.6614  -2.5555  -2.3586  -2.1416  -1.6986  -1.5659  -1.3064
    -1.2984  -1.1807  -0.7026  -0.6404  -0.2762   0.0541   0.3580   0.8951
     0.9817   1.1785   1.2806   1.2942   1.3325   1.7057   1.7298   1.9128
     1.9677   2.9886   3.7127   3.7821   3.8094   3.8720   4.1479   4.1796
     5.6404   6.7993   7.9069   8.5287   9.2015   9.6936  11.5428  11.7065

     occupation numbers 
     1.0000   1.0000   1.0000   1.0000   1.0000   1.0000   1.0000   1.0000
     1.0000   1.0000   1.0000   1.0000   1.0000   1.0000   1.0000   1.0000
     1.0000   1.0000   1.0000   1.0000   1.0000   1.0000   1.0000   1.0000
     1.0000   1.0000   1.0000   1.0000   1.0000   1.0000   1.0000   1.0000
     1.0000   1.0000   1.0000   1.0000   1.0000   1.0000   1.0000   1.0000
     1.0000   1.0000   1.0000   1.0000   1.0000   1.0064   1.0088   1.0526
     1.0708   0.0002   0.0000   0.0000   0.0000   0.0000   0.0000   0.0000
     0.0000   0.0000   0.0000   0.0000   0.0000   0.0000   0.0000   0.0000

          k = 0.0000 0.3849-0.2526 ( 11352 PWs)   bands (ev):

   -93.5223 -93.5196 -93.5188 -56.7692 -56.7650 -56.7625 -56.7543 -56.7442
   -56.7220 -56.7206 -56.7199 -56.7084 -52.3036 -24.2214 -24.2213 -24.1779
   -16.1894 -15.4246 -15.1017 -15.0616 -14.9304 -14.9283  -3.5150  -2.7334
    -2.7183  -2.6620  -2.5540  -2.3585  -2.1416  -1.6986  -1.5659  -1.3062
    -1.2979  -1.1808  -0.7021  -0.6404  -0.2762   0.0544   0.3578   0.8951
     0.9604   1.1788   1.2810   1.2942   1.3326   1.7055   1.7252   1.9401
     1.9663   2.9704   3.7764   3.7877   3.8038   3.8719   4.1483   4.1657
     5.6394   6.6504   7.9033   8.5150   9.2054  10.3404  11.3084  11.5635

     occupation numbers 
     1.0000   1.0000   1.0000   1.0000   1.0000   1.0000   1.0000   1.0000
     1.0000   1.0000   1.0000   1.0000   1.0000   1.0000   1.0000   1.0000
     1.0000   1.0000   1.0000   1.0000   1.0000   1.0000   1.0000   1.0000
     1.0000   1.0000   1.0000   1.0000   1.0000   1.0000   1.0000   1.0000
     1.0000   1.0000   1.0000   1.0000   1.0000   1.0000   1.0000   1.0000
     1.0000   1.0000   1.0000   1.0000   1.0000   1.0064   1.0083   1.0620
     1.0704   0.0003   0.0000   0.0000   0.0000   0.0000   0.0000   0.0000
     0.0000   0.0000   0.0000   0.0000   0.0000   0.0000   0.0000   0.0000

          k = 0.0000-0.5774 0.0000 ( 11352 PWs)   bands (ev):

   -93.5210 -93.5207 -93.5190 -56.7674 -56.7662 -56.7630 -56.7563 -56.7345
   -56.7338 -56.7166 -56.7146 -56.7139 -52.3036 -24.2217 -24.2214 -24.1778
   -15.8110 -15.8097 -15.1166 -15.0872 -14.9207 -14.9200  -3.6647  -2.7585
    -2.7520  -2.3422  -2.3422  -2.1024  -1.9952  -1.9948  -1.8637  -1.3257
    -1.3149  -1.3124  -0.8247  -0.8243  -0.1688   0.1578   0.8376   0.8664
     0.8695   1.1652   1.1919   1.1928   1.5793   1.7322   1.7379   1.8956
     1.8966   3.6271   3.6426   3.7350   3.8744   3.8924   4.0452   4.3318
     4.3898   7.4638   7.7058   8.1536   8.3135  10.7878  10.9982  11.3361

     occupation numbers 
     1.0000   1.0000   1.0000   1.0000   1.0000   1.0000   1.0000   1.0000
     1.0000   1.0000   1.0000   1.0000   1.0000   1.0000   1.0000   1.0000
     1.0000   1.0000   1.0000   1.0000   1.0000   1.0000   1.0000   1.0000
     1.0000   1.0000   1.0000   1.0000   1.0000   1.0000   1.0000   1.0000
     1.0000   1.0000   1.0000   1.0000   1.0000   1.0000   1.0000   1.0000
     1.0000   1.0000   1.0000   1.0000   1.0009   1.0091   1.0098   1.0467
     1.0470   0.0000   0.0000   0.0000   0.0000   0.0000   0.0000   0.0000
     0.0000   0.0000   0.0000   0.0000   0.0000   0.0000   0.0000   0.0000

          k = 0.0000-0.5774-0.2526 ( 11344 PWs)   bands (ev):

   -93.5210 -93.5207 -93.5190 -56.7675 -56.7663 -56.7629 -56.7562 -56.7346
   -56.7338 -56.7166 -56.7145 -56.7138 -52.3036 -24.2217 -24.2213 -24.1778
   -15.8110 -15.8097 -15.1166 -15.0872 -14.9207 -14.9201  -3.6647  -2.7591
    -2.7523  -2.3421  -2.3420  -2.1024  -1.9945  -1.9944  -1.8637  -1.3250
    -1.3147  -1.3119  -0.8248  -0.8243  -0.1686   0.1583   0.8376   0.8644
     0.8664   1.1652   1.1924   1.1931   1.5791   1.7376   1.7409   1.8894
     1.8931   3.5106   3.6054   3.8721   3.9247   3.9272   3.9931   4.3318
     4.4069   7.4075   7.7060   8.0849   8.2949  11.0750  11.3383  11.3609

     occupation numbers 
     1.0000   1.0000   1.0000   1.0000   1.0000   1.0000   1.0000   1.0000
     1.0000   1.0000   1.0000   1.0000   1.0000   1.0000   1.0000   1.0000
     1.0000   1.0000   1.0000   1.0000   1.0000   1.0000   1.0000   1.0000
     1.0000   1.0000   1.0000   1.0000   1.0000   1.0000   1.0000   1.0000
     1.0000   1.0000   1.0000   1.0000   1.0000   1.0000   1.0000   1.0000
     1.0000   1.0000   1.0000   1.0000   1.0009   1.0097   1.0101   1.0446
     1.0459   0.0000   0.0000   0.0000   0.0000   0.0000   0.0000   0.0000
     0.0000   0.0000   0.0000   0.0000   0.0000   0.0000   0.0000   0.0000

          k = 0.1667 0.2887 0.0000 ( 11373 PWs)   bands (ev):

   -93.5227 -93.5192 -93.5189 -56.7696 -56.7646 -56.7624 -56.7497 -56.7496
   -56.7234 -56.7232 -56.7169 -56.7069 -52.3036 -24.2215 -24.2213 -24.1779
   -16.2762 -15.2424 -15.2420 -14.9646 -14.9645 -14.9322  -3.1855  -3.1851
    -2.6802  -2.5976  -2.5280  -2.5228  -2.1651  -1.6263  -1.6226  -1.2072
    -1.2019  -1.0248  -1.0209  -0.5751   0.0431   0.0770   0.0780   0.8828
     1.0521   1.0536   1.1942   1.3536   1.3539   1.6374   1.8636   1.8648
     1.9178   2.7871   3.7599   3.7954   3.8017   3.9770   3.9784   4.3002
     6.5400   6.6169   6.8638   9.3885   9.9165  10.2935  10.5355  10.8075

     occupation numbers 
     1.0000   1.0000   1.0000   1.0000   1.0000   1.0000   1.0000   1.0000
     1.0000   1.0000   1.0000   1.0000   1.0000   1.0000   1.0000   1.0000
     1.0000   1.0000   1.0000   1.0000   1.0000   1.0000   1.0000   1.0000
     1.0000   1.0000   1.0000   1.0000   1.0000   1.0000   1.0000   1.0000
     1.0000   1.0000   1.0000   1.0000   1.0000   1.0000   1.0000   1.0000
     1.0000   1.0000   1.0000   1.0000   1.0000   1.0024   1.0364   1.0367
     1.0543   0.0080   0.0000   0.0000   0.0000   0.0000   0.0000   0.0000
     0.0000   0.0000   0.0000   0.0000   0.0000   0.0000   0.0000   0.0000

          k = 0.1667 0.2887-0.2526 ( 11348 PWs)   bands (ev):

   -93.5227 -93.5192 -93.5189 -56.7697 -56.7646 -56.7623 -56.7497 -56.7496
   -56.7233 -56.7231 -56.7169 -56.7069 -52.3036 -24.2214 -24.2212 -24.1779
   -16.2762 -15.2424 -15.2420 -14.9646 -14.9645 -14.9322  -3.1855  -3.1851
    -2.6791  -2.5975  -2.5281  -2.5228  -2.1651  -1.6263  -1.6226  -1.2069
    -1.2017  -1.0248  -1.0209  -0.5746   0.0431   0.0771   0.0781   0.8582
     1.0522   1.0537   1.1877   1.3537   1.3540   1.6374   1.8631   1.8644
     1.9577   2.7814   3.7955   3.7964   3.8020   3.9772   3.9785   4.3002
     6.4366   6.5368   6.8578   9.9234  10.0974  10.2880  10.5747  10.8511

     occupation numbers 
     1.0000   1.0000   1.0000   1.0000   1.0000   1.0000   1.0000   1.0000
     1.0000   1.0000   1.0000   1.0000   1.0000   1.0000   1.0000   1.0000
     1.0000   1.0000   1.0000   1.0000   1.0000   1.0000   1.0000   1.0000
     1.0000   1.0000   1.0000   1.0000   1.0000   1.0000   1.0000   1.0000
     1.0000   1.0000   1.0000   1.0000   1.0000   1.0000   1.0000   1.0000
     1.0000   1.0000   1.0000   1.0000   1.0000   1.0024   1.0362   1.0366
     1.0677   0.0088   0.0000   0.0000   0.0000   0.0000   0.0000   0.0000
     0.0000   0.0000   0.0000   0.0000   0.0000   0.0000   0.0000   0.0000

          k = 0.1667 0.4811 0.0000 ( 11356 PWs)   bands (ev):

   -93.5214 -93.5201 -93.5193 -56.7678 -56.7658 -56.7631 -56.7524 -56.7430
   -56.7304 -56.7167 -56.7164 -56.7108 -52.3036 -24.2216 -24.2214 -24.1779
   -15.9516 -15.5715 -15.3108 -14.9793 -14.9300 -14.9231  -3.4452  -2.9587
    -2.7923  -2.4398  -2.3164  -2.2900  -2.0245  -1.8064  -1.8032  -1.4597
    -1.3852  -1.3081  -0.7217  -0.3833  -0.3523   0.2051   0.5454   0.9077
     1.0066   1.1911   1.2147   1.2850   1.4962   1.6693   1.7269   1.8583
     1.8703   3.4210   3.6206   3.6803   3.7818   4.0636   4.1945   4.2578
     5.0124   6.3064   7.3130   8.6504   9.8898  10.0756  10.4398  11.6712

     occupation numbers 
     1.0000   1.0000   1.0000   1.0000   1.0000   1.0000   1.0000   1.0000
     1.0000   1.0000   1.0000   1.0000   1.0000   1.0000   1.0000   1.0000
     1.0000   1.0000   1.0000   1.0000   1.0000   1.0000   1.0000   1.0000
     1.0000   1.0000   1.0000   1.0000   1.0000   1.0000   1.0000   1.0000
     1.0000   1.0000   1.0000   1.0000   1.0000   1.0000   1.0000   1.0000
     1.0000   1.0000   1.0000   1.0000   1.0002   1.0039   1.0085   1.0348
     1.0384   0.0000   0.0000   0.0000   0.0000   0.0000   0.0000   0.0000
     0.0000   0.0000   0.0000   0.0000   0.0000   0.0000   0.0000   0.0000

          k = 0.1667 0.4811-0.2526 ( 11352 PWs)   bands (ev):

   -93.5214 -93.5201 -93.5193 -56.7678 -56.7658 -56.7631 -56.7524 -56.7430
   -56.7303 -56.7167 -56.7163 -56.7107 -52.3036 -24.2216 -24.2213 -24.1779
   -15.9516 -15.5715 -15.3108 -14.9793 -14.9300 -14.9231  -3.4452  -2.9589
    -2.7927  -2.4399  -2.3156  -2.2902  -2.0244  -1.8064  -1.8033  -1.4589
    -1.3844  -1.3078  -0.7217  -0.3833  -0.3522   0.2054   0.5450   0.9036
     1.0067   1.1914   1.2121   1.2850   1.4968   1.6690   1.7264   1.8570
     1.8762   3.3395   3.6159   3.7719   3.7969   4.0660   4.1889   4.2579
     5.0229   6.3049   7.2264   8.6254   9.9196  10.0703  10.8501  12.0996

     occupation numbers 
     1.0000   1.0000   1.0000   1.0000   1.0000   1.0000   1.0000   1.0000
     1.0000   1.0000   1.0000   1.0000   1.0000   1.0000   1.0000   1.0000
     1.0000   1.0000   1.0000   1.0000   1.0000   1.0000   1.0000   1.0000
     1.0000   1.0000   1.0000   1.0000   1.0000   1.0000   1.0000   1.0000
     1.0000   1.0000   1.0000   1.0000   1.0000   1.0000   1.0000   1.0000
     1.0000   1.0000   1.0000   1.0000   1.0002   1.0039   1.0084   1.0344
     1.0403   0.0000   0.0000   0.0000   0.0000   0.0000   0.0000   0.0000
     0.0000   0.0000   0.0000   0.0000   0.0000   0.0000   0.0000   0.0000

          k = 0.3333 0.5774 0.0000 ( 11370 PWs)   bands (ev):

   -93.5204 -93.5204 -93.5199 -56.7666 -56.7666 -56.7636 -56.7434 -56.7434
   -56.7428 -56.7136 -56.7136 -56.7130 -52.3036 -24.2216 -24.2216 -24.1779
   -15.6286 -15.6271 -15.6271 -14.9336 -14.9329 -14.9329  -3.0648  -3.0630
    -3.0630  -2.3105  -2.3041  -2.3041  -1.8954  -1.8954  -1.8938  -1.5587
    -1.5430  -1.5430  -0.3339  -0.3339  -0.3322   0.5620   0.5620   0.5683
     1.1376   1.1376   1.1382   1.5364   1.5364   1.5379   1.7426   1.7469
     1.7469   3.5268   3.5562   3.5562   4.2633   4.2633   4.2636   4.3481
     4.9861   4.9861   7.7866   8.7360   8.7360  11.1951  11.5504  11.5506

     occupation numbers 
     1.0000   1.0000   1.0000   1.0000   1.0000   1.0000   1.0000   1.0000
     1.0000   1.0000   1.0000   1.0000   1.0000   1.0000   1.0000   1.0000
     1.0000   1.0000   1.0000   1.0000   1.0000   1.0000   1.0000   1.0000
     1.0000   1.0000   1.0000   1.0000   1.0000   1.0000   1.0000   1.0000
     1.0000   1.0000   1.0000   1.0000   1.0000   1.0000   1.0000   1.0000
     1.0000   1.0000   1.0000   1.0004   1.0004   1.0004   1.0104   1.0109
     1.0109   0.0000   0.0000   0.0000   0.0000   0.0000   0.0000   0.0000
     0.0000   0.0000   0.0000   0.0000   0.0000   0.0000   0.0000   0.0000

          k = 0.3333 0.5774-0.2526 ( 11340 PWs)   bands (ev):

   -93.5204 -93.5204 -93.5199 -56.7665 -56.7665 -56.7635 -56.7434 -56.7434
   -56.7428 -56.7135 -56.7135 -56.7130 -52.3036 -24.2215 -24.2215 -24.1778
   -15.6286 -15.6271 -15.6271 -14.9336 -14.9329 -14.9329  -3.0650  -3.0631
    -3.0631  -2.3107  -2.3043  -2.3043  -1.8954  -1.8954  -1.8938  -1.5573
    -1.5423  -1.5423  -0.3339  -0.3339  -0.3321   0.5617   0.5617   0.5678
     1.1374   1.1374   1.1379   1.5364   1.5364   1.5379   1.7431   1.7472
     1.7472   3.5022   3.5470   3.5470   4.2633   4.2633   4.2637   4.3828
     5.0033   5.0033   7.7626   8.7019   8.7019  11.3011  11.7368  11.7368

     occupation numbers 
     1.0000   1.0000   1.0000   1.0000   1.0000   1.0000   1.0000   1.0000
     1.0000   1.0000   1.0000   1.0000   1.0000   1.0000   1.0000   1.0000
     1.0000   1.0000   1.0000   1.0000   1.0000   1.0000   1.0000   1.0000
     1.0000   1.0000   1.0000   1.0000   1.0000   1.0000   1.0000   1.0000
     1.0000   1.0000   1.0000   1.0000   1.0000   1.0000   1.0000   1.0000
     1.0000   1.0000   1.0000   1.0004   1.0004   1.0004   1.0104   1.0110
     1.0110   0.0000   0.0000   0.0000   0.0000   0.0000   0.0000   0.0000
     0.0000   0.0000   0.0000   0.0000   0.0000   0.0000   0.0000   0.0000

 ------ SPIN DOWN ----------


          k = 0.0000 0.0000 0.0000 ( 11393 PWs)   bands (ev):

   -92.7288 -92.7239 -92.7219 -56.0115 -56.0115 -56.0103 -56.0103 -55.9727
   -55.9727 -55.9072 -55.8989 -55.8963 -52.3079 -24.2268 -24.2268 -24.1823
   -16.4583 -14.9097 -14.9097 -14.8934 -14.8934 -14.8421  -2.6766  -2.5301
    -2.5301  -2.5170  -2.5170  -2.1609  -2.1519  -2.0720  -2.0720  -0.6515
    -0.6515  -0.6259  -0.6259  -0.4380  -0.4276   0.6153   1.2147   1.2147
     1.3917   1.3917   1.8275   1.8290   1.9226   2.4190   2.4190   2.4239
     2.4239   2.7800   4.1388   4.1388   4.1444   4.1444   4.7660   4.7660
     6.0250   8.5007   9.1286   9.1286   9.8687   9.8687  10.4205  10.6813

     occupation numbers 
     1.0000   1.0000   1.0000   1.0000   1.0000   1.0000   1.0000   1.0000
     1.0000   1.0000   1.0000   1.0000   1.0000   1.0000   1.0000   1.0000
     1.0000   1.0000   1.0000   1.0000   1.0000   1.0000   1.0000   1.0000
     1.0000   1.0000   1.0000   1.0000   1.0000   1.0000   1.0000   1.0000
     1.0000   1.0000   1.0000   1.0000   1.0000   1.0000   1.0000   1.0000
     1.0000   1.0000   1.0263   1.0267   1.0560   0.4116   0.4116   0.3992
     0.3992   0.0090   0.0000   0.0000   0.0000   0.0000   0.0000   0.0000
     0.0000   0.0000   0.0000   0.0000   0.0000   0.0000   0.0000   0.0000

          k = 0.0000 0.0000-0.2526 ( 11446 PWs)   bands (ev):

   -92.7289 -92.7239 -92.7219 -56.0115 -56.0115 -56.0104 -56.0104 -55.9728
   -55.9728 -55.9074 -55.8990 -55.8964 -52.3079 -24.2269 -24.2269 -24.1825
   -16.4583 -14.9097 -14.9097 -14.8934 -14.8934 -14.8422  -2.6732  -2.5301
    -2.5301  -2.5170  -2.5170  -2.1608  -2.1519  -2.0720  -2.0720  -0.6515
    -0.6515  -0.6259  -0.6259  -0.4382  -0.4278   0.5452   1.2146   1.2146
     1.3917   1.3917   1.8276   1.8290   2.1030   2.4189   2.4189   2.4238
     2.4238   2.7129   4.1392   4.1392   4.1448   4.1448   4.7660   4.7660
     5.7644   9.1187   9.1187   9.4790   9.8587   9.8587  10.0530  10.6354

     occupation numbers 
     1.0000   1.0000   1.0000   1.0000   1.0000   1.0000   1.0000   1.0000
     1.0000   1.0000   1.0000   1.0000   1.0000   1.0000   1.0000   1.0000
     1.0000   1.0000   1.0000   1.0000   1.0000   1.0000   1.0000   1.0000
     1.0000   1.0000   1.0000   1.0000   1.0000   1.0000   1.0000   1.0000
     1.0000   1.0000   1.0000   1.0000   1.0000   1.0000   1.0000   1.0000
     1.0000   1.0000   1.0263   1.0267   1.0668   0.4118   0.4118   0.3994
     0.3994   0.0234   0.0000   0.0000   0.0000   0.0000   0.0000   0.0000
     0.0000   0.0000   0.0000   0.0000   0.0000   0.0000   0.0000   0.0000

          k = 0.0000 0.1925 0.0000 ( 11360 PWs)   bands (ev):

   -92.7284 -92.7241 -92.7221 -56.0195 -56.0171 -56.0011 -55.9999 -55.9775
   -55.9739 -55.9064 -55.8992 -55.8966 -52.3078 -24.2269 -24.2268 -24.1821
   -16.3602 -15.0318 -14.9553 -14.9008 -14.8519 -14.8352  -2.9460  -2.7280
    -2.5568  -2.5044  -2.4399  -2.2024  -2.0166  -1.7642  -1.5677  -0.9903
    -0.9526  -0.7229  -0.7003  -0.0605  -0.0135   0.5002   0.6385   0.8646
     1.6981   1.8171   1.8651   1.9257   2.1312   2.2161   2.2370   2.4627
     2.5199   2.8397   4.1016   4.1898   4.2101   4.2149   4.4968   4.6984
     6.2352   7.4146   8.4190   8.8134   9.1214  10.8795  10.9979  11.5546

     occupation numbers 
     1.0000   1.0000   1.0000   1.0000   1.0000   1.0000   1.0000   1.0000
     1.0000   1.0000   1.0000   1.0000   1.0000   1.0000   1.0000   1.0000
     1.0000   1.0000   1.0000   1.0000   1.0000   1.0000   1.0000   1.0000
     1.0000   1.0000   1.0000   1.0000   1.0000   1.0000   1.0000   1.0000
     1.0000   1.0000   1.0000   1.0000   1.0000   1.0000   1.0000   1.0000
     1.0058   1.0237   1.0368   1.0570   1.0466   0.9285   0.8862   0.3074
     0.1958   0.0035   0.0000   0.0000   0.0000   0.0000   0.0000   0.0000
     0.0000   0.0000   0.0000   0.0000   0.0000   0.0000   0.0000   0.0000

          k = 0.0000 0.1925-0.2526 ( 11384 PWs)   bands (ev):

   -92.7284 -92.7241 -92.7221 -56.0195 -56.0171 -56.0011 -55.9999 -55.9775
   -55.9739 -55.9066 -55.8993 -55.8966 -52.3078 -24.2269 -24.2268 -24.1822
   -16.3602 -15.0318 -14.9553 -14.9008 -14.8519 -14.8352  -2.9460  -2.7279
    -2.5538  -2.5044  -2.4399  -2.2029  -2.0166  -1.7641  -1.5677  -0.9904
    -0.9528  -0.7227  -0.7003  -0.0605  -0.0136   0.5010   0.6241   0.8195
     1.6983   1.8129   1.8651   1.9257   2.2161   2.2369   2.3089   2.4625
     2.5196   2.7543   4.1033   4.1905   4.2103   4.2145   4.5159   4.6964
     6.0026   7.4058   8.4105   9.0246   9.8419  10.3997  10.9635  11.0132

     occupation numbers 
     1.0000   1.0000   1.0000   1.0000   1.0000   1.0000   1.0000   1.0000
     1.0000   1.0000   1.0000   1.0000   1.0000   1.0000   1.0000   1.0000
     1.0000   1.0000   1.0000   1.0000   1.0000   1.0000   1.0000   1.0000
     1.0000   1.0000   1.0000   1.0000   1.0000   1.0000   1.0000   1.0000
     1.0000   1.0000   1.0000   1.0000   1.0000   1.0000   1.0000   1.0000
     1.0058   1.0228   1.0368   1.0570   0.9284   0.8863   0.7102   0.3078
     0.1963   0.0131   0.0000   0.0000   0.0000   0.0000   0.0000   0.0000
     0.0000   0.0000   0.0000   0.0000   0.0000   0.0000   0.0000   0.0000

          k = 0.0000 0.3849 0.0000 ( 11350 PWs)   bands (ev):

   -92.7273 -92.7247 -92.7225 -56.0254 -56.0147 -55.9916 -55.9905 -55.9893
   -55.9775 -55.9046 -55.9003 -55.8974 -52.3078 -24.2271 -24.2269 -24.1821
   -16.0880 -15.3193 -14.9955 -14.9505 -14.8204 -14.8197  -3.3518  -2.5809
    -2.5162  -2.4264  -2.2415  -2.2200  -1.8993  -1.5187  -1.3826  -0.9907
    -0.9822  -0.9686  -0.5082  -0.4758   0.0209   0.2225   0.5450   1.1319
     1.8172   1.8355   2.0063   2.0303   2.1865   2.2397   2.3660   2.5223
     2.6206   3.0091   4.0601   4.1135   4.1593   4.2623   4.4607   4.5024
     5.5427   6.8060   7.8269   8.3993   9.2024   9.7689  11.5497  11.7159

     occupation numbers 
     1.0000   1.0000   1.0000   1.0000   1.0000   1.0000   1.0000   1.0000
     1.0000   1.0000   1.0000   1.0000   1.0000   1.0000   1.0000   1.0000
     1.0000   1.0000   1.0000   1.0000   1.0000   1.0000   1.0000   1.0000
     1.0000   1.0000   1.0000   1.0000   1.0000   1.0000   1.0000   1.0000
     1.0000   1.0000   1.0000   1.0000   1.0000   1.0000   1.0000   1.0000
     1.0237   1.0283   1.0803   1.0831   0.9798   0.8803   0.5532   0.1918
     0.0728   0.0001   0.0000   0.0000   0.0000   0.0000   0.0000   0.0000
     0.0000   0.0000   0.0000   0.0000   0.0000   0.0000   0.0000   0.0000

          k = 0.0000 0.3849-0.2526 ( 11352 PWs)   bands (ev):

   -92.7273 -92.7247 -92.7225 -56.0254 -56.0147 -55.9917 -55.9904 -55.9892
   -55.9775 -55.9047 -55.9003 -55.8974 -52.3078 -24.2270 -24.2269 -24.1822
   -16.0880 -15.3194 -14.9955 -14.9505 -14.8204 -14.8198  -3.3518  -2.5809
    -2.5164  -2.4271  -2.2395  -2.2200  -1.8992  -1.5187  -1.3826  -0.9901
    -0.9821  -0.9686  -0.5082  -0.4747   0.0209   0.2228   0.5447   1.1057
     1.8171   1.8355   2.0066   2.0303   2.1775   2.2400   2.3659   2.5203
     2.7578   2.9005   4.1159   4.1225   4.1492   4.2621   4.4611   4.4889
     5.5436   6.6548   7.8238   8.3863   9.2057  10.4181  11.3854  11.5684

     occupation numbers 
     1.0000   1.0000   1.0000   1.0000   1.0000   1.0000   1.0000   1.0000
     1.0000   1.0000   1.0000   1.0000   1.0000   1.0000   1.0000   1.0000
     1.0000   1.0000   1.0000   1.0000   1.0000   1.0000   1.0000   1.0000
     1.0000   1.0000   1.0000   1.0000   1.0000   1.0000   1.0000   1.0000
     1.0000   1.0000   1.0000   1.0000   1.0000   1.0000   1.0000   1.0000
     1.0237   1.0283   1.0803   1.0831   0.9932   0.8797   0.5535   0.1951
     0.0125   0.0012   0.0000   0.0000   0.0000   0.0000   0.0000   0.0000
     0.0000   0.0000   0.0000   0.0000   0.0000   0.0000   0.0000   0.0000

          k = 0.0000-0.5774 0.0000 ( 11352 PWs)   bands (ev):

   -92.7264 -92.7254 -92.7228 -56.0275 -56.0049 -56.0037 -55.9860 -55.9841
   -55.9829 -55.9029 -55.9016 -55.8978 -52.3078 -24.2273 -24.2269 -24.1821
   -15.7079 -15.7066 -15.0109 -14.9759 -14.8112 -14.8105  -3.4996  -2.5417
    -2.5340  -2.1491  -2.1490  -2.0145  -1.7174  -1.7162  -1.6354  -1.0785
    -1.0649  -0.9679  -0.5796  -0.5780  -0.0899   0.3045   1.0310   1.0345
     1.6755   1.9018   1.9032   1.9406   2.3268   2.4092   2.4126   2.5767
     2.5846   3.7333   3.9804   3.9912   4.0980   4.2780   4.3049   4.3824
     4.6365   7.4708   7.6246   8.1543   8.1843  10.8552  11.0752  11.3465

     occupation numbers 
     1.0000   1.0000   1.0000   1.0000   1.0000   1.0000   1.0000   1.0000
     1.0000   1.0000   1.0000   1.0000   1.0000   1.0000   1.0000   1.0000
     1.0000   1.0000   1.0000   1.0000   1.0000   1.0000   1.0000   1.0000
     1.0000   1.0000   1.0000   1.0000   1.0000   1.0000   1.0000   1.0000
     1.0000   1.0000   1.0000   1.0000   1.0000   1.0000   1.0000   1.0000
     1.0042   1.0488   1.0493   1.0621   0.6616   0.4369   0.4282   0.1155
     0.1067   0.0000   0.0000   0.0000   0.0000   0.0000   0.0000   0.0000
     0.0000   0.0000   0.0000   0.0000   0.0000   0.0000   0.0000   0.0000

          k = 0.0000-0.5774-0.2526 ( 11344 PWs)   bands (ev):

   -92.7264 -92.7254 -92.7228 -56.0274 -56.0049 -56.0038 -55.9859 -55.9841
   -55.9829 -55.9030 -55.9016 -55.8977 -52.3078 -24.2273 -24.2268 -24.1821
   -15.7078 -15.7066 -15.0109 -14.9759 -14.8112 -14.8105  -3.4996  -2.5423
    -2.5344  -2.1490  -2.1489  -2.0145  -1.7170  -1.7155  -1.6354  -1.0770
    -1.0640  -0.9679  -0.5796  -0.5780  -0.0898   0.3051   1.0282   1.0302
     1.6754   1.9019   1.9034   1.9406   2.3267   2.4008   2.4080   2.5864
     2.5897   3.6453   3.8888   4.1441   4.2494   4.2504   4.2778   4.3483
     4.6365   7.4103   7.6257   8.0835   8.1665  11.1416  11.3431  11.4414

     occupation numbers 
     1.0000   1.0000   1.0000   1.0000   1.0000   1.0000   1.0000   1.0000
     1.0000   1.0000   1.0000   1.0000   1.0000   1.0000   1.0000   1.0000
     1.0000   1.0000   1.0000   1.0000   1.0000   1.0000   1.0000   1.0000
     1.0000   1.0000   1.0000   1.0000   1.0000   1.0000   1.0000   1.0000
     1.0000   1.0000   1.0000   1.0000   1.0000   1.0000   1.0000   1.0000
     1.0042   1.0488   1.0493   1.0621   0.6618   0.4587   0.4399   0.1047
     0.1012   0.0000   0.0000   0.0000   0.0000   0.0000   0.0000   0.0000
     0.0000   0.0000   0.0000   0.0000   0.0000   0.0000   0.0000   0.0000

          k = 0.1667 0.2887 0.0000 ( 11373 PWs)   bands (ev):

   -92.7277 -92.7245 -92.7224 -56.0206 -56.0203 -55.9931 -55.9929 -55.9863
   -55.9760 -55.9052 -55.8999 -55.8972 -52.3078 -24.2271 -24.2269 -24.1821
   -16.1751 -15.1359 -15.1354 -14.8542 -14.8541 -14.8245  -3.0193  -3.0193
    -2.3959  -2.3688  -2.3635  -2.3237  -1.9144  -1.4403  -1.4364  -0.9406
    -0.9368  -0.8140  -0.8080  -0.3411   0.2615   0.2632   0.3674   1.0484
     1.7774   1.9749   1.9753   2.0850   2.0852   2.0976   2.4672   2.4682
     2.5019   2.9261   4.1124   4.1622   4.1698   4.3028   4.3050   4.6213
     6.4633   6.6221   6.7427   9.4563   9.9173  10.2035  10.5379  10.7052

     occupation numbers 
     1.0000   1.0000   1.0000   1.0000   1.0000   1.0000   1.0000   1.0000
     1.0000   1.0000   1.0000   1.0000   1.0000   1.0000   1.0000   1.0000
     1.0000   1.0000   1.0000   1.0000   1.0000   1.0000   1.0000   1.0000
     1.0000   1.0000   1.0000   1.0000   1.0000   1.0000   1.0000   1.0000
     1.0000   1.0000   1.0000   1.0000   1.0000   1.0000   1.0000   1.0000
     1.0156   1.0730   1.0731   1.0751   1.0751   1.0696   0.2975   0.2952
     0.2276   0.0007   0.0000   0.0000   0.0000   0.0000   0.0000   0.0000
     0.0000   0.0000   0.0000   0.0000   0.0000   0.0000   0.0000   0.0000

          k = 0.1667 0.2887-0.2526 ( 11348 PWs)   bands (ev):

   -92.7277 -92.7245 -92.7224 -56.0205 -56.0203 -55.9930 -55.9928 -55.9863
   -55.9760 -55.9053 -55.8999 -55.8972 -52.3078 -24.2270 -24.2268 -24.1822
   -16.1751 -15.1358 -15.1354 -14.8542 -14.8541 -14.8245  -3.0193  -3.0193
    -2.3960  -2.3688  -2.3635  -2.3220  -1.9143  -1.4403  -1.4364  -0.9403
    -0.9366  -0.8139  -0.8079  -0.3401   0.2616   0.2633   0.3674   1.0140
     1.7706   1.9750   1.9753   2.0850   2.0853   2.0976   2.4665   2.4678
     2.6931   2.7816   4.1476   4.1633   4.1705   4.3026   4.3046   4.6213
     6.4349   6.4660   6.7373   9.9293  10.1385  10.1982  10.5762  10.7782

     occupation numbers 
     1.0000   1.0000   1.0000   1.0000   1.0000   1.0000   1.0000   1.0000
     1.0000   1.0000   1.0000   1.0000   1.0000   1.0000   1.0000   1.0000
     1.0000   1.0000   1.0000   1.0000   1.0000   1.0000   1.0000   1.0000
     1.0000   1.0000   1.0000   1.0000   1.0000   1.0000   1.0000   1.0000
     1.0000   1.0000   1.0000   1.0000   1.0000   1.0000   1.0000   1.0000
     1.0144   1.0730   1.0731   1.0751   1.0750   1.0696   0.2989   0.2961
     0.0305   0.0087   0.0000   0.0000   0.0000   0.0000   0.0000   0.0000
     0.0000   0.0000   0.0000   0.0000   0.0000   0.0000   0.0000   0.0000

          k = 0.1667 0.4811 0.0000 ( 11356 PWs)   bands (ev):

   -92.7265 -92.7252 -92.7229 -56.0234 -56.0135 -56.0004 -55.9862 -55.9857
   -55.9799 -55.9033 -55.9011 -55.8980 -52.3078 -24.2272 -24.2270 -24.1822
   -15.8491 -15.4671 -15.2046 -14.8693 -14.8199 -14.8141  -3.2732  -2.7609
    -2.5659  -2.2829  -2.1603  -2.0631  -1.7828  -1.5890  -1.5859  -1.1473
    -1.1341  -0.9730  -0.5133  -0.2446  -0.0796   0.3825   0.7271   1.0926
     1.7850   1.8431   1.9039   2.0307   2.2640   2.2655   2.3948   2.5089
     2.6687   3.4935   3.9053   4.0012   4.1780   4.3700   4.5026   4.5633
     4.9172   6.1989   7.3194   8.6515   9.8841   9.9878  10.5047  11.7336

     occupation numbers 
     1.0000   1.0000   1.0000   1.0000   1.0000   1.0000   1.0000   1.0000
     1.0000   1.0000   1.0000   1.0000   1.0000   1.0000   1.0000   1.0000
     1.0000   1.0000   1.0000   1.0000   1.0000   1.0000   1.0000   1.0000
     1.0000   1.0000   1.0000   1.0000   1.0000   1.0000   1.0000   1.0000
     1.0000   1.0000   1.0000   1.0000   1.0000   1.0000   1.0000   1.0000
     1.0170   1.0304   1.0495   1.0831   0.8248   0.8213   0.4749   0.2148
     0.0414   0.0000   0.0000   0.0000   0.0000   0.0000   0.0000   0.0000
     0.0000   0.0000   0.0000   0.0000   0.0000   0.0000   0.0000   0.0000

          k = 0.1667 0.4811-0.2526 ( 11352 PWs)   bands (ev):

   -92.7265 -92.7252 -92.7229 -56.0234 -56.0135 -56.0004 -55.9862 -55.9857
   -55.9799 -55.9033 -55.9011 -55.8980 -52.3078 -24.2272 -24.2269 -24.1822
   -15.8491 -15.4671 -15.2046 -14.8693 -14.8199 -14.8141  -3.2732  -2.7610
    -2.5664  -2.2831  -2.1604  -2.0623  -1.7826  -1.5890  -1.5859  -1.1457
    -1.1332  -0.9726  -0.5133  -0.2446  -0.0796   0.3828   0.7265   1.0851
     1.7849   1.8409   1.9039   2.0307   2.2620   2.2650   2.3946   2.5084
     2.6860   3.4289   3.9731   4.0075   4.1758   4.3751   4.4983   4.5635
     4.9334   6.1990   7.2287   8.6248   9.9190   9.9720  10.9192  11.8656

     occupation numbers 
     1.0000   1.0000   1.0000   1.0000   1.0000   1.0000   1.0000   1.0000
     1.0000   1.0000   1.0000   1.0000   1.0000   1.0000   1.0000   1.0000
     1.0000   1.0000   1.0000   1.0000   1.0000   1.0000   1.0000   1.0000
     1.0000   1.0000   1.0000   1.0000   1.0000   1.0000   1.0000   1.0000
     1.0000   1.0000   1.0000   1.0000   1.0000   1.0000   1.0000   1.0000
     1.0169   1.0298   1.0495   1.0831   0.8296   0.8225   0.4754   0.2156
     0.0334   0.0000   0.0000   0.0000   0.0000   0.0000   0.0000   0.0000
     0.0000   0.0000   0.0000   0.0000   0.0000   0.0000   0.0000   0.0000

          k = 0.3333 0.5774 0.0000 ( 11370 PWs)   bands (ev):

   -92.7257 -92.7257 -92.7231 -56.0143 -56.0135 -56.0135 -55.9833 -55.9824
   -55.9824 -55.9020 -55.9020 -55.8985 -52.3078 -24.2272 -24.2272 -24.1822
   -15.5245 -15.5230 -15.5230 -14.8238 -14.8231 -14.8231  -2.8637  -2.8611
    -2.8611  -2.1669  -2.1597  -2.1597  -1.6699  -1.6699  -1.6684  -1.2259
    -1.2082  -1.2082  -0.1161  -0.1161  -0.1144   0.7485   0.7485   0.7553
     1.8032   1.8054   1.8054   2.1682   2.1683   2.1683   2.5370   2.5431
     2.5431   3.8957   3.9492   3.9492   4.3311   4.5654   4.5654   4.5654
     4.8635   4.8635   7.7931   8.7369   8.7369  11.2348  11.6249  11.6249

     occupation numbers 
     1.0000   1.0000   1.0000   1.0000   1.0000   1.0000   1.0000   1.0000
     1.0000   1.0000   1.0000   1.0000   1.0000   1.0000   1.0000   1.0000
     1.0000   1.0000   1.0000   1.0000   1.0000   1.0000   1.0000   1.0000
     1.0000   1.0000   1.0000   1.0000   1.0000   1.0000   1.0000   1.0000
     1.0000   1.0000   1.0000   1.0000   1.0000   1.0000   1.0000   1.0000
     1.0206   1.0211   1.0211   1.0062   1.0060   1.0060   0.1684   0.1594
     0.1594   0.0000   0.0000   0.0000   0.0000   0.0000   0.0000   0.0000
     0.0000   0.0000   0.0000   0.0000   0.0000   0.0000   0.0000   0.0000

          k = 0.3333 0.5774-0.2526 ( 11340 PWs)   bands (ev):

   -92.7257 -92.7257 -92.7231 -56.0143 -56.0135 -56.0135 -55.9832 -55.9823
   -55.9823 -55.9019 -55.9019 -55.8984 -52.3078 -24.2271 -24.2271 -24.1821
   -15.5245 -15.5230 -15.5230 -14.8238 -14.8231 -14.8231  -2.8639  -2.8612
    -2.8612  -2.1672  -2.1599  -2.1599  -1.6699  -1.6699  -1.6684  -1.2241
    -1.2072  -1.2072  -0.1160  -0.1160  -0.1143   0.7479   0.7479   0.7543
     1.8022   1.8049   1.8049   2.1682   2.1683   2.1683   2.5382   2.5438
     2.5438   3.8445   3.9319   3.9319   4.3953   4.5654   4.5654   4.5655
     4.8903   4.8903   7.7650   8.7004   8.7004  11.3323  11.7950  11.7959

     occupation numbers 
     1.0000   1.0000   1.0000   1.0000   1.0000   1.0000   1.0000   1.0000
     1.0000   1.0000   1.0000   1.0000   1.0000   1.0000   1.0000   1.0000
     1.0000   1.0000   1.0000   1.0000   1.0000   1.0000   1.0000   1.0000
     1.0000   1.0000   1.0000   1.0000   1.0000   1.0000   1.0000   1.0000
     1.0000   1.0000   1.0000   1.0000   1.0000   1.0000   1.0000   1.0000
     1.0204   1.0210   1.0210   1.0062   1.0060   1.0060   0.1666   0.1584
     0.1584   0.0000   0.0000   0.0000   0.0000   0.0000   0.0000   0.0000
     0.0000   0.0000   0.0000   0.0000   0.0000   0.0000   0.0000   0.0000

     the Fermi energy is     2.4233 ev

!    total energy              =   -1489.11332546 Ry
     total all-electron energy =     -9588.348133 Ry
     estimated scf accuracy    <       0.00000001 Ry
     smearing contrib. (-TS)   =       0.00558630 Ry
     internal energy E=F+TS    =   -1489.11891176 Ry

     The total energy is F=E-TS. E is the sum of the following terms:
     one-electron contribution =   -2370.42327083 Ry
     hartree contribution      =    1211.93197401 Ry
     xc contribution           =    -150.14056065 Ry
     ewald contribution        =     155.03473106 Ry
     one-center paw contrib.   =    -335.52178535 Ry
      -> PAW hartree energy AE =     880.60585337 Ry
      -> PAW hartree energy PS =    -878.33526882 Ry
      -> PAW xc energy AE      =    -479.83660818 Ry
      -> PAW xc energy PS      =     142.04423827 Ry
      -> total E_H with PAW    =    1214.20255857 Ry
      -> total E_XC with PAW   =    -487.93293055 Ry

     total magnetization       =     2.43 Bohr mag/cell
     absolute magnetization    =     2.58 Bohr mag/cell

     convergence has been achieved in  35 iterations

     Forces acting on atoms (cartesian axes, Ry/au):

     atom    1 type  1   force =     0.00000000    0.00000000    0.00186591
     atom    2 type  1   force =    -0.00000000   -0.00000000    0.00141999
     atom    3 type  1   force =     0.00000000    0.00000000    0.00141999
     atom    4 type  2   force =    -0.00022541   -0.00039043   -0.05838941
     atom    5 type  2   force =     0.00045083    0.00000000   -0.05838941
     atom    6 type  2   force =    -0.00022541    0.00039043   -0.05838941
     atom    7 type  2   force =    -0.00084458   -0.00000000    0.05533886
     atom    8 type  2   force =     0.00042229    0.00073143    0.05533886
     atom    9 type  2   force =     0.00042229   -0.00073143    0.05533886
     atom   10 type  3   force =     0.00000000    0.00000000    0.00444577
     The non-local contrib.  to forces
     atom    1 type  1   force =     0.00000000    0.00000000   -0.00003940
     atom    2 type  1   force =     0.00000000    0.00000000    0.00185745
     atom    3 type  1   force =     0.00000000    0.00000000    0.00185745
     atom    4 type  2   force =    -0.00210978   -0.00365425   -1.24090839
     atom    5 type  2   force =     0.00421957   -0.00000000   -1.24090839
     atom    6 type  2   force =    -0.00210978    0.00365425   -1.24090839
     atom    7 type  2   force =    -0.00714849   -0.00000000    1.21567447
     atom    8 type  2   force =     0.00357424    0.00619077    1.21567447
     atom    9 type  2   force =     0.00357424   -0.00619077    1.21567447
     atom   10 type  3   force =     0.00000000    0.00000000   -0.02217601
     The ionic contribution  to forces
     atom    1 type  1   force =    -0.00000000   -0.00000000    0.80326814
     atom    2 type  1   force =     0.00000002   -0.00000001    0.72841781
     atom    3 type  1   force =    -0.00000002    0.00000001    0.72841781
     atom    4 type  2   force =     0.03814380    0.06606700   38.86796306
     atom    5 type  2   force =    -0.07628760   -0.00000000   38.86796307
     atom    6 type  2   force =     0.03814380   -0.06606700   38.86796307
     atom    7 type  2   force =     0.11261776    0.00000000  -38.33754691
     atom    8 type  2   force =    -0.05630888   -0.09752985  -38.33754691
     atom    9 type  2   force =    -0.05630888    0.09752984  -38.33754691
     atom   10 type  3   force =     0.00000000    0.00000000   -3.85135224
     The local contribution  to forces
     atom    1 type  1   force =     0.00000000    0.00000000   -0.80118647
     atom    2 type  1   force =     0.00000021   -0.00000012   -0.72871065
     atom    3 type  1   force =    -0.00000021    0.00000012   -0.72871065
     atom    4 type  2   force =    -0.03630952   -0.06288993  -37.69663725
     atom    5 type  2   force =     0.07261904    0.00000000  -37.69663725
     atom    6 type  2   force =    -0.03630952    0.06288993  -37.69663725
     atom    7 type  2   force =    -0.10643673   -0.00000000   37.18822145
     atom    8 type  2   force =     0.05321836    0.09217691   37.18822145
     atom    9 type  2   force =     0.05321836   -0.09217691   37.18822145
     atom   10 type  3   force =     0.00000000    0.00000000    3.87792525
     The core correction contribution to forces
     atom    1 type  1   force =     0.00000000    0.00000000    0.00002240
     atom    2 type  1   force =     0.00000000   -0.00000000    0.00001296
     atom    3 type  1   force =    -0.00000000    0.00000000    0.00001296
     atom    4 type  2   force =     0.00001870    0.00003239    0.01119688
     atom    5 type  2   force =    -0.00003740   -0.00000000    0.01119688
     atom    6 type  2   force =     0.00001870   -0.00003239    0.01119688
     atom    7 type  2   force =     0.00006675    0.00000000   -0.01095529
     atom    8 type  2   force =    -0.00003337   -0.00005781   -0.01095529
     atom    9 type  2   force =    -0.00003337    0.00005781   -0.01095529
     atom   10 type  3   force =    -0.00000000   -0.00000000    0.00000835
     The Hubbard contrib.    to forces
     atom    1 type  1   force =     0.00000000    0.00000000    0.00000000
     atom    2 type  1   force =     0.00000000    0.00000000    0.00000000
     atom    3 type  1   force =     0.00000000    0.00000000    0.00000000
     atom    4 type  2   force =     0.00000000    0.00000000    0.00000000
     atom    5 type  2   force =     0.00000000    0.00000000    0.00000000
     atom    6 type  2   force =     0.00000000    0.00000000    0.00000000
     atom    7 type  2   force =     0.00000000    0.00000000    0.00000000
     atom    8 type  2   force =     0.00000000    0.00000000    0.00000000
     atom    9 type  2   force =     0.00000000    0.00000000    0.00000000
     atom   10 type  3   force =     0.00000000    0.00000000    0.00000000
     The SCF correction term to forces
     atom    1 type  1   force =     0.00000000    0.00000000   -0.00020266
     atom    2 type  1   force =    -0.00000000    0.00000000   -0.00016149
     atom    3 type  1   force =     0.00000000   -0.00000000   -0.00016149
     atom    4 type  2   force =     0.00003139    0.00005437   -0.00000762
     atom    5 type  2   force =    -0.00006278    0.00000000   -0.00000762
     atom    6 type  2   force =     0.00003139   -0.00005437   -0.00000762
     atom    7 type  2   force =     0.00005612   -0.00000000   -0.00005875
     atom    8 type  2   force =    -0.00002806   -0.00004861   -0.00005875
     atom    9 type  2   force =    -0.00002806    0.00004861   -0.00005875
     atom   10 type  3   force =     0.00000000    0.00000000    0.00003653

     Total force =     0.139446     Total SCF correction =     0.000355

     Writing all to output data dir ./out/pw.save/ :
     XML data file, charge density, pseudopotentials, collected wavefunctions
 
     init_run     :     21.18s CPU      4.81s WALL (       1 calls)
     electrons    :    426.10s CPU     97.83s WALL (       1 calls)
     forces       :      0.87s CPU      0.85s WALL (       1 calls)

     Called by init_run:
     wfcinit      :      0.50s CPU      0.61s WALL (       1 calls)
     wfcinit:atom :      0.05s CPU      0.05s WALL (      28 calls)
     wfcinit:wfcr :      0.31s CPU      0.33s WALL (      28 calls)
     potinit      :     19.97s CPU      3.45s WALL (       1 calls)
     hinit0       :      0.55s CPU      0.53s WALL (       1 calls)

     Called by electrons:
     c_bands      :     36.84s CPU     36.98s WALL (      35 calls)
     sum_band     :      7.26s CPU      7.23s WALL (      35 calls)
     v_of_rho     :      0.96s CPU      0.56s WALL (      36 calls)
     v_h          :      0.58s CPU      0.15s WALL (      36 calls)
     v_xc         :      0.39s CPU      0.44s WALL (      37 calls)
     newd         :      0.88s CPU      0.77s WALL (      36 calls)
                                        0.77s GPU  (      36 calls)
     PAW_pot      :    386.32s CPU     50.88s WALL (      36 calls)
     mix_rho      :      2.08s CPU      2.04s WALL (      35 calls)

     Called by c_bands:
     init_us_2    :      1.30s CPU      1.27s WALL (    2016 calls)
     cegterg      :     28.89s CPU     29.00s WALL (     980 calls)

     Called by sum_band:
     sum_band:wei :      0.06s CPU      0.06s WALL (      35 calls)
                                        0.06s GPU  (      35 calls)
     sum_band:loo :      5.05s CPU      4.99s WALL (      35 calls)
                                        4.99s GPU  (      35 calls)
     sum_band:buf :      1.67s CPU      1.70s WALL (     980 calls)
                                        1.69s GPU  (     980 calls)
     sum_band:ini :      0.65s CPU      0.64s WALL (     980 calls)
                                        0.63s GPU  (     980 calls)
     sum_band:cal :      0.14s CPU      0.19s WALL (     980 calls)
                                        0.13s GPU  (     980 calls)
     sum_band:bec :      0.50s CPU      0.51s WALL (     980 calls)
                                        0.50s GPU  (     980 calls)
     addusdens    :      1.42s CPU      1.44s WALL (      35 calls)
                                        1.44s GPU  (      35 calls)
     addusd:skk   :      0.01s CPU      0.02s WALL (     105 calls)
                                        0.01s GPU  (     105 calls)

     Called by *egterg:
     cdiaghg      :     11.09s CPU     11.21s WALL (    4967 calls)
                                       11.15s GPU  (    4967 calls)
     cegterg:over :      1.41s CPU      1.43s WALL (    3987 calls)
     cegterg:upda :      1.41s CPU      1.42s WALL (    3987 calls)
     cegterg:last :      0.29s CPU      0.29s WALL (    1862 calls)
     h_psi        :     11.81s CPU     11.93s WALL (    4995 calls)
                                       11.86s GPU  (    4995 calls)
     s_psi        :      1.58s CPU      1.63s WALL (    4995 calls)
     g_psi        :      0.02s CPU      0.18s WALL (    3987 calls)
                                        0.13s GPU  (    3987 calls)

     Called by h_psi:
     h_psi:calbec :      0.22s CPU      0.49s WALL (    4995 calls)
                                        0.43s GPU  (    4995 calls)
     vloc_psi     :      9.28s CPU      9.27s WALL (    4995 calls)
                                        9.21s GPU  (    4995 calls)
     add_vuspsi   :      1.50s CPU      1.78s WALL (    4995 calls)
                                        1.71s GPU  (    4995 calls)

     General routines
     calbec       :      0.29s CPU      0.32s WALL (    6087 calls)
     fft          :      7.11s CPU      1.23s WALL (     913 calls)
                                        0.05s GPU  (     841 calls)
     ffts         :      3.47s CPU      0.96s WALL (    1766 calls)
                                        0.06s GPU  (    1694 calls)
     fftw         :      0.46s CPU      6.04s WALL (   26894 calls)
                                        5.74s GPU  (   26894 calls)
     interpolate  :     11.09s CPU      2.23s WALL (      72 calls)
 
     Parallel routines

     PAW routines
     PAW_pot      :    386.32s CPU     50.88s WALL (      36 calls)
     PAW_symme    :      0.07s CPU      0.02s WALL (      71 calls)
 
     PWSCF        :   7m28.96s CPU   1m44.19s WALL

 
   This run was terminated on:   7:13:40  12Jul2026            

=------------------------------------------------------------------------------=
   JOB DONE.
=------------------------------------------------------------------------------=
Warning: ieee_divide_by_zero is signaling
Warning: ieee_inexact is signaling
FORTRAN STOP
