
     Program PWSCF v.7.3.1 starts on 12Jul2026 at  3:25:44 

     This program is part of the open-source Quantum ESPRESSO suite
     for quantum simulation of materials; please cite
         "P. Giannozzi et al., J. Phys.:Condens. Matter 21 395502 (2009);
         "P. Giannozzi et al., J. Phys.:Condens. Matter 29 465901 (2017);
         "P. Giannozzi et al., J. Chem. Phys. 152 154105 (2020);
          URL http://www.quantum-espresso.org", 
     in publications or presentations arising from this work. More details at
     http://www.quantum-espresso.org/quote

     Parallel version (MPI & OpenMP), running on      14 processor cores
     Number of MPI processes:                 1
     Threads/MPI process:                    14

     MPI processes distributed on     1 nodes
     842390 MiB available memory on the printing compute node when the environment starts
 
     Reading input from pw.in

     Current dimensions of program PWSCF are:
     Max number of different atomic species (ntypx) = 10
     Max number of k-points (npk) =  40000
     Max angular momentum in pseudopotentials (lmaxx) =  4
     file Co.pbe-spn-kjpaw_psl.0.3.1.UPF: wavefunction(s)  3P 3D renormalized
     file O.pbe-n-kjpaw_psl.1.0.0.UPF: wavefunction(s)  2S 2P renormalized
     file Na.pbe-spn-kjpaw_psl.1.0.0.UPF: wavefunction(s)  2P renormalized
 
     Subspace diagonalization in iterative solution of the eigenvalue problem:
     a serial algorithm will be used

 
     G-vector sticks info
     --------------------
     sticks:   dense  smooth     PW     G-vecs:    dense   smooth      PW
     Sum        2941    1483    421               256907    90927   13609
 
     Using Slab Decomposition
 


     bravais-lattice index     =            4
     lattice parameter (alat)  =       9.4527  a.u.
     unit-cell volume          =    1447.6983 (a.u.)^3
     number of atoms/cell      =           10
     number of atomic types    =            3
     number of electrons       =        96.00
     number of Kohn-Sham states=           64
     kinetic-energy cutoff     =      60.0000  Ry
     charge density cutoff     =     480.0000  Ry
     scf convergence threshold =      1.0E-07
     mixing beta               =       0.3000
     number of iterations used =            8  local-TF  mixing
     Exchange-correlation= SLA  PW   PBX  PBC
                           (   1   4   3   4   0   0   0)

     GPU acceleration is ACTIVE.  1 visible GPUs per MPI rank
     GPU-aware MPI enabled


     GPU used by master process:

        Device Number: 0
        Device name: NVIDIA A100-SXM4-80GB
        Compute capability : 80
        Ratio of single to double precision performance  : 2
        Memory Clock Rate (KHz): 1593000
        Memory Bus Width (bits): 5120
        Peak Memory Bandwidth (GB/s): ******

     celldm(1)=   9.452718  celldm(2)=   0.000000  celldm(3)=   1.979144
     celldm(4)=   0.000000  celldm(5)=   0.000000  celldm(6)=   0.000000

     crystal axes: (cart. coord. in units of alat)
               a(1) = (   1.000000   0.000000   0.000000 )  
               a(2) = (  -0.500000   0.866025   0.000000 )  
               a(3) = (   0.000000   0.000000   1.979144 )  

     reciprocal axes: (cart. coord. in units 2 pi/alat)
               b(1) = (  1.000000  0.577350 -0.000000 )  
               b(2) = (  0.000000  1.154701  0.000000 )  
               b(3) = (  0.000000 -0.000000  0.505269 )  


     PseudoPot. # 1 for Co read from file:
     ../../pseudo/Co.pbe-spn-kjpaw_psl.0.3.1.UPF
     MD5 check sum: 3c0a43779828c046024e4f3be63f8e67
     Pseudo is Projector augmented-wave + core cor, Zval = 17.0
     Generated using &quot;atomic&quot; code by A. Dal Corso  v.6.2.2
     Shape of augmentation charge: PSQ
     Using radial grid of 1193 points,  6 beta functions with: 
                l(1) =   0
                l(2) =   0
                l(3) =   1
                l(4) =   1
                l(5) =   2
                l(6) =   2
     Q(r) pseudized with 0 coefficients 


     PseudoPot. # 2 for O  read from file:
     ../../pseudo/O.pbe-n-kjpaw_psl.1.0.0.UPF
     MD5 check sum: e99d9cef9b487d1ca56f5b95ecd0fd7a
     Pseudo is Projector augmented-wave + core cor, Zval =  6.0
     Generated using &quot;atomic&quot; code by A. Dal Corso  v.6.3
     Shape of augmentation charge: PSQ
     Using radial grid of 1095 points,  4 beta functions with: 
                l(1) =   0
                l(2) =   0
                l(3) =   1
                l(4) =   1
     Q(r) pseudized with 0 coefficients 


     PseudoPot. # 3 for Na read from file:
     ../../pseudo/Na.pbe-spn-kjpaw_psl.1.0.0.UPF
     MD5 check sum: 05b4deb74e3932c23ab016979dc8b5d4
     Pseudo is Projector augmented-wave + core cor, Zval =  9.0
     Generated using &quot;atomic&quot; code by A. Dal Corso  v.6.3
     Shape of augmentation charge: PSQ
     Using radial grid of 1121 points,  4 beta functions with: 
                l(1) =   0
                l(2) =   0
                l(3) =   1
                l(4) =   1
     Q(r) pseudized with 0 coefficients 


     atomic species   valence    mass     pseudopotential
     Co               17.00    58.93300     Co( 1.00)
     O                 6.00    15.99900     O ( 1.00)
     Na                9.00    22.98977     Na( 1.00)

     Starting magnetic structure 
     atomic species   magnetization
     Co              0.300
     O               0.000
     Na              0.000

      6 Sym. Ops. (no inversion) found


                                    s                        frac. trans.

      isym =  1     identity                                     

 cryst.   s( 1) = (     1          0          0      )
                  (     0          1          0      )
                  (     0          0          1      )

 cart.    s( 1) = (  1.0000000  0.0000000  0.0000000 )
                  (  0.0000000  1.0000000  0.0000000 )
                  (  0.0000000  0.0000000  1.0000000 )


      isym =  2     120 deg rotation - cryst. axis [0,0,1]       

 cryst.   s( 2) = (     0          1          0      )
                  (    -1         -1          0      )
                  (     0          0          1      )

 cart.    s( 2) = ( -0.5000000 -0.8660254  0.0000000 )
                  (  0.8660254 -0.5000000  0.0000000 )
                  (  0.0000000  0.0000000  1.0000000 )


      isym =  3     120 deg rotation - cryst. axis [0,0,-1]      

 cryst.   s( 3) = (    -1         -1          0      )
                  (     1          0          0      )
                  (     0          0          1      )

 cart.    s( 3) = ( -0.5000000  0.8660254  0.0000000 )
                  ( -0.8660254 -0.5000000  0.0000000 )
                  (  0.0000000  0.0000000  1.0000000 )


      isym =  4     inv. 180 deg rotation - cart. axis [0,1,0]   

 cryst.   s( 4) = (     1          0          0      )
                  (    -1         -1          0      )
                  (     0          0          1      )

 cart.    s( 4) = (  1.0000000  0.0000000  0.0000000 )
                  (  0.0000000 -1.0000000  0.0000000 )
                  (  0.0000000  0.0000000  1.0000000 )


      isym =  5     inv. 180 deg rotation - cryst. axis [1,-1,0] 

 cryst.   s( 5) = (     0          1          0      )
                  (     1          0          0      )
                  (     0          0          1      )

 cart.    s( 5) = ( -0.5000000  0.8660254  0.0000000 )
                  (  0.8660254  0.5000000  0.0000000 )
                  (  0.0000000  0.0000000  1.0000000 )


      isym =  6     inv. 180 deg rotation - cryst. axis [2,1,0]  

 cryst.   s( 6) = (    -1         -1          0      )
                  (     0          1          0      )
                  (     0          0          1      )

 cart.    s( 6) = ( -0.5000000 -0.8660254  0.0000000 )
                  ( -0.8660254  0.5000000  0.0000000 )
                  (  0.0000000  0.0000000  1.0000000 )


     point group C_3v (3m)  
     there are  3 classes
     the character table:

       E     2C3   3s_v 
A_1    1.00  1.00  1.00
A_2    1.00  1.00 -1.00
E      2.00 -1.00  0.00

     the symmetry operations in each class and the name of the first element:

     E        1
          identity                                               
     2C3      2    3
          120 deg rotation - cryst. axis [0,0,1]                 
     3s_v     4    6    5
          inv. 180 deg rotation - cart. axis [0,1,0]             

   Cartesian axes

     site n.     atom                  positions (alat units)
         1        Co     tau(   1) = (   0.0000000   0.0000000   0.0000000  )
         2        Co     tau(   2) = (  -0.0000000   0.5773503   0.0000000  )
         3        Co     tau(   3) = (   0.5000000   0.2886751   0.0000000  )
         4        O      tau(   4) = (   0.1666667   0.2886751   0.1919170  )
         5        O      tau(   5) = (   0.6666667   0.0000000   0.1919170  )
         6        O      tau(   6) = (  -0.3333333   0.5773503   0.1919170  )
         7        O      tau(   7) = (   0.3333333   0.0000000   1.7872269  )
         8        O      tau(   8) = (   0.3333333   0.5773503   1.7872269  )
         9        O      tau(   9) = (  -0.1666667   0.2886751   1.7872269  )
        10        Na     tau(  10) = (   0.0000000   0.0000000   1.0895287  )

   Crystallographic axes

     site n.     atom                  positions (cryst. coord.)
         1        Co     tau(   1) = (  0.0000000  0.0000000  0.0000000  )
         2        Co     tau(   2) = (  0.3333333  0.6666667  0.0000000  )
         3        Co     tau(   3) = (  0.6666667  0.3333333  0.0000000  )
         4        O      tau(   4) = (  0.3333333  0.3333333  0.0969697  )
         5        O      tau(   5) = (  0.6666667  0.0000000  0.0969697  )
         6        O      tau(   6) = (  0.0000000  0.6666667  0.0969697  )
         7        O      tau(   7) = (  0.3333333  0.0000000  0.9030303  )
         8        O      tau(   8) = (  0.6666667  0.6666667  0.9030303  )
         9        O      tau(   9) = ( -0.0000000  0.3333333  0.9030303  )
        10        Na     tau(  10) = (  0.0000000  0.0000000  0.5505051  )

     number of k points=    17  Marzari-Vanderbilt smearing, width (Ry)=  0.0200
                       cart. coord. in units 2pi/alat
        k(    1) = (   0.0000000   0.0000000   0.0000000), wk =   0.0092593
        k(    2) = (   0.0000000   0.0000000   0.1684230), wk =   0.0185185
        k(    3) = (   0.0000000   0.1924501   0.0000000), wk =   0.0555556
        k(    4) = (   0.0000000   0.1924501   0.1684230), wk =   0.1111111
        k(    5) = (   0.0000000   0.3849002   0.0000000), wk =   0.0555556
        k(    6) = (   0.0000000   0.3849002   0.1684230), wk =   0.1111111
        k(    7) = (   0.0000000  -0.5773503   0.0000000), wk =   0.0277778
        k(    8) = (   0.0000000  -0.5773503   0.1684230), wk =   0.0555556
        k(    9) = (   0.1666667   0.2886751   0.0000000), wk =   0.0555556
        k(   10) = (   0.1666667   0.2886751   0.1684230), wk =   0.0555556
        k(   11) = (   0.1666667   0.4811252   0.0000000), wk =   0.1111111
        k(   12) = (   0.1666667   0.4811252   0.1684230), wk =   0.1111111
        k(   13) = (   0.3333333   0.5773503   0.0000000), wk =   0.0185185
        k(   14) = (   0.3333333   0.5773503   0.1684230), wk =   0.0185185
        k(   15) = (  -0.1666667  -0.2886751   0.1684230), wk =   0.0555556
        k(   16) = (  -0.1666667  -0.4811252   0.1684230), wk =   0.1111111
        k(   17) = (  -0.3333333  -0.5773503   0.1684230), wk =   0.0185185

                       cryst. coord.
        k(    1) = (   0.0000000   0.0000000   0.0000000), wk =   0.0092593
        k(    2) = (   0.0000000   0.0000000   0.3333333), wk =   0.0185185
        k(    3) = (   0.0000000   0.1666667   0.0000000), wk =   0.0555556
        k(    4) = (   0.0000000   0.1666667   0.3333333), wk =   0.1111111
        k(    5) = (   0.0000000   0.3333333   0.0000000), wk =   0.0555556
        k(    6) = (   0.0000000   0.3333333   0.3333333), wk =   0.1111111
        k(    7) = (   0.0000000  -0.5000000   0.0000000), wk =   0.0277778
        k(    8) = (   0.0000000  -0.5000000   0.3333333), wk =   0.0555556
        k(    9) = (   0.1666667   0.1666667   0.0000000), wk =   0.0555556
        k(   10) = (   0.1666667   0.1666667   0.3333333), wk =   0.0555556
        k(   11) = (   0.1666667   0.3333333   0.0000000), wk =   0.1111111
        k(   12) = (   0.1666667   0.3333333   0.3333333), wk =   0.1111111
        k(   13) = (   0.3333333   0.3333333   0.0000000), wk =   0.0185185
        k(   14) = (   0.3333333   0.3333333   0.3333333), wk =   0.0185185
        k(   15) = (  -0.1666667  -0.1666667   0.3333333), wk =   0.0555556
        k(   16) = (  -0.1666667  -0.3333333   0.3333333), wk =   0.1111111
        k(   17) = (  -0.3333333  -0.3333333   0.3333333), wk =   0.0185185

     Dense  grid:   256907 G-vectors     FFT dimensions: (  72,  72, 135)

     Smooth grid:    90927 G-vectors     FFT dimensions: (  48,  48,  96)

     Dynamical RAM for                 wfc:      11.10 MB

     Dynamical RAM for     wfc (w. buffer):     388.35 MB

     Dynamical RAM for           str. fact:      11.76 MB

     Dynamical RAM for           local pot:       0.00 MB

     Dynamical RAM for          nlocal pot:      19.07 MB

     Dynamical RAM for                qrad:       5.27 MB

     Dynamical RAM for          rho,v,vnew:      55.56 MB

     Dynamical RAM for               rhoin:      18.52 MB

     Dynamical RAM for            rho*nmix:     125.44 MB

     Dynamical RAM for           G-vectors:      15.39 MB

     Dynamical RAM for          h,s,v(r/c):       0.75 MB

     Dynamical RAM for          <psi|beta>:       0.11 MB

     Dynamical RAM for                 psi:      22.19 MB

     Dynamical RAM for                hpsi:      22.19 MB

     Dynamical RAM for                spsi:      22.19 MB

     Dynamical RAM for      wfcinit/wfcrot:      22.29 MB

     Dynamical RAM for           addusdens:     756.58 MB

     Dynamical RAM for          addusforce:     795.83 MB

     Estimated static dynamical RAM per process >     561.64 MB

     Estimated max dynamical RAM per process >       1.45 GB

     Check: negative core charge=   -0.000006
     Generating pointlists ...
     new r_m :   0.1587 (alat units)  1.4998 (a.u.) for type    1
     new r_m :   0.1587 (alat units)  1.4998 (a.u.) for type    2
     new r_m :   0.3190 (alat units)  3.0150 (a.u.) for type    3

     Initial potential from superposition of free atoms

     starting charge      95.9928, renormalised to      96.0000
     Starting wfcs are   59 randomized atomic wfcs +    5 random wfcs
     Checking if some PAW data can be deallocated... 

     total cpu time spent up to now is        5.9 secs

     Self-consistent Calculation
[tb_dev] Currently allocated     9.94E-01 Mbytes, locked:    0 /   6
[tb_pin] Currently allocated     0.00E+00 Mbytes, locked:    0 /   0

     iteration #  1     ecut=    60.00 Ry     beta= 0.30
     Davidson diagonalization with overlap

---- Real-time Memory Report at c_bands before calling an iterative solver
          1136 MiB given to the printing process from OS
             0 MiB allocation reported by mallinfo(arena+hblkhd)
        841397 MiB available memory on the node where the printing process lives
     GPU memory used/free/total (MiB): 1984 / 79166 / 81151
------------------
     ethr =  1.00E-02,  avg # of iterations = 10.5

     total cpu time spent up to now is       10.0 secs

     total energy              =   -1488.24135032 Ry
     estimated scf accuracy    <       6.34817944 Ry

     total magnetization       =    14.00 Bohr mag/cell
     absolute magnetization    =    14.00 Bohr mag/cell
[tb_dev] Currently allocated     7.63E-05 Mbytes, locked:    0 /   2
[tb_pin] Currently allocated     0.00E+00 Mbytes, locked:    0 /   0

     iteration #  2     ecut=    60.00 Ry     beta= 0.30
     Davidson diagonalization with overlap

---- Real-time Memory Report at c_bands before calling an iterative solver
          1197 MiB given to the printing process from OS
             0 MiB allocation reported by mallinfo(arena+hblkhd)
        840440 MiB available memory on the node where the printing process lives
     GPU memory used/free/total (MiB): 2072 / 79078 / 81151
------------------
     ethr =  6.61E-03,  avg # of iterations =  2.0

     total cpu time spent up to now is       12.7 secs

     total energy              =   -1488.62091557 Ry
     estimated scf accuracy    <       1.13467954 Ry

     total magnetization       =    10.39 Bohr mag/cell
     absolute magnetization    =    10.39 Bohr mag/cell
[tb_dev] Currently allocated     7.63E-05 Mbytes, locked:    0 /   2
[tb_pin] Currently allocated     0.00E+00 Mbytes, locked:    0 /   0

     iteration #  3     ecut=    60.00 Ry     beta= 0.30
     Davidson diagonalization with overlap

---- Real-time Memory Report at c_bands before calling an iterative solver
          1211 MiB given to the printing process from OS
             0 MiB allocation reported by mallinfo(arena+hblkhd)
        840419 MiB available memory on the node where the printing process lives
     GPU memory used/free/total (MiB): 2072 / 79078 / 81151
------------------
     ethr =  1.18E-03,  avg # of iterations =  4.1

     total cpu time spent up to now is       15.8 secs

     total energy              =   -1488.91868016 Ry
     estimated scf accuracy    <       2.27580931 Ry

     total magnetization       =     4.20 Bohr mag/cell
     absolute magnetization    =     4.94 Bohr mag/cell
[tb_dev] Currently allocated     7.63E-05 Mbytes, locked:    0 /   2
[tb_pin] Currently allocated     0.00E+00 Mbytes, locked:    0 /   0

     iteration #  4     ecut=    60.00 Ry     beta= 0.30
     Davidson diagonalization with overlap

---- Real-time Memory Report at c_bands before calling an iterative solver
          1222 MiB given to the printing process from OS
             0 MiB allocation reported by mallinfo(arena+hblkhd)
        840400 MiB available memory on the node where the printing process lives
     GPU memory used/free/total (MiB): 2072 / 79078 / 81151
------------------
     ethr =  1.18E-03,  avg # of iterations =  1.7

     total cpu time spent up to now is       18.5 secs

     total energy              =   -1489.00640028 Ry
     estimated scf accuracy    <       1.46135444 Ry

     total magnetization       =     4.97 Bohr mag/cell
     absolute magnetization    =     5.47 Bohr mag/cell
[tb_dev] Currently allocated     7.63E-05 Mbytes, locked:    0 /   2
[tb_pin] Currently allocated     0.00E+00 Mbytes, locked:    0 /   0

     iteration #  5     ecut=    60.00 Ry     beta= 0.30
     Davidson diagonalization with overlap

---- Real-time Memory Report at c_bands before calling an iterative solver
          1232 MiB given to the printing process from OS
             0 MiB allocation reported by mallinfo(arena+hblkhd)
        840415 MiB available memory on the node where the printing process lives
     GPU memory used/free/total (MiB): 2072 / 79078 / 81151
------------------
     ethr =  1.18E-03,  avg # of iterations =  1.6

     total cpu time spent up to now is       21.2 secs

     total energy              =   -1489.12487415 Ry
     estimated scf accuracy    <       0.70287484 Ry

     total magnetization       =     3.50 Bohr mag/cell
     absolute magnetization    =     4.61 Bohr mag/cell
[tb_dev] Currently allocated     7.63E-05 Mbytes, locked:    0 /   2
[tb_pin] Currently allocated     0.00E+00 Mbytes, locked:    0 /   0

     iteration #  6     ecut=    60.00 Ry     beta= 0.30
     Davidson diagonalization with overlap

---- Real-time Memory Report at c_bands before calling an iterative solver
          1250 MiB given to the printing process from OS
             0 MiB allocation reported by mallinfo(arena+hblkhd)
        840403 MiB available memory on the node where the printing process lives
     GPU memory used/free/total (MiB): 2072 / 79078 / 81151
------------------
     ethr =  7.32E-04,  avg # of iterations =  3.0

     total cpu time spent up to now is       24.1 secs

     total energy              =   -1489.08257553 Ry
     estimated scf accuracy    <       0.81318383 Ry

     total magnetization       =     2.10 Bohr mag/cell
     absolute magnetization    =     3.67 Bohr mag/cell
[tb_dev] Currently allocated     7.63E-05 Mbytes, locked:    0 /   2
[tb_pin] Currently allocated     0.00E+00 Mbytes, locked:    0 /   0

     iteration #  7     ecut=    60.00 Ry     beta= 0.30
     Davidson diagonalization with overlap

---- Real-time Memory Report at c_bands before calling an iterative solver
          1257 MiB given to the printing process from OS
             0 MiB allocation reported by mallinfo(arena+hblkhd)
        840404 MiB available memory on the node where the printing process lives
     GPU memory used/free/total (MiB): 2072 / 79078 / 81151
------------------
     ethr =  7.32E-04,  avg # of iterations =  5.3

     total cpu time spent up to now is       27.4 secs

     total energy              =   -1489.16438580 Ry
     estimated scf accuracy    <       0.65312906 Ry

     total magnetization       =    -0.55 Bohr mag/cell
     absolute magnetization    =     0.76 Bohr mag/cell
[tb_dev] Currently allocated     7.63E-05 Mbytes, locked:    0 /   2
[tb_pin] Currently allocated     0.00E+00 Mbytes, locked:    0 /   0

     iteration #  8     ecut=    60.00 Ry     beta= 0.30
     Davidson diagonalization with overlap

---- Real-time Memory Report at c_bands before calling an iterative solver
          1263 MiB given to the printing process from OS
             0 MiB allocation reported by mallinfo(arena+hblkhd)
        840374 MiB available memory on the node where the printing process lives
     GPU memory used/free/total (MiB): 2072 / 79078 / 81151
------------------
     ethr =  6.80E-04,  avg # of iterations =  1.3

     total cpu time spent up to now is       30.0 secs

     total energy              =   -1489.17649809 Ry
     estimated scf accuracy    <       0.34442786 Ry

     total magnetization       =     1.23 Bohr mag/cell
     absolute magnetization    =     1.52 Bohr mag/cell
[tb_dev] Currently allocated     7.63E-05 Mbytes, locked:    0 /   2
[tb_pin] Currently allocated     0.00E+00 Mbytes, locked:    0 /   0

     iteration #  9     ecut=    60.00 Ry     beta= 0.30
     Davidson diagonalization with overlap

---- Real-time Memory Report at c_bands before calling an iterative solver
          1267 MiB given to the printing process from OS
             0 MiB allocation reported by mallinfo(arena+hblkhd)
        840365 MiB available memory on the node where the printing process lives
     GPU memory used/free/total (MiB): 2072 / 79078 / 81151
------------------
     ethr =  3.59E-04,  avg # of iterations =  4.7

     total cpu time spent up to now is       33.2 secs

     total energy              =   -1489.08725959 Ry
     estimated scf accuracy    <       0.22181459 Ry

     total magnetization       =     2.19 Bohr mag/cell
     absolute magnetization    =     2.28 Bohr mag/cell
[tb_dev] Currently allocated     7.63E-05 Mbytes, locked:    0 /   2
[tb_pin] Currently allocated     0.00E+00 Mbytes, locked:    0 /   0

     iteration # 10     ecut=    60.00 Ry     beta= 0.30
     Davidson diagonalization with overlap

---- Real-time Memory Report at c_bands before calling an iterative solver
          1276 MiB given to the printing process from OS
             0 MiB allocation reported by mallinfo(arena+hblkhd)
        840277 MiB available memory on the node where the printing process lives
     GPU memory used/free/total (MiB): 2072 / 79078 / 81151
------------------
     c_bands:  1 eigenvalues not converged
     ethr =  2.31E-04,  avg # of iterations = 10.2

     total cpu time spent up to now is       37.1 secs

     total energy              =   -1489.07555101 Ry
     estimated scf accuracy    <       0.55300913 Ry

     total magnetization       =     2.99 Bohr mag/cell
     absolute magnetization    =     3.05 Bohr mag/cell
[tb_dev] Currently allocated     7.63E-05 Mbytes, locked:    0 /   2
[tb_pin] Currently allocated     0.00E+00 Mbytes, locked:    0 /   0

     iteration # 11     ecut=    60.00 Ry     beta= 0.30
     Davidson diagonalization with overlap

---- Real-time Memory Report at c_bands before calling an iterative solver
          1281 MiB given to the printing process from OS
             0 MiB allocation reported by mallinfo(arena+hblkhd)
        840238 MiB available memory on the node where the printing process lives
     GPU memory used/free/total (MiB): 2072 / 79078 / 81151
------------------
     ethr =  2.31E-04,  avg # of iterations =  1.8

     total cpu time spent up to now is       39.8 secs

     total energy              =   -1489.14749126 Ry
     estimated scf accuracy    <       0.10129183 Ry

     total magnetization       =     2.14 Bohr mag/cell
     absolute magnetization    =     2.21 Bohr mag/cell
[tb_dev] Currently allocated     7.63E-05 Mbytes, locked:    0 /   2
[tb_pin] Currently allocated     0.00E+00 Mbytes, locked:    0 /   0

     iteration # 12     ecut=    60.00 Ry     beta= 0.30
     Davidson diagonalization with overlap

---- Real-time Memory Report at c_bands before calling an iterative solver
          1281 MiB given to the printing process from OS
             0 MiB allocation reported by mallinfo(arena+hblkhd)
        840231 MiB available memory on the node where the printing process lives
     GPU memory used/free/total (MiB): 2072 / 79078 / 81151
------------------
     ethr =  1.06E-04,  avg # of iterations =  2.4

     total cpu time spent up to now is       42.7 secs

     total energy              =   -1489.14473216 Ry
     estimated scf accuracy    <       0.03589862 Ry

     total magnetization       =     2.28 Bohr mag/cell
     absolute magnetization    =     2.33 Bohr mag/cell
[tb_dev] Currently allocated     7.63E-05 Mbytes, locked:    0 /   2
[tb_pin] Currently allocated     0.00E+00 Mbytes, locked:    0 /   0

     iteration # 13     ecut=    60.00 Ry     beta= 0.30
     Davidson diagonalization with overlap

---- Real-time Memory Report at c_bands before calling an iterative solver
          1284 MiB given to the printing process from OS
             0 MiB allocation reported by mallinfo(arena+hblkhd)
        840212 MiB available memory on the node where the printing process lives
     GPU memory used/free/total (MiB): 2072 / 79078 / 81151
------------------
     c_bands:  2 eigenvalues not converged
     c_bands:  1 eigenvalues not converged
     c_bands:  2 eigenvalues not converged
     ethr =  3.74E-05,  avg # of iterations =  6.6

     total cpu time spent up to now is       46.1 secs

     total energy              =   -1489.13946935 Ry
     estimated scf accuracy    <       0.03080591 Ry

     total magnetization       =     2.17 Bohr mag/cell
     absolute magnetization    =     2.29 Bohr mag/cell
[tb_dev] Currently allocated     7.63E-05 Mbytes, locked:    0 /   2
[tb_pin] Currently allocated     0.00E+00 Mbytes, locked:    0 /   0

     iteration # 14     ecut=    60.00 Ry     beta= 0.30
     Davidson diagonalization with overlap

---- Real-time Memory Report at c_bands before calling an iterative solver
          1284 MiB given to the printing process from OS
             0 MiB allocation reported by mallinfo(arena+hblkhd)
        840252 MiB available memory on the node where the printing process lives
     GPU memory used/free/total (MiB): 2072 / 79078 / 81151
------------------
     ethr =  3.21E-05,  avg # of iterations =  6.1

     total cpu time spent up to now is       49.5 secs

     total energy              =   -1489.14852140 Ry
     estimated scf accuracy    <       0.08674345 Ry

     total magnetization       =     2.82 Bohr mag/cell
     absolute magnetization    =     2.97 Bohr mag/cell
[tb_dev] Currently allocated     7.63E-05 Mbytes, locked:    0 /   2
[tb_pin] Currently allocated     0.00E+00 Mbytes, locked:    0 /   0

     iteration # 15     ecut=    60.00 Ry     beta= 0.30
     Davidson diagonalization with overlap

---- Real-time Memory Report at c_bands before calling an iterative solver
          1284 MiB given to the printing process from OS
             0 MiB allocation reported by mallinfo(arena+hblkhd)
        840278 MiB available memory on the node where the printing process lives
     GPU memory used/free/total (MiB): 2072 / 79078 / 81151
------------------
     ethr =  3.21E-05,  avg # of iterations =  1.1

     total cpu time spent up to now is       52.2 secs

     total energy              =   -1489.14665405 Ry
     estimated scf accuracy    <       0.04220798 Ry

     total magnetization       =     2.70 Bohr mag/cell
     absolute magnetization    =     2.83 Bohr mag/cell
[tb_dev] Currently allocated     7.63E-05 Mbytes, locked:    0 /   2
[tb_pin] Currently allocated     0.00E+00 Mbytes, locked:    0 /   0

     iteration # 16     ecut=    60.00 Ry     beta= 0.30
     Davidson diagonalization with overlap

---- Real-time Memory Report at c_bands before calling an iterative solver
          1284 MiB given to the printing process from OS
             0 MiB allocation reported by mallinfo(arena+hblkhd)
        840284 MiB available memory on the node where the printing process lives
     GPU memory used/free/total (MiB): 2072 / 79078 / 81151
------------------
     ethr =  3.21E-05,  avg # of iterations =  1.2

     total cpu time spent up to now is       54.9 secs

     total energy              =   -1489.14505979 Ry
     estimated scf accuracy    <       0.01372049 Ry

     total magnetization       =     2.60 Bohr mag/cell
     absolute magnetization    =     2.71 Bohr mag/cell
[tb_dev] Currently allocated     7.63E-05 Mbytes, locked:    0 /   2
[tb_pin] Currently allocated     0.00E+00 Mbytes, locked:    0 /   0

     iteration # 17     ecut=    60.00 Ry     beta= 0.30
     Davidson diagonalization with overlap

---- Real-time Memory Report at c_bands before calling an iterative solver
          1284 MiB given to the printing process from OS
             0 MiB allocation reported by mallinfo(arena+hblkhd)
        840311 MiB available memory on the node where the printing process lives
     GPU memory used/free/total (MiB): 2072 / 79078 / 81151
------------------
     c_bands:  1 eigenvalues not converged
     ethr =  1.43E-05,  avg # of iterations =  2.4

     total cpu time spent up to now is       57.8 secs

     total energy              =   -1489.14636983 Ry
     estimated scf accuracy    <       0.00136338 Ry

     total magnetization       =     2.48 Bohr mag/cell
     absolute magnetization    =     2.59 Bohr mag/cell
[tb_dev] Currently allocated     7.63E-05 Mbytes, locked:    0 /   2
[tb_pin] Currently allocated     0.00E+00 Mbytes, locked:    0 /   0

     iteration # 18     ecut=    60.00 Ry     beta= 0.30
     Davidson diagonalization with overlap

---- Real-time Memory Report at c_bands before calling an iterative solver
          1284 MiB given to the printing process from OS
             0 MiB allocation reported by mallinfo(arena+hblkhd)
        840354 MiB available memory on the node where the printing process lives
     GPU memory used/free/total (MiB): 2072 / 79078 / 81151
------------------
     c_bands:  1 eigenvalues not converged
     ethr =  1.42E-06,  avg # of iterations = 11.0

     total cpu time spent up to now is       61.9 secs

     total energy              =   -1489.14673063 Ry
     estimated scf accuracy    <       0.00020159 Ry

     total magnetization       =     2.49 Bohr mag/cell
     absolute magnetization    =     2.62 Bohr mag/cell
[tb_dev] Currently allocated     7.63E-05 Mbytes, locked:    0 /   2
[tb_pin] Currently allocated     0.00E+00 Mbytes, locked:    0 /   0

     iteration # 19     ecut=    60.00 Ry     beta= 0.30
     Davidson diagonalization with overlap

---- Real-time Memory Report at c_bands before calling an iterative solver
          1284 MiB given to the printing process from OS
             0 MiB allocation reported by mallinfo(arena+hblkhd)
        841184 MiB available memory on the node where the printing process lives
     GPU memory used/free/total (MiB): 2072 / 79078 / 81151
------------------
     ethr =  2.10E-07,  avg # of iterations =  6.3

     total cpu time spent up to now is       65.5 secs

     total energy              =   -1489.14677900 Ry
     estimated scf accuracy    <       0.00006603 Ry

     total magnetization       =     2.50 Bohr mag/cell
     absolute magnetization    =     2.63 Bohr mag/cell
[tb_dev] Currently allocated     7.63E-05 Mbytes, locked:    0 /   2
[tb_pin] Currently allocated     0.00E+00 Mbytes, locked:    0 /   0

     iteration # 20     ecut=    60.00 Ry     beta= 0.30
     Davidson diagonalization with overlap

---- Real-time Memory Report at c_bands before calling an iterative solver
          1284 MiB given to the printing process from OS
             0 MiB allocation reported by mallinfo(arena+hblkhd)
        841226 MiB available memory on the node where the printing process lives
     GPU memory used/free/total (MiB): 2072 / 79078 / 81151
------------------
     ethr =  6.88E-08,  avg # of iterations =  2.9

     total cpu time spent up to now is       68.4 secs

     total energy              =   -1489.14679146 Ry
     estimated scf accuracy    <       0.00005646 Ry

     total magnetization       =     2.47 Bohr mag/cell
     absolute magnetization    =     2.61 Bohr mag/cell
[tb_dev] Currently allocated     7.63E-05 Mbytes, locked:    0 /   2
[tb_pin] Currently allocated     0.00E+00 Mbytes, locked:    0 /   0

     iteration # 21     ecut=    60.00 Ry     beta= 0.30
     Davidson diagonalization with overlap

---- Real-time Memory Report at c_bands before calling an iterative solver
          1284 MiB given to the printing process from OS
             0 MiB allocation reported by mallinfo(arena+hblkhd)
        841221 MiB available memory on the node where the printing process lives
     GPU memory used/free/total (MiB): 2072 / 79078 / 81151
------------------
     ethr =  5.88E-08,  avg # of iterations =  1.5

     total cpu time spent up to now is       71.1 secs

     total energy              =   -1489.14679835 Ry
     estimated scf accuracy    <       0.00000193 Ry

     total magnetization       =     2.48 Bohr mag/cell
     absolute magnetization    =     2.62 Bohr mag/cell
[tb_dev] Currently allocated     7.63E-05 Mbytes, locked:    0 /   2
[tb_pin] Currently allocated     0.00E+00 Mbytes, locked:    0 /   0

     iteration # 22     ecut=    60.00 Ry     beta= 0.30
     Davidson diagonalization with overlap

---- Real-time Memory Report at c_bands before calling an iterative solver
          1284 MiB given to the printing process from OS
             0 MiB allocation reported by mallinfo(arena+hblkhd)
        841230 MiB available memory on the node where the printing process lives
     GPU memory used/free/total (MiB): 2072 / 79078 / 81151
------------------
     c_bands:  1 eigenvalues not converged
     ethr =  2.01E-09,  avg # of iterations = 12.6

     total cpu time spent up to now is       75.8 secs

     total energy              =   -1489.14680286 Ry
     estimated scf accuracy    <       0.00000105 Ry

     total magnetization       =     2.48 Bohr mag/cell
     absolute magnetization    =     2.62 Bohr mag/cell
[tb_dev] Currently allocated     7.63E-05 Mbytes, locked:    0 /   2
[tb_pin] Currently allocated     0.00E+00 Mbytes, locked:    0 /   0

     iteration # 23     ecut=    60.00 Ry     beta= 0.30
     Davidson diagonalization with overlap

---- Real-time Memory Report at c_bands before calling an iterative solver
          1284 MiB given to the printing process from OS
             0 MiB allocation reported by mallinfo(arena+hblkhd)
        841272 MiB available memory on the node where the printing process lives
     GPU memory used/free/total (MiB): 2072 / 79078 / 81151
------------------
     ethr =  1.09E-09,  avg # of iterations =  2.7

     total cpu time spent up to now is       78.7 secs

     total energy              =   -1489.14680338 Ry
     estimated scf accuracy    <       0.00000034 Ry

     total magnetization       =     2.48 Bohr mag/cell
     absolute magnetization    =     2.62 Bohr mag/cell
[tb_dev] Currently allocated     7.63E-05 Mbytes, locked:    0 /   2
[tb_pin] Currently allocated     0.00E+00 Mbytes, locked:    0 /   0

     iteration # 24     ecut=    60.00 Ry     beta= 0.30
     Davidson diagonalization with overlap

---- Real-time Memory Report at c_bands before calling an iterative solver
          1284 MiB given to the printing process from OS
             0 MiB allocation reported by mallinfo(arena+hblkhd)
        841268 MiB available memory on the node where the printing process lives
     GPU memory used/free/total (MiB): 2072 / 79078 / 81151
------------------
     ethr =  3.58E-10,  avg # of iterations =  3.0
 
     Magnetic moment per site  (integrated on atomic sphere of radius R)
     atom   1 (R=0.159)  charge= 14.0900  magn=  0.6464
     atom   2 (R=0.159)  charge= 14.0891  magn=  0.6442
     atom   3 (R=0.159)  charge= 14.0891  magn=  0.6442
     atom   4 (R=0.159)  charge=  5.2086  magn=  0.0730
     atom   5 (R=0.159)  charge=  5.2086  magn=  0.0730
     atom   6 (R=0.159)  charge=  5.2086  magn=  0.0730
     atom   7 (R=0.159)  charge=  5.2161  magn=  0.0634
     atom   8 (R=0.159)  charge=  5.2161  magn=  0.0634
     atom   9 (R=0.159)  charge=  5.2161  magn=  0.0634
     atom  10 (R=0.319)  charge=  8.1353  magn= -0.0206

     total cpu time spent up to now is       81.6 secs

     End of self-consistent calculation

 ------ SPIN UP ------------


          k = 0.0000 0.0000 0.0000 ( 11393 PWs)   bands (ev):

   -93.4972 -93.4917 -93.4916 -56.7442 -56.7442 -56.7433 -56.7433 -56.7053
   -56.7053 -56.6994 -56.6909 -56.6896 -52.2046 -24.1220 -24.1220 -24.0801
   -16.8351 -15.1821 -15.1821 -15.1378 -15.1378 -14.9125  -3.0551  -2.9308
    -2.9308  -2.8904  -2.8904  -2.6977  -2.6977  -2.4801  -2.4699  -0.9280
    -0.9280  -0.8752  -0.8752  -0.4929  -0.4814   0.4655   0.7295   0.7295
     0.7470   0.7480   1.0577   1.0577   1.8073   1.8073   1.8225   1.8225
     1.8846   2.2942   3.9632   3.9632   3.9745   3.9745   4.7077   4.7077
     6.0189   8.4765   9.2135   9.2135  10.0236  10.0237  10.5082  10.8725

     occupation numbers 
     1.0000   1.0000   1.0000   1.0000   1.0000   1.0000   1.0000   1.0000
     1.0000   1.0000   1.0000   1.0000   1.0000   1.0000   1.0000   1.0000
     1.0000   1.0000   1.0000   1.0000   1.0000   1.0000   1.0000   1.0000
     1.0000   1.0000   1.0000   1.0000   1.0000   1.0000   1.0000   1.0000
     1.0000   1.0000   1.0000   1.0000   1.0000   1.0000   1.0000   1.0000
     1.0000   1.0000   1.0000   1.0000   1.0141   1.0141   1.0167   1.0167
     1.0311   0.8452   0.0000   0.0000   0.0000   0.0000   0.0000   0.0000
     0.0000   0.0000   0.0000   0.0000   0.0000   0.0000   0.0000   0.0000

          k = 0.0000 0.0000 0.1684 ( 11332 PWs)   bands (ev):

   -93.4972 -93.4916 -93.4916 -56.7441 -56.7441 -56.7432 -56.7432 -56.7053
   -56.7053 -56.6993 -56.6908 -56.6895 -52.2046 -24.1219 -24.1219 -24.0799
   -16.8351 -15.1821 -15.1821 -15.1377 -15.1377 -14.9125  -3.0535  -2.9307
    -2.9307  -2.8903  -2.8903  -2.6977  -2.6977  -2.4800  -2.4698  -0.9280
    -0.9280  -0.8751  -0.8751  -0.4929  -0.4814   0.4299   0.7295   0.7295
     0.7470   0.7480   1.0577   1.0577   1.8073   1.8073   1.8225   1.8225
     1.9904   2.2556   3.9635   3.9635   3.9748   3.9748   4.7077   4.7077
     5.8290   9.0427   9.2073   9.2074  10.0169  10.0169  10.3958  10.8712

     occupation numbers 
     1.0000   1.0000   1.0000   1.0000   1.0000   1.0000   1.0000   1.0000
     1.0000   1.0000   1.0000   1.0000   1.0000   1.0000   1.0000   1.0000
     1.0000   1.0000   1.0000   1.0000   1.0000   1.0000   1.0000   1.0000
     1.0000   1.0000   1.0000   1.0000   1.0000   1.0000   1.0000   1.0000
     1.0000   1.0000   1.0000   1.0000   1.0000   1.0000   1.0000   1.0000
     1.0000   1.0000   1.0000   1.0000   1.0141   1.0141   1.0167   1.0167
     1.0658   0.9272   0.0000   0.0000   0.0000   0.0000   0.0000   0.0000
     0.0000   0.0000   0.0000   0.0000   0.0000   0.0000   0.0000   0.0000

          k = 0.0000 0.1925 0.0000 ( 11360 PWs)   bands (ev):

   -93.4967 -93.4919 -93.4918 -56.7524 -56.7500 -56.7338 -56.7327 -56.7102
   -56.7066 -56.6986 -56.6912 -56.6899 -52.2046 -24.1221 -24.1221 -24.0799
   -16.7321 -15.3131 -15.2295 -15.1430 -15.0858 -14.9168  -3.3315  -3.0730
    -2.9379  -2.9189  -2.7962  -2.7936  -2.6285  -2.1141  -1.9223  -1.2209
    -1.1647  -1.0239  -0.9532  -0.1858  -0.1206   0.1565   0.2360   0.7073
     0.8288   0.8956   1.1853   1.4135   1.5529   1.5658   1.9123   1.9847
     1.9885   2.4664   3.9626   3.9863   4.0079   4.0678   4.4246   4.6366
     6.2259   7.5357   8.5288   8.7919   9.2314  10.8849  11.1209  11.6697

     occupation numbers 
     1.0000   1.0000   1.0000   1.0000   1.0000   1.0000   1.0000   1.0000
     1.0000   1.0000   1.0000   1.0000   1.0000   1.0000   1.0000   1.0000
     1.0000   1.0000   1.0000   1.0000   1.0000   1.0000   1.0000   1.0000
     1.0000   1.0000   1.0000   1.0000   1.0000   1.0000   1.0000   1.0000
     1.0000   1.0000   1.0000   1.0000   1.0000   1.0000   1.0000   1.0000
     1.0000   1.0000   1.0000   1.0000   1.0003   1.0004   1.0394   1.0639
     1.0652   0.3900   0.0000   0.0000   0.0000   0.0000   0.0000   0.0000
     0.0000   0.0000   0.0000   0.0000   0.0000   0.0000   0.0000   0.0000

          k = 0.0000 0.1925 0.1684 ( 11375 PWs)   bands (ev):

   -93.4968 -93.4919 -93.4918 -56.7523 -56.7500 -56.7339 -56.7327 -56.7102
   -56.7066 -56.6987 -56.6912 -56.6899 -52.2046 -24.1222 -24.1220 -24.0800
   -16.7321 -15.3131 -15.2295 -15.1430 -15.0858 -14.9168  -3.3315  -3.0730
    -2.9365  -2.9189  -2.7962  -2.7937  -2.6285  -2.1141  -1.9222  -1.2209
    -1.1648  -1.0238  -0.9532  -0.1858  -0.1206   0.1566   0.2344   0.6779
     0.8288   0.8956   1.1853   1.4121   1.5530   1.5659   1.9122   1.9848
     2.0649   2.4450   3.9635   3.9865   4.0077   4.0682   4.4350   4.6351
     6.0590   7.5284   8.5228   9.1468   9.3816  10.8303  11.0902  11.1280

     occupation numbers 
     1.0000   1.0000   1.0000   1.0000   1.0000   1.0000   1.0000   1.0000
     1.0000   1.0000   1.0000   1.0000   1.0000   1.0000   1.0000   1.0000
     1.0000   1.0000   1.0000   1.0000   1.0000   1.0000   1.0000   1.0000
     1.0000   1.0000   1.0000   1.0000   1.0000   1.0000   1.0000   1.0000
     1.0000   1.0000   1.0000   1.0000   1.0000   1.0000   1.0000   1.0000
     1.0000   1.0000   1.0000   1.0000   1.0003   1.0004   1.0394   1.0639
     1.0828   0.4446   0.0000   0.0000   0.0000   0.0000   0.0000   0.0000
     0.0000   0.0000   0.0000   0.0000   0.0000   0.0000   0.0000   0.0000

          k = 0.0000 0.3849 0.0000 ( 11350 PWs)   bands (ev):

   -93.4956 -93.4927 -93.4921 -56.7584 -56.7476 -56.7243 -56.7230 -56.7222
   -56.7102 -56.6968 -56.6923 -56.6906 -52.2046 -24.1223 -24.1222 -24.0799
   -16.4457 -15.6272 -15.2732 -15.1885 -15.0192 -14.9327  -3.7462  -2.9632
    -2.9561  -2.9033  -2.6204  -2.5281  -2.4621  -1.9349  -1.6689  -1.3324
    -1.3122  -1.2298  -0.7999  -0.7905  -0.3694   0.1135   0.4527   0.9279
     1.0384   1.2316   1.2803   1.2868   1.3684   1.7522   1.7641   2.0423
     2.0505   3.0258   3.9313   3.9406   3.9905   4.0050   4.3882   4.4318
     5.6730   6.7994   7.9416   8.5513   9.1822   9.6694  11.5496  11.6885

     occupation numbers 
     1.0000   1.0000   1.0000   1.0000   1.0000   1.0000   1.0000   1.0000
     1.0000   1.0000   1.0000   1.0000   1.0000   1.0000   1.0000   1.0000
     1.0000   1.0000   1.0000   1.0000   1.0000   1.0000   1.0000   1.0000
     1.0000   1.0000   1.0000   1.0000   1.0000   1.0000   1.0000   1.0000
     1.0000   1.0000   1.0000   1.0000   1.0000   1.0000   1.0000   1.0000
     1.0000   1.0000   1.0000   1.0000   1.0000   1.0071   1.0083   1.0798
     1.0812   0.0002   0.0000   0.0000   0.0000   0.0000   0.0000   0.0000
     0.0000   0.0000   0.0000   0.0000   0.0000   0.0000   0.0000   0.0000

          k = 0.0000 0.3849 0.1684 ( 11369 PWs)   bands (ev):

   -93.4956 -93.4928 -93.4921 -56.7583 -56.7476 -56.7244 -56.7230 -56.7222
   -56.7102 -56.6968 -56.6924 -56.6907 -52.2046 -24.1224 -24.1222 -24.0800
   -16.4457 -15.6272 -15.2732 -15.1885 -15.0192 -14.9328  -3.7461  -2.9635
    -2.9563  -2.9033  -2.6194  -2.5281  -2.4621  -1.9349  -1.6689  -1.3320
    -1.3122  -1.2299  -0.7999  -0.7901  -0.3695   0.1137   0.4525   0.9278
     1.0242   1.2316   1.2804   1.2868   1.3687   1.7476   1.7639   2.0491
     2.0625   3.0224   3.9331   3.9694   3.9909   4.0095   4.3884   4.4216
     5.6706   6.6951   7.9388   8.5410   9.1958  10.0198  11.5562  11.7252

     occupation numbers 
     1.0000   1.0000   1.0000   1.0000   1.0000   1.0000   1.0000   1.0000
     1.0000   1.0000   1.0000   1.0000   1.0000   1.0000   1.0000   1.0000
     1.0000   1.0000   1.0000   1.0000   1.0000   1.0000   1.0000   1.0000
     1.0000   1.0000   1.0000   1.0000   1.0000   1.0000   1.0000   1.0000
     1.0000   1.0000   1.0000   1.0000   1.0000   1.0000   1.0000   1.0000
     1.0000   1.0000   1.0000   1.0000   1.0000   1.0067   1.0083   1.0810
     1.0826   0.0002   0.0000   0.0000   0.0000   0.0000   0.0000   0.0000
     0.0000   0.0000   0.0000   0.0000   0.0000   0.0000   0.0000   0.0000

          k = 0.0000-0.5774 0.0000 ( 11352 PWs)   bands (ev):

   -93.4941 -93.4941 -93.4922 -56.7605 -56.7375 -56.7367 -56.7186 -56.7166
   -56.7158 -56.6948 -56.6939 -56.6910 -52.2046 -24.1225 -24.1222 -24.0799
   -16.0434 -16.0419 -15.2895 -15.2128 -14.9665 -14.9659  -3.8976  -3.0167
    -3.0088  -2.5164  -2.5151  -2.2082  -2.1756  -2.1728  -2.0440  -1.4351
    -1.4203  -1.2711  -0.9150  -0.9149  -0.4151   0.2329   0.9368   0.9627
     0.9654   1.1342   1.2454   1.2468   1.6098   1.7954   1.8014   1.9657
     1.9669   3.7304   3.7883   3.8608   3.9908   4.0999   4.2399   4.4555
     4.5848   7.4769   7.7402   8.1271   8.3392  10.6753  10.9323  11.3473

     occupation numbers 
     1.0000   1.0000   1.0000   1.0000   1.0000   1.0000   1.0000   1.0000
     1.0000   1.0000   1.0000   1.0000   1.0000   1.0000   1.0000   1.0000
     1.0000   1.0000   1.0000   1.0000   1.0000   1.0000   1.0000   1.0000
     1.0000   1.0000   1.0000   1.0000   1.0000   1.0000   1.0000   1.0000
     1.0000   1.0000   1.0000   1.0000   1.0000   1.0000   1.0000   1.0000
     1.0000   1.0000   1.0000   1.0000   1.0008   1.0123   1.0132   1.0574
     1.0578   0.0000   0.0000   0.0000   0.0000   0.0000   0.0000   0.0000
     0.0000   0.0000   0.0000   0.0000   0.0000   0.0000   0.0000   0.0000

          k = 0.0000-0.5774 0.1684 ( 11376 PWs)   bands (ev):

   -93.4941 -93.4941 -93.4922 -56.7604 -56.7376 -56.7368 -56.7186 -56.7166
   -56.7158 -56.6949 -56.6940 -56.6910 -52.2046 -24.1226 -24.1222 -24.0800
   -16.0434 -16.0419 -15.2895 -15.2128 -14.9665 -14.9659  -3.8976  -3.0170
    -3.0090  -2.5164  -2.5151  -2.2082  -2.1754  -2.1725  -2.0439  -1.4345
    -1.4199  -1.2711  -0.9150  -0.9149  -0.4150   0.2332   0.9368   0.9613
     0.9634   1.1342   1.2455   1.2468   1.6097   1.7988   1.8034   1.9611
     1.9642   3.6437   3.7585   3.9846   4.0067   4.1450   4.1996   4.4500
     4.5848   7.4406   7.7401   8.0835   8.3261  10.8122  11.1090  11.3376

     occupation numbers 
     1.0000   1.0000   1.0000   1.0000   1.0000   1.0000   1.0000   1.0000
     1.0000   1.0000   1.0000   1.0000   1.0000   1.0000   1.0000   1.0000
     1.0000   1.0000   1.0000   1.0000   1.0000   1.0000   1.0000   1.0000
     1.0000   1.0000   1.0000   1.0000   1.0000   1.0000   1.0000   1.0000
     1.0000   1.0000   1.0000   1.0000   1.0000   1.0000   1.0000   1.0000
     1.0000   1.0000   1.0000   1.0000   1.0008   1.0128   1.0135   1.0558
     1.0569   0.0000   0.0000   0.0000   0.0000   0.0000   0.0000   0.0000
     0.0000   0.0000   0.0000   0.0000   0.0000   0.0000   0.0000   0.0000

          k = 0.1667 0.2887 0.0000 ( 11373 PWs)   bands (ev):

   -93.4959 -93.4923 -93.4922 -56.7534 -56.7533 -56.7258 -56.7256 -56.7191
   -56.7086 -56.6973 -56.6919 -56.6906 -52.2046 -24.1223 -24.1222 -24.0799
   -16.5375 -15.4259 -15.4254 -15.0772 -15.0771 -14.9272  -3.4102  -3.4095
    -2.9350  -2.7159  -2.7114  -2.7090  -2.4989  -1.7897  -1.7845  -1.2525
    -1.2470  -1.0946  -1.0887  -0.6530  -0.0435   0.1534   0.1551   0.8933
     1.0608   1.0612   1.2927   1.3659   1.3661   1.6277   1.9346   1.9357
     2.0587   2.8296   3.9334   3.9401   3.9972   4.1901   4.1907   4.5592
     6.5470   6.6405   6.8930   9.3579   9.9344  10.3210  10.5169  10.8301

     occupation numbers 
     1.0000   1.0000   1.0000   1.0000   1.0000   1.0000   1.0000   1.0000
     1.0000   1.0000   1.0000   1.0000   1.0000   1.0000   1.0000   1.0000
     1.0000   1.0000   1.0000   1.0000   1.0000   1.0000   1.0000   1.0000
     1.0000   1.0000   1.0000   1.0000   1.0000   1.0000   1.0000   1.0000
     1.0000   1.0000   1.0000   1.0000   1.0000   1.0000   1.0000   1.0000
     1.0000   1.0000   1.0000   1.0000   1.0000   1.0011   1.0467   1.0471
     1.0823   0.0076   0.0000   0.0000   0.0000   0.0000   0.0000   0.0000
     0.0000   0.0000   0.0000   0.0000   0.0000   0.0000   0.0000   0.0000

          k = 0.1667 0.2887 0.1684 ( 11359 PWs)   bands (ev):

   -93.4959 -93.4923 -93.4922 -56.7534 -56.7532 -56.7257 -56.7255 -56.7191
   -56.7087 -56.6974 -56.6919 -56.6906 -52.2046 -24.1223 -24.1221 -24.0800
   -16.5375 -15.4259 -15.4253 -15.0771 -15.0771 -14.9272  -3.4102  -3.4095
    -2.9354  -2.7157  -2.7104  -2.7090  -2.4989  -1.7897  -1.7845  -1.2523
    -1.2469  -1.0946  -1.0887  -0.6525  -0.0435   0.1535   0.1552   0.8788
     1.0607   1.0612   1.2844   1.3660   1.3662   1.6277   1.9343   1.9355
     2.0930   2.8174   3.9324   3.9391   4.0321   4.1911   4.1917   4.5591
     6.4560   6.5871   6.8913   9.7347   9.9927  10.3191  10.5226  10.8269

     occupation numbers 
     1.0000   1.0000   1.0000   1.0000   1.0000   1.0000   1.0000   1.0000
     1.0000   1.0000   1.0000   1.0000   1.0000   1.0000   1.0000   1.0000
     1.0000   1.0000   1.0000   1.0000   1.0000   1.0000   1.0000   1.0000
     1.0000   1.0000   1.0000   1.0000   1.0000   1.0000   1.0000   1.0000
     1.0000   1.0000   1.0000   1.0000   1.0000   1.0000   1.0000   1.0000
     1.0000   1.0000   1.0000   1.0000   1.0000   1.0011   1.0467   1.0470
     1.0825   0.0092   0.0000   0.0000   0.0000   0.0000   0.0000   0.0000
     0.0000   0.0000   0.0000   0.0000   0.0000   0.0000   0.0000   0.0000

          k = 0.1667 0.4811 0.0000 ( 11356 PWs)   bands (ev):

   -93.4946 -93.4933 -93.4925 -56.7563 -56.7464 -56.7332 -56.7187 -56.7184
   -56.7126 -56.6954 -56.6931 -56.6913 -52.2046 -24.1224 -24.1222 -24.0800
   -16.1931 -15.7855 -15.4983 -15.0871 -15.0033 -14.9538  -3.6788  -3.1995
    -3.0603  -2.6048  -2.4295  -2.4269  -2.2963  -2.0127  -1.9724  -1.4763
    -1.4474  -1.2886  -0.8671  -0.5956  -0.4767   0.2899   0.6432   0.9553
     1.1166   1.2540   1.2724   1.3491   1.5091   1.7069   1.7511   1.9234
     1.9527   3.5182   3.7504   3.7907   3.8983   4.2934   4.4401   4.5049
     5.0489   6.3358   7.3210   8.6351   9.8682  10.1016  10.3892  11.5943

     occupation numbers 
     1.0000   1.0000   1.0000   1.0000   1.0000   1.0000   1.0000   1.0000
     1.0000   1.0000   1.0000   1.0000   1.0000   1.0000   1.0000   1.0000
     1.0000   1.0000   1.0000   1.0000   1.0000   1.0000   1.0000   1.0000
     1.0000   1.0000   1.0000   1.0000   1.0000   1.0000   1.0000   1.0000
     1.0000   1.0000   1.0000   1.0000   1.0000   1.0000   1.0000   1.0000
     1.0000   1.0000   1.0000   1.0000   1.0001   1.0038   1.0070   1.0430
     1.0529   0.0000   0.0000   0.0000   0.0000   0.0000   0.0000   0.0000
     0.0000   0.0000   0.0000   0.0000   0.0000   0.0000   0.0000   0.0000

          k = 0.1667 0.4811 0.1684 ( 11345 PWs)   bands (ev):

   -93.4946 -93.4933 -93.4925 -56.7563 -56.7464 -56.7332 -56.7187 -56.7184
   -56.7126 -56.6954 -56.6931 -56.6913 -52.2046 -24.1224 -24.1222 -24.0799
   -16.1931 -15.7855 -15.4983 -15.0871 -15.0033 -14.9538  -3.6788  -3.1996
    -3.0606  -2.6048  -2.4293  -2.4267  -2.2962  -2.0127  -1.9724  -1.4758
    -1.4469  -1.2885  -0.8671  -0.5956  -0.4767   0.2902   0.6431   0.9533
     1.1166   1.2540   1.2724   1.3462   1.5095   1.7068   1.7492   1.9230
     1.9598   3.4270   3.7411   3.8867   3.9169   4.2996   4.4342   4.5052
     5.0636   6.3425   7.2345   8.5955   9.8529  10.1004  10.6662  11.7246

     occupation numbers 
     1.0000   1.0000   1.0000   1.0000   1.0000   1.0000   1.0000   1.0000
     1.0000   1.0000   1.0000   1.0000   1.0000   1.0000   1.0000   1.0000
     1.0000   1.0000   1.0000   1.0000   1.0000   1.0000   1.0000   1.0000
     1.0000   1.0000   1.0000   1.0000   1.0000   1.0000   1.0000   1.0000
     1.0000   1.0000   1.0000   1.0000   1.0000   1.0000   1.0000   1.0000
     1.0000   1.0000   1.0000   1.0000   1.0001   1.0038   1.0069   1.0429
     1.0554   0.0000   0.0000   0.0000   0.0000   0.0000   0.0000   0.0000
     0.0000   0.0000   0.0000   0.0000   0.0000   0.0000   0.0000   0.0000

          k = 0.3333 0.5774 0.0000 ( 11370 PWs)   bands (ev):

   -93.4935 -93.4935 -93.4934 -56.7468 -56.7468 -56.7462 -56.7155 -56.7155
   -56.7149 -56.6939 -56.6939 -56.6921 -52.2046 -24.1224 -24.1224 -24.0800
   -15.8465 -15.8448 -15.8448 -15.0015 -15.0009 -15.0009  -3.3129  -3.3101
    -3.3101  -2.4402  -2.4331  -2.4331  -2.1388  -2.1388  -2.1367  -1.5614
    -1.5419  -1.5419  -0.5163  -0.5163  -0.5142   0.6442   0.6442   0.6512
     1.3162   1.3162   1.3164   1.5193   1.5193   1.5211   1.7776   1.7822
     1.7822   3.6433   3.6807   3.6807   4.3930   4.5110   4.5110   4.5116
     5.0182   5.0182   7.8130   8.7106   8.7106  11.1183  11.4883  11.4884

     occupation numbers 
     1.0000   1.0000   1.0000   1.0000   1.0000   1.0000   1.0000   1.0000
     1.0000   1.0000   1.0000   1.0000   1.0000   1.0000   1.0000   1.0000
     1.0000   1.0000   1.0000   1.0000   1.0000   1.0000   1.0000   1.0000
     1.0000   1.0000   1.0000   1.0000   1.0000   1.0000   1.0000   1.0000
     1.0000   1.0000   1.0000   1.0000   1.0000   1.0000   1.0000   1.0000
     1.0000   1.0000   1.0000   1.0002   1.0002   1.0002   1.0099   1.0105
     1.0105   0.0000   0.0000   0.0000   0.0000   0.0000   0.0000   0.0000
     0.0000   0.0000   0.0000   0.0000   0.0000   0.0000   0.0000   0.0000

          k = 0.3333 0.5774 0.1684 ( 11352 PWs)   bands (ev):

   -93.4935 -93.4935 -93.4934 -56.7468 -56.7468 -56.7462 -56.7155 -56.7155
   -56.7149 -56.6939 -56.6939 -56.6921 -52.2046 -24.1224 -24.1224 -24.0799
   -15.8465 -15.8448 -15.8448 -15.0015 -15.0009 -15.0009  -3.3130  -3.3102
    -3.3102  -2.4403  -2.4332  -2.4332  -2.1387  -2.1387  -2.1366  -1.5606
    -1.5415  -1.5415  -0.5164  -0.5164  -0.5142   0.6442   0.6442   0.6512
     1.3157   1.3158   1.3158   1.5193   1.5193   1.5211   1.7792   1.7831
     1.7831   3.6042   3.6663   3.6663   4.4496   4.5111   4.5111   4.5116
     5.0456   5.0456   7.7588   8.6487   8.6487  11.2771  11.6987  11.6987

     occupation numbers 
     1.0000   1.0000   1.0000   1.0000   1.0000   1.0000   1.0000   1.0000
     1.0000   1.0000   1.0000   1.0000   1.0000   1.0000   1.0000   1.0000
     1.0000   1.0000   1.0000   1.0000   1.0000   1.0000   1.0000   1.0000
     1.0000   1.0000   1.0000   1.0000   1.0000   1.0000   1.0000   1.0000
     1.0000   1.0000   1.0000   1.0000   1.0000   1.0000   1.0000   1.0000
     1.0000   1.0000   1.0000   1.0002   1.0002   1.0002   1.0101   1.0106
     1.0106   0.0000   0.0000   0.0000   0.0000   0.0000   0.0000   0.0000
     0.0000   0.0000   0.0000   0.0000   0.0000   0.0000   0.0000   0.0000

          k =-0.1667-0.2887 0.1684 ( 11359 PWs)   bands (ev):

   -93.4960 -93.4923 -93.4922 -56.7534 -56.7532 -56.7257 -56.7255 -56.7191
   -56.7087 -56.6974 -56.6919 -56.6906 -52.2046 -24.1223 -24.1221 -24.0800
   -16.5375 -15.4259 -15.4253 -15.0772 -15.0771 -14.9272  -3.4102  -3.4095
    -2.9352  -2.7158  -2.7106  -2.7090  -2.4989  -1.7897  -1.7845  -1.2524
    -1.2470  -1.0945  -1.0886  -0.6527  -0.0435   0.1534   0.1551   0.8788
     1.0608   1.0612   1.2851   1.3660   1.3662   1.6277   1.9342   1.9354
     2.0858   2.8405   3.9344   3.9409   4.0008   4.1903   4.1908   4.5591
     6.4852   6.5849   6.8849   9.6876  10.0175  10.3202  10.5721  10.8259

     occupation numbers 
     1.0000   1.0000   1.0000   1.0000   1.0000   1.0000   1.0000   1.0000
     1.0000   1.0000   1.0000   1.0000   1.0000   1.0000   1.0000   1.0000
     1.0000   1.0000   1.0000   1.0000   1.0000   1.0000   1.0000   1.0000
     1.0000   1.0000   1.0000   1.0000   1.0000   1.0000   1.0000   1.0000
     1.0000   1.0000   1.0000   1.0000   1.0000   1.0000   1.0000   1.0000
     1.0000   1.0000   1.0000   1.0000   1.0000   1.0011   1.0466   1.0470
     1.0831   0.0064   0.0000   0.0000   0.0000   0.0000   0.0000   0.0000
     0.0000   0.0000   0.0000   0.0000   0.0000   0.0000   0.0000   0.0000

          k =-0.1667-0.4811 0.1684 ( 11345 PWs)   bands (ev):

   -93.4946 -93.4933 -93.4925 -56.7563 -56.7464 -56.7332 -56.7187 -56.7184
   -56.7126 -56.6954 -56.6931 -56.6913 -52.2046 -24.1224 -24.1222 -24.0799
   -16.1931 -15.7855 -15.4983 -15.0871 -15.0033 -14.9538  -3.6789  -3.1996
    -3.0605  -2.6049  -2.4294  -2.4267  -2.2962  -2.0127  -1.9724  -1.4756
    -1.4468  -1.2884  -0.8671  -0.5956  -0.4767   0.2900   0.6428   0.9524
     1.1167   1.2540   1.2725   1.3469   1.5097   1.7065   1.7505   1.9217
     1.9539   3.5225   3.7540   3.7983   3.8983   4.2944   4.4381   4.5050
     5.0442   6.3261   7.2885   8.6512   9.9367  10.1039  10.5382  11.5555

     occupation numbers 
     1.0000   1.0000   1.0000   1.0000   1.0000   1.0000   1.0000   1.0000
     1.0000   1.0000   1.0000   1.0000   1.0000   1.0000   1.0000   1.0000
     1.0000   1.0000   1.0000   1.0000   1.0000   1.0000   1.0000   1.0000
     1.0000   1.0000   1.0000   1.0000   1.0000   1.0000   1.0000   1.0000
     1.0000   1.0000   1.0000   1.0000   1.0000   1.0000   1.0000   1.0000
     1.0000   1.0000   1.0000   1.0000   1.0001   1.0038   1.0070   1.0425
     1.0533   0.0000   0.0000   0.0000   0.0000   0.0000   0.0000   0.0000
     0.0000   0.0000   0.0000   0.0000   0.0000   0.0000   0.0000   0.0000

          k =-0.3333-0.5774 0.1684 ( 11352 PWs)   bands (ev):

   -93.4935 -93.4935 -93.4934 -56.7468 -56.7468 -56.7462 -56.7155 -56.7155
   -56.7149 -56.6939 -56.6939 -56.6921 -52.2046 -24.1224 -24.1224 -24.0799
   -15.8465 -15.8448 -15.8448 -15.0015 -15.0009 -15.0009  -3.3130  -3.3102
    -3.3102  -2.4404  -2.4332  -2.4332  -2.1387  -2.1387  -2.1367  -1.5605
    -1.5414  -1.5414  -0.5163  -0.5163  -0.5142   0.6438   0.6438   0.6505
     1.3162   1.3162   1.3164   1.5193   1.5193   1.5211   1.7762   1.7815
     1.7815   3.6496   3.6826   3.6826   4.3836   4.5111   4.5111   4.5116
     5.0139   5.0139   7.8393   8.7345   8.7345  11.0465  11.4417  11.4417

     occupation numbers 
     1.0000   1.0000   1.0000   1.0000   1.0000   1.0000   1.0000   1.0000
     1.0000   1.0000   1.0000   1.0000   1.0000   1.0000   1.0000   1.0000
     1.0000   1.0000   1.0000   1.0000   1.0000   1.0000   1.0000   1.0000
     1.0000   1.0000   1.0000   1.0000   1.0000   1.0000   1.0000   1.0000
     1.0000   1.0000   1.0000   1.0000   1.0000   1.0000   1.0000   1.0000
     1.0000   1.0000   1.0000   1.0002   1.0002   1.0002   1.0097   1.0104
     1.0104   0.0000   0.0000   0.0000   0.0000   0.0000   0.0000   0.0000
     0.0000   0.0000   0.0000   0.0000   0.0000   0.0000   0.0000   0.0000

 ------ SPIN DOWN ----------


          k = 0.0000 0.0000 0.0000 ( 11393 PWs)   bands (ev):

   -92.7068 -92.7017 -92.6997 -56.0266 -56.0266 -56.0255 -56.0255 -55.9861
   -55.9861 -55.8255 -55.8168 -55.8144 -52.2087 -24.1274 -24.1274 -24.0842
   -16.7235 -15.0672 -15.0672 -15.0072 -15.0072 -14.7914  -2.7537  -2.7537
    -2.7124  -2.7124  -2.7090  -2.4448  -2.4448  -2.3779  -2.3677  -0.6436
    -0.6436  -0.5584  -0.5584  -0.4085  -0.3964   0.6453   1.1424   1.1424
     1.4119   1.4119   1.7888   1.7918   1.9780   2.4660   2.4660   2.4865
     2.4865   2.9864   4.3117   4.3117   4.3181   4.3181   5.0447   5.0447
     6.0245   8.5424   9.1690   9.1690   9.8968   9.8968  10.4270  10.6881

     occupation numbers 
     1.0000   1.0000   1.0000   1.0000   1.0000   1.0000   1.0000   1.0000
     1.0000   1.0000   1.0000   1.0000   1.0000   1.0000   1.0000   1.0000
     1.0000   1.0000   1.0000   1.0000   1.0000   1.0000   1.0000   1.0000
     1.0000   1.0000   1.0000   1.0000   1.0000   1.0000   1.0000   1.0000
     1.0000   1.0000   1.0000   1.0000   1.0000   1.0000   1.0000   1.0000
     1.0000   1.0000   1.0113   1.0117   1.0617   0.3911   0.3911   0.3415
     0.3415   0.0005   0.0000   0.0000   0.0000   0.0000   0.0000   0.0000
     0.0000   0.0000   0.0000   0.0000   0.0000   0.0000   0.0000   0.0000

          k = 0.0000 0.0000 0.1684 ( 11332 PWs)   bands (ev):

   -92.7068 -92.7016 -92.6997 -56.0266 -56.0266 -56.0254 -56.0254 -55.9862
   -55.9862 -55.8255 -55.8167 -55.8143 -52.2087 -24.1273 -24.1273 -24.0840
   -16.7234 -15.0672 -15.0672 -15.0071 -15.0071 -14.7914  -2.7536  -2.7536
    -2.7123  -2.7123  -2.7068  -2.4448  -2.4448  -2.3778  -2.3676  -0.6436
    -0.6436  -0.5583  -0.5583  -0.4085  -0.3964   0.5981   1.1423   1.1423
     1.4119   1.4119   1.7889   1.7918   2.0928   2.4660   2.4660   2.4865
     2.4865   2.9480   4.3121   4.3121   4.3184   4.3184   5.0447   5.0447
     5.8388   9.1023   9.1628   9.1628   9.8902   9.8902  10.3574  10.6867

     occupation numbers 
     1.0000   1.0000   1.0000   1.0000   1.0000   1.0000   1.0000   1.0000
     1.0000   1.0000   1.0000   1.0000   1.0000   1.0000   1.0000   1.0000
     1.0000   1.0000   1.0000   1.0000   1.0000   1.0000   1.0000   1.0000
     1.0000   1.0000   1.0000   1.0000   1.0000   1.0000   1.0000   1.0000
     1.0000   1.0000   1.0000   1.0000   1.0000   1.0000   1.0000   1.0000
     1.0000   1.0000   1.0113   1.0117   1.0825   0.3912   0.3912   0.3415
     0.3415   0.0010   0.0000   0.0000   0.0000   0.0000   0.0000   0.0000
     0.0000   0.0000   0.0000   0.0000   0.0000   0.0000   0.0000   0.0000

          k = 0.0000 0.1925 0.0000 ( 11360 PWs)   bands (ev):

   -92.7063 -92.7019 -92.6999 -56.0351 -56.0326 -56.0158 -56.0146 -55.9912
   -55.9874 -55.8247 -55.8171 -55.8147 -52.2087 -24.1275 -24.1274 -24.0841
   -16.6201 -15.1940 -15.1125 -15.0149 -14.9600 -14.7952  -3.1650  -2.9188
    -2.7258  -2.6298  -2.5979  -2.5446  -2.3805  -1.9900  -1.7859  -1.0181
    -0.9550  -0.7054  -0.6454   0.0001   0.0667   0.4324   0.5710   0.8995
     1.7241   1.8355   1.8437   1.8963   2.1913   2.2447   2.2535   2.5430
     2.6066   3.0190   4.3059   4.3520   4.3600   4.4023   4.7600   4.9687
     6.2368   7.4466   8.4552   8.8350   9.1306  10.8822  11.0317  11.5978

     occupation numbers 
     1.0000   1.0000   1.0000   1.0000   1.0000   1.0000   1.0000   1.0000
     1.0000   1.0000   1.0000   1.0000   1.0000   1.0000   1.0000   1.0000
     1.0000   1.0000   1.0000   1.0000   1.0000   1.0000   1.0000   1.0000
     1.0000   1.0000   1.0000   1.0000   1.0000   1.0000   1.0000   1.0000
     1.0000   1.0000   1.0000   1.0000   1.0000   1.0000   1.0000   1.0000
     1.0049   1.0192   1.0210   1.0345   1.0254   0.9474   0.9311   0.2234
     0.1262   0.0003   0.0000   0.0000   0.0000   0.0000   0.0000   0.0000
     0.0000   0.0000   0.0000   0.0000   0.0000   0.0000   0.0000   0.0000

          k = 0.0000 0.1925 0.1684 ( 11375 PWs)   bands (ev):

   -92.7064 -92.7019 -92.6999 -56.0350 -56.0326 -56.0158 -56.0145 -55.9912
   -55.9874 -55.8248 -55.8171 -55.8147 -52.2087 -24.1276 -24.1274 -24.0842
   -16.6201 -15.1940 -15.1125 -15.0149 -14.9600 -14.7953  -3.1649  -2.9188
    -2.7259  -2.6297  -2.5963  -2.5446  -2.3805  -1.9899  -1.7859  -1.0182
    -0.9551  -0.7053  -0.6454   0.0002   0.0667   0.4329   0.5654   0.8648
     1.7245   1.8301   1.8437   1.8963   2.2447   2.2535   2.3036   2.5429
     2.6064   2.9730   4.3072   4.3521   4.3597   4.4028   4.7732   4.9668
     6.0695   7.4394   8.4492   9.0350   9.4380  10.8594  11.0163  11.1418

     occupation numbers 
     1.0000   1.0000   1.0000   1.0000   1.0000   1.0000   1.0000   1.0000
     1.0000   1.0000   1.0000   1.0000   1.0000   1.0000   1.0000   1.0000
     1.0000   1.0000   1.0000   1.0000   1.0000   1.0000   1.0000   1.0000
     1.0000   1.0000   1.0000   1.0000   1.0000   1.0000   1.0000   1.0000
     1.0000   1.0000   1.0000   1.0000   1.0000   1.0000   1.0000   1.0000
     1.0049   1.0182   1.0210   1.0345   0.9473   0.9312   0.8232   0.2236
     0.1265   0.0006   0.0000   0.0000   0.0000   0.0000   0.0000   0.0000
     0.0000   0.0000   0.0000   0.0000   0.0000   0.0000   0.0000   0.0000

          k = 0.0000 0.3849 0.0000 ( 11350 PWs)   bands (ev):

   -92.7052 -92.7025 -92.7003 -56.0413 -56.0301 -56.0058 -56.0047 -56.0035
   -55.9912 -55.8228 -55.8182 -55.8155 -52.2087 -24.1277 -24.1275 -24.0841
   -16.3325 -15.5097 -15.1575 -15.0601 -14.8941 -14.8100  -3.5756  -2.7635
    -2.7333  -2.7293  -2.3763  -2.2890  -2.2248  -1.7667  -1.4840  -1.0401
    -1.0348  -0.9798  -0.6206  -0.5658  -0.0741   0.3088   0.6629   1.2146
     1.8767   1.8856   2.0136   2.0361   2.2378   2.2476   2.4000   2.6234
     2.7256   3.0854   4.2742   4.2901   4.3385   4.3908   4.7060   4.7547
     5.5765   6.8116   7.8624   8.4202   9.1884   9.7398  11.5588  11.7003

     occupation numbers 
     1.0000   1.0000   1.0000   1.0000   1.0000   1.0000   1.0000   1.0000
     1.0000   1.0000   1.0000   1.0000   1.0000   1.0000   1.0000   1.0000
     1.0000   1.0000   1.0000   1.0000   1.0000   1.0000   1.0000   1.0000
     1.0000   1.0000   1.0000   1.0000   1.0000   1.0000   1.0000   1.0000
     1.0000   1.0000   1.0000   1.0000   1.0000   1.0000   1.0000   1.0000
     1.0290   1.0314   1.0729   1.0785   0.9595   0.9422   0.5665   0.1067
     0.0330   0.0001   0.0000   0.0000   0.0000   0.0000   0.0000   0.0000
     0.0000   0.0000   0.0000   0.0000   0.0000   0.0000   0.0000   0.0000

          k = 0.0000 0.3849 0.1684 ( 11369 PWs)   bands (ev):

   -92.7052 -92.7025 -92.7003 -56.0412 -56.0301 -56.0059 -56.0047 -56.0035
   -55.9912 -55.8229 -55.8183 -55.8156 -52.2087 -24.1277 -24.1275 -24.0842
   -16.3325 -15.5097 -15.1574 -15.0601 -14.8941 -14.8100  -3.5756  -2.7636
    -2.7335  -2.7296  -2.3763  -2.2879  -2.2246  -1.7667  -1.4840  -1.0400
    -1.0348  -0.9795  -0.6206  -0.5651  -0.0742   0.3090   0.6627   1.1962
     1.8767   1.8856   2.0137   2.0361   2.2281   2.2478   2.3999   2.6220
     2.8212   3.0191   4.2804   4.3100   4.3463   4.3907   4.7063   4.7439
     5.5749   6.7041   7.8600   8.4105   9.2007  10.0955  11.5657  11.7552

     occupation numbers 
     1.0000   1.0000   1.0000   1.0000   1.0000   1.0000   1.0000   1.0000
     1.0000   1.0000   1.0000   1.0000   1.0000   1.0000   1.0000   1.0000
     1.0000   1.0000   1.0000   1.0000   1.0000   1.0000   1.0000   1.0000
     1.0000   1.0000   1.0000   1.0000   1.0000   1.0000   1.0000   1.0000
     1.0000   1.0000   1.0000   1.0000   1.0000   1.0000   1.0000   1.0000
     1.0290   1.0314   1.0729   1.0786   0.9754   0.9418   0.5668   0.1083
     0.0086   0.0003   0.0000   0.0000   0.0000   0.0000   0.0000   0.0000
     0.0000   0.0000   0.0000   0.0000   0.0000   0.0000   0.0000   0.0000

          k = 0.0000-0.5774 0.0000 ( 11352 PWs)   bands (ev):

   -92.7042 -92.7033 -92.7006 -56.0435 -56.0198 -56.0186 -55.9999 -55.9980
   -55.9968 -55.8210 -55.8196 -55.8159 -52.2087 -24.1279 -24.1276 -24.0840
   -15.9282 -15.9267 -15.1745 -15.0840 -14.8424 -14.8417  -3.7251  -2.8016
    -2.7924  -2.3154  -2.3142  -2.1076  -1.9068  -1.9023  -1.8146  -1.1756
    -1.1575  -0.9142  -0.6691  -0.6679  -0.3323   0.4060   1.1561   1.1590
     1.8173   1.9080   1.9527   1.9539   2.3070   2.4958   2.5004   2.6484
     2.6556   3.7674   4.1035   4.1410   4.2181   4.4049   4.5344   4.5679
     4.8949   7.4868   7.6598   8.1343   8.2091  10.7382  11.0045  11.3577

     occupation numbers 
     1.0000   1.0000   1.0000   1.0000   1.0000   1.0000   1.0000   1.0000
     1.0000   1.0000   1.0000   1.0000   1.0000   1.0000   1.0000   1.0000
     1.0000   1.0000   1.0000   1.0000   1.0000   1.0000   1.0000   1.0000
     1.0000   1.0000   1.0000   1.0000   1.0000   1.0000   1.0000   1.0000
     1.0000   1.0000   1.0000   1.0000   1.0000   1.0000   1.0000   1.0000
     1.0158   1.0381   1.0529   1.0534   0.8148   0.3202   0.3098   0.0821
     0.0759   0.0000   0.0000   0.0000   0.0000   0.0000   0.0000   0.0000
     0.0000   0.0000   0.0000   0.0000   0.0000   0.0000   0.0000   0.0000

          k = 0.0000-0.5774 0.1684 ( 11376 PWs)   bands (ev):

   -92.7042 -92.7033 -92.7006 -56.0434 -56.0198 -56.0187 -55.9999 -55.9980
   -55.9969 -55.8210 -55.8197 -55.8160 -52.2087 -24.1280 -24.1276 -24.0842
   -15.9282 -15.9267 -15.1745 -15.0840 -14.8424 -14.8418  -3.7251  -2.8019
    -2.7926  -2.3154  -2.3142  -2.1076  -1.9066  -1.9020  -1.8146  -1.1745
    -1.1568  -0.9141  -0.6691  -0.6679  -0.3322   0.4064   1.1541   1.1559
     1.8172   1.9080   1.9527   1.9540   2.3069   2.4889   2.4967   2.6543
     2.6588   3.7252   4.0203   4.2284   4.3520   4.4042   4.5048   4.5284
     4.8949   7.4469   7.6603   8.0883   8.1964  10.8767  11.1851  11.3474

     occupation numbers 
     1.0000   1.0000   1.0000   1.0000   1.0000   1.0000   1.0000   1.0000
     1.0000   1.0000   1.0000   1.0000   1.0000   1.0000   1.0000   1.0000
     1.0000   1.0000   1.0000   1.0000   1.0000   1.0000   1.0000   1.0000
     1.0000   1.0000   1.0000   1.0000   1.0000   1.0000   1.0000   1.0000
     1.0000   1.0000   1.0000   1.0000   1.0000   1.0000   1.0000   1.0000
     1.0158   1.0381   1.0529   1.0534   0.8150   0.3359   0.3182   0.0770
     0.0733   0.0000   0.0000   0.0000   0.0000   0.0000   0.0000   0.0000
     0.0000   0.0000   0.0000   0.0000   0.0000   0.0000   0.0000   0.0000

          k = 0.1667 0.2887 0.0000 ( 11373 PWs)   bands (ev):

   -92.7056 -92.7023 -92.7002 -56.0362 -56.0360 -56.0074 -56.0072 -56.0004
   -55.9896 -55.8234 -55.8178 -55.8154 -52.2087 -24.1277 -24.1276 -24.0841
   -16.4246 -15.3073 -15.3068 -14.9519 -14.9519 -14.8048  -3.2358  -3.2356
    -2.7004  -2.5487  -2.5423  -2.3750  -2.2594  -1.6161  -1.6107  -1.0436
    -1.0399  -0.8033  -0.7954  -0.4182   0.2733   0.3600   0.3622   1.0964
     1.8651   2.0049   2.0060   2.0792   2.0798   2.1164   2.5415   2.5427
     2.5815   3.0456   4.3095   4.3177   4.3450   4.5160   4.5172   4.8803
     6.4836   6.6388   6.7711   9.4210   9.9389  10.2322  10.5222  10.7266

     occupation numbers 
     1.0000   1.0000   1.0000   1.0000   1.0000   1.0000   1.0000   1.0000
     1.0000   1.0000   1.0000   1.0000   1.0000   1.0000   1.0000   1.0000
     1.0000   1.0000   1.0000   1.0000   1.0000   1.0000   1.0000   1.0000
     1.0000   1.0000   1.0000   1.0000   1.0000   1.0000   1.0000   1.0000
     1.0000   1.0000   1.0000   1.0000   1.0000   1.0000   1.0000   1.0000
     1.0260   1.0704   1.0707   1.0833   1.0833   1.0777   0.2261   0.2240
     0.1599   0.0001   0.0000   0.0000   0.0000   0.0000   0.0000   0.0000
     0.0000   0.0000   0.0000   0.0000   0.0000   0.0000   0.0000   0.0000

          k = 0.1667 0.2887 0.1684 ( 11359 PWs)   bands (ev):

   -92.7056 -92.7023 -92.7002 -56.0361 -56.0359 -56.0073 -56.0071 -56.0004
   -55.9896 -55.8234 -55.8178 -55.8154 -52.2087 -24.1277 -24.1275 -24.0841
   -16.4246 -15.3073 -15.3068 -14.9519 -14.9519 -14.8048  -3.2358  -3.2356
    -2.7008  -2.5487  -2.5423  -2.3735  -2.2594  -1.6161  -1.6107  -1.0435
    -1.0398  -0.8032  -0.7953  -0.4174   0.2733   0.3602   0.3624   1.0732
     1.8572   2.0049   2.0060   2.0793   2.0799   2.1164   2.5413   2.5425
     2.6899   2.9695   4.3081   4.3163   4.3812   4.5172   4.5186   4.8803
     6.4446   6.5289   6.7699   9.7825  10.0119  10.2293  10.5295  10.7345

     occupation numbers 
     1.0000   1.0000   1.0000   1.0000   1.0000   1.0000   1.0000   1.0000
     1.0000   1.0000   1.0000   1.0000   1.0000   1.0000   1.0000   1.0000
     1.0000   1.0000   1.0000   1.0000   1.0000   1.0000   1.0000   1.0000
     1.0000   1.0000   1.0000   1.0000   1.0000   1.0000   1.0000   1.0000
     1.0000   1.0000   1.0000   1.0000   1.0000   1.0000   1.0000   1.0000
     1.0240   1.0704   1.0707   1.0833   1.0833   1.0777   0.2266   0.2243
     0.0513   0.0007   0.0000   0.0000   0.0000   0.0000   0.0000   0.0000
     0.0000   0.0000   0.0000   0.0000   0.0000   0.0000   0.0000   0.0000

          k = 0.1667 0.4811 0.0000 ( 11356 PWs)   bands (ev):

   -92.7044 -92.7030 -92.7007 -56.0391 -56.0288 -56.0152 -56.0001 -55.9997
   -55.9936 -55.8214 -55.8191 -55.8162 -52.2087 -24.1278 -24.1276 -24.0841
   -16.0787 -15.6689 -15.3801 -14.9623 -14.8786 -14.8301  -3.4994  -2.9968
    -2.8390  -2.4376  -2.2864  -2.1768  -2.0432  -1.8035  -1.7631  -1.1988
    -1.1373  -0.9417  -0.6603  -0.4576  -0.2080   0.4934   0.8531   1.1897
     1.9242   1.9571   1.9794   2.0100   2.3039   2.3123   2.3931   2.5564
     2.7631   3.5289   4.0745   4.1330   4.3042   4.5952   4.7495   4.8148
     4.9626   6.2280   7.3320   8.6414   9.8694  10.0124  10.4489  11.6558

     occupation numbers 
     1.0000   1.0000   1.0000   1.0000   1.0000   1.0000   1.0000   1.0000
     1.0000   1.0000   1.0000   1.0000   1.0000   1.0000   1.0000   1.0000
     1.0000   1.0000   1.0000   1.0000   1.0000   1.0000   1.0000   1.0000
     1.0000   1.0000   1.0000   1.0000   1.0000   1.0000   1.0000   1.0000
     1.0000   1.0000   1.0000   1.0000   1.0000   1.0000   1.0000   1.0000
     1.0433   1.0545   1.0621   1.0719   0.8222   0.8018   0.5856   0.1996
     0.0201   0.0000   0.0000   0.0000   0.0000   0.0000   0.0000   0.0000
     0.0000   0.0000   0.0000   0.0000   0.0000   0.0000   0.0000   0.0000

          k = 0.1667 0.4811 0.1684 ( 11345 PWs)   bands (ev):

   -92.7044 -92.7030 -92.7007 -56.0391 -56.0288 -56.0151 -56.0001 -55.9996
   -55.9936 -55.8214 -55.8190 -55.8162 -52.2087 -24.1278 -24.1275 -24.0841
   -16.0787 -15.6689 -15.3801 -14.9623 -14.8786 -14.8301  -3.4994  -2.9969
    -2.8393  -2.4377  -2.2865  -2.1765  -2.0429  -1.8035  -1.7632  -1.1979
    -1.1367  -0.9415  -0.6602  -0.4576  -0.2080   0.4938   0.8530   1.1853
     1.9241   1.9547   1.9793   2.0099   2.3014   2.3119   2.3931   2.5568
     2.7803   3.4659   4.1033   4.1661   4.3000   4.6126   4.7443   4.8153
     4.9802   6.2369   7.2400   8.5997   9.8585  10.0009  10.7381  11.7865

     occupation numbers 
     1.0000   1.0000   1.0000   1.0000   1.0000   1.0000   1.0000   1.0000
     1.0000   1.0000   1.0000   1.0000   1.0000   1.0000   1.0000   1.0000
     1.0000   1.0000   1.0000   1.0000   1.0000   1.0000   1.0000   1.0000
     1.0000   1.0000   1.0000   1.0000   1.0000   1.0000   1.0000   1.0000
     1.0000   1.0000   1.0000   1.0000   1.0000   1.0000   1.0000   1.0000
     1.0432   1.0536   1.0621   1.0719   0.8283   0.8028   0.5856   0.1990
     0.0158   0.0000   0.0000   0.0000   0.0000   0.0000   0.0000   0.0000
     0.0000   0.0000   0.0000   0.0000   0.0000   0.0000   0.0000   0.0000

          k = 0.3333 0.5774 0.0000 ( 11370 PWs)   bands (ev):

   -92.7036 -92.7036 -92.7009 -56.0297 -56.0288 -56.0288 -55.9971 -55.9962
   -55.9962 -55.8200 -55.8200 -55.8168 -52.2087 -24.1278 -24.1278 -24.0842
   -15.7303 -15.7284 -15.7284 -14.8771 -14.8764 -14.8764  -3.1087  -3.1049
    -3.1049  -2.2848  -2.2769  -2.2769  -1.9180  -1.9180  -1.9161  -1.2174
    -1.1961  -1.1961  -0.3018  -0.3018  -0.2998   0.8676   0.8676   0.8753
     1.9758   1.9785   1.9785   2.1659   2.1659   2.1659   2.5640   2.5703
     2.5703   4.0010   4.0771   4.0771   4.3940   4.8159   4.8159   4.8160
     4.8970   4.8970   7.8223   8.7173   8.7173  11.1596  11.5594  11.5595

     occupation numbers 
     1.0000   1.0000   1.0000   1.0000   1.0000   1.0000   1.0000   1.0000
     1.0000   1.0000   1.0000   1.0000   1.0000   1.0000   1.0000   1.0000
     1.0000   1.0000   1.0000   1.0000   1.0000   1.0000   1.0000   1.0000
     1.0000   1.0000   1.0000   1.0000   1.0000   1.0000   1.0000   1.0000
     1.0000   1.0000   1.0000   1.0000   1.0000   1.0000   1.0000   1.0000
     1.0609   1.0618   1.0618   1.0502   1.0502   1.0502   0.1871   0.1769
     0.1769   0.0000   0.0000   0.0000   0.0000   0.0000   0.0000   0.0000
     0.0000   0.0000   0.0000   0.0000   0.0000   0.0000   0.0000   0.0000

          k = 0.3333 0.5774 0.1684 ( 11352 PWs)   bands (ev):

   -92.7036 -92.7036 -92.7009 -56.0297 -56.0288 -56.0288 -55.9971 -55.9961
   -55.9961 -55.8199 -55.8199 -55.8167 -52.2087 -24.1278 -24.1278 -24.0841
   -15.7303 -15.7285 -15.7285 -14.8771 -14.8764 -14.8764  -3.1089  -3.1049
    -3.1049  -2.2849  -2.2770  -2.2770  -1.9180  -1.9180  -1.9160  -1.2163
    -1.1955  -1.1955  -0.3019  -0.3019  -0.2999   0.8676   0.8676   0.8751
     1.9748   1.9779   1.9779   2.1659   2.1659   2.1659   2.5665   2.5717
     2.5717   3.9220   4.0485   4.0485   4.4933   4.8159   4.8159   4.8161
     4.9402   4.9402   7.7632   8.6527   8.6527  11.3171  11.7707  11.7709

     occupation numbers 
     1.0000   1.0000   1.0000   1.0000   1.0000   1.0000   1.0000   1.0000
     1.0000   1.0000   1.0000   1.0000   1.0000   1.0000   1.0000   1.0000
     1.0000   1.0000   1.0000   1.0000   1.0000   1.0000   1.0000   1.0000
     1.0000   1.0000   1.0000   1.0000   1.0000   1.0000   1.0000   1.0000
     1.0000   1.0000   1.0000   1.0000   1.0000   1.0000   1.0000   1.0000
     1.0605   1.0616   1.0616   1.0502   1.0502   1.0502   0.1831   0.1749
     0.1749   0.0000   0.0000   0.0000   0.0000   0.0000   0.0000   0.0000
     0.0000   0.0000   0.0000   0.0000   0.0000   0.0000   0.0000   0.0000

          k =-0.1667-0.2887 0.1684 ( 11359 PWs)   bands (ev):

   -92.7056 -92.7023 -92.7002 -56.0361 -56.0359 -56.0073 -56.0071 -56.0004
   -55.9896 -55.8235 -55.8178 -55.8154 -52.2087 -24.1277 -24.1275 -24.0841
   -16.4246 -15.3073 -15.3068 -14.9519 -14.9519 -14.8048  -3.2358  -3.2356
    -2.7007  -2.5487  -2.5423  -2.3737  -2.2594  -1.6161  -1.6107  -1.0436
    -1.0398  -0.8030  -0.7951  -0.4177   0.2734   0.3600   0.3622   1.0743
     1.8548   2.0049   2.0060   2.0793   2.0799   2.1164   2.5410   2.5423
     2.6814   2.9933   4.3111   4.3189   4.3497   4.5161   4.5172   4.8803
     6.4574   6.5461   6.7633   9.7418  10.0287  10.2308  10.5771  10.7304

     occupation numbers 
     1.0000   1.0000   1.0000   1.0000   1.0000   1.0000   1.0000   1.0000
     1.0000   1.0000   1.0000   1.0000   1.0000   1.0000   1.0000   1.0000
     1.0000   1.0000   1.0000   1.0000   1.0000   1.0000   1.0000   1.0000
     1.0000   1.0000   1.0000   1.0000   1.0000   1.0000   1.0000   1.0000
     1.0000   1.0000   1.0000   1.0000   1.0000   1.0000   1.0000   1.0000
     1.0235   1.0704   1.0707   1.0833   1.0833   1.0777   0.2271   0.2246
     0.0567   0.0004   0.0000   0.0000   0.0000   0.0000   0.0000   0.0000
     0.0000   0.0000   0.0000   0.0000   0.0000   0.0000   0.0000   0.0000

          k =-0.1667-0.4811 0.1684 ( 11345 PWs)   bands (ev):

   -92.7044 -92.7030 -92.7007 -56.0391 -56.0288 -56.0151 -56.0001 -55.9996
   -55.9936 -55.8214 -55.8190 -55.8162 -52.2087 -24.1278 -24.1275 -24.0841
   -16.0787 -15.6689 -15.3801 -14.9623 -14.8786 -14.8301  -3.4994  -2.9969
    -2.8392  -2.4377  -2.2864  -2.1766  -2.0430  -1.8035  -1.7631  -1.1978
    -1.1365  -0.9414  -0.6603  -0.4576  -0.2080   0.4934   0.8525   1.1842
     1.9242   1.9547   1.9795   2.0099   2.3016   2.3124   2.3928   2.5545
     2.7689   3.5388   4.0790   4.1352   4.3054   4.5974   4.7477   4.8149
     4.9569   6.2185   7.2968   8.6557   9.9315  10.0154  10.6037  11.6146

     occupation numbers 
     1.0000   1.0000   1.0000   1.0000   1.0000   1.0000   1.0000   1.0000
     1.0000   1.0000   1.0000   1.0000   1.0000   1.0000   1.0000   1.0000
     1.0000   1.0000   1.0000   1.0000   1.0000   1.0000   1.0000   1.0000
     1.0000   1.0000   1.0000   1.0000   1.0000   1.0000   1.0000   1.0000
     1.0000   1.0000   1.0000   1.0000   1.0000   1.0000   1.0000   1.0000
     1.0433   1.0536   1.0621   1.0719   0.8279   0.8015   0.5865   0.2029
     0.0185   0.0000   0.0000   0.0000   0.0000   0.0000   0.0000   0.0000
     0.0000   0.0000   0.0000   0.0000   0.0000   0.0000   0.0000   0.0000

          k =-0.3333-0.5774 0.1684 ( 11352 PWs)   bands (ev):

   -92.7036 -92.7036 -92.7009 -56.0297 -56.0288 -56.0288 -55.9970 -55.9961
   -55.9961 -55.8199 -55.8199 -55.8167 -52.2087 -24.1278 -24.1278 -24.0841
   -15.7303 -15.7284 -15.7284 -14.8771 -14.8764 -14.8764  -3.1089  -3.1049
    -3.1049  -2.2850  -2.2770  -2.2770  -1.9180  -1.9180  -1.9160  -1.2161
    -1.1954  -1.1954  -0.3018  -0.3018  -0.2998   0.8669   0.8669   0.8740
     1.9749   1.9780   1.9780   2.1659   2.1659   2.1659   2.5625   2.5697
     2.5697   4.0145   4.0808   4.0808   4.3796   4.8159   4.8159   4.8161
     4.8925   4.8925   7.8463   8.7388   8.7388  11.0852  11.5093  11.5094

     occupation numbers 
     1.0000   1.0000   1.0000   1.0000   1.0000   1.0000   1.0000   1.0000
     1.0000   1.0000   1.0000   1.0000   1.0000   1.0000   1.0000   1.0000
     1.0000   1.0000   1.0000   1.0000   1.0000   1.0000   1.0000   1.0000
     1.0000   1.0000   1.0000   1.0000   1.0000   1.0000   1.0000   1.0000
     1.0000   1.0000   1.0000   1.0000   1.0000   1.0000   1.0000   1.0000
     1.0606   1.0617   1.0617   1.0502   1.0502   1.0502   0.1895   0.1779
     0.1779   0.0000   0.0000   0.0000   0.0000   0.0000   0.0000   0.0000
     0.0000   0.0000   0.0000   0.0000   0.0000   0.0000   0.0000   0.0000

     the Fermi energy is     2.4622 ev

!    total energy              =   -1489.14680363 Ry
     total all-electron energy =     -9588.381611 Ry
     estimated scf accuracy    <       0.00000004 Ry
     smearing contrib. (-TS)   =       0.00892252 Ry
     internal energy E=F+TS    =   -1489.15572615 Ry

     The total energy is F=E-TS. E is the sum of the following terms:
     one-electron contribution =   -2433.54144738 Ry
     hartree contribution      =    1243.49906048 Ry
     xc contribution           =    -150.35126940 Ry
     ewald contribution        =     186.76240324 Ry
     one-center paw contrib.   =    -335.52447309 Ry
      -> PAW hartree energy AE =     882.88385118 Ry
      -> PAW hartree energy PS =    -880.61119673 Ry
      -> PAW xc energy AE      =    -480.13821413 Ry
      -> PAW xc energy PS      =     142.34108659 Ry
      -> total E_H with PAW    =    1245.77171493 Ry
      -> total E_XC with PAW   =    -488.14839694 Ry

     total magnetization       =     2.48 Bohr mag/cell
     absolute magnetization    =     2.63 Bohr mag/cell

     convergence has been achieved in  24 iterations

     Forces acting on atoms (cartesian axes, Ry/au):

     atom    1 type  1   force =     0.00000000    0.00000000    0.00702518
     atom    2 type  1   force =     0.00000000    0.00000000    0.00530783
     atom    3 type  1   force =     0.00000000    0.00000000    0.00530783
     atom    4 type  2   force =    -0.00005902   -0.00010223   -0.02807200
     atom    5 type  2   force =     0.00011804   -0.00000000   -0.02807200
     atom    6 type  2   force =    -0.00005902    0.00010223   -0.02807200
     atom    7 type  2   force =    -0.00140797    0.00000000    0.01745497
     atom    8 type  2   force =     0.00070398    0.00121934    0.01745497
     atom    9 type  2   force =     0.00070398   -0.00121934    0.01745497
     atom   10 type  3   force =     0.00000000    0.00000000    0.01421024
     The non-local contrib.  to forces
     atom    1 type  1   force =     0.00000000    0.00000000   -0.00470150
     atom    2 type  1   force =     0.00000000   -0.00000000    0.00203867
     atom    3 type  1   force =     0.00000000    0.00000000    0.00203867
     atom    4 type  2   force =    -0.00087586   -0.00151704   -1.20643609
     atom    5 type  2   force =     0.00175172   -0.00000000   -1.20643609
     atom    6 type  2   force =    -0.00087586    0.00151704   -1.20643609
     atom    7 type  2   force =    -0.01121786   -0.00000000    1.12514695
     atom    8 type  2   force =     0.00560893    0.00971495    1.12514695
     atom    9 type  2   force =     0.00560893   -0.00971495    1.12514695
     atom   10 type  3   force =     0.00000000    0.00000000   -0.07115966
     The ionic contribution  to forces
     atom    1 type  1   force =    -0.00000000   -0.00000000    2.69156703
     atom    2 type  1   force =     0.00000002   -0.00000001    2.42163867
     atom    3 type  1   force =    -0.00000002    0.00000001    2.42163867
     atom    4 type  2   force =     0.02464553    0.04268730   39.30399809
     atom    5 type  2   force =    -0.04929105   -0.00000000   39.30399810
     atom    6 type  2   force =     0.02464552   -0.04268730   39.30399810
     atom    7 type  2   force =     0.16795504    0.00000000  -37.53622577
     atom    8 type  2   force =    -0.08397752   -0.14545334  -37.53622576
     atom    9 type  2   force =    -0.08397752    0.14545333  -37.53622577
     atom   10 type  3   force =    -0.00000000   -0.00000000  -12.83816133
     The local contribution  to forces
     atom    1 type  1   force =     0.00000000    0.00000000   -2.67966336
     atom    2 type  1   force =     0.00000021   -0.00000012   -2.41814924
     atom    3 type  1   force =    -0.00000021    0.00000012   -2.41814924
     atom    4 type  2   force =    -0.02385200   -0.04131288  -38.13629644
     atom    5 type  2   force =     0.04770401    0.00000000  -38.13629644
     atom    6 type  2   force =    -0.02385200    0.04131288  -38.13629644
     atom    7 type  2   force =    -0.15827422   -0.00000000   36.43846667
     atom    8 type  2   force =     0.07913711    0.13706950   36.43846667
     atom    9 type  2   force =     0.07913711   -0.13706950   36.43846667
     atom   10 type  3   force =     0.00000000    0.00000000   12.92337813
     The core correction contribution to forces
     atom    1 type  1   force =    -0.00000000   -0.00000000    0.00007428
     atom    2 type  1   force =     0.00000000   -0.00000000   -0.00000056
     atom    3 type  1   force =    -0.00000000    0.00000000   -0.00000056
     atom    4 type  2   force =     0.00000746    0.00001293    0.01065364
     atom    5 type  2   force =    -0.00001493    0.00000000    0.01065364
     atom    6 type  2   force =     0.00000746   -0.00001293    0.01065364
     atom    7 type  2   force =     0.00010318   -0.00000000   -0.00985291
     atom    8 type  2   force =    -0.00005159   -0.00008935   -0.00985291
     atom    9 type  2   force =    -0.00005159    0.00008935   -0.00985291
     atom   10 type  3   force =    -0.00000000   -0.00000000    0.00002616
     The Hubbard contrib.    to forces
     atom    1 type  1   force =     0.00000000    0.00000000    0.00000000
     atom    2 type  1   force =     0.00000000    0.00000000    0.00000000
     atom    3 type  1   force =     0.00000000    0.00000000    0.00000000
     atom    4 type  2   force =     0.00000000    0.00000000    0.00000000
     atom    5 type  2   force =     0.00000000    0.00000000    0.00000000
     atom    6 type  2   force =     0.00000000    0.00000000    0.00000000
     atom    7 type  2   force =     0.00000000    0.00000000    0.00000000
     atom    8 type  2   force =     0.00000000    0.00000000    0.00000000
     atom    9 type  2   force =     0.00000000    0.00000000    0.00000000
     atom   10 type  3   force =     0.00000000    0.00000000    0.00000000
     The SCF correction term to forces
     atom    1 type  1   force =     0.00000000    0.00000000   -0.00025816
     atom    2 type  1   force =    -0.00000000    0.00000000   -0.00022659
     atom    3 type  1   force =     0.00000000   -0.00000000   -0.00022659
     atom    4 type  2   force =     0.00001586    0.00002747    0.00000191
     atom    5 type  2   force =    -0.00003172    0.00000000    0.00000191
     atom    6 type  2   force =     0.00001586   -0.00002747    0.00000191
     atom    7 type  2   force =     0.00002589   -0.00000000   -0.00008685
     atom    8 type  2   force =    -0.00001295   -0.00002242   -0.00008685
     atom    9 type  2   force =    -0.00001295    0.00002242   -0.00008685
     atom   10 type  3   force =     0.00000000    0.00000000    0.00012006

     Total force =     0.059931     Total SCF correction =     0.000460

     Writing all to output data dir ./out/pw.save/ :
     XML data file, charge density, pseudopotentials, collected wavefunctions
 
     init_run     :     22.69s CPU      5.24s WALL (       1 calls)
     electrons    :    316.70s CPU     75.77s WALL (       1 calls)
     forces       :      1.79s CPU      1.68s WALL (       1 calls)

     Called by init_run:
     wfcinit      :      0.58s CPU      0.74s WALL (       1 calls)
     wfcinit:atom :      0.06s CPU      0.06s WALL (      34 calls)
     wfcinit:wfcr :      0.35s CPU      0.38s WALL (      34 calls)
     potinit      :     21.38s CPU      3.61s WALL (       1 calls)
     hinit0       :      0.56s CPU      0.62s WALL (       1 calls)

     Called by electrons:
     c_bands      :     31.56s CPU     31.69s WALL (      24 calls)
     sum_band     :      6.03s CPU      6.03s WALL (      24 calls)
     v_of_rho     :      0.68s CPU      0.46s WALL (      25 calls)
     v_h          :      0.40s CPU      0.12s WALL (      25 calls)
     v_xc         :      0.29s CPU      0.35s WALL (      26 calls)
     newd         :      0.61s CPU      0.56s WALL (      25 calls)
                                        0.56s GPU  (      25 calls)
     PAW_pot      :    286.20s CPU     36.55s WALL (      25 calls)
     mix_rho      :      1.43s CPU      1.41s WALL (      24 calls)

     Called by c_bands:
     init_us_2    :      1.09s CPU      1.07s WALL (    1700 calls)
     cegterg      :     24.67s CPU     24.81s WALL (     816 calls)

     Called by sum_band:
     sum_band:wei :      0.05s CPU      0.05s WALL (      24 calls)
                                        0.05s GPU  (      24 calls)
     sum_band:loo :      4.46s CPU      4.44s WALL (      24 calls)
                                        4.44s GPU  (      24 calls)
     sum_band:buf :      1.69s CPU      1.73s WALL (     816 calls)
                                        1.72s GPU  (     816 calls)
     sum_band:ini :      0.52s CPU      0.53s WALL (     816 calls)
                                        0.52s GPU  (     816 calls)
     sum_band:cal :      0.11s CPU      0.15s WALL (     816 calls)
                                        0.10s GPU  (     816 calls)
     sum_band:bec :      0.42s CPU      0.42s WALL (     816 calls)
                                        0.41s GPU  (     816 calls)
     addusdens    :      0.98s CPU      0.98s WALL (      24 calls)
                                        0.98s GPU  (      24 calls)
     addusd:skk   :      0.01s CPU      0.01s WALL (      72 calls)
                                        0.01s GPU  (      72 calls)

     Called by *egterg:
     cdiaghg      :      9.68s CPU      9.80s WALL (    4425 calls)
                                        9.74s GPU  (    4425 calls)
     cegterg:over :      1.28s CPU      1.30s WALL (    3609 calls)
     cegterg:upda :      1.16s CPU      1.17s WALL (    3609 calls)
     cegterg:last :      0.24s CPU      0.24s WALL (    1571 calls)
     h_psi        :      9.85s CPU     10.00s WALL (    4459 calls)
                                        9.95s GPU  (    4459 calls)
     s_psi        :      1.38s CPU      1.42s WALL (    4459 calls)
     g_psi        :      0.02s CPU      0.16s WALL (    3609 calls)
                                        0.11s GPU  (    3609 calls)

     Called by h_psi:
     h_psi:calbec :      0.20s CPU      0.43s WALL (    4459 calls)
                                        0.38s GPU  (    4459 calls)
     vloc_psi     :      7.64s CPU      7.68s WALL (    4459 calls)
                                        7.63s GPU  (    4459 calls)
     add_vuspsi   :      1.32s CPU      1.55s WALL (    4459 calls)
                                        1.50s GPU  (    4459 calls)

     General routines
     calbec       :      0.25s CPU      0.28s WALL (    5411 calls)
     fft          :      7.02s CPU      1.21s WALL (     638 calls)
                                        0.04s GPU  (     588 calls)
     ffts         :      3.72s CPU      0.96s WALL (    1177 calls)
                                        0.04s GPU  (    1127 calls)
     fftw         :      0.38s CPU      4.99s WALL (   22736 calls)
                                        4.74s GPU  (   22736 calls)
     interpolate  :     11.12s CPU      2.22s WALL (      50 calls)
 
     Parallel routines

     PAW routines
     PAW_pot      :    286.20s CPU     36.55s WALL (      25 calls)
     PAW_symme    :      0.03s CPU      0.01s WALL (      49 calls)
 
     PWSCF        :   5m42.25s CPU   1m23.62s WALL

 
   This run was terminated on:   3:27: 7  12Jul2026            

=------------------------------------------------------------------------------=
   JOB DONE.
=------------------------------------------------------------------------------=
Warning: ieee_divide_by_zero is signaling
Warning: ieee_inexact is signaling
FORTRAN STOP
