
     Program PWSCF v.7.3.1 starts on 12Jul2026 at  3:19:58 

     This program is part of the open-source Quantum ESPRESSO suite
     for quantum simulation of materials; please cite
         "P. Giannozzi et al., J. Phys.:Condens. Matter 21 395502 (2009);
         "P. Giannozzi et al., J. Phys.:Condens. Matter 29 465901 (2017);
         "P. Giannozzi et al., J. Chem. Phys. 152 154105 (2020);
          URL http://www.quantum-espresso.org", 
     in publications or presentations arising from this work. More details at
     http://www.quantum-espresso.org/quote

     Parallel version (MPI & OpenMP), running on      14 processor cores
     Number of MPI processes:                 1
     Threads/MPI process:                    14

     MPI processes distributed on     1 nodes
     848121 MiB available memory on the printing compute node when the environment starts
 
     Reading input from pw.in

     Current dimensions of program PWSCF are:
     Max number of different atomic species (ntypx) = 10
     Max number of k-points (npk) =  40000
     Max angular momentum in pseudopotentials (lmaxx) =  4
     file Co.pbe-spn-kjpaw_psl.0.3.1.UPF: wavefunction(s)  3P 3D renormalized
     file O.pbe-n-kjpaw_psl.1.0.0.UPF: wavefunction(s)  2S 2P renormalized
 
     Subspace diagonalization in iterative solution of the eigenvalue problem:
     a serial algorithm will be used

 
     G-vector sticks info
     --------------------
     sticks:   dense  smooth     PW     G-vecs:    dense   smooth      PW
     Sum         931     475    151                56785    20183    3305
 
     Using Slab Decomposition
 


     bravais-lattice index     =            4
     lattice parameter (alat)  =       5.3290  a.u.
     unit-cell volume          =     320.6820 (a.u.)^3
     number of atoms/cell      =            4
     number of atomic types    =            3
     number of electrons       =        32.00
     number of Kohn-Sham states=           24
     kinetic-energy cutoff     =      60.0000  Ry
     charge density cutoff     =     480.0000  Ry
     scf convergence threshold =      1.0E-07
     mixing beta               =       0.3000
     number of iterations used =            8  local-TF  mixing
     Exchange-correlation= SLA  PW   PBX  PBC
                           (   1   4   3   4   0   0   0)

     GPU acceleration is ACTIVE.  1 visible GPUs per MPI rank
     GPU-aware MPI enabled


     GPU used by master process:

        Device Number: 0
        Device name: NVIDIA A100-SXM4-80GB
        Compute capability : 80
        Ratio of single to double precision performance  : 2
        Memory Clock Rate (KHz): 1593000
        Memory Bus Width (bits): 5120
        Peak Memory Bandwidth (GB/s): ******

     celldm(1)=   5.329028  celldm(2)=   0.000000  celldm(3)=   2.446809
     celldm(4)=   0.000000  celldm(5)=   0.000000  celldm(6)=   0.000000

     crystal axes: (cart. coord. in units of alat)
               a(1) = (   1.000000   0.000000   0.000000 )  
               a(2) = (  -0.500000   0.866025   0.000000 )  
               a(3) = (   0.000000   0.000000   2.446809 )  

     reciprocal axes: (cart. coord. in units 2 pi/alat)
               b(1) = (  1.000000  0.577350 -0.000000 )  
               b(2) = (  0.000000  1.154701  0.000000 )  
               b(3) = (  0.000000 -0.000000  0.408696 )  


     PseudoPot. # 1 for Co read from file:
     ../../pseudo/Co.pbe-spn-kjpaw_psl.0.3.1.UPF
     MD5 check sum: 3c0a43779828c046024e4f3be63f8e67
     Pseudo is Projector augmented-wave + core cor, Zval = 17.0
     Generated using &quot;atomic&quot; code by A. Dal Corso  v.6.2.2
     Shape of augmentation charge: PSQ
     Using radial grid of 1193 points,  6 beta functions with: 
                l(1) =   0
                l(2) =   0
                l(3) =   1
                l(4) =   1
                l(5) =   2
                l(6) =   2
     Q(r) pseudized with 0 coefficients 


     PseudoPot. # 2 for O  read from file:
     ../../pseudo/O.pbe-n-kjpaw_psl.1.0.0.UPF
     MD5 check sum: e99d9cef9b487d1ca56f5b95ecd0fd7a
     Pseudo is Projector augmented-wave + core cor, Zval =  6.0
     Generated using &quot;atomic&quot; code by A. Dal Corso  v.6.3
     Shape of augmentation charge: PSQ
     Using radial grid of 1095 points,  4 beta functions with: 
                l(1) =   0
                l(2) =   0
                l(3) =   1
                l(4) =   1
     Q(r) pseudized with 0 coefficients 


     PseudoPot. # 3 for Li read from file:
     ../../pseudo/Li.pbe-s-kjpaw_psl.1.0.0.UPF
     MD5 check sum: 3974953fb0fea6c4f83fb01d64ffc134
     Pseudo is Projector augmented-wave, Zval =  3.0
     Generated using &quot;atomic&quot; code by A. Dal Corso  v.6.3
     Shape of augmentation charge: PSQ
     Using radial grid of 1017 points,  4 beta functions with: 
                l(1) =   0
                l(2) =   0
                l(3) =   1
                l(4) =   1
     Q(r) pseudized with 0 coefficients 


     atomic species   valence    mass     pseudopotential
     Co               17.00    58.93300     Co( 1.00)
     O                 6.00    15.99900     O ( 1.00)
     Li                3.00     6.94100     Li( 1.00)

     Starting magnetic structure 
     atomic species   magnetization
     Co              0.300
     O               0.000
     Li              0.000

      6 Sym. Ops. (no inversion) found


                                    s                        frac. trans.

      isym =  1     identity                                     

 cryst.   s( 1) = (     1          0          0      )
                  (     0          1          0      )
                  (     0          0          1      )

 cart.    s( 1) = (  1.0000000  0.0000000  0.0000000 )
                  (  0.0000000  1.0000000  0.0000000 )
                  (  0.0000000  0.0000000  1.0000000 )


      isym =  2     120 deg rotation - cryst. axis [0,0,1]       

 cryst.   s( 2) = (     0          1          0      )
                  (    -1         -1          0      )
                  (     0          0          1      )

 cart.    s( 2) = ( -0.5000000 -0.8660254  0.0000000 )
                  (  0.8660254 -0.5000000  0.0000000 )
                  (  0.0000000  0.0000000  1.0000000 )


      isym =  3     120 deg rotation - cryst. axis [0,0,-1]      

 cryst.   s( 3) = (    -1         -1          0      )
                  (     1          0          0      )
                  (     0          0          1      )

 cart.    s( 3) = ( -0.5000000  0.8660254  0.0000000 )
                  ( -0.8660254 -0.5000000  0.0000000 )
                  (  0.0000000  0.0000000  1.0000000 )


      isym =  4     inv. 180 deg rotation - cart. axis [1,0,0]   

 cryst.   s( 4) = (    -1          0          0      )
                  (     1          1          0      )
                  (     0          0          1      )

 cart.    s( 4) = ( -1.0000000  0.0000000  0.0000000 )
                  (  0.0000000  1.0000000  0.0000000 )
                  (  0.0000000  0.0000000  1.0000000 )


      isym =  5     inv. 180 deg rotation - cryst. axis [0,1,0]  

 cryst.   s( 5) = (     1          1          0      )
                  (     0         -1          0      )
                  (     0          0          1      )

 cart.    s( 5) = (  0.5000000  0.8660254  0.0000000 )
                  (  0.8660254 -0.5000000  0.0000000 )
                  (  0.0000000  0.0000000  1.0000000 )


      isym =  6     inv. 180 deg rotation - cryst. axis [1,1,0]  

 cryst.   s( 6) = (     0         -1          0      )
                  (    -1          0          0      )
                  (     0          0          1      )

 cart.    s( 6) = (  0.5000000 -0.8660254  0.0000000 )
                  ( -0.8660254 -0.5000000  0.0000000 )
                  (  0.0000000  0.0000000  1.0000000 )


     point group C_3v (3m)  
     there are  3 classes
     the character table:

       E     2C3   3s_v 
A_1    1.00  1.00  1.00
A_2    1.00  1.00 -1.00
E      2.00 -1.00  0.00

     the symmetry operations in each class and the name of the first element:

     E        1
          identity                                               
     2C3      2    3
          120 deg rotation - cryst. axis [0,0,1]                 
     3s_v     4    5    6
          inv. 180 deg rotation - cart. axis [1,0,0]             

   Cartesian axes

     site n.     atom                  positions (alat units)
         1        Co     tau(   1) = (   0.0000000   0.0000000   0.0000000  )
         2        O      tau(   2) = (  -0.0000000   0.5773503   0.3404255  )
         3        O      tau(   3) = (   0.5000000   0.2886751   2.1063830  )
         4        Li     tau(   4) = (   0.0000000   0.0000000   1.4007092  )

   Crystallographic axes

     site n.     atom                  positions (cryst. coord.)
         1        Co     tau(   1) = (  0.0000000  0.0000000  0.0000000  )
         2        O      tau(   2) = (  0.3333333  0.6666667  0.1391304  )
         3        O      tau(   3) = (  0.6666667  0.3333333  0.8608696  )
         4        Li     tau(   4) = (  0.0000000  0.0000000  0.5724638  )

     number of k points=    25  Marzari-Vanderbilt smearing, width (Ry)=  0.0200
                       cart. coord. in units 2pi/alat
        k(    1) = (   0.0000000   0.0000000   0.0000000), wk =   0.0052083
        k(    2) = (   0.0000000   0.0000000   0.1362319), wk =   0.0104167
        k(    3) = (   0.0000000   0.1443376   0.0000000), wk =   0.0312500
        k(    4) = (   0.0000000   0.1443376   0.1362319), wk =   0.0312500
        k(    5) = (   0.0000000   0.2886751   0.0000000), wk =   0.0312500
        k(    6) = (   0.0000000   0.2886751   0.1362319), wk =   0.0312500
        k(    7) = (   0.0000000   0.4330127   0.0000000), wk =   0.0312500
        k(    8) = (   0.0000000   0.4330127   0.1362319), wk =   0.0312500
        k(    9) = (   0.0000000  -0.5773503   0.0000000), wk =   0.0156250
        k(   10) = (   0.0000000  -0.5773503   0.1362319), wk =   0.0312500
        k(   11) = (   0.1250000   0.2165064   0.0000000), wk =   0.0312500
        k(   12) = (   0.1250000   0.2165064   0.1362319), wk =   0.0625000
        k(   13) = (   0.1250000   0.3608439   0.0000000), wk =   0.0625000
        k(   14) = (   0.1250000   0.3608439   0.1362319), wk =   0.0625000
        k(   15) = (   0.1250000   0.5051815   0.0000000), wk =   0.0625000
        k(   16) = (   0.1250000   0.5051815   0.1362319), wk =   0.0625000
        k(   17) = (   0.2500000   0.4330127   0.0000000), wk =   0.0312500
        k(   18) = (   0.2500000   0.4330127   0.1362319), wk =   0.0625000
        k(   19) = (   0.2500000   0.5773503   0.0000000), wk =   0.0312500
        k(   20) = (   0.2500000   0.5773503   0.1362319), wk =   0.0625000
        k(   21) = (   0.0000000  -0.1443376   0.1362319), wk =   0.0312500
        k(   22) = (   0.0000000  -0.2886751   0.1362319), wk =   0.0312500
        k(   23) = (   0.0000000  -0.4330127   0.1362319), wk =   0.0312500
        k(   24) = (  -0.1250000  -0.3608439   0.1362319), wk =   0.0625000
        k(   25) = (  -0.1250000  -0.5051815   0.1362319), wk =   0.0625000

                       cryst. coord.
        k(    1) = (   0.0000000   0.0000000   0.0000000), wk =   0.0052083
        k(    2) = (   0.0000000   0.0000000   0.3333333), wk =   0.0104167
        k(    3) = (   0.0000000   0.1250000   0.0000000), wk =   0.0312500
        k(    4) = (   0.0000000   0.1250000   0.3333333), wk =   0.0312500
        k(    5) = (   0.0000000   0.2500000   0.0000000), wk =   0.0312500
        k(    6) = (   0.0000000   0.2500000   0.3333333), wk =   0.0312500
        k(    7) = (   0.0000000   0.3750000   0.0000000), wk =   0.0312500
        k(    8) = (   0.0000000   0.3750000   0.3333333), wk =   0.0312500
        k(    9) = (   0.0000000  -0.5000000   0.0000000), wk =   0.0156250
        k(   10) = (   0.0000000  -0.5000000   0.3333333), wk =   0.0312500
        k(   11) = (   0.1250000   0.1250000   0.0000000), wk =   0.0312500
        k(   12) = (   0.1250000   0.1250000   0.3333333), wk =   0.0625000
        k(   13) = (   0.1250000   0.2500000   0.0000000), wk =   0.0625000
        k(   14) = (   0.1250000   0.2500000   0.3333333), wk =   0.0625000
        k(   15) = (   0.1250000   0.3750000   0.0000000), wk =   0.0625000
        k(   16) = (   0.1250000   0.3750000   0.3333333), wk =   0.0625000
        k(   17) = (   0.2500000   0.2500000   0.0000000), wk =   0.0312500
        k(   18) = (   0.2500000   0.2500000   0.3333333), wk =   0.0625000
        k(   19) = (   0.2500000   0.3750000   0.0000000), wk =   0.0312500
        k(   20) = (   0.2500000   0.3750000   0.3333333), wk =   0.0625000
        k(   21) = (   0.0000000  -0.1250000   0.3333333), wk =   0.0312500
        k(   22) = (   0.0000000  -0.2500000   0.3333333), wk =   0.0312500
        k(   23) = (   0.0000000  -0.3750000   0.3333333), wk =   0.0312500
        k(   24) = (  -0.1250000  -0.2500000   0.3333333), wk =   0.0625000
        k(   25) = (  -0.1250000  -0.3750000   0.3333333), wk =   0.0625000

     Dense  grid:    56785 G-vectors     FFT dimensions: (  40,  40,  96)

     Smooth grid:    20183 G-vectors     FFT dimensions: (  27,  27,  72)

     Dynamical RAM for                 wfc:       0.92 MB

     Dynamical RAM for     wfc (w. buffer):      47.01 MB

     Dynamical RAM for           str. fact:       2.60 MB

     Dynamical RAM for           local pot:       0.00 MB

     Dynamical RAM for          nlocal pot:       1.61 MB

     Dynamical RAM for                qrad:       5.27 MB

     Dynamical RAM for          rho,v,vnew:      12.23 MB

     Dynamical RAM for               rhoin:       4.08 MB

     Dynamical RAM for            rho*nmix:      27.73 MB

     Dynamical RAM for           G-vectors:       3.40 MB

     Dynamical RAM for          h,s,v(r/c):       0.11 MB

     Dynamical RAM for          <psi|beta>:       0.02 MB

     Dynamical RAM for                 psi:       1.84 MB

     Dynamical RAM for                hpsi:       1.84 MB

     Dynamical RAM for                spsi:       1.84 MB

     Dynamical RAM for      wfcinit/wfcrot:       1.86 MB

     Dynamical RAM for           addusdens:     163.76 MB

     Dynamical RAM for          addusforce:     165.51 MB

     Estimated static dynamical RAM per process >      86.70 MB

     Estimated max dynamical RAM per process >     279.94 MB

     Check: negative core charge=   -0.000008
     Generating pointlists ...
     new r_m :   0.2765 (alat units)  1.4733 (a.u.) for type    1
     new r_m :   0.2765 (alat units)  1.4733 (a.u.) for type    2
     new r_m :   0.3761 (alat units)  2.0043 (a.u.) for type    3

     Initial potential from superposition of free atoms

     starting charge      31.9951, renormalised to      32.0000
     Starting wfcs are   23 randomized atomic wfcs +    1 random wfcs
     Checking if some PAW data can be deallocated... 

     total cpu time spent up to now is        3.5 secs

     Self-consistent Calculation
[tb_dev] Currently allocated     6.36E-01 Mbytes, locked:    0 /   6
[tb_pin] Currently allocated     0.00E+00 Mbytes, locked:    0 /   0

     iteration #  1     ecut=    60.00 Ry     beta= 0.30
     Davidson diagonalization with overlap

---- Real-time Memory Report at c_bands before calling an iterative solver
           663 MiB given to the printing process from OS
             0 MiB allocation reported by mallinfo(arena+hblkhd)
        847650 MiB available memory on the node where the printing process lives
     GPU memory used/free/total (MiB): 990 / 80160 / 81151
------------------
     ethr =  1.00E-02,  avg # of iterations =  7.3

     total cpu time spent up to now is        5.2 secs

     total energy              =    -474.82475999 Ry
     estimated scf accuracy    <       1.46584221 Ry

     total magnetization       =     4.03 Bohr mag/cell
     absolute magnetization    =     4.04 Bohr mag/cell
[tb_dev] Currently allocated     3.05E-05 Mbytes, locked:    0 /   2
[tb_pin] Currently allocated     0.00E+00 Mbytes, locked:    0 /   0

     iteration #  2     ecut=    60.00 Ry     beta= 0.30
     Davidson diagonalization with overlap

---- Real-time Memory Report at c_bands before calling an iterative solver
           706 MiB given to the printing process from OS
             0 MiB allocation reported by mallinfo(arena+hblkhd)
        847436 MiB available memory on the node where the printing process lives
     GPU memory used/free/total (MiB): 1004 / 80146 / 81151
------------------
     ethr =  4.58E-03,  avg # of iterations =  1.9

     total cpu time spent up to now is        6.4 secs

     total energy              =    -474.84342353 Ry
     estimated scf accuracy    <       0.47498534 Ry

     total magnetization       =     3.71 Bohr mag/cell
     absolute magnetization    =     3.71 Bohr mag/cell
[tb_dev] Currently allocated     3.05E-05 Mbytes, locked:    0 /   2
[tb_pin] Currently allocated     0.00E+00 Mbytes, locked:    0 /   0

     iteration #  3     ecut=    60.00 Ry     beta= 0.30
     Davidson diagonalization with overlap

---- Real-time Memory Report at c_bands before calling an iterative solver
           708 MiB given to the printing process from OS
             0 MiB allocation reported by mallinfo(arena+hblkhd)
        847256 MiB available memory on the node where the printing process lives
     GPU memory used/free/total (MiB): 1004 / 80146 / 81151
------------------
     ethr =  1.48E-03,  avg # of iterations =  2.2

     total cpu time spent up to now is        7.4 secs

     total energy              =    -474.97604668 Ry
     estimated scf accuracy    <       0.60982574 Ry

     total magnetization       =     1.71 Bohr mag/cell
     absolute magnetization    =     1.80 Bohr mag/cell
[tb_dev] Currently allocated     3.05E-05 Mbytes, locked:    0 /   2
[tb_pin] Currently allocated     0.00E+00 Mbytes, locked:    0 /   0

     iteration #  4     ecut=    60.00 Ry     beta= 0.30
     Davidson diagonalization with overlap

---- Real-time Memory Report at c_bands before calling an iterative solver
           710 MiB given to the printing process from OS
             0 MiB allocation reported by mallinfo(arena+hblkhd)
        847257 MiB available memory on the node where the printing process lives
     GPU memory used/free/total (MiB): 1004 / 80146 / 81151
------------------
     ethr =  1.48E-03,  avg # of iterations =  1.3

     total cpu time spent up to now is        8.4 secs

     total energy              =    -475.03347738 Ry
     estimated scf accuracy    <       0.83568523 Ry

     total magnetization       =     1.56 Bohr mag/cell
     absolute magnetization    =     1.68 Bohr mag/cell
[tb_dev] Currently allocated     3.05E-05 Mbytes, locked:    0 /   2
[tb_pin] Currently allocated     0.00E+00 Mbytes, locked:    0 /   0

     iteration #  5     ecut=    60.00 Ry     beta= 0.30
     Davidson diagonalization with overlap

---- Real-time Memory Report at c_bands before calling an iterative solver
           711 MiB given to the printing process from OS
             0 MiB allocation reported by mallinfo(arena+hblkhd)
        847252 MiB available memory on the node where the printing process lives
     GPU memory used/free/total (MiB): 1004 / 80146 / 81151
------------------
     ethr =  1.48E-03,  avg # of iterations =  1.1

     total cpu time spent up to now is        9.4 secs

     total energy              =    -475.00810862 Ry
     estimated scf accuracy    <       0.76820287 Ry

     total magnetization       =     0.46 Bohr mag/cell
     absolute magnetization    =     1.06 Bohr mag/cell
[tb_dev] Currently allocated     3.05E-05 Mbytes, locked:    0 /   2
[tb_pin] Currently allocated     0.00E+00 Mbytes, locked:    0 /   0

     iteration #  6     ecut=    60.00 Ry     beta= 0.30
     Davidson diagonalization with overlap

---- Real-time Memory Report at c_bands before calling an iterative solver
           713 MiB given to the printing process from OS
             0 MiB allocation reported by mallinfo(arena+hblkhd)
        847253 MiB available memory on the node where the printing process lives
     GPU memory used/free/total (MiB): 1004 / 80146 / 81151
------------------
     ethr =  1.48E-03,  avg # of iterations =  1.1

     total cpu time spent up to now is       10.3 secs

     total energy              =    -475.05031582 Ry
     estimated scf accuracy    <       0.08780603 Ry

     total magnetization       =     0.26 Bohr mag/cell
     absolute magnetization    =     0.77 Bohr mag/cell
[tb_dev] Currently allocated     3.05E-05 Mbytes, locked:    0 /   2
[tb_pin] Currently allocated     0.00E+00 Mbytes, locked:    0 /   0

     iteration #  7     ecut=    60.00 Ry     beta= 0.30
     Davidson diagonalization with overlap

---- Real-time Memory Report at c_bands before calling an iterative solver
           714 MiB given to the printing process from OS
             0 MiB allocation reported by mallinfo(arena+hblkhd)
        847241 MiB available memory on the node where the printing process lives
     GPU memory used/free/total (MiB): 1004 / 80146 / 81151
------------------
     ethr =  2.74E-04,  avg # of iterations =  2.1

     total cpu time spent up to now is       11.4 secs

     total energy              =    -475.03990979 Ry
     estimated scf accuracy    <       0.09343669 Ry

     total magnetization       =     0.21 Bohr mag/cell
     absolute magnetization    =     0.74 Bohr mag/cell
[tb_dev] Currently allocated     3.05E-05 Mbytes, locked:    0 /   2
[tb_pin] Currently allocated     0.00E+00 Mbytes, locked:    0 /   0

     iteration #  8     ecut=    60.00 Ry     beta= 0.30
     Davidson diagonalization with overlap

---- Real-time Memory Report at c_bands before calling an iterative solver
           716 MiB given to the printing process from OS
             0 MiB allocation reported by mallinfo(arena+hblkhd)
        847239 MiB available memory on the node where the printing process lives
     GPU memory used/free/total (MiB): 1004 / 80146 / 81151
------------------
     ethr =  2.74E-04,  avg # of iterations =  3.5

     total cpu time spent up to now is       12.6 secs

     total energy              =    -475.05859037 Ry
     estimated scf accuracy    <       0.08994936 Ry

     total magnetization       =    -0.27 Bohr mag/cell
     absolute magnetization    =     0.28 Bohr mag/cell
[tb_dev] Currently allocated     3.05E-05 Mbytes, locked:    0 /   2
[tb_pin] Currently allocated     0.00E+00 Mbytes, locked:    0 /   0

     iteration #  9     ecut=    60.00 Ry     beta= 0.30
     Davidson diagonalization with overlap

---- Real-time Memory Report at c_bands before calling an iterative solver
           717 MiB given to the printing process from OS
             0 MiB allocation reported by mallinfo(arena+hblkhd)
        847226 MiB available memory on the node where the printing process lives
     GPU memory used/free/total (MiB): 1004 / 80146 / 81151
------------------
     ethr =  2.74E-04,  avg # of iterations =  1.2

     total cpu time spent up to now is       13.6 secs

     total energy              =    -475.06722629 Ry
     estimated scf accuracy    <       0.00863688 Ry

     total magnetization       =     0.03 Bohr mag/cell
     absolute magnetization    =     0.27 Bohr mag/cell
[tb_dev] Currently allocated     3.05E-05 Mbytes, locked:    0 /   2
[tb_pin] Currently allocated     0.00E+00 Mbytes, locked:    0 /   0

     iteration # 10     ecut=    60.00 Ry     beta= 0.30
     Davidson diagonalization with overlap

---- Real-time Memory Report at c_bands before calling an iterative solver
           719 MiB given to the printing process from OS
             0 MiB allocation reported by mallinfo(arena+hblkhd)
        847227 MiB available memory on the node where the printing process lives
     GPU memory used/free/total (MiB): 1004 / 80146 / 81151
------------------
     ethr =  2.70E-05,  avg # of iterations =  6.8

     total cpu time spent up to now is       15.2 secs

     total energy              =    -475.06845729 Ry
     estimated scf accuracy    <       0.00262663 Ry

     total magnetization       =     0.12 Bohr mag/cell
     absolute magnetization    =     0.33 Bohr mag/cell
[tb_dev] Currently allocated     3.05E-05 Mbytes, locked:    0 /   2
[tb_pin] Currently allocated     0.00E+00 Mbytes, locked:    0 /   0

     iteration # 11     ecut=    60.00 Ry     beta= 0.30
     Davidson diagonalization with overlap

---- Real-time Memory Report at c_bands before calling an iterative solver
           719 MiB given to the printing process from OS
             0 MiB allocation reported by mallinfo(arena+hblkhd)
        847220 MiB available memory on the node where the printing process lives
     GPU memory used/free/total (MiB): 1004 / 80146 / 81151
------------------
     ethr =  8.21E-06,  avg # of iterations =  4.6

     total cpu time spent up to now is       16.5 secs

     total energy              =    -475.06918868 Ry
     estimated scf accuracy    <       0.00091019 Ry

     total magnetization       =     0.11 Bohr mag/cell
     absolute magnetization    =     0.27 Bohr mag/cell
[tb_dev] Currently allocated     3.05E-05 Mbytes, locked:    0 /   2
[tb_pin] Currently allocated     0.00E+00 Mbytes, locked:    0 /   0

     iteration # 12     ecut=    60.00 Ry     beta= 0.30
     Davidson diagonalization with overlap

---- Real-time Memory Report at c_bands before calling an iterative solver
           720 MiB given to the printing process from OS
             0 MiB allocation reported by mallinfo(arena+hblkhd)
        847214 MiB available memory on the node where the printing process lives
     GPU memory used/free/total (MiB): 1004 / 80146 / 81151
------------------
     ethr =  2.84E-06,  avg # of iterations =  4.4

     total cpu time spent up to now is       17.9 secs

     total energy              =    -475.06956993 Ry
     estimated scf accuracy    <       0.00019475 Ry

     total magnetization       =     0.07 Bohr mag/cell
     absolute magnetization    =     0.21 Bohr mag/cell
[tb_dev] Currently allocated     3.05E-05 Mbytes, locked:    0 /   2
[tb_pin] Currently allocated     0.00E+00 Mbytes, locked:    0 /   0

     iteration # 13     ecut=    60.00 Ry     beta= 0.30
     Davidson diagonalization with overlap

---- Real-time Memory Report at c_bands before calling an iterative solver
           720 MiB given to the printing process from OS
             0 MiB allocation reported by mallinfo(arena+hblkhd)
        847247 MiB available memory on the node where the printing process lives
     GPU memory used/free/total (MiB): 1004 / 80146 / 81151
------------------
     c_bands:  1 eigenvalues not converged
     ethr =  6.09E-07,  avg # of iterations =  4.7

     total cpu time spent up to now is       19.3 secs

     total energy              =    -475.06967986 Ry
     estimated scf accuracy    <       0.00013165 Ry

     total magnetization       =     0.13 Bohr mag/cell
     absolute magnetization    =     0.27 Bohr mag/cell
[tb_dev] Currently allocated     3.05E-05 Mbytes, locked:    0 /   2
[tb_pin] Currently allocated     0.00E+00 Mbytes, locked:    0 /   0

     iteration # 14     ecut=    60.00 Ry     beta= 0.30
     Davidson diagonalization with overlap

---- Real-time Memory Report at c_bands before calling an iterative solver
           720 MiB given to the printing process from OS
             0 MiB allocation reported by mallinfo(arena+hblkhd)
        847257 MiB available memory on the node where the printing process lives
     GPU memory used/free/total (MiB): 1004 / 80146 / 81151
------------------
     ethr =  4.11E-07,  avg # of iterations =  1.5

     total cpu time spent up to now is       20.3 secs

     total energy              =    -475.06966840 Ry
     estimated scf accuracy    <       0.00024203 Ry

     total magnetization       =     0.12 Bohr mag/cell
     absolute magnetization    =     0.25 Bohr mag/cell
[tb_dev] Currently allocated     3.05E-05 Mbytes, locked:    0 /   2
[tb_pin] Currently allocated     0.00E+00 Mbytes, locked:    0 /   0

     iteration # 15     ecut=    60.00 Ry     beta= 0.30
     Davidson diagonalization with overlap

---- Real-time Memory Report at c_bands before calling an iterative solver
           720 MiB given to the printing process from OS
             0 MiB allocation reported by mallinfo(arena+hblkhd)
        847258 MiB available memory on the node where the printing process lives
     GPU memory used/free/total (MiB): 1004 / 80146 / 81151
------------------
     ethr =  4.11E-07,  avg # of iterations =  1.6

     total cpu time spent up to now is       21.3 secs

     total energy              =    -475.06976624 Ry
     estimated scf accuracy    <       0.00001840 Ry

     total magnetization       =     0.16 Bohr mag/cell
     absolute magnetization    =     0.31 Bohr mag/cell
[tb_dev] Currently allocated     3.05E-05 Mbytes, locked:    0 /   2
[tb_pin] Currently allocated     0.00E+00 Mbytes, locked:    0 /   0

     iteration # 16     ecut=    60.00 Ry     beta= 0.30
     Davidson diagonalization with overlap

---- Real-time Memory Report at c_bands before calling an iterative solver
           720 MiB given to the printing process from OS
             0 MiB allocation reported by mallinfo(arena+hblkhd)
        847746 MiB available memory on the node where the printing process lives
     GPU memory used/free/total (MiB): 1004 / 80146 / 81151
------------------
     ethr =  5.75E-08,  avg # of iterations =  4.3

     total cpu time spent up to now is       22.6 secs

     total energy              =    -475.06978357 Ry
     estimated scf accuracy    <       0.00000587 Ry

     total magnetization       =     0.17 Bohr mag/cell
     absolute magnetization    =     0.32 Bohr mag/cell
[tb_dev] Currently allocated     3.05E-05 Mbytes, locked:    0 /   2
[tb_pin] Currently allocated     0.00E+00 Mbytes, locked:    0 /   0

     iteration # 17     ecut=    60.00 Ry     beta= 0.30
     Davidson diagonalization with overlap

---- Real-time Memory Report at c_bands before calling an iterative solver
           720 MiB given to the printing process from OS
             0 MiB allocation reported by mallinfo(arena+hblkhd)
        847535 MiB available memory on the node where the printing process lives
     GPU memory used/free/total (MiB): 1004 / 80146 / 81151
------------------
     ethr =  1.83E-08,  avg # of iterations =  3.6

     total cpu time spent up to now is       23.9 secs

     total energy              =    -475.06979011 Ry
     estimated scf accuracy    <       0.00000268 Ry

     total magnetization       =     0.17 Bohr mag/cell
     absolute magnetization    =     0.33 Bohr mag/cell
[tb_dev] Currently allocated     3.05E-05 Mbytes, locked:    0 /   2
[tb_pin] Currently allocated     0.00E+00 Mbytes, locked:    0 /   0

     iteration # 18     ecut=    60.00 Ry     beta= 0.30
     Davidson diagonalization with overlap

---- Real-time Memory Report at c_bands before calling an iterative solver
           720 MiB given to the printing process from OS
             0 MiB allocation reported by mallinfo(arena+hblkhd)
        847424 MiB available memory on the node where the printing process lives
     GPU memory used/free/total (MiB): 1004 / 80146 / 81151
------------------
     ethr =  8.39E-09,  avg # of iterations =  2.2

     total cpu time spent up to now is       25.0 secs

     total energy              =    -475.06979424 Ry
     estimated scf accuracy    <       0.00000268 Ry

     total magnetization       =     0.17 Bohr mag/cell
     absolute magnetization    =     0.33 Bohr mag/cell
[tb_dev] Currently allocated     3.05E-05 Mbytes, locked:    0 /   2
[tb_pin] Currently allocated     0.00E+00 Mbytes, locked:    0 /   0

     iteration # 19     ecut=    60.00 Ry     beta= 0.30
     Davidson diagonalization with overlap

---- Real-time Memory Report at c_bands before calling an iterative solver
           720 MiB given to the printing process from OS
             0 MiB allocation reported by mallinfo(arena+hblkhd)
        847428 MiB available memory on the node where the printing process lives
     GPU memory used/free/total (MiB): 1004 / 80146 / 81151
------------------
     ethr =  8.39E-09,  avg # of iterations =  2.0

     total cpu time spent up to now is       26.0 secs

     total energy              =    -475.06979864 Ry
     estimated scf accuracy    <       0.00000192 Ry

     total magnetization       =     0.17 Bohr mag/cell
     absolute magnetization    =     0.34 Bohr mag/cell
[tb_dev] Currently allocated     3.05E-05 Mbytes, locked:    0 /   2
[tb_pin] Currently allocated     0.00E+00 Mbytes, locked:    0 /   0

     iteration # 20     ecut=    60.00 Ry     beta= 0.30
     Davidson diagonalization with overlap

---- Real-time Memory Report at c_bands before calling an iterative solver
           720 MiB given to the printing process from OS
             0 MiB allocation reported by mallinfo(arena+hblkhd)
        847243 MiB available memory on the node where the printing process lives
     GPU memory used/free/total (MiB): 1004 / 80146 / 81151
------------------
     ethr =  6.00E-09,  avg # of iterations =  2.9

     total cpu time spent up to now is       27.2 secs

     total energy              =    -475.06980368 Ry
     estimated scf accuracy    <       0.00000039 Ry

     total magnetization       =     0.17 Bohr mag/cell
     absolute magnetization    =     0.35 Bohr mag/cell
[tb_dev] Currently allocated     3.05E-05 Mbytes, locked:    0 /   2
[tb_pin] Currently allocated     0.00E+00 Mbytes, locked:    0 /   0

     iteration # 21     ecut=    60.00 Ry     beta= 0.30
     Davidson diagonalization with overlap

---- Real-time Memory Report at c_bands before calling an iterative solver
           720 MiB given to the printing process from OS
             0 MiB allocation reported by mallinfo(arena+hblkhd)
        847228 MiB available memory on the node where the printing process lives
     GPU memory used/free/total (MiB): 1004 / 80146 / 81151
------------------
     ethr =  1.22E-09,  avg # of iterations =  5.0

     total cpu time spent up to now is       28.7 secs

     total energy              =    -475.06980584 Ry
     estimated scf accuracy    <       0.00000065 Ry

     total magnetization       =     0.17 Bohr mag/cell
     absolute magnetization    =     0.36 Bohr mag/cell
[tb_dev] Currently allocated     3.05E-05 Mbytes, locked:    0 /   2
[tb_pin] Currently allocated     0.00E+00 Mbytes, locked:    0 /   0

     iteration # 22     ecut=    60.00 Ry     beta= 0.30
     Davidson diagonalization with overlap

---- Real-time Memory Report at c_bands before calling an iterative solver
           720 MiB given to the printing process from OS
             0 MiB allocation reported by mallinfo(arena+hblkhd)
        847241 MiB available memory on the node where the printing process lives
     GPU memory used/free/total (MiB): 1004 / 80146 / 81151
------------------
     ethr =  1.22E-09,  avg # of iterations =  4.0

     total cpu time spent up to now is       30.0 secs

     total energy              =    -475.06980830 Ry
     estimated scf accuracy    <       0.00000021 Ry

     total magnetization       =     0.17 Bohr mag/cell
     absolute magnetization    =     0.36 Bohr mag/cell
[tb_dev] Currently allocated     3.05E-05 Mbytes, locked:    0 /   2
[tb_pin] Currently allocated     0.00E+00 Mbytes, locked:    0 /   0

     iteration # 23     ecut=    60.00 Ry     beta= 0.30
     Davidson diagonalization with overlap

---- Real-time Memory Report at c_bands before calling an iterative solver
           720 MiB given to the printing process from OS
             0 MiB allocation reported by mallinfo(arena+hblkhd)
        847214 MiB available memory on the node where the printing process lives
     GPU memory used/free/total (MiB): 1004 / 80146 / 81151
------------------
     ethr =  6.69E-10,  avg # of iterations =  4.0

     total cpu time spent up to now is       31.3 secs

     total energy              =    -475.06980619 Ry
     estimated scf accuracy    <       0.00000017 Ry

     total magnetization       =     0.17 Bohr mag/cell
     absolute magnetization    =     0.37 Bohr mag/cell
[tb_dev] Currently allocated     3.05E-05 Mbytes, locked:    0 /   2
[tb_pin] Currently allocated     0.00E+00 Mbytes, locked:    0 /   0

     iteration # 24     ecut=    60.00 Ry     beta= 0.30
     Davidson diagonalization with overlap

---- Real-time Memory Report at c_bands before calling an iterative solver
           720 MiB given to the printing process from OS
             0 MiB allocation reported by mallinfo(arena+hblkhd)
        848031 MiB available memory on the node where the printing process lives
     GPU memory used/free/total (MiB): 1004 / 80146 / 81151
------------------
     ethr =  5.35E-10,  avg # of iterations =  5.6
 
     Magnetic moment per site  (integrated on atomic sphere of radius R)
     atom   1 (R=0.276)  charge= 14.0597  magn=  0.2202
     atom   2 (R=0.276)  charge=  5.1632  magn=  0.0187
     atom   3 (R=0.276)  charge=  5.1999  magn=  0.0135
     atom   4 (R=0.376)  charge=  2.2139  magn= -0.0364

     total cpu time spent up to now is       32.8 secs

     End of self-consistent calculation

 ------ SPIN UP ------------


          k = 0.0000 0.0000 0.0000 (  2553 PWs)   bands (ev):

   -88.7303 -52.0138 -51.9437 -51.9437 -41.0514 -13.4380 -11.4190   0.0958
     1.2127   1.2127   3.6655   4.7909   4.7909   5.3091   5.3091   5.7005
     7.0360   9.1573   9.1573  11.5455  14.8562  17.2140  21.5306  21.9581

     occupation numbers 
     1.0000   1.0000   1.0000   1.0000   1.0000   1.0000   1.0000   1.0000
     1.0000   1.0000   1.0000   1.0000   1.0000   1.0000   1.0000   1.0000
     0.0155   0.0000   0.0000   0.0000   0.0000   0.0000   0.0000   0.0000

          k = 0.0000 0.0000 0.1362 (  2534 PWs)   bands (ev):

   -88.7303 -52.0136 -51.9437 -51.9437 -41.0513 -13.4377 -11.4199   0.1604
     1.2128   1.2128   3.2985   4.7908   4.7908   5.3090   5.3090   6.2779
     7.0082   9.1575   9.1575  10.8746  15.6238  17.0988  21.3260  21.9719

     occupation numbers 
     1.0000   1.0000   1.0000   1.0000   1.0000   1.0000   1.0000   1.0000
     1.0000   1.0000   1.0000   1.0000   1.0000   1.0000   1.0000   1.0756
     0.0228   0.0000   0.0000   0.0000   0.0000   0.0000   0.0000   0.0000

          k = 0.0000 0.1443 0.0000 (  2529 PWs)   bands (ev):

   -88.7292 -52.0120 -51.9548 -51.9463 -41.0472 -13.2510 -11.4075   0.2917
     0.9460   1.3204   3.6419   4.1253   4.1781   5.6184   5.8342   5.8493
     7.2054   8.6377   9.0505  11.8941  15.4158  17.9021  20.2060  21.0291

     occupation numbers 
     1.0000   1.0000   1.0000   1.0000   1.0000   1.0000   1.0000   1.0000
     1.0000   1.0000   1.0000   1.0000   1.0000   1.0000   1.0005   1.0006
     0.0010   0.0000   0.0000   0.0000   0.0000   0.0000   0.0000   0.0000

          k = 0.0000 0.1443 0.1362 (  2537 PWs)   bands (ev):

   -88.7292 -52.0120 -51.9548 -51.9463 -41.0472 -13.2507 -11.4084   0.3445
     0.9391   1.3203   3.6255   3.8221   4.1782   5.5982   5.8343   6.3662
     7.0810   8.7788   9.0501  11.3034  16.1709  17.5793  20.1613  21.0245

     occupation numbers 
     1.0000   1.0000   1.0000   1.0000   1.0000   1.0000   1.0000   1.0000
     1.0000   1.0000   1.0000   1.0000   1.0000   1.0000   1.0005   1.0790
     0.0079   0.0000   0.0000   0.0000   0.0000   0.0000   0.0000   0.0000

          k = 0.0000 0.2887 0.0000 (  2521 PWs)   bands (ev):

   -88.7266 -52.0079 -51.9818 -51.9527 -41.0373 -12.7638 -11.3880   0.4048
     0.9758   1.5655   2.1281   3.5524   4.4677   5.6999   6.1632   6.1892
     7.3062   8.2312   8.9162  12.5171  16.2817  17.4797  19.5684  19.5884

     occupation numbers 
     1.0000   1.0000   1.0000   1.0000   1.0000   1.0000   1.0000   1.0000
     1.0000   1.0000   1.0000   1.0000   1.0000   1.0000   1.0384   1.0468
     0.0001   0.0000   0.0000   0.0000   0.0000   0.0000   0.0000   0.0000

          k = 0.0000 0.2887 0.1362 (  2522 PWs)   bands (ev):

   -88.7266 -52.0078 -51.9819 -51.9526 -41.0373 -12.7635 -11.3886   0.3843
     1.0182   1.5653   2.1471   3.5529   4.3465   5.6326   6.1636   6.4493
     6.9584   8.6499   8.9147  12.1581  16.5068  17.6656  18.9214  19.5955

     occupation numbers 
     1.0000   1.0000   1.0000   1.0000   1.0000   1.0000   1.0000   1.0000
     1.0000   1.0000   1.0000   1.0000   1.0000   1.0000   1.0385   1.0211
     0.0432   0.0000   0.0000   0.0000   0.0000   0.0000   0.0000   0.0000

          k = 0.0000 0.4330 0.0000 (  2498 PWs)   bands (ev):

   -88.7240 -52.0093 -52.0032 -51.9589 -41.0274 -12.2029 -11.3914  -0.0573
     0.9649   1.7359   2.0606   3.3084   3.8836   5.6113   6.0430   6.2528
     7.8364   8.6631   8.9525  12.9983  14.5316  17.8505  18.5895  18.9437

     occupation numbers 
     1.0000   1.0000   1.0000   1.0000   1.0000   1.0000   1.0000   1.0000
     1.0000   1.0000   1.0000   1.0000   1.0000   1.0000   1.0113   1.0684
     0.0000   0.0000   0.0000   0.0000   0.0000   0.0000   0.0000   0.0000

          k = 0.0000 0.4330 0.1362 (  2508 PWs)   bands (ev):

   -88.7240 -52.0094 -52.0032 -51.9590 -41.0274 -12.2028 -11.3916  -0.0711
     0.9622   1.7354   2.0865   3.3095   3.9322   5.5733   6.0433   6.2740
     7.5141   8.9497   9.0046  12.9807  14.3533  18.2635  18.6109  18.7684

     occupation numbers 
     1.0000   1.0000   1.0000   1.0000   1.0000   1.0000   1.0000   1.0000
     1.0000   1.0000   1.0000   1.0000   1.0000   1.0000   1.0114   1.0746
     0.0000   0.0000   0.0000   0.0000   0.0000   0.0000   0.0000   0.0000

          k = 0.0000-0.5774 0.0000 (  2514 PWs)   bands (ev):

   -88.7230 -52.0204 -52.0018 -51.9617 -41.0234 -11.9285 -11.4151  -0.4719
     1.0827   1.7605   2.3479   3.3185   3.4638   5.4565   5.8978   6.2163
     8.4468   8.8700   9.0045  12.5286  14.6050  16.7996  18.2430  18.9841

     occupation numbers 
     1.0000   1.0000   1.0000   1.0000   1.0000   1.0000   1.0000   1.0000
     1.0000   1.0000   1.0000   1.0000   1.0000   1.0000   1.0014   1.0562
     0.0000   0.0000   0.0000   0.0000   0.0000   0.0000   0.0000   0.0000

          k = 0.0000-0.5774 0.1362 (  2506 PWs)   bands (ev):

   -88.7229 -52.0203 -52.0018 -51.9616 -41.0233 -11.9285 -11.4151  -0.4804
     1.0798   1.7599   2.3355   3.3196   3.5461   5.4341   5.8978   6.2002
     8.2124   9.0018   9.0770  12.4315  14.9071  16.6511  18.2694  18.9049

     occupation numbers 
     1.0000   1.0000   1.0000   1.0000   1.0000   1.0000   1.0000   1.0000
     1.0000   1.0000   1.0000   1.0000   1.0000   1.0000   1.0014   1.0506
     0.0000   0.0000   0.0000   0.0000   0.0000   0.0000   0.0000   0.0000

          k = 0.1250 0.2165 0.0000 (  2525 PWs)   bands (ev):

   -88.7274 -52.0091 -51.9727 -51.9521 -41.0402 -12.9135 -11.3914   0.4700
     0.8874   1.4435   2.6662   3.4193   4.5064   5.7534   6.0755   6.1746
     7.3355   8.2106   8.8659  12.3655  16.2922  18.0990  18.8217  19.7264

     occupation numbers 
     1.0000   1.0000   1.0000   1.0000   1.0000   1.0000   1.0000   1.0000
     1.0000   1.0000   1.0000   1.0000   1.0000   1.0001   1.0165   1.0420
     0.0001   0.0000   0.0000   0.0000   0.0000   0.0000   0.0000   0.0000

          k = 0.1250 0.2165 0.1362 (  2531 PWs)   bands (ev):

   -88.7274 -52.0090 -51.9727 -51.9521 -41.0403 -12.9131 -11.3922   0.4663
     0.9252   1.4450   2.6748   3.4187   4.2835   5.7684   6.0562   6.4205
     7.2142   8.4751   8.8041  12.0381  16.7462  18.0802  18.3771  19.7956

     occupation numbers 
     1.0000   1.0000   1.0000   1.0000   1.0000   1.0000   1.0000   1.0000
     1.0000   1.0000   1.0000   1.0000   1.0000   1.0001   1.0132   1.0499
     0.0008   0.0000   0.0000   0.0000   0.0000   0.0000   0.0000   0.0000

          k = 0.1250 0.3608 0.0000 (  2516 PWs)   bands (ev):

   -88.7248 -52.0050 -51.9969 -51.9612 -41.0303 -12.3870 -11.3779   0.3443
     0.9447   1.6487   1.9761   2.9279   4.2681   5.7664   6.1456   6.3447
     7.5594   8.3515   8.8843  13.0149  15.2210  17.1483  18.6650  20.0623

     occupation numbers 
     1.0000   1.0000   1.0000   1.0000   1.0000   1.0000   1.0000   1.0000
     1.0000   1.0000   1.0000   1.0000   1.0000   1.0001   1.0330   1.0827
     0.0000   0.0000   0.0000   0.0000   0.0000   0.0000   0.0000   0.0000

          k = 0.1250 0.3608 0.1362 (  2518 PWs)   bands (ev):

   -88.7248 -52.0050 -51.9969 -51.9612 -41.0304 -12.3867 -11.3784   0.3250
     0.9467   1.6723   1.9992   2.9282   4.2455   5.7587   6.1390   6.3345
     7.3959   8.6111   8.8627  12.9415  15.1344  17.1423  18.8636  19.9053

     occupation numbers 
     1.0000   1.0000   1.0000   1.0000   1.0000   1.0000   1.0000   1.0000
     1.0000   1.0000   1.0000   1.0000   1.0000   1.0001   1.0312   1.0833
     0.0000   0.0000   0.0000   0.0000   0.0000   0.0000   0.0000   0.0000

          k = 0.1250 0.5052 0.0000 (  2507 PWs)   bands (ev):

   -88.7229 -52.0142 -52.0017 -51.9678 -41.0233 -11.9636 -11.3823  -0.1704
     0.9040   1.7839   2.3768   2.7924   3.5975   5.5926   5.9825   6.3316
     8.2197   8.5923   9.2411  12.6722  14.4597  17.0130  17.6114  19.4392

     occupation numbers 
     1.0000   1.0000   1.0000   1.0000   1.0000   1.0000   1.0000   1.0000
     1.0000   1.0000   1.0000   1.0000   1.0000   1.0000   1.0052   1.0833
     0.0000   0.0000   0.0000   0.0000   0.0000   0.0000   0.0000   0.0000

          k = 0.1250 0.5052 0.1362 (  2512 PWs)   bands (ev):

   -88.7229 -52.0142 -52.0018 -51.9678 -41.0234 -11.9636 -11.3824  -0.1795
     0.8982   1.7853   2.3788   2.7945   3.6538   5.5746   5.9872   6.3087
     8.1089   8.7075   9.2094  12.6274  14.5001  16.9261  17.7624  19.6148

     occupation numbers 
     1.0000   1.0000   1.0000   1.0000   1.0000   1.0000   1.0000   1.0000
     1.0000   1.0000   1.0000   1.0000   1.0000   1.0000   1.0055   1.0817
     0.0000   0.0000   0.0000   0.0000   0.0000   0.0000   0.0000   0.0000

          k = 0.2500 0.4330 0.0000 (  2509 PWs)   bands (ev):

   -88.7229 -52.0056 -52.0019 -51.9764 -41.0234 -11.9951 -11.3532   0.3384
     0.6839   1.6139   2.1886   2.5858   3.7252   5.6907   6.0402   6.4753
     7.9291   8.4734   9.3588  12.9102  14.1784  16.4056  19.0058  19.8408

     occupation numbers 
     1.0000   1.0000   1.0000   1.0000   1.0000   1.0000   1.0000   1.0000
     1.0000   1.0000   1.0000   1.0000   1.0000   1.0000   1.0109   0.9864
     0.0000   0.0000   0.0000   0.0000   0.0000   0.0000   0.0000   0.0000

          k = 0.2500 0.4330 0.1362 (  2519 PWs)   bands (ev):

   -88.7230 -52.0057 -52.0020 -51.9764 -41.0234 -11.9948 -11.3534   0.3321
     0.6717   1.6126   2.2161   2.5975   3.7203   5.6981   6.0464   6.4142
     8.1115   8.4388   9.1916  12.9132  14.2454  16.3205  18.8187  20.0170

     occupation numbers 
     1.0000   1.0000   1.0000   1.0000   1.0000   1.0000   1.0000   1.0000
     1.0000   1.0000   1.0000   1.0000   1.0000   1.0000   1.0118   1.0549
     0.0000   0.0000   0.0000   0.0000   0.0000   0.0000   0.0000   0.0000

          k = 0.2500 0.5774 0.0000 (  2514 PWs)   bands (ev):

   -88.7222 -52.0063 -52.0006 -51.9856 -41.0205 -11.8382 -11.3265   0.2228
     0.7562   1.3699   2.3584   2.7892   3.2546   5.4692   6.2096   6.4348
     8.2097   8.4054  10.0495  11.6398  14.8592  16.2776  17.8935  19.7297

     occupation numbers 
     1.0000   1.0000   1.0000   1.0000   1.0000   1.0000   1.0000   1.0000
     1.0000   1.0000   1.0000   1.0000   1.0000   1.0000   1.0538   1.0369
     0.0000   0.0000   0.0000   0.0000   0.0000   0.0000   0.0000   0.0000

          k = 0.2500 0.5774 0.1362 (  2508 PWs)   bands (ev):

   -88.7222 -52.0062 -52.0007 -51.9856 -41.0205 -11.8382 -11.3265   0.2163
     0.7499   1.3652   2.3710   2.7918   3.2729   5.4666   6.2117   6.4078
     8.3260   8.4514   9.8757  11.5322  14.9363  16.2536  17.9576  19.6068

     occupation numbers 
     1.0000   1.0000   1.0000   1.0000   1.0000   1.0000   1.0000   1.0000
     1.0000   1.0000   1.0000   1.0000   1.0000   1.0000   1.0545   1.0596
     0.0000   0.0000   0.0000   0.0000   0.0000   0.0000   0.0000   0.0000

          k = 0.0000-0.1443 0.1362 (  2537 PWs)   bands (ev):

   -88.7292 -52.0120 -51.9548 -51.9463 -41.0472 -13.2507 -11.4084   0.3471
     0.9384   1.3204   3.5813   3.8623   4.1778   5.6010   5.8342   6.3381
     7.1653   8.6750   9.0510  11.3759  16.0923  17.6183  20.3092  21.0353

     occupation numbers 
     1.0000   1.0000   1.0000   1.0000   1.0000   1.0000   1.0000   1.0000
     1.0000   1.0000   1.0000   1.0000   1.0000   1.0000   1.0005   1.0832
     0.0020   0.0000   0.0000   0.0000   0.0000   0.0000   0.0000   0.0000

          k = 0.0000-0.2887 0.1362 (  2522 PWs)   bands (ev):

   -88.7266 -52.0078 -51.9819 -51.9526 -41.0373 -12.7634 -11.3888   0.3953
     1.0137   1.5656   2.1460   3.5521   4.2850   5.6770   6.1635   6.3274
     7.4012   8.2184   8.9162  12.4102  16.1778  17.9828  18.8817  19.5953

     occupation numbers 
     1.0000   1.0000   1.0000   1.0000   1.0000   1.0000   1.0000   1.0000
     1.0000   1.0000   1.0000   1.0000   1.0000   1.0000   1.0384   1.0833
     0.0000   0.0000   0.0000   0.0000   0.0000   0.0000   0.0000   0.0000

          k = 0.0000-0.4330 0.1362 (  2508 PWs)   bands (ev):

   -88.7240 -52.0093 -52.0033 -51.9589 -41.0274 -12.2025 -11.3920  -0.0668
     0.9594   1.7357   2.1123   3.3087   3.8523   5.6089   6.0433   6.2216
     7.8809   8.6051   8.9509  13.1635  14.5258  17.6085  18.6087  18.8739

     occupation numbers 
     1.0000   1.0000   1.0000   1.0000   1.0000   1.0000   1.0000   1.0000
     1.0000   1.0000   1.0000   1.0000   1.0000   1.0000   1.0114   1.0580
     0.0000   0.0000   0.0000   0.0000   0.0000   0.0000   0.0000   0.0000

          k =-0.1250-0.3608 0.1362 (  2518 PWs)   bands (ev):

   -88.7248 -52.0050 -51.9969 -51.9612 -41.0304 -12.3866 -11.3786   0.3304
     0.9442   1.6714   2.0063   2.9290   4.1987   5.7976   6.1638   6.2459
     7.6949   8.3290   8.8467  13.1004  15.1195  17.0936  18.7933  19.8631

     occupation numbers 
     1.0000   1.0000   1.0000   1.0000   1.0000   1.0000   1.0000   1.0000
     1.0000   1.0000   1.0000   1.0000   1.0000   1.0002   1.0385   1.0662
     0.0000   0.0000   0.0000   0.0000   0.0000   0.0000   0.0000   0.0000

          k =-0.1250-0.5052 0.1362 (  2512 PWs)   bands (ev):

   -88.7230 -52.0142 -52.0018 -51.9678 -41.0234 -11.9634 -11.3826  -0.1785
     0.8980   1.7843   2.3983   2.7963   3.6132   5.5918   5.9867   6.2886
     8.3007   8.5934   9.1263  12.6096  14.7555  16.8078  17.5196  19.6503

     occupation numbers 
     1.0000   1.0000   1.0000   1.0000   1.0000   1.0000   1.0000   1.0000
     1.0000   1.0000   1.0000   1.0000   1.0000   1.0000   1.0055   1.0782
     0.0000   0.0000   0.0000   0.0000   0.0000   0.0000   0.0000   0.0000

 ------ SPIN DOWN ----------


          k = 0.0000 0.0000 0.0000 (  2553 PWs)   bands (ev):

   -88.4623 -51.7112 -51.7112 -51.6951 -41.0910 -13.4109 -11.3877   0.1585
     1.2830   1.2830   3.7101   4.8136   4.8136   5.4763   5.5435   5.5435
     7.1498   9.2647   9.2647  11.4621  14.8465  17.2181  21.5358  21.8720

     occupation numbers 
     1.0000   1.0000   1.0000   1.0000   1.0000   1.0000   1.0000   1.0000
     1.0000   1.0000   1.0000   1.0000   1.0000   1.0000   1.0000   1.0000
     0.0026   0.0000   0.0000   0.0000   0.0000   0.0000   0.0000   0.0000

          k = 0.0000 0.0000 0.1362 (  2534 PWs)   bands (ev):

   -88.4623 -51.7112 -51.7112 -51.6950 -41.0909 -13.4105 -11.3887   0.2366
     1.2831   1.2831   3.2512   4.8136   4.8136   5.5434   5.5434   6.2369
     7.0079   9.2650   9.2650  10.8036  15.6270  17.0931  21.3081  21.8856

     occupation numbers 
     1.0000   1.0000   1.0000   1.0000   1.0000   1.0000   1.0000   1.0000
     1.0000   1.0000   1.0000   1.0000   1.0000   1.0000   1.0000   1.0632
     0.0229   0.0000   0.0000   0.0000   0.0000   0.0000   0.0000   0.0000

          k = 0.0000 0.1443 0.0000 (  2529 PWs)   bands (ev):

   -88.4612 -51.7224 -51.7139 -51.6933 -41.0867 -13.2239 -11.3759   0.3520
     1.0133   1.3882   3.6967   4.1714   4.2513   5.6795   5.8303   6.0246
     7.2575   8.7391   9.1562  11.8129  15.4076  17.9047  20.0656  20.8833

     occupation numbers 
     1.0000   1.0000   1.0000   1.0000   1.0000   1.0000   1.0000   1.0000
     1.0000   1.0000   1.0000   1.0000   1.0000   1.0000   1.0004   1.0090
     0.0003   0.0000   0.0000   0.0000   0.0000   0.0000   0.0000   0.0000

          k = 0.0000 0.1443 0.1362 (  2537 PWs)   bands (ev):

   -88.4612 -51.7225 -51.7139 -51.6933 -41.0868 -13.2235 -11.3769   0.4146
     1.0060   1.3882   3.6603   3.8053   4.2514   5.7934   6.0247   6.3838
     7.0442   8.8692   9.1558  11.2277  16.1722  17.5747  20.0169  20.8791

     occupation numbers 
     1.0000   1.0000   1.0000   1.0000   1.0000   1.0000   1.0000   1.0000
     1.0000   1.0000   1.0000   1.0000   1.0000   1.0002   1.0090   1.0729
     0.0138   0.0000   0.0000   0.0000   0.0000   0.0000   0.0000   0.0000

          k = 0.0000 0.2887 0.0000 (  2521 PWs)   bands (ev):

   -88.4586 -51.7499 -51.7203 -51.6890 -41.0767 -12.7367 -11.3557   0.4573
     1.0388   1.6286   2.1822   3.6209   4.5156   5.9185   6.2196   6.3718
     7.2204   8.2801   9.0190  12.4204  16.1593  17.3451  19.3978  19.5650

     occupation numbers 
     1.0000   1.0000   1.0000   1.0000   1.0000   1.0000   1.0000   1.0000
     1.0000   1.0000   1.0000   1.0000   1.0000   1.0020   1.0573   1.0773
     0.0007   0.0000   0.0000   0.0000   0.0000   0.0000   0.0000   0.0000

          k = 0.0000 0.2887 0.1362 (  2522 PWs)   bands (ev):

   -88.4586 -51.7500 -51.7202 -51.6890 -41.0767 -12.7363 -11.3565   0.4333
     1.0886   1.6284   2.2081   3.6215   4.3539   5.8126   6.3722   6.6327
     6.8394   8.6514   9.0174  12.0607  16.3189  17.6217  18.8763  19.4051

     occupation numbers 
     1.0000   1.0000   1.0000   1.0000   1.0000   1.0000   1.0000   1.0000
     1.0000   1.0000   1.0000   1.0000   1.0000   1.0003   1.0772   0.6264
     0.1548   0.0000   0.0000   0.0000   0.0000   0.0000   0.0000   0.0000

          k = 0.0000 0.4330 0.0000 (  2498 PWs)   bands (ev):

   -88.4559 -51.7773 -51.7266 -51.6846 -41.0666 -12.1763 -11.3581  -0.0077
     1.0011   1.7999   2.1311   3.3510   3.9301   5.8677   6.2800   6.5120
     7.6109   8.6245   9.0580  12.7622  14.3597  17.8156  18.3812  18.8761

     occupation numbers 
     1.0000   1.0000   1.0000   1.0000   1.0000   1.0000   1.0000   1.0000
     1.0000   1.0000   1.0000   1.0000   1.0000   1.0009   1.0761   0.9231
     0.0000   0.0000   0.0000   0.0000   0.0000   0.0000   0.0000   0.0000

          k = 0.0000 0.4330 0.1362 (  2508 PWs)   bands (ev):

   -88.4559 -51.7774 -51.7267 -51.6847 -41.0666 -12.1761 -11.3583  -0.0232
     0.9976   1.7994   2.1629   3.3522   3.9855   5.8077   6.2802   6.5490
     7.3069   8.9463   9.0551  12.7461  14.1829  18.2031  18.4024  18.7584

     occupation numbers 
     1.0000   1.0000   1.0000   1.0000   1.0000   1.0000   1.0000   1.0000
     1.0000   1.0000   1.0000   1.0000   1.0000   1.0003   1.0762   0.8441
     0.0001   0.0000   0.0000   0.0000   0.0000   0.0000   0.0000   0.0000

          k = 0.0000-0.5774 0.0000 (  2514 PWs)   bands (ev):

   -88.4548 -51.7887 -51.7294 -51.6831 -41.0625 -11.9028 -11.3806  -0.4249
     1.1104   1.8276   2.4274   3.3415   3.4988   5.7454   6.1512   6.4788
     8.3229   8.7224   9.1127  12.1549  14.5654  16.6834  18.0300  18.9786

     occupation numbers 
     1.0000   1.0000   1.0000   1.0000   1.0000   1.0000   1.0000   1.0000
     1.0000   1.0000   1.0000   1.0000   1.0000   1.0001   1.0347   0.9811
     0.0000   0.0000   0.0000   0.0000   0.0000   0.0000   0.0000   0.0000

          k = 0.0000-0.5774 0.1362 (  2506 PWs)   bands (ev):

   -88.4548 -51.7887 -51.7294 -51.6830 -41.0624 -11.9027 -11.3806  -0.4343
     1.1069   1.8270   2.4135   3.3426   3.5930   5.7128   6.1512   6.4607
     8.0596   8.9663   9.1099  12.0631  14.8634  16.5405  18.0559  18.8696

     occupation numbers 
     1.0000   1.0000   1.0000   1.0000   1.0000   1.0000   1.0000   1.0000
     1.0000   1.0000   1.0000   1.0000   1.0000   1.0000   1.0347   1.0069
     0.0000   0.0000   0.0000   0.0000   0.0000   0.0000   0.0000   0.0000

          k = 0.1250 0.2165 0.0000 (  2525 PWs)   bands (ev):

   -88.4594 -51.7406 -51.7197 -51.6903 -41.0797 -12.8863 -11.3594   0.5224
     0.9561   1.5064   2.7167   3.4952   4.5527   5.9516   6.0937   6.3370
     7.2739   8.3157   8.9535  12.2775  16.2796  17.8330  18.7333  19.6857

     occupation numbers 
     1.0000   1.0000   1.0000   1.0000   1.0000   1.0000   1.0000   1.0000
     1.0000   1.0000   1.0000   1.0000   1.0000   1.0033   1.0201   1.0832
     0.0002   0.0000   0.0000   0.0000   0.0000   0.0000   0.0000   0.0000

          k = 0.1250 0.2165 0.1362 (  2531 PWs)   bands (ev):

   -88.4594 -51.7406 -51.7198 -51.6903 -41.0797 -12.8859 -11.3603   0.5172
     1.0021   1.5085   2.7296   3.4941   4.2666   6.0050   6.1583   6.6139
     7.0902   8.5409   8.8925  11.9521  16.7256  17.8442  18.3022  19.7064

     occupation numbers 
     1.0000   1.0000   1.0000   1.0000   1.0000   1.0000   1.0000   1.0000
     1.0000   1.0000   1.0000   1.0000   1.0000   1.0070   1.0368   0.6779
     0.0069   0.0000   0.0000   0.0000   0.0000   0.0000   0.0000   0.0000

          k = 0.1250 0.3608 0.0000 (  2516 PWs)   bands (ev):

   -88.4567 -51.7652 -51.7290 -51.6860 -41.0696 -12.3601 -11.3450   0.3952
     0.9903   1.7106   2.0372   2.9892   4.3171   6.0107   6.3980   6.5441
     7.3196   8.4266   8.9132  12.8830  14.9243  17.0486  18.6136  19.9792

     occupation numbers 
     1.0000   1.0000   1.0000   1.0000   1.0000   1.0000   1.0000   1.0000
     1.0000   1.0000   1.0000   1.0000   1.0000   1.0075   1.0657   0.8552
     0.0001   0.0000   0.0000   0.0000   0.0000   0.0000   0.0000   0.0000

          k = 0.1250 0.3608 0.1362 (  2518 PWs)   bands (ev):

   -88.4567 -51.7652 -51.7290 -51.6860 -41.0696 -12.3598 -11.3455   0.3730
     0.9924   1.7368   2.0682   2.9898   4.2860   5.9846   6.3441   6.5876
     7.2068   8.7142   8.8282  12.8143  14.8331  17.0354  18.8397  19.8281

     occupation numbers 
     1.0000   1.0000   1.0000   1.0000   1.0000   1.0000   1.0000   1.0000
     1.0000   1.0000   1.0000   1.0000   1.0000   1.0053   1.0828   0.7483
     0.0009   0.0000   0.0000   0.0000   0.0000   0.0000   0.0000   0.0000

          k = 0.1250 0.5052 0.0000 (  2507 PWs)   bands (ev):

   -88.4548 -51.7825 -51.7357 -51.6829 -41.0624 -11.9375 -11.3481  -0.1235
     0.9431   1.8390   2.4474   2.8331   3.6425   5.9034   6.2296   6.5607
     8.0890   8.6723   9.1247  12.3030  14.3647  16.8755  17.4895  19.4325

     occupation numbers 
     1.0000   1.0000   1.0000   1.0000   1.0000   1.0000   1.0000   1.0000
     1.0000   1.0000   1.0000   1.0000   1.0000   1.0016   1.0607   0.8163
     0.0000   0.0000   0.0000   0.0000   0.0000   0.0000   0.0000   0.0000

          k = 0.1250 0.5052 0.1362 (  2512 PWs)   bands (ev):

   -88.4548 -51.7825 -51.7357 -51.6830 -41.0625 -11.9375 -11.3481  -0.1335
     0.9364   1.8407   2.4500   2.8354   3.7071   5.8744   6.2370   6.5326
     7.9857   8.8092   9.0717  12.2576  14.4069  16.7917  17.6450  19.6292

     occupation numbers 
     1.0000   1.0000   1.0000   1.0000   1.0000   1.0000   1.0000   1.0000
     1.0000   1.0000   1.0000   1.0000   1.0000   1.0010   1.0632   0.8809
     0.0000   0.0000   0.0000   0.0000   0.0000   0.0000   0.0000   0.0000

          k = 0.2500 0.4330 0.0000 (  2509 PWs)   bands (ev):

   -88.4548 -51.7739 -51.7443 -51.6829 -41.0624 -11.9688 -11.3191   0.3843
     0.7314   1.6541   2.2483   2.6482   3.7788   6.0196   6.2825   6.6811
     7.8285   8.5889   9.1707  12.5374  14.0279  16.3129  18.8878  19.8452

     occupation numbers 
     1.0000   1.0000   1.0000   1.0000   1.0000   1.0000   1.0000   1.0000
     1.0000   1.0000   1.0000   1.0000   1.0000   1.0085   1.0768   0.4931
     0.0000   0.0000   0.0000   0.0000   0.0000   0.0000   0.0000   0.0000

          k = 0.2500 0.4330 0.1362 (  2519 PWs)   bands (ev):

   -88.4548 -51.7740 -51.7444 -51.6830 -41.0625 -11.9685 -11.3194   0.3774
     0.7175   1.6528   2.2795   2.6632   3.7717   6.0293   6.2896   6.5955
     8.0387   8.5453   9.0055  12.5346  14.0968  16.2364  18.7262  19.9395

     occupation numbers 
     1.0000   1.0000   1.0000   1.0000   1.0000   1.0000   1.0000   1.0000
     1.0000   1.0000   1.0000   1.0000   1.0000   1.0096   1.0784   0.7276
     0.0000   0.0000   0.0000   0.0000   0.0000   0.0000   0.0000   0.0000

          k = 0.2500 0.5774 0.0000 (  2514 PWs)   bands (ev):

   -88.4541 -51.7745 -51.7537 -51.6818 -41.0595 -11.8124 -11.2918   0.2684
     0.8024   1.4089   2.4069   2.8508   3.3067   5.8265   6.4359   6.6560
     8.2394   8.5064   9.7344  11.2596  14.6635  16.2453  17.7563  19.6144

     occupation numbers 
     1.0000   1.0000   1.0000   1.0000   1.0000   1.0000   1.0000   1.0000
     1.0000   1.0000   1.0000   1.0000   1.0000   1.0004   1.0358   0.5618
     0.0000   0.0000   0.0000   0.0000   0.0000   0.0000   0.0000   0.0000

          k = 0.2500 0.5774 0.1362 (  2508 PWs)   bands (ev):

   -88.4541 -51.7745 -51.7536 -51.6818 -41.0595 -11.8123 -11.2918   0.2613
     0.7953   1.4038   2.4211   2.8533   3.3277   5.8229   6.4391   6.6222
     8.3966   8.5635   9.5233  11.1429  14.7322  16.2332  17.8309  19.5114

     occupation numbers 
     1.0000   1.0000   1.0000   1.0000   1.0000   1.0000   1.0000   1.0000
     1.0000   1.0000   1.0000   1.0000   1.0000   1.0004   1.0325   0.6552
     0.0000   0.0000   0.0000   0.0000   0.0000   0.0000   0.0000   0.0000

          k = 0.0000-0.1443 0.1362 (  2537 PWs)   bands (ev):

   -88.4612 -51.7225 -51.7139 -51.6933 -41.0868 -13.2235 -11.3770   0.4177
     1.0052   1.3883   3.5926   3.8697   4.2510   5.7896   6.0246   6.3749
     7.1044   8.7734   9.1567  11.3028  16.0898  17.6179  20.1580  20.8892

     occupation numbers 
     1.0000   1.0000   1.0000   1.0000   1.0000   1.0000   1.0000   1.0000
     1.0000   1.0000   1.0000   1.0000   1.0000   1.0002   1.0090   1.0763
     0.0055   0.0000   0.0000   0.0000   0.0000   0.0000   0.0000   0.0000

          k = 0.0000-0.2887 0.1362 (  2522 PWs)   bands (ev):

   -88.4586 -51.7499 -51.7202 -51.6890 -41.0767 -12.7362 -11.3567   0.4453
     1.0839   1.6287   2.2068   3.6206   4.2812   5.8691   6.3721   6.4917
     7.2550   8.2613   9.0190  12.3143  16.0396  17.8523  18.8731  19.4044

     occupation numbers 
     1.0000   1.0000   1.0000   1.0000   1.0000   1.0000   1.0000   1.0000
     1.0000   1.0000   1.0000   1.0000   1.0000   1.0009   1.0772   0.9600
     0.0004   0.0000   0.0000   0.0000   0.0000   0.0000   0.0000   0.0000

          k = 0.0000-0.4330 0.1362 (  2508 PWs)   bands (ev):

   -88.4559 -51.7774 -51.7266 -51.6848 -41.0666 -12.1758 -11.3587  -0.0187
     0.9946   1.7998   2.1946   3.3514   3.8891   5.8522   6.2802   6.4733
     7.6694   8.5761   9.0563  12.8968  14.3913  17.5475  18.3999  18.8196

     occupation numbers 
     1.0000   1.0000   1.0000   1.0000   1.0000   1.0000   1.0000   1.0000
     1.0000   1.0000   1.0000   1.0000   1.0000   1.0007   1.0762   0.9894
     0.0000   0.0000   0.0000   0.0000   0.0000   0.0000   0.0000   0.0000

          k =-0.1250-0.3608 0.1362 (  2518 PWs)   bands (ev):

   -88.4567 -51.7652 -51.7290 -51.6860 -41.0696 -12.3596 -11.3457   0.3788
     0.9895   1.7354   2.0777   2.9906   4.2289   6.0474   6.3385   6.4894
     7.4897   8.4007   8.8834  12.9672  14.8334  16.9772  18.7430  19.8337

     occupation numbers 
     1.0000   1.0000   1.0000   1.0000   1.0000   1.0000   1.0000   1.0000
     1.0000   1.0000   1.0000   1.0000   1.0000   1.0119   1.0832   0.9639
     0.0000   0.0000   0.0000   0.0000   0.0000   0.0000   0.0000   0.0000

          k =-0.1250-0.5052 0.1362 (  2512 PWs)   bands (ev):

   -88.4548 -51.7825 -51.7357 -51.6830 -41.0625 -11.9373 -11.3484  -0.1325
     0.9362   1.8395   2.4734   2.8376   3.6591   5.8977   6.2337   6.5063
     8.1754   8.6625   9.0318  12.2398  14.6551  16.6886  17.4002  19.6167

     occupation numbers 
     1.0000   1.0000   1.0000   1.0000   1.0000   1.0000   1.0000   1.0000
     1.0000   1.0000   1.0000   1.0000   1.0000   1.0014   1.0621   0.9341
     0.0000   0.0000   0.0000   0.0000   0.0000   0.0000   0.0000   0.0000

     the Fermi energy is     6.7165 ev

!    total energy              =    -475.06981322 Ry
     total all-electron energy =     -3102.941951 Ry
     estimated scf accuracy    <       0.00000003 Ry
     smearing contrib. (-TS)   =       0.00600957 Ry
     internal energy E=F+TS    =    -475.07582279 Ry

     The total energy is F=E-TS. E is the sum of the following terms:
     one-electron contribution =    -484.06811779 Ry
     hartree contribution      =     254.02146377 Ry
     xc contribution           =     -49.06728665 Ry
     ewald contribution        =     -89.26992993 Ry
     one-center paw contrib.   =    -106.69195219 Ry
      -> PAW hartree energy AE =     280.10311541 Ry
      -> PAW hartree energy PS =    -278.74205406 Ry
      -> PAW xc energy AE      =    -154.28160383 Ry
      -> PAW xc energy PS      =      46.22859029 Ry
      -> total E_H with PAW    =     255.38252512 Ry
      -> total E_XC with PAW   =    -157.12030019 Ry

     total magnetization       =     0.17 Bohr mag/cell
     absolute magnetization    =     0.38 Bohr mag/cell

     convergence has been achieved in  24 iterations

     Forces acting on atoms (cartesian axes, Ry/au):

     atom    1 type  1   force =     0.00000000    0.00000000    0.03810806
     atom    2 type  2   force =     0.00000000    0.00000000    0.00501640
     atom    3 type  2   force =     0.00000000    0.00000000   -0.07385598
     atom    4 type  3   force =    -0.00000000   -0.00000000    0.03073151
     The non-local contrib.  to forces
     atom    1 type  1   force =     0.00000000    0.00000000    0.03617555
     atom    2 type  2   force =     0.00000000    0.00000000   -1.04387914
     atom    3 type  2   force =     0.00000000    0.00000000    0.50935481
     atom    4 type  3   force =     0.00000000   -0.00000000   -0.01140466
     The ionic contribution  to forces
     atom    1 type  1   force =    -0.00000000    0.00000000    3.84999780
     atom    2 type  2   force =     0.00000000   -0.00000000   33.91822205
     atom    3 type  2   force =    -0.00000000    0.00000000  -31.39914516
     atom    4 type  3   force =     0.00000000   -0.00000000   -6.36907470
     The local contribution  to forces
     atom    1 type  1   force =    -0.00000000   -0.00000000   -3.84736904
     atom    2 type  2   force =     0.00000001   -0.00000001  -32.87809880
     atom    3 type  2   force =    -0.00000001    0.00000001   30.81943588
     atom    4 type  3   force =     0.00000000   -0.00000000    6.41118350
     The core correction contribution to forces
     atom    1 type  1   force =    -0.00000000    0.00000000   -0.00060714
     atom    2 type  2   force =    -0.00000000    0.00000000    0.00875625
     atom    3 type  2   force =     0.00000000   -0.00000000   -0.00347529
     atom    4 type  3   force =     0.00000000    0.00000000    0.00000000
     The Hubbard contrib.    to forces
     atom    1 type  1   force =     0.00000000    0.00000000    0.00000000
     atom    2 type  2   force =     0.00000000    0.00000000    0.00000000
     atom    3 type  2   force =     0.00000000    0.00000000    0.00000000
     atom    4 type  3   force =     0.00000000    0.00000000    0.00000000
     The SCF correction term to forces
     atom    1 type  1   force =    -0.00000000    0.00000000   -0.00009527
     atom    2 type  2   force =    -0.00000000    0.00000000    0.00000989
     atom    3 type  2   force =     0.00000000   -0.00000000   -0.00003237
     atom    4 type  3   force =     0.00000000    0.00000000    0.00002120

     Total force =     0.088750     Total SCF correction =     0.000103

     Writing all to output data dir ./out/pw.save/ :
     XML data file, charge density, pseudopotentials, collected wavefunctions
 
     init_run     :     11.56s CPU      3.09s WALL (       1 calls)
     electrons    :    104.84s CPU     29.31s WALL (       1 calls)
     forces       :      0.51s CPU      0.49s WALL (       1 calls)

     Called by init_run:
     wfcinit      :      0.24s CPU      0.31s WALL (       1 calls)
     wfcinit:atom :      0.04s CPU      0.04s WALL (      50 calls)
     wfcinit:wfcr :      0.15s CPU      0.20s WALL (      50 calls)
     potinit      :     10.83s CPU      2.22s WALL (       1 calls)
     hinit0       :      0.41s CPU      0.42s WALL (       1 calls)

     Called by electrons:
     c_bands      :     13.71s CPU     13.76s WALL (      24 calls)
     sum_band     :      2.50s CPU      2.51s WALL (      24 calls)
     v_of_rho     :      0.36s CPU      0.21s WALL (      25 calls)
     v_h          :      0.25s CPU      0.03s WALL (      25 calls)
     v_xc         :      0.11s CPU      0.18s WALL (      26 calls)
     newd         :      0.59s CPU      0.43s WALL (      25 calls)
                                        0.43s GPU  (      25 calls)
     PAW_pot      :     90.46s CPU     12.27s WALL (      25 calls)
     mix_rho      :      0.64s CPU      0.66s WALL (      24 calls)

     Called by c_bands:
     init_us_2    :      0.96s CPU      0.95s WALL (    2500 calls)
     cegterg      :     12.02s CPU     12.08s WALL (    1200 calls)

     Called by sum_band:
     sum_band:wei :      0.04s CPU      0.04s WALL (      24 calls)
                                        0.04s GPU  (      24 calls)
     sum_band:loo :      1.54s CPU      1.54s WALL (      24 calls)
                                        1.54s GPU  (      24 calls)
     sum_band:buf :      0.16s CPU      0.18s WALL (    1200 calls)
                                        0.17s GPU  (    1200 calls)
     sum_band:ini :      0.46s CPU      0.47s WALL (    1200 calls)
                                        0.46s GPU  (    1200 calls)
     sum_band:cal :      0.04s CPU      0.07s WALL (    1200 calls)
                                        0.06s GPU  (    1200 calls)
     sum_band:bec :      0.25s CPU      0.27s WALL (    1200 calls)
                                        0.26s GPU  (    1200 calls)
     addusdens    :      0.78s CPU      0.79s WALL (      24 calls)
                                        0.79s GPU  (      24 calls)
     addusd:skk   :      0.00s CPU      0.00s WALL (      72 calls)
                                        0.00s GPU  (      72 calls)

     Called by *egterg:
     cdiaghg      :      4.03s CPU      4.18s WALL (    5147 calls)
                                        4.12s GPU  (    5147 calls)
     cegterg:over :      0.83s CPU      0.86s WALL (    3947 calls)
     cegterg:upda :      0.72s CPU      0.73s WALL (    3947 calls)
     cegterg:last :      0.13s CPU      0.13s WALL (    2287 calls)
     h_psi        :      4.30s CPU      4.36s WALL (    5197 calls)
                                        4.30s GPU  (    5197 calls)
     s_psi        :      0.78s CPU      0.81s WALL (    5197 calls)
     g_psi        :      0.02s CPU      0.09s WALL (    3947 calls)
                                        0.04s GPU  (    3947 calls)

     Called by h_psi:
     h_psi:calbec :      0.14s CPU      0.27s WALL (    5197 calls)
                                        0.21s GPU  (    5197 calls)
     vloc_psi     :      2.91s CPU      2.92s WALL (    5197 calls)
                                        2.85s GPU  (    5197 calls)
     add_vuspsi   :      0.71s CPU      0.83s WALL (    5197 calls)
                                        0.76s GPU  (    5197 calls)

     General routines
     calbec       :      0.16s CPU      0.18s WALL (    6597 calls)
     fft          :      3.23s CPU      0.86s WALL (     638 calls)
                                        0.02s GPU  (     588 calls)
     ffts         :      3.89s CPU      0.76s WALL (     855 calls)
                                        0.02s GPU  (     805 calls)
     fftw         :      0.28s CPU      1.02s WALL (   17706 calls)
                                        0.83s GPU  (   17706 calls)
     interpolate  :      7.26s CPU      1.58s WALL (      50 calls)
 
     Parallel routines

     PAW routines
     PAW_pot      :     90.46s CPU     12.27s WALL (      25 calls)
     PAW_symme    :      0.03s CPU      0.00s WALL (      49 calls)
 
     PWSCF        :   1m57.69s CPU     33.38s WALL

 
   This run was terminated on:   3:20:32  12Jul2026            

=------------------------------------------------------------------------------=
   JOB DONE.
=------------------------------------------------------------------------------=
Warning: ieee_divide_by_zero is signaling
Warning: ieee_inexact is signaling
FORTRAN STOP
