
     Program PWSCF v.7.3.1 starts on 12Jul2026 at  2:43:43 

     This program is part of the open-source Quantum ESPRESSO suite
     for quantum simulation of materials; please cite
         "P. Giannozzi et al., J. Phys.:Condens. Matter 21 395502 (2009);
         "P. Giannozzi et al., J. Phys.:Condens. Matter 29 465901 (2017);
         "P. Giannozzi et al., J. Chem. Phys. 152 154105 (2020);
          URL http://www.quantum-espresso.org", 
     in publications or presentations arising from this work. More details at
     http://www.quantum-espresso.org/quote

     Parallel version (MPI & OpenMP), running on      14 processor cores
     Number of MPI processes:                 1
     Threads/MPI process:                    14

     MPI processes distributed on     1 nodes
     848046 MiB available memory on the printing compute node when the environment starts
 
     Reading input from pw.in

     Current dimensions of program PWSCF are:
     Max number of different atomic species (ntypx) = 10
     Max number of k-points (npk) =  40000
     Max angular momentum in pseudopotentials (lmaxx) =  4
     file Co.pbe-spn-kjpaw_psl.0.3.1.UPF: wavefunction(s)  3P 3D renormalized
     file O.pbe-n-kjpaw_psl.1.0.0.UPF: wavefunction(s)  2S 2P renormalized
 
     Subspace diagonalization in iterative solution of the eigenvalue problem:
     a serial algorithm will be used

 
     G-vector sticks info
     --------------------
     sticks:   dense  smooth     PW     G-vecs:    dense   smooth      PW
     Sum         931     475    139                81725    28863    4749
 
     Using Slab Decomposition
 


     bravais-lattice index     =            4
     lattice parameter (alat)  =       5.3290  a.u.
     unit-cell volume          =     460.1089 (a.u.)^3
     number of atoms/cell      =            4
     number of atomic types    =            3
     number of electrons       =        32.00
     number of Kohn-Sham states=           24
     kinetic-energy cutoff     =      60.0000  Ry
     charge density cutoff     =     480.0000  Ry
     scf convergence threshold =      1.0E-07
     mixing beta               =       0.3000
     number of iterations used =            8  local-TF  mixing
     Exchange-correlation= SLA  PW   PBX  PBC
                           (   1   4   3   4   0   0   0)

     GPU acceleration is ACTIVE.  1 visible GPUs per MPI rank
     GPU-aware MPI enabled


     GPU used by master process:

        Device Number: 0
        Device name: NVIDIA A100-SXM4-80GB
        Compute capability : 80
        Ratio of single to double precision performance  : 2
        Memory Clock Rate (KHz): 1593000
        Memory Bus Width (bits): 5120
        Peak Memory Bandwidth (GB/s): ******

     celldm(1)=   5.329028  celldm(2)=   0.000000  celldm(3)=   3.510638
     celldm(4)=   0.000000  celldm(5)=   0.000000  celldm(6)=   0.000000

     crystal axes: (cart. coord. in units of alat)
               a(1) = (   1.000000   0.000000   0.000000 )  
               a(2) = (  -0.500000   0.866025   0.000000 )  
               a(3) = (   0.000000   0.000000   3.510638 )  

     reciprocal axes: (cart. coord. in units 2 pi/alat)
               b(1) = (  1.000000  0.577350 -0.000000 )  
               b(2) = (  0.000000  1.154701  0.000000 )  
               b(3) = (  0.000000 -0.000000  0.284848 )  


     PseudoPot. # 1 for Co read from file:
     ../../pseudo/Co.pbe-spn-kjpaw_psl.0.3.1.UPF
     MD5 check sum: 3c0a43779828c046024e4f3be63f8e67
     Pseudo is Projector augmented-wave + core cor, Zval = 17.0
     Generated using &quot;atomic&quot; code by A. Dal Corso  v.6.2.2
     Shape of augmentation charge: PSQ
     Using radial grid of 1193 points,  6 beta functions with: 
                l(1) =   0
                l(2) =   0
                l(3) =   1
                l(4) =   1
                l(5) =   2
                l(6) =   2
     Q(r) pseudized with 0 coefficients 


     PseudoPot. # 2 for O  read from file:
     ../../pseudo/O.pbe-n-kjpaw_psl.1.0.0.UPF
     MD5 check sum: e99d9cef9b487d1ca56f5b95ecd0fd7a
     Pseudo is Projector augmented-wave + core cor, Zval =  6.0
     Generated using &quot;atomic&quot; code by A. Dal Corso  v.6.3
     Shape of augmentation charge: PSQ
     Using radial grid of 1095 points,  4 beta functions with: 
                l(1) =   0
                l(2) =   0
                l(3) =   1
                l(4) =   1
     Q(r) pseudized with 0 coefficients 


     PseudoPot. # 3 for Li read from file:
     ../../pseudo/Li.pbe-s-kjpaw_psl.1.0.0.UPF
     MD5 check sum: 3974953fb0fea6c4f83fb01d64ffc134
     Pseudo is Projector augmented-wave, Zval =  3.0
     Generated using &quot;atomic&quot; code by A. Dal Corso  v.6.3
     Shape of augmentation charge: PSQ
     Using radial grid of 1017 points,  4 beta functions with: 
                l(1) =   0
                l(2) =   0
                l(3) =   1
                l(4) =   1
     Q(r) pseudized with 0 coefficients 


     atomic species   valence    mass     pseudopotential
     Co               17.00    58.93300     Co( 1.00)
     O                 6.00    15.99900     O ( 1.00)
     Li                3.00     6.94100     Li( 1.00)

     Starting magnetic structure 
     atomic species   magnetization
     Co              0.300
     O               0.000
     Li              0.000

      6 Sym. Ops. (no inversion) found


                                    s                        frac. trans.

      isym =  1     identity                                     

 cryst.   s( 1) = (     1          0          0      )
                  (     0          1          0      )
                  (     0          0          1      )

 cart.    s( 1) = (  1.0000000  0.0000000  0.0000000 )
                  (  0.0000000  1.0000000  0.0000000 )
                  (  0.0000000  0.0000000  1.0000000 )


      isym =  2     120 deg rotation - cryst. axis [0,0,1]       

 cryst.   s( 2) = (     0          1          0      )
                  (    -1         -1          0      )
                  (     0          0          1      )

 cart.    s( 2) = ( -0.5000000 -0.8660254  0.0000000 )
                  (  0.8660254 -0.5000000  0.0000000 )
                  (  0.0000000  0.0000000  1.0000000 )


      isym =  3     120 deg rotation - cryst. axis [0,0,-1]      

 cryst.   s( 3) = (    -1         -1          0      )
                  (     1          0          0      )
                  (     0          0          1      )

 cart.    s( 3) = ( -0.5000000  0.8660254  0.0000000 )
                  ( -0.8660254 -0.5000000  0.0000000 )
                  (  0.0000000  0.0000000  1.0000000 )


      isym =  4     inv. 180 deg rotation - cart. axis [1,0,0]   

 cryst.   s( 4) = (    -1          0          0      )
                  (     1          1          0      )
                  (     0          0          1      )

 cart.    s( 4) = ( -1.0000000  0.0000000  0.0000000 )
                  (  0.0000000  1.0000000  0.0000000 )
                  (  0.0000000  0.0000000  1.0000000 )


      isym =  5     inv. 180 deg rotation - cryst. axis [0,1,0]  

 cryst.   s( 5) = (     1          1          0      )
                  (     0         -1          0      )
                  (     0          0          1      )

 cart.    s( 5) = (  0.5000000  0.8660254  0.0000000 )
                  (  0.8660254 -0.5000000  0.0000000 )
                  (  0.0000000  0.0000000  1.0000000 )


      isym =  6     inv. 180 deg rotation - cryst. axis [1,1,0]  

 cryst.   s( 6) = (     0         -1          0      )
                  (    -1          0          0      )
                  (     0          0          1      )

 cart.    s( 6) = (  0.5000000 -0.8660254  0.0000000 )
                  ( -0.8660254 -0.5000000  0.0000000 )
                  (  0.0000000  0.0000000  1.0000000 )


     point group C_3v (3m)  
     there are  3 classes
     the character table:

       E     2C3   3s_v 
A_1    1.00  1.00  1.00
A_2    1.00  1.00 -1.00
E      2.00 -1.00  0.00

     the symmetry operations in each class and the name of the first element:

     E        1
          identity                                               
     2C3      2    3
          120 deg rotation - cryst. axis [0,0,1]                 
     3s_v     4    5    6
          inv. 180 deg rotation - cart. axis [1,0,0]             

   Cartesian axes

     site n.     atom                  positions (alat units)
         1        Co     tau(   1) = (   0.0000000   0.0000000   0.0000000  )
         2        O      tau(   2) = (  -0.0000000   0.5773503   0.3404255  )
         3        O      tau(   3) = (   0.5000000   0.2886751   3.1702128  )
         4        Li     tau(   4) = (   0.0000000   0.0000000   2.1099291  )

   Crystallographic axes

     site n.     atom                  positions (cryst. coord.)
         1        Co     tau(   1) = (  0.0000000  0.0000000  0.0000000  )
         2        O      tau(   2) = (  0.3333333  0.6666667  0.0969697  )
         3        O      tau(   3) = (  0.6666667  0.3333333  0.9030303  )
         4        Li     tau(   4) = (  0.0000000  0.0000000  0.6010101  )

     number of k points=    25  Marzari-Vanderbilt smearing, width (Ry)=  0.0200
                       cart. coord. in units 2pi/alat
        k(    1) = (   0.0000000   0.0000000   0.0000000), wk =   0.0052083
        k(    2) = (   0.0000000   0.0000000   0.0949495), wk =   0.0104167
        k(    3) = (   0.0000000   0.1443376   0.0000000), wk =   0.0312500
        k(    4) = (   0.0000000   0.1443376   0.0949495), wk =   0.0312500
        k(    5) = (   0.0000000   0.2886751   0.0000000), wk =   0.0312500
        k(    6) = (   0.0000000   0.2886751   0.0949495), wk =   0.0312500
        k(    7) = (   0.0000000   0.4330127   0.0000000), wk =   0.0312500
        k(    8) = (   0.0000000   0.4330127   0.0949495), wk =   0.0312500
        k(    9) = (   0.0000000  -0.5773503   0.0000000), wk =   0.0156250
        k(   10) = (   0.0000000  -0.5773503   0.0949495), wk =   0.0312500
        k(   11) = (   0.1250000   0.2165064   0.0000000), wk =   0.0312500
        k(   12) = (   0.1250000   0.2165064   0.0949495), wk =   0.0625000
        k(   13) = (   0.1250000   0.3608439   0.0000000), wk =   0.0625000
        k(   14) = (   0.1250000   0.3608439   0.0949495), wk =   0.0625000
        k(   15) = (   0.1250000   0.5051815   0.0000000), wk =   0.0625000
        k(   16) = (   0.1250000   0.5051815   0.0949495), wk =   0.0625000
        k(   17) = (   0.2500000   0.4330127   0.0000000), wk =   0.0312500
        k(   18) = (   0.2500000   0.4330127   0.0949495), wk =   0.0625000
        k(   19) = (   0.2500000   0.5773503   0.0000000), wk =   0.0312500
        k(   20) = (   0.2500000   0.5773503   0.0949495), wk =   0.0625000
        k(   21) = (   0.0000000  -0.1443376   0.0949495), wk =   0.0312500
        k(   22) = (   0.0000000  -0.2886751   0.0949495), wk =   0.0312500
        k(   23) = (   0.0000000  -0.4330127   0.0949495), wk =   0.0312500
        k(   24) = (  -0.1250000  -0.3608439   0.0949495), wk =   0.0625000
        k(   25) = (  -0.1250000  -0.5051815   0.0949495), wk =   0.0625000

                       cryst. coord.
        k(    1) = (   0.0000000   0.0000000   0.0000000), wk =   0.0052083
        k(    2) = (   0.0000000   0.0000000   0.3333333), wk =   0.0104167
        k(    3) = (   0.0000000   0.1250000   0.0000000), wk =   0.0312500
        k(    4) = (   0.0000000   0.1250000   0.3333333), wk =   0.0312500
        k(    5) = (   0.0000000   0.2500000   0.0000000), wk =   0.0312500
        k(    6) = (   0.0000000   0.2500000   0.3333333), wk =   0.0312500
        k(    7) = (   0.0000000   0.3750000   0.0000000), wk =   0.0312500
        k(    8) = (   0.0000000   0.3750000   0.3333333), wk =   0.0312500
        k(    9) = (   0.0000000  -0.5000000   0.0000000), wk =   0.0156250
        k(   10) = (   0.0000000  -0.5000000   0.3333333), wk =   0.0312500
        k(   11) = (   0.1250000   0.1250000   0.0000000), wk =   0.0312500
        k(   12) = (   0.1250000   0.1250000   0.3333333), wk =   0.0625000
        k(   13) = (   0.1250000   0.2500000   0.0000000), wk =   0.0625000
        k(   14) = (   0.1250000   0.2500000   0.3333333), wk =   0.0625000
        k(   15) = (   0.1250000   0.3750000   0.0000000), wk =   0.0625000
        k(   16) = (   0.1250000   0.3750000   0.3333333), wk =   0.0625000
        k(   17) = (   0.2500000   0.2500000   0.0000000), wk =   0.0312500
        k(   18) = (   0.2500000   0.2500000   0.3333333), wk =   0.0625000
        k(   19) = (   0.2500000   0.3750000   0.0000000), wk =   0.0312500
        k(   20) = (   0.2500000   0.3750000   0.3333333), wk =   0.0625000
        k(   21) = (   0.0000000  -0.1250000   0.3333333), wk =   0.0312500
        k(   22) = (   0.0000000  -0.2500000   0.3333333), wk =   0.0312500
        k(   23) = (   0.0000000  -0.3750000   0.3333333), wk =   0.0312500
        k(   24) = (  -0.1250000  -0.2500000   0.3333333), wk =   0.0625000
        k(   25) = (  -0.1250000  -0.3750000   0.3333333), wk =   0.0625000

     Dense  grid:    81725 G-vectors     FFT dimensions: (  40,  40, 135)

     Smooth grid:    28863 G-vectors     FFT dimensions: (  27,  27,  96)

     Dynamical RAM for                 wfc:       1.32 MB

     Dynamical RAM for     wfc (w. buffer):      67.44 MB

     Dynamical RAM for           str. fact:       3.74 MB

     Dynamical RAM for           local pot:       0.00 MB

     Dynamical RAM for          nlocal pot:       2.31 MB

     Dynamical RAM for                qrad:       5.27 MB

     Dynamical RAM for          rho,v,vnew:      17.37 MB

     Dynamical RAM for               rhoin:       5.79 MB

     Dynamical RAM for            rho*nmix:      39.90 MB

     Dynamical RAM for           G-vectors:       4.90 MB

     Dynamical RAM for          h,s,v(r/c):       0.11 MB

     Dynamical RAM for          <psi|beta>:       0.02 MB

     Dynamical RAM for                 psi:       2.64 MB

     Dynamical RAM for                hpsi:       2.64 MB

     Dynamical RAM for                spsi:       2.64 MB

     Dynamical RAM for      wfcinit/wfcrot:       2.66 MB

     Dynamical RAM for           addusdens:     235.69 MB

     Dynamical RAM for          addusforce:     238.20 MB

     Estimated static dynamical RAM per process >     121.70 MB

     Estimated max dynamical RAM per process >     399.80 MB

     Check: negative core charge=   -0.000006
     Generating pointlists ...
     new r_m :   0.2765 (alat units)  1.4733 (a.u.) for type    1
     new r_m :   0.2765 (alat units)  1.4733 (a.u.) for type    2
     new r_m :   0.4125 (alat units)  2.1982 (a.u.) for type    3

     Initial potential from superposition of free atoms

     starting charge      31.9951, renormalised to      32.0000
     Starting wfcs are   23 randomized atomic wfcs +    1 random wfcs
     Checking if some PAW data can be deallocated... 

     total cpu time spent up to now is        3.4 secs

     Self-consistent Calculation
[tb_dev] Currently allocated     6.36E-01 Mbytes, locked:    0 /   6
[tb_pin] Currently allocated     0.00E+00 Mbytes, locked:    0 /   0

     iteration #  1     ecut=    60.00 Ry     beta= 0.30
     Davidson diagonalization with overlap

---- Real-time Memory Report at c_bands before calling an iterative solver
           694 MiB given to the printing process from OS
             0 MiB allocation reported by mallinfo(arena+hblkhd)
        847650 MiB available memory on the node where the printing process lives
     GPU memory used/free/total (MiB): 1094 / 80056 / 81151
------------------
     ethr =  1.00E-02,  avg # of iterations =  8.8

     total cpu time spent up to now is        5.4 secs

     total energy              =    -474.68290248 Ry
     estimated scf accuracy    <       1.89148662 Ry

     total magnetization       =     4.42 Bohr mag/cell
     absolute magnetization    =     4.44 Bohr mag/cell
[tb_dev] Currently allocated     3.05E-05 Mbytes, locked:    0 /   2
[tb_pin] Currently allocated     0.00E+00 Mbytes, locked:    0 /   0

     iteration #  2     ecut=    60.00 Ry     beta= 0.30
     Davidson diagonalization with overlap

---- Real-time Memory Report at c_bands before calling an iterative solver
           739 MiB given to the printing process from OS
             0 MiB allocation reported by mallinfo(arena+hblkhd)
        847609 MiB available memory on the node where the printing process lives
     GPU memory used/free/total (MiB): 1114 / 80036 / 81151
------------------
     ethr =  5.91E-03,  avg # of iterations =  1.9

     total cpu time spent up to now is        6.6 secs

     total energy              =    -474.78909117 Ry
     estimated scf accuracy    <       0.97971028 Ry

     total magnetization       =     3.32 Bohr mag/cell
     absolute magnetization    =     3.33 Bohr mag/cell
[tb_dev] Currently allocated     3.05E-05 Mbytes, locked:    0 /   2
[tb_pin] Currently allocated     0.00E+00 Mbytes, locked:    0 /   0

     iteration #  3     ecut=    60.00 Ry     beta= 0.30
     Davidson diagonalization with overlap

---- Real-time Memory Report at c_bands before calling an iterative solver
           741 MiB given to the printing process from OS
             0 MiB allocation reported by mallinfo(arena+hblkhd)
        847631 MiB available memory on the node where the printing process lives
     GPU memory used/free/total (MiB): 1114 / 80036 / 81151
------------------
     ethr =  3.06E-03,  avg # of iterations =  1.6

     total cpu time spent up to now is        7.7 secs

     total energy              =    -474.86943773 Ry
     estimated scf accuracy    <       0.55954732 Ry

     total magnetization       =     2.19 Bohr mag/cell
     absolute magnetization    =     2.23 Bohr mag/cell
[tb_dev] Currently allocated     3.05E-05 Mbytes, locked:    0 /   2
[tb_pin] Currently allocated     0.00E+00 Mbytes, locked:    0 /   0

     iteration #  4     ecut=    60.00 Ry     beta= 0.30
     Davidson diagonalization with overlap

---- Real-time Memory Report at c_bands before calling an iterative solver
           742 MiB given to the printing process from OS
             0 MiB allocation reported by mallinfo(arena+hblkhd)
        847632 MiB available memory on the node where the printing process lives
     GPU memory used/free/total (MiB): 1114 / 80036 / 81151
------------------
     ethr =  1.75E-03,  avg # of iterations =  1.4

     total cpu time spent up to now is        8.8 secs

     total energy              =    -474.91409515 Ry
     estimated scf accuracy    <       0.16934211 Ry

     total magnetization       =     1.79 Bohr mag/cell
     absolute magnetization    =     1.94 Bohr mag/cell
[tb_dev] Currently allocated     3.05E-05 Mbytes, locked:    0 /   2
[tb_pin] Currently allocated     0.00E+00 Mbytes, locked:    0 /   0

     iteration #  5     ecut=    60.00 Ry     beta= 0.30
     Davidson diagonalization with overlap

---- Real-time Memory Report at c_bands before calling an iterative solver
           745 MiB given to the printing process from OS
             0 MiB allocation reported by mallinfo(arena+hblkhd)
        847640 MiB available memory on the node where the printing process lives
     GPU memory used/free/total (MiB): 1114 / 80036 / 81151
------------------
     ethr =  5.29E-04,  avg # of iterations =  3.7

     total cpu time spent up to now is       10.2 secs

     total energy              =    -474.96982536 Ry
     estimated scf accuracy    <       0.08308441 Ry

     total magnetization       =     0.67 Bohr mag/cell
     absolute magnetization    =     1.01 Bohr mag/cell
[tb_dev] Currently allocated     3.05E-05 Mbytes, locked:    0 /   2
[tb_pin] Currently allocated     0.00E+00 Mbytes, locked:    0 /   0

     iteration #  6     ecut=    60.00 Ry     beta= 0.30
     Davidson diagonalization with overlap

---- Real-time Memory Report at c_bands before calling an iterative solver
           746 MiB given to the printing process from OS
             0 MiB allocation reported by mallinfo(arena+hblkhd)
        847684 MiB available memory on the node where the printing process lives
     GPU memory used/free/total (MiB): 1114 / 80036 / 81151
------------------
     ethr =  2.60E-04,  avg # of iterations =  4.2

     total cpu time spent up to now is       11.6 secs

     total energy              =    -474.98302558 Ry
     estimated scf accuracy    <       0.00978024 Ry

     total magnetization       =     0.64 Bohr mag/cell
     absolute magnetization    =     0.75 Bohr mag/cell
[tb_dev] Currently allocated     3.05E-05 Mbytes, locked:    0 /   2
[tb_pin] Currently allocated     0.00E+00 Mbytes, locked:    0 /   0

     iteration #  7     ecut=    60.00 Ry     beta= 0.30
     Davidson diagonalization with overlap

---- Real-time Memory Report at c_bands before calling an iterative solver
           748 MiB given to the printing process from OS
             0 MiB allocation reported by mallinfo(arena+hblkhd)
        847687 MiB available memory on the node where the printing process lives
     GPU memory used/free/total (MiB): 1114 / 80036 / 81151
------------------
     c_bands:  1 eigenvalues not converged
     c_bands:  1 eigenvalues not converged
     ethr =  3.06E-05,  avg # of iterations =  8.3

     total cpu time spent up to now is       13.6 secs

     total energy              =    -474.98662789 Ry
     estimated scf accuracy    <       0.00697982 Ry

     total magnetization       =     0.75 Bohr mag/cell
     absolute magnetization    =     0.83 Bohr mag/cell
[tb_dev] Currently allocated     3.05E-05 Mbytes, locked:    0 /   2
[tb_pin] Currently allocated     0.00E+00 Mbytes, locked:    0 /   0

     iteration #  8     ecut=    60.00 Ry     beta= 0.30
     Davidson diagonalization with overlap

---- Real-time Memory Report at c_bands before calling an iterative solver
           754 MiB given to the printing process from OS
             0 MiB allocation reported by mallinfo(arena+hblkhd)
        848052 MiB available memory on the node where the printing process lives
     GPU memory used/free/total (MiB): 1114 / 80036 / 81151
------------------
     ethr =  2.18E-05,  avg # of iterations =  1.7

     total cpu time spent up to now is       14.8 secs

     total energy              =    -474.98713154 Ry
     estimated scf accuracy    <       0.00333840 Ry

     total magnetization       =     0.81 Bohr mag/cell
     absolute magnetization    =     0.89 Bohr mag/cell
[tb_dev] Currently allocated     3.05E-05 Mbytes, locked:    0 /   2
[tb_pin] Currently allocated     0.00E+00 Mbytes, locked:    0 /   0

     iteration #  9     ecut=    60.00 Ry     beta= 0.30
     Davidson diagonalization with overlap

---- Real-time Memory Report at c_bands before calling an iterative solver
           756 MiB given to the printing process from OS
             0 MiB allocation reported by mallinfo(arena+hblkhd)
        847858 MiB available memory on the node where the printing process lives
     GPU memory used/free/total (MiB): 1114 / 80036 / 81151
------------------
     ethr =  1.04E-05,  avg # of iterations =  2.9

     total cpu time spent up to now is       16.1 secs

     total energy              =    -474.98759380 Ry
     estimated scf accuracy    <       0.00136144 Ry

     total magnetization       =     0.78 Bohr mag/cell
     absolute magnetization    =     0.86 Bohr mag/cell
[tb_dev] Currently allocated     3.05E-05 Mbytes, locked:    0 /   2
[tb_pin] Currently allocated     0.00E+00 Mbytes, locked:    0 /   0

     iteration # 10     ecut=    60.00 Ry     beta= 0.30
     Davidson diagonalization with overlap

---- Real-time Memory Report at c_bands before calling an iterative solver
           758 MiB given to the printing process from OS
             0 MiB allocation reported by mallinfo(arena+hblkhd)
        847861 MiB available memory on the node where the printing process lives
     GPU memory used/free/total (MiB): 1114 / 80036 / 81151
------------------
     ethr =  4.25E-06,  avg # of iterations =  4.1

     total cpu time spent up to now is       17.5 secs

     total energy              =    -474.98781368 Ry
     estimated scf accuracy    <       0.00179537 Ry

     total magnetization       =     0.79 Bohr mag/cell
     absolute magnetization    =     0.90 Bohr mag/cell
[tb_dev] Currently allocated     3.05E-05 Mbytes, locked:    0 /   2
[tb_pin] Currently allocated     0.00E+00 Mbytes, locked:    0 /   0

     iteration # 11     ecut=    60.00 Ry     beta= 0.30
     Davidson diagonalization with overlap

---- Real-time Memory Report at c_bands before calling an iterative solver
           759 MiB given to the printing process from OS
             0 MiB allocation reported by mallinfo(arena+hblkhd)
        847857 MiB available memory on the node where the printing process lives
     GPU memory used/free/total (MiB): 1114 / 80036 / 81151
------------------
     ethr =  4.25E-06,  avg # of iterations =  1.5

     total cpu time spent up to now is       18.6 secs

     total energy              =    -474.98798587 Ry
     estimated scf accuracy    <       0.00010883 Ry

     total magnetization       =     0.77 Bohr mag/cell
     absolute magnetization    =     0.90 Bohr mag/cell
[tb_dev] Currently allocated     3.05E-05 Mbytes, locked:    0 /   2
[tb_pin] Currently allocated     0.00E+00 Mbytes, locked:    0 /   0

     iteration # 12     ecut=    60.00 Ry     beta= 0.30
     Davidson diagonalization with overlap

---- Real-time Memory Report at c_bands before calling an iterative solver
           759 MiB given to the printing process from OS
             0 MiB allocation reported by mallinfo(arena+hblkhd)
        847522 MiB available memory on the node where the printing process lives
     GPU memory used/free/total (MiB): 1114 / 80036 / 81151
------------------
     ethr =  3.40E-07,  avg # of iterations =  6.7

     total cpu time spent up to now is       20.4 secs

     total energy              =    -474.98806306 Ry
     estimated scf accuracy    <       0.00005818 Ry

     total magnetization       =     0.76 Bohr mag/cell
     absolute magnetization    =     0.91 Bohr mag/cell
[tb_dev] Currently allocated     3.05E-05 Mbytes, locked:    0 /   2
[tb_pin] Currently allocated     0.00E+00 Mbytes, locked:    0 /   0

     iteration # 13     ecut=    60.00 Ry     beta= 0.30
     Davidson diagonalization with overlap

---- Real-time Memory Report at c_bands before calling an iterative solver
           759 MiB given to the printing process from OS
             0 MiB allocation reported by mallinfo(arena+hblkhd)
        847424 MiB available memory on the node where the printing process lives
     GPU memory used/free/total (MiB): 1114 / 80036 / 81151
------------------
     ethr =  1.82E-07,  avg # of iterations =  1.8

     total cpu time spent up to now is       21.6 secs

     total energy              =    -474.98806845 Ry
     estimated scf accuracy    <       0.00001376 Ry

     total magnetization       =     0.76 Bohr mag/cell
     absolute magnetization    =     0.91 Bohr mag/cell
[tb_dev] Currently allocated     3.05E-05 Mbytes, locked:    0 /   2
[tb_pin] Currently allocated     0.00E+00 Mbytes, locked:    0 /   0

     iteration # 14     ecut=    60.00 Ry     beta= 0.30
     Davidson diagonalization with overlap

---- Real-time Memory Report at c_bands before calling an iterative solver
           759 MiB given to the printing process from OS
             0 MiB allocation reported by mallinfo(arena+hblkhd)
        847854 MiB available memory on the node where the printing process lives
     GPU memory used/free/total (MiB): 1114 / 80036 / 81151
------------------
     c_bands:  1 eigenvalues not converged
     ethr =  4.30E-08,  avg # of iterations =  4.9

     total cpu time spent up to now is       23.2 secs

     total energy              =    -474.98807562 Ry
     estimated scf accuracy    <       0.00000140 Ry

     total magnetization       =     0.75 Bohr mag/cell
     absolute magnetization    =     0.91 Bohr mag/cell
[tb_dev] Currently allocated     3.05E-05 Mbytes, locked:    0 /   2
[tb_pin] Currently allocated     0.00E+00 Mbytes, locked:    0 /   0

     iteration # 15     ecut=    60.00 Ry     beta= 0.30
     Davidson diagonalization with overlap

---- Real-time Memory Report at c_bands before calling an iterative solver
           759 MiB given to the printing process from OS
             0 MiB allocation reported by mallinfo(arena+hblkhd)
        847585 MiB available memory on the node where the printing process lives
     GPU memory used/free/total (MiB): 1114 / 80036 / 81151
------------------
     ethr =  4.36E-09,  avg # of iterations =  5.4

     total cpu time spent up to now is       24.8 secs

     total energy              =    -474.98807709 Ry
     estimated scf accuracy    <       0.00000085 Ry

     total magnetization       =     0.75 Bohr mag/cell
     absolute magnetization    =     0.91 Bohr mag/cell
[tb_dev] Currently allocated     3.05E-05 Mbytes, locked:    0 /   2
[tb_pin] Currently allocated     0.00E+00 Mbytes, locked:    0 /   0

     iteration # 16     ecut=    60.00 Ry     beta= 0.30
     Davidson diagonalization with overlap

---- Real-time Memory Report at c_bands before calling an iterative solver
           759 MiB given to the printing process from OS
             0 MiB allocation reported by mallinfo(arena+hblkhd)
        847567 MiB available memory on the node where the printing process lives
     GPU memory used/free/total (MiB): 1114 / 80036 / 81151
------------------
     ethr =  2.67E-09,  avg # of iterations =  2.4

     total cpu time spent up to now is       26.1 secs

     total energy              =    -474.98807809 Ry
     estimated scf accuracy    <       0.00000036 Ry

     total magnetization       =     0.75 Bohr mag/cell
     absolute magnetization    =     0.91 Bohr mag/cell
[tb_dev] Currently allocated     3.05E-05 Mbytes, locked:    0 /   2
[tb_pin] Currently allocated     0.00E+00 Mbytes, locked:    0 /   0

     iteration # 17     ecut=    60.00 Ry     beta= 0.30
     Davidson diagonalization with overlap

---- Real-time Memory Report at c_bands before calling an iterative solver
           759 MiB given to the printing process from OS
             0 MiB allocation reported by mallinfo(arena+hblkhd)
        847537 MiB available memory on the node where the printing process lives
     GPU memory used/free/total (MiB): 1114 / 80036 / 81151
------------------
     ethr =  1.11E-09,  avg # of iterations =  2.4
 
     Magnetic moment per site  (integrated on atomic sphere of radius R)
     atom   1 (R=0.276)  charge= 14.0146  magn=  0.6175
     atom   2 (R=0.276)  charge=  5.1504  magn=  0.0802
     atom   3 (R=0.276)  charge=  5.1701  magn=  0.0655
     atom   4 (R=0.413)  charge=  2.3340  magn= -0.0367

     total cpu time spent up to now is       27.3 secs

     End of self-consistent calculation

 ------ SPIN UP ------------


          k = 0.0000 0.0000 0.0000 (  3635 PWs)   bands (ev):

   -93.1534 -56.3947 -56.3464 -56.3464 -44.3669 -16.8622 -14.7980  -3.0905
    -2.5707  -2.5707   0.4424   1.0529   1.0529   1.3723   1.3920   1.3920
     2.4943   4.8175   5.2827   5.2827   8.8022  12.1915  12.5169  15.2190

     occupation numbers 
     1.0000   1.0000   1.0000   1.0000   1.0000   1.0000   1.0000   1.0000
     1.0000   1.0000   1.0000   1.0000   1.0000   1.0000   1.0000   1.0000
     1.0832   0.0000   0.0000   0.0000   0.0000   0.0000   0.0000   0.0000

          k = 0.0000 0.0000 0.0949 (  3682 PWs)   bands (ev):

   -93.1534 -56.3950 -56.3465 -56.3465 -44.3670 -16.8623 -14.7980  -3.0894
    -2.5707  -2.5707   0.3884   1.0529   1.0529   1.3919   1.3919   1.4828
     2.4543   4.7395   5.2825   5.2825   9.1460  11.1715  13.2347  15.4201

     occupation numbers 
     1.0000   1.0000   1.0000   1.0000   1.0000   1.0000   1.0000   1.0000
     1.0000   1.0000   1.0000   1.0000   1.0000   1.0000   1.0000   1.0000
     1.0801   0.0000   0.0000   0.0000   0.0000   0.0000   0.0000   0.0000

          k = 0.0000 0.1443 0.0000 (  3637 PWs)   bands (ev):

   -93.1524 -56.3932 -56.3571 -56.3489 -44.3627 -16.6714 -14.8023  -2.9019
    -2.7292  -2.4478   0.0442   0.4354   0.8131   1.5211   1.6738   1.9015
     2.5772   4.7021   5.1775   5.2782   9.2406  12.6888  12.9850  15.5273

     occupation numbers 
     1.0000   1.0000   1.0000   1.0000   1.0000   1.0000   1.0000   1.0000
     1.0000   1.0000   1.0000   1.0000   1.0000   1.0000   1.0000   1.0001
     1.0492   0.0000   0.0000   0.0000   0.0000   0.0000   0.0000   0.0000

          k = 0.0000 0.1443 0.0949 (  3638 PWs)   bands (ev):

   -93.1524 -56.3933 -56.3570 -56.3490 -44.3627 -16.6714 -14.8023  -2.9011
    -2.7290  -2.4478   0.0446   0.4354   0.7640   1.5332   1.7633   1.9015
     2.5333   4.7500   5.1691   5.1775   9.5326  11.6911  13.8678  15.4829

     occupation numbers 
     1.0000   1.0000   1.0000   1.0000   1.0000   1.0000   1.0000   1.0000
     1.0000   1.0000   1.0000   1.0000   1.0000   1.0000   1.0000   1.0001
     1.0754   0.0000   0.0000   0.0000   0.0000   0.0000   0.0000   0.0000

          k = 0.0000 0.2887 0.0000 (  3607 PWs)   bands (ev):

   -93.1498 -56.3893 -56.3829 -56.3550 -44.3525 -16.1702 -14.8258  -3.0392
    -2.3382  -2.1632  -1.3652  -0.1288   1.1611   1.6692   2.1103   2.1544
     2.5525   4.1620   5.0524   6.2285  10.2827  12.5577  14.0630  14.4486

     occupation numbers 
     1.0000   1.0000   1.0000   1.0000   1.0000   1.0000   1.0000   1.0000
     1.0000   1.0000   1.0000   1.0000   1.0000   1.0000   1.0035   1.0064
     1.0665   0.0000   0.0000   0.0000   0.0000   0.0000   0.0000   0.0000

          k = 0.0000 0.2887 0.0949 (  3619 PWs)   bands (ev):

   -93.1499 -56.3895 -56.3829 -56.3550 -44.3525 -16.1702 -14.8259  -3.0395
    -2.3376  -2.1632  -1.3648  -0.1288   1.1542   1.6547   2.1103   2.2108
     2.5051   4.2048   5.0525   6.1621  10.4666  12.3213  13.6569  15.2437

     occupation numbers 
     1.0000   1.0000   1.0000   1.0000   1.0000   1.0000   1.0000   1.0000
     1.0000   1.0000   1.0000   1.0000   1.0000   1.0000   1.0035   1.0130
     1.0822   0.0000   0.0000   0.0000   0.0000   0.0000   0.0000   0.0000

          k = 0.0000 0.4330 0.0000 (  3602 PWs)   bands (ev):

   -93.1473 -56.4091 -56.3854 -56.3611 -44.3423 -15.5703 -14.8981  -3.4984
    -2.3507  -1.9632  -1.3234  -0.2475   0.6454   1.5491   1.8149   2.1162
     3.3463   4.4149   5.0967   7.8579   9.5489  12.2784  13.8943  14.8389

     occupation numbers 
     1.0000   1.0000   1.0000   1.0000   1.0000   1.0000   1.0000   1.0000
     1.0000   1.0000   1.0000   1.0000   1.0000   1.0000   1.0000   1.0038
     0.0013   0.0000   0.0000   0.0000   0.0000   0.0000   0.0000   0.0000

          k = 0.0000 0.4330 0.0949 (  3600 PWs)   bands (ev):

   -93.1473 -56.4092 -56.3853 -56.3611 -44.3423 -15.5703 -14.8981  -3.4984
    -2.3507  -1.9632  -1.3231  -0.2474   0.6463   1.5485   1.8149   2.1172
     3.3303   4.4377   5.0968   7.8384   9.5490  12.3347  14.0303  14.3793

     occupation numbers 
     1.0000   1.0000   1.0000   1.0000   1.0000   1.0000   1.0000   1.0000
     1.0000   1.0000   1.0000   1.0000   1.0000   1.0000   1.0000   1.0038
     0.0017   0.0000   0.0000   0.0000   0.0000   0.0000   0.0000   0.0000

          k = 0.0000-0.5774 0.0000 (  3610 PWs)   bands (ev):

   -93.1463 -56.4199 -56.3838 -56.3637 -44.3381 -15.1975 -15.0328  -3.9092
    -2.1404  -1.9344  -1.1681  -0.1247   0.3964   1.2760   1.5460   2.0339
     4.1192   4.6350   5.1500   8.1092   9.7901  11.2820  14.1937  14.5754

     occupation numbers 
     1.0000   1.0000   1.0000   1.0000   1.0000   1.0000   1.0000   1.0000
     1.0000   1.0000   1.0000   1.0000   1.0000   1.0000   1.0000   1.0010
     0.0000   0.0000   0.0000   0.0000   0.0000   0.0000   0.0000   0.0000

          k = 0.0000-0.5774 0.0949 (  3582 PWs)   bands (ev):

   -93.1463 -56.4199 -56.3837 -56.3636 -44.3381 -15.1975 -15.0328  -3.9092
    -2.1403  -1.9344  -1.1682  -0.1246   0.3974   1.2758   1.5460   2.0336
     4.1106   4.6441   5.1501   8.1024   9.8147  11.2839  14.0374  14.5862

     occupation numbers 
     1.0000   1.0000   1.0000   1.0000   1.0000   1.0000   1.0000   1.0000
     1.0000   1.0000   1.0000   1.0000   1.0000   1.0000   1.0000   1.0010
     0.0000   0.0000   0.0000   0.0000   0.0000   0.0000   0.0000   0.0000

          k = 0.1250 0.2165 0.0000 (  3623 PWs)   bands (ev):

   -93.1506 -56.3905 -56.3742 -56.3544 -44.3555 -16.3250 -14.8154  -2.9478
    -2.4749  -2.2856  -0.8312  -0.3032   1.2138   1.6181   1.9469   2.2594
     2.5460   4.3569   4.8962   5.9175   9.9972  13.1795  13.8491  14.2725

     occupation numbers 
     1.0000   1.0000   1.0000   1.0000   1.0000   1.0000   1.0000   1.0000
     1.0000   1.0000   1.0000   1.0000   1.0000   1.0000   1.0002   1.0222
     1.0699   0.0000   0.0000   0.0000   0.0000   0.0000   0.0000   0.0000

          k = 0.1250 0.2165 0.0949 (  3623 PWs)   bands (ev):

   -93.1506 -56.3905 -56.3742 -56.3544 -44.3555 -16.3250 -14.8155  -2.9481
    -2.4741  -2.2856  -0.8307  -0.3032   1.1877   1.6176   1.9784   2.2927
     2.5094   4.3894   4.8785   5.8704  10.1681  12.5319  14.2529  14.6806

     occupation numbers 
     1.0000   1.0000   1.0000   1.0000   1.0000   1.0000   1.0000   1.0000
     1.0000   1.0000   1.0000   1.0000   1.0000   1.0000   1.0004   1.0306
     1.0816   0.0000   0.0000   0.0000   0.0000   0.0000   0.0000   0.0000

          k = 0.1250 0.3608 0.0000 (  3612 PWs)   bands (ev):

   -93.1481 -56.3976 -56.3866 -56.3632 -44.3453 -15.7741 -14.8558  -3.0766
    -2.5152  -1.8951  -1.4226  -0.7131   0.9677   1.6468   1.9906   2.3403
     2.9983   4.3459   4.7911   7.2261  10.6585  11.6030  13.4829  15.0902

     occupation numbers 
     1.0000   1.0000   1.0000   1.0000   1.0000   1.0000   1.0000   1.0000
     1.0000   1.0000   1.0000   1.0000   1.0000   1.0000   1.0005   1.0453
     0.1504   0.0000   0.0000   0.0000   0.0000   0.0000   0.0000   0.0000

          k = 0.1250 0.3608 0.0949 (  3609 PWs)   bands (ev):

   -93.1481 -56.3976 -56.3866 -56.3632 -44.3453 -15.7741 -14.8558  -3.0767
    -2.5152  -1.8949  -1.4221  -0.7131   0.9671   1.6467   1.9929   2.3358
     2.9920   4.3724   4.7821   7.2051  10.6810  11.6386  13.3759  14.9565

     occupation numbers 
     1.0000   1.0000   1.0000   1.0000   1.0000   1.0000   1.0000   1.0000
     1.0000   1.0000   1.0000   1.0000   1.0000   1.0000   1.0005   1.0438
     0.1594   0.0000   0.0000   0.0000   0.0000   0.0000   0.0000   0.0000

          k = 0.1250 0.5052 0.0000 (  3591 PWs)   bands (ev):

   -93.1463 -56.4140 -56.3837 -56.3696 -44.3381 -15.2796 -14.9522  -3.6011
    -2.5341  -1.6420  -1.1236  -0.7014   0.3497   1.3975   1.7082   2.2482
     4.1097   4.5931   4.8976   8.3419   9.2878  12.4290  12.7651  14.0179

     occupation numbers 
     1.0000   1.0000   1.0000   1.0000   1.0000   1.0000   1.0000   1.0000
     1.0000   1.0000   1.0000   1.0000   1.0000   1.0000   1.0000   1.0198
     0.0000   0.0000   0.0000   0.0000   0.0000   0.0000   0.0000   0.0000

          k = 0.1250 0.5052 0.0949 (  3600 PWs)   bands (ev):

   -93.1463 -56.4140 -56.3838 -56.3696 -44.3381 -15.2797 -14.9522  -3.6011
    -2.5341  -1.6420  -1.1236  -0.7015   0.3502   1.3974   1.7084   2.2477
     4.1015   4.6056   4.8933   8.3398   9.2883  12.4333  12.7624  14.1353

     occupation numbers 
     1.0000   1.0000   1.0000   1.0000   1.0000   1.0000   1.0000   1.0000
     1.0000   1.0000   1.0000   1.0000   1.0000   1.0000   1.0000   1.0197
     0.0000   0.0000   0.0000   0.0000   0.0000   0.0000   0.0000   0.0000

          k = 0.2500 0.4330 0.0000 (  3605 PWs)   bands (ev):

   -93.1463 -56.4058 -56.3839 -56.3778 -44.3381 -15.3330 -14.9004  -3.0215
    -2.8712  -1.8026  -1.1676  -0.9946   0.3608   1.4706   1.8269   2.4523
     4.0793   4.5545   4.6427   8.7186   8.9339  11.6936  13.6060  14.6782

     occupation numbers 
     1.0000   1.0000   1.0000   1.0000   1.0000   1.0000   1.0000   1.0000
     1.0000   1.0000   1.0000   1.0000   1.0000   1.0000   1.0000   1.0798
     0.0000   0.0000   0.0000   0.0000   0.0000   0.0000   0.0000   0.0000

          k = 0.2500 0.4330 0.0949 (  3614 PWs)   bands (ev):

   -93.1463 -56.4059 -56.3839 -56.3778 -44.3381 -15.3331 -14.9004  -3.0215
    -2.8713  -1.8026  -1.1676  -0.9944   0.3608   1.4707   1.8272   2.4506
     4.0888   4.5412   4.6453   8.7204   8.9440  11.6711  13.5941  14.7220

     occupation numbers 
     1.0000   1.0000   1.0000   1.0000   1.0000   1.0000   1.0000   1.0000
     1.0000   1.0000   1.0000   1.0000   1.0000   1.0000   1.0000   1.0794
     0.0000   0.0000   0.0000   0.0000   0.0000   0.0000   0.0000   0.0000

          k = 0.2500 0.5774 0.0000 (  3600 PWs)   bands (ev):

   -93.1455 -56.4064 -56.3866 -56.3827 -44.3351 -15.1142 -14.9441  -3.1817
    -2.7913  -1.9754  -0.9935  -0.7558  -0.1026   1.1542   2.0572   2.3423
     4.5270   4.5560   5.3341   7.1365  10.6686  11.6493  12.4135  14.8163

     occupation numbers 
     1.0000   1.0000   1.0000   1.0000   1.0000   1.0000   1.0000   1.0000
     1.0000   1.0000   1.0000   1.0000   1.0000   1.0000   1.0015   1.0459
     0.0000   0.0000   0.0000   0.0000   0.0000   0.0000   0.0000   0.0000

          k = 0.2500 0.5774 0.0949 (  3599 PWs)   bands (ev):

   -93.1455 -56.4064 -56.3867 -56.3826 -44.3351 -15.1142 -14.9441  -3.1818
    -2.7913  -1.9755  -0.9934  -0.7558  -0.1024   1.1542   2.0573   2.3419
     4.5313   4.5563   5.3285   7.1337  10.6754  11.6457  12.4384  14.8011

     occupation numbers 
     1.0000   1.0000   1.0000   1.0000   1.0000   1.0000   1.0000   1.0000
     1.0000   1.0000   1.0000   1.0000   1.0000   1.0000   1.0015   1.0458
     0.0000   0.0000   0.0000   0.0000   0.0000   0.0000   0.0000   0.0000

          k = 0.0000-0.1443 0.0949 (  3638 PWs)   bands (ev):

   -93.1524 -56.3933 -56.3570 -56.3490 -44.3627 -16.6714 -14.8023  -2.9009
    -2.7291  -2.4478   0.0438   0.4354   0.7654   1.5355   1.7585   1.9015
     2.5383   4.7071   5.1775   5.2154   9.5055  11.7281  13.8619  15.4461

     occupation numbers 
     1.0000   1.0000   1.0000   1.0000   1.0000   1.0000   1.0000   1.0000
     1.0000   1.0000   1.0000   1.0000   1.0000   1.0000   1.0000   1.0001
     1.0734   0.0000   0.0000   0.0000   0.0000   0.0000   0.0000   0.0000

          k = 0.0000-0.2887 0.0949 (  3619 PWs)   bands (ev):

   -93.1499 -56.3895 -56.3829 -56.3550 -44.3525 -16.1702 -14.8258  -3.0394
    -2.3378  -2.1632  -1.3646  -0.1288   1.1501   1.6604   2.1104   2.1841
     2.5482   4.1602   5.0524   6.2121  10.3483  12.4687  13.6923  15.1499

     occupation numbers 
     1.0000   1.0000   1.0000   1.0000   1.0000   1.0000   1.0000   1.0000
     1.0000   1.0000   1.0000   1.0000   1.0000   1.0000   1.0035   1.0094
     1.0688   0.0000   0.0000   0.0000   0.0000   0.0000   0.0000   0.0000

          k = 0.0000-0.4330 0.0949 (  3600 PWs)   bands (ev):

   -93.1473 -56.4092 -56.3853 -56.3611 -44.3423 -15.5703 -14.8981  -3.4984
    -2.3508  -1.9632  -1.3229  -0.2474   0.6451   1.5495   1.8150   2.1142
     3.3487   4.4115   5.0967   7.8808   9.5318  12.1880  13.9471  14.8391

     occupation numbers 
     1.0000   1.0000   1.0000   1.0000   1.0000   1.0000   1.0000   1.0000
     1.0000   1.0000   1.0000   1.0000   1.0000   1.0000   1.0000   1.0037
     0.0012   0.0000   0.0000   0.0000   0.0000   0.0000   0.0000   0.0000

          k =-0.1250-0.3608 0.0949 (  3609 PWs)   bands (ev):

   -93.1481 -56.3976 -56.3866 -56.3632 -44.3453 -15.7741 -14.8558  -3.0767
    -2.5152  -1.8950  -1.4219  -0.7131   0.9660   1.6475   1.9939   2.3287
     3.0095   4.3451   4.7901   7.2294  10.6366  11.6154  13.4634  14.9686

     occupation numbers 
     1.0000   1.0000   1.0000   1.0000   1.0000   1.0000   1.0000   1.0000
     1.0000   1.0000   1.0000   1.0000   1.0000   1.0000   1.0005   1.0414
     0.1353   0.0000   0.0000   0.0000   0.0000   0.0000   0.0000   0.0000

          k =-0.1250-0.5052 0.0949 (  3600 PWs)   bands (ev):

   -93.1463 -56.4140 -56.3838 -56.3696 -44.3381 -15.2797 -14.9522  -3.6011
    -2.5341  -1.6420  -1.1235  -0.7014   0.3498   1.3976   1.7084   2.2471
     4.1121   4.5905   4.8961   8.3361   9.3159  12.3891  12.7143  14.0533

     occupation numbers 
     1.0000   1.0000   1.0000   1.0000   1.0000   1.0000   1.0000   1.0000
     1.0000   1.0000   1.0000   1.0000   1.0000   1.0000   1.0000   1.0196
     0.0000   0.0000   0.0000   0.0000   0.0000   0.0000   0.0000   0.0000

 ------ SPIN DOWN ----------


          k = 0.0000 0.0000 0.0000 (  3635 PWs)   bands (ev):

   -92.3907 -55.6596 -55.6596 -55.5389 -44.3893 -16.7441 -14.6665  -2.7535
    -2.3208  -2.3208   0.5391   1.3241   1.4864   1.4864   1.6995   1.6995
     3.3399   4.7451   5.6118   5.6118   8.8066  12.2841  12.5862  15.2451

     occupation numbers 
     1.0000   1.0000   1.0000   1.0000   1.0000   1.0000   1.0000   1.0000
     1.0000   1.0000   1.0000   1.0000   1.0000   1.0000   1.0000   1.0000
     0.0014   0.0000   0.0000   0.0000   0.0000   0.0000   0.0000   0.0000

          k = 0.0000 0.0000 0.0949 (  3682 PWs)   bands (ev):

   -92.3908 -55.6597 -55.6597 -55.5391 -44.3894 -16.7441 -14.6665  -2.7517
    -2.3208  -2.3208   0.4654   1.4489   1.4863   1.4863   1.6995   1.6995
     3.2929   4.6790   5.6116   5.6116   9.1475  11.2429  13.3241  15.4691

     occupation numbers 
     1.0000   1.0000   1.0000   1.0000   1.0000   1.0000   1.0000   1.0000
     1.0000   1.0000   1.0000   1.0000   1.0000   1.0000   1.0000   1.0000
     0.0032   0.0000   0.0000   0.0000   0.0000   0.0000   0.0000   0.0000

          k = 0.0000 0.1443 0.0000 (  3637 PWs)   bands (ev):

   -92.3897 -55.6707 -55.6622 -55.5373 -44.3851 -16.5524 -14.6699  -2.6073
    -2.4497  -2.2055   0.2967   0.7674   0.9056   1.5712   2.1229   2.3320
     3.3744   4.8767   5.3663   5.4982   9.2395  12.7678  13.0574  15.5542

     occupation numbers 
     1.0000   1.0000   1.0000   1.0000   1.0000   1.0000   1.0000   1.0000
     1.0000   1.0000   1.0000   1.0000   1.0000   1.0000   1.0041   1.0425
     0.0007   0.0000   0.0000   0.0000   0.0000   0.0000   0.0000   0.0000

          k = 0.0000 0.1443 0.0949 (  3638 PWs)   bands (ev):

   -92.3897 -55.6707 -55.6623 -55.5373 -44.3851 -16.5524 -14.6699  -2.6067
    -2.4489  -2.2055   0.2980   0.7674   0.8373   1.6720   2.1328   2.3320
     3.3318   4.9259   5.2620   5.4982   9.5311  11.7573  13.9566  15.5190

     occupation numbers 
     1.0000   1.0000   1.0000   1.0000   1.0000   1.0000   1.0000   1.0000
     1.0000   1.0000   1.0000   1.0000   1.0000   1.0000   1.0048   1.0425
     0.0016   0.0000   0.0000   0.0000   0.0000   0.0000   0.0000   0.0000

          k = 0.0000 0.2887 0.0000 (  3607 PWs)   bands (ev):

   -92.3870 -55.6976 -55.6685 -55.5330 -44.3748 -16.0490 -14.6914  -2.8210
    -2.0468  -1.9388  -1.1279   0.1462   1.3613   2.0347   2.3422   2.6471
     3.2425   4.5089   5.3555   6.1741  10.2644  12.4794  14.1169  14.4784

     occupation numbers 
     1.0000   1.0000   1.0000   1.0000   1.0000   1.0000   1.0000   1.0000
     1.0000   1.0000   1.0000   1.0000   1.0000   1.0010   1.0459   0.9608
     0.0073   0.0000   0.0000   0.0000   0.0000   0.0000   0.0000   0.0000

          k = 0.0000 0.2887 0.0949 (  3619 PWs)   bands (ev):

   -92.3870 -55.6976 -55.6685 -55.5331 -44.3748 -16.0490 -14.6914  -2.8213
    -2.0461  -1.9388  -1.1270   0.1462   1.3435   2.0323   2.3737   2.6471
     3.2191   4.5624   5.3556   6.0938  10.4496  12.2834  13.6304  15.3259

     occupation numbers 
     1.0000   1.0000   1.0000   1.0000   1.0000   1.0000   1.0000   1.0000
     1.0000   1.0000   1.0000   1.0000   1.0000   1.0010   1.0567   0.9608
     0.0104   0.0000   0.0000   0.0000   0.0000   0.0000   0.0000   0.0000

          k = 0.0000 0.4330 0.0000 (  3602 PWs)   bands (ev):

   -92.3844 -55.7246 -55.6748 -55.5290 -44.3645 -15.4465 -14.7616  -3.3079
    -2.2086  -1.7436  -0.9761  -0.0688   0.8610   2.2500   2.4691   2.8371
     3.2094   4.7981   5.3980   7.7901   9.4047  12.2648  13.8431  14.7115

     occupation numbers 
     1.0000   1.0000   1.0000   1.0000   1.0000   1.0000   1.0000   1.0000
     1.0000   1.0000   1.0000   1.0000   1.0000   1.0202   1.0823   0.4925
     0.0120   0.0000   0.0000   0.0000   0.0000   0.0000   0.0000   0.0000

          k = 0.0000 0.4330 0.0949 (  3600 PWs)   bands (ev):

   -92.3844 -55.7246 -55.6748 -55.5289 -44.3645 -15.4465 -14.7616  -3.3080
    -2.2087  -1.7436  -0.9757  -0.0687   0.8621   2.2477   2.4691   2.8423
     3.1946   4.8194   5.3980   7.7670   9.4047  12.3215  13.9742  14.4083

     occupation numbers 
     1.0000   1.0000   1.0000   1.0000   1.0000   1.0000   1.0000   1.0000
     1.0000   1.0000   1.0000   1.0000   1.0000   1.0197   1.0823   0.4786
     0.0149   0.0000   0.0000   0.0000   0.0000   0.0000   0.0000   0.0000

          k = 0.0000-0.5774 0.0000 (  3610 PWs)   bands (ev):

   -92.3833 -55.7358 -55.6775 -55.5273 -44.3602 -15.0783 -14.8894  -3.7365
    -2.0328  -1.7091  -0.8185  -0.0323   0.5845   2.1187   2.2829   2.7233
     3.9421   5.0249   5.4554   7.9777   9.7297  11.1827  14.2229  14.5588

     occupation numbers 
     1.0000   1.0000   1.0000   1.0000   1.0000   1.0000   1.0000   1.0000
     1.0000   1.0000   1.0000   1.0000   1.0000   1.0039   1.0279   0.7996
     0.0000   0.0000   0.0000   0.0000   0.0000   0.0000   0.0000   0.0000

          k = 0.0000-0.5774 0.0949 (  3582 PWs)   bands (ev):

   -92.3833 -55.7357 -55.6774 -55.5272 -44.3602 -15.0783 -14.8894  -3.7364
    -2.0327  -1.7090  -0.8186  -0.0322   0.5857   2.1182   2.2829   2.7229
     3.9374   5.0308   5.4554   7.9706   9.7548  11.1838  14.0452  14.3531

     occupation numbers 
     1.0000   1.0000   1.0000   1.0000   1.0000   1.0000   1.0000   1.0000
     1.0000   1.0000   1.0000   1.0000   1.0000   1.0039   1.0279   0.8007
     0.0000   0.0000   0.0000   0.0000   0.0000   0.0000   0.0000   0.0000

          k = 0.1250 0.2165 0.0000 (  3623 PWs)   bands (ev):

   -92.3878 -55.6884 -55.6679 -55.5343 -44.3778 -16.2046 -14.6816  -2.7275
    -2.1545  -2.0515  -0.6125  -0.0242   1.3470   1.9377   2.2561   2.7040
     3.3036   4.6611   5.2063   5.8817   9.9881  13.2069  13.9461  14.1055

     occupation numbers 
     1.0000   1.0000   1.0000   1.0000   1.0000   1.0000   1.0000   1.0000
     1.0000   1.0000   1.0000   1.0000   1.0000   1.0002   1.0215   0.8459
     0.0027   0.0000   0.0000   0.0000   0.0000   0.0000   0.0000   0.0000

          k = 0.1250 0.2165 0.0949 (  3623 PWs)   bands (ev):

   -92.3878 -55.6885 -55.6679 -55.5343 -44.3778 -16.2046 -14.6816  -2.7278
    -2.1535  -2.0512  -0.6116  -0.0242   1.3041   1.9908   2.2563   2.7181
     3.2792   4.7062   5.1769   5.8329  10.1601  12.5825  14.0895  14.7376

     occupation numbers 
     1.0000   1.0000   1.0000   1.0000   1.0000   1.0000   1.0000   1.0000
     1.0000   1.0000   1.0000   1.0000   1.0000   1.0005   1.0215   0.8125
     0.0040   0.0000   0.0000   0.0000   0.0000   0.0000   0.0000   0.0000

          k = 0.1250 0.3608 0.0000 (  3612 PWs)   bands (ev):

   -92.3852 -55.7127 -55.6770 -55.5302 -44.3675 -15.6511 -14.7199  -2.8698
    -2.3404  -1.6675  -1.1117  -0.4925   1.1761   2.3202   2.6372   2.8484
     3.0673   4.6975   5.0997   7.1589  10.5323  11.5380  13.4456  15.1818

     occupation numbers 
     1.0000   1.0000   1.0000   1.0000   1.0000   1.0000   1.0000   1.0000
     1.0000   1.0000   1.0000   1.0000   1.0000   1.0387   0.9770   0.4624
     0.0746   0.0000   0.0000   0.0000   0.0000   0.0000   0.0000   0.0000

          k = 0.1250 0.3608 0.0949 (  3609 PWs)   bands (ev):

   -92.3852 -55.7126 -55.6771 -55.5302 -44.3675 -15.6511 -14.7199  -2.8700
    -2.3404  -1.6674  -1.1109  -0.4925   1.1748   2.3189   2.6274   2.8619
     3.0589   4.7260   5.0895   7.1333  10.5512  11.5787  13.3539  14.9806

     occupation numbers 
     1.0000   1.0000   1.0000   1.0000   1.0000   1.0000   1.0000   1.0000
     1.0000   1.0000   1.0000   1.0000   1.0000   1.0383   0.9918   0.4271
     0.0817   0.0000   0.0000   0.0000   0.0000   0.0000   0.0000   0.0000

          k = 0.1250 0.5052 0.0000 (  3591 PWs)   bands (ev):

   -92.3833 -55.7296 -55.6836 -55.5272 -44.3602 -15.1563 -14.8130  -3.4265
    -2.3761  -1.4483  -0.8260  -0.5247   0.5599   2.2940   2.4090   2.8533
     3.9515   4.9559   5.2053   8.1942   9.2101  12.3552  12.6783  14.0072

     occupation numbers 
     1.0000   1.0000   1.0000   1.0000   1.0000   1.0000   1.0000   1.0000
     1.0000   1.0000   1.0000   1.0000   1.0000   1.0309   1.0685   0.4494
     0.0000   0.0000   0.0000   0.0000   0.0000   0.0000   0.0000   0.0000

          k = 0.1250 0.5052 0.0949 (  3600 PWs)   bands (ev):

   -92.3833 -55.7296 -55.6836 -55.5272 -44.3602 -15.1563 -14.8130  -3.4266
    -2.3762  -1.4483  -0.8260  -0.5248   0.5607   2.2936   2.4092   2.8525
     3.9475   4.9638   5.2022   8.1922   9.2104  12.3601  12.6751  14.1171

     occupation numbers 
     1.0000   1.0000   1.0000   1.0000   1.0000   1.0000   1.0000   1.0000
     1.0000   1.0000   1.0000   1.0000   1.0000   1.0308   1.0686   0.4516
     0.0000   0.0000   0.0000   0.0000   0.0000   0.0000   0.0000   0.0000

          k = 0.2500 0.4330 0.0000 (  3605 PWs)   bands (ev):

   -92.3833 -55.7212 -55.6922 -55.5272 -44.3602 -15.2090 -14.7618  -2.8582
    -2.6776  -1.6604  -0.9444  -0.6836   0.5700   2.4124   2.5011   3.0170
     3.9522   4.8790   4.9505   8.5297   8.8646  11.6281  13.6034  14.6251

     occupation numbers 
     1.0000   1.0000   1.0000   1.0000   1.0000   1.0000   1.0000   1.0000
     1.0000   1.0000   1.0000   1.0000   1.0000   1.0696   1.0827   0.1259
     0.0000   0.0000   0.0000   0.0000   0.0000   0.0000   0.0000   0.0000

          k = 0.2500 0.4330 0.0949 (  3614 PWs)   bands (ev):

   -92.3833 -55.7213 -55.6922 -55.5272 -44.3602 -15.2090 -14.7618  -2.8582
    -2.6777  -1.6605  -0.9444  -0.6832   0.5699   2.4125   2.5016   3.0135
     3.9589   4.8659   4.9572   8.5307   8.8754  11.6064  13.5892  14.6642

     occupation numbers 
     1.0000   1.0000   1.0000   1.0000   1.0000   1.0000   1.0000   1.0000
     1.0000   1.0000   1.0000   1.0000   1.0000   1.0696   1.0826   0.1302
     0.0000   0.0000   0.0000   0.0000   0.0000   0.0000   0.0000   0.0000

          k = 0.2500 0.5774 0.0000 (  3600 PWs)   bands (ev):

   -92.3826 -55.7218 -55.7013 -55.5260 -44.3572 -14.9940 -14.8000  -3.0130
    -2.6228  -1.8400  -0.7790  -0.4618   0.0820   2.1656   2.7079   2.9521
     4.8020   4.9075   5.1979   6.9504  10.6403  11.5722  12.3118  14.7453

     occupation numbers 
     1.0000   1.0000   1.0000   1.0000   1.0000   1.0000   1.0000   1.0000
     1.0000   1.0000   1.0000   1.0000   1.0000   1.0075   0.8368   0.2253
     0.0000   0.0000   0.0000   0.0000   0.0000   0.0000   0.0000   0.0000

          k = 0.2500 0.5774 0.0949 (  3599 PWs)   bands (ev):

   -92.3826 -55.7218 -55.7013 -55.5260 -44.3572 -14.9940 -14.8000  -3.0130
    -2.6228  -1.8401  -0.7789  -0.4618   0.0822   2.1656   2.7081   2.9515
     4.8117   4.9078   5.1873   6.9471  10.6477  11.5682  12.3368  14.7328

     occupation numbers 
     1.0000   1.0000   1.0000   1.0000   1.0000   1.0000   1.0000   1.0000
     1.0000   1.0000   1.0000   1.0000   1.0000   1.0075   0.8365   0.2263
     0.0000   0.0000   0.0000   0.0000   0.0000   0.0000   0.0000   0.0000

          k = 0.0000-0.1443 0.0949 (  3638 PWs)   bands (ev):

   -92.3897 -55.6706 -55.6623 -55.5373 -44.3851 -16.5524 -14.6699  -2.6065
    -2.4490  -2.2055   0.2955   0.7674   0.8423   1.6667   2.1360   2.3320
     3.3353   4.8710   5.3200   5.4982   9.5032  11.7961  13.9488  15.4788

     occupation numbers 
     1.0000   1.0000   1.0000   1.0000   1.0000   1.0000   1.0000   1.0000
     1.0000   1.0000   1.0000   1.0000   1.0000   1.0000   1.0050   1.0425
     0.0015   0.0000   0.0000   0.0000   0.0000   0.0000   0.0000   0.0000

          k = 0.0000-0.2887 0.0949 (  3619 PWs)   bands (ev):

   -92.3870 -55.6976 -55.6685 -55.5331 -44.3748 -16.0490 -14.6914  -2.8213
    -2.0462  -1.9388  -1.1268   0.1462   1.3375   2.0402   2.3738   2.6471
     3.2353   4.5066   5.3555   6.1557  10.3303  12.4180  13.6891  15.2108

     occupation numbers 
     1.0000   1.0000   1.0000   1.0000   1.0000   1.0000   1.0000   1.0000
     1.0000   1.0000   1.0000   1.0000   1.0000   1.0011   1.0568   0.9608
     0.0081   0.0000   0.0000   0.0000   0.0000   0.0000   0.0000   0.0000

          k = 0.0000-0.4330 0.0949 (  3600 PWs)   bands (ev):

   -92.3844 -55.7246 -55.6748 -55.5289 -44.3645 -15.4465 -14.7616  -3.3080
    -2.2087  -1.7436  -0.9753  -0.0687   0.8602   2.2490   2.4691   2.8324
     3.2158   4.7950   5.3979   7.8124   9.3888  12.1722  13.8924  14.7117

     occupation numbers 
     1.0000   1.0000   1.0000   1.0000   1.0000   1.0000   1.0000   1.0000
     1.0000   1.0000   1.0000   1.0000   1.0000   1.0199   1.0823   0.5053
     0.0109   0.0000   0.0000   0.0000   0.0000   0.0000   0.0000   0.0000

          k =-0.1250-0.3608 0.0949 (  3609 PWs)   bands (ev):

   -92.3852 -55.7126 -55.6771 -55.5302 -44.3675 -15.6511 -14.7199  -2.8700
    -2.3404  -1.6675  -1.1106  -0.4925   1.1730   2.3213   2.6301   2.8410
     3.0857   4.6970   5.0988   7.1602  10.5139  11.5471  13.4380  15.0086

     occupation numbers 
     1.0000   1.0000   1.0000   1.0000   1.0000   1.0000   1.0000   1.0000
     1.0000   1.0000   1.0000   1.0000   1.0000   1.0391   0.9878   0.4821
     0.0606   0.0000   0.0000   0.0000   0.0000   0.0000   0.0000   0.0000

          k =-0.1250-0.5052 0.0949 (  3600 PWs)   bands (ev):

   -92.3833 -55.7296 -55.6836 -55.5272 -44.3602 -15.1563 -14.8130  -3.4266
    -2.3762  -1.4483  -0.8258  -0.5247   0.5601   2.2940   2.4092   2.8514
     3.9533   4.9543   5.2045   8.1879   9.2385  12.3196  12.6308  14.0280

     occupation numbers 
     1.0000   1.0000   1.0000   1.0000   1.0000   1.0000   1.0000   1.0000
     1.0000   1.0000   1.0000   1.0000   1.0000   1.0309   1.0686   0.4544
     0.0000   0.0000   0.0000   0.0000   0.0000   0.0000   0.0000   0.0000

     the Fermi energy is     2.8723 ev

!    total energy              =    -474.98807848 Ry
     total all-electron energy =     -3102.860216 Ry
     estimated scf accuracy    <       0.00000008 Ry
     smearing contrib. (-TS)   =       0.00238729 Ry
     internal energy E=F+TS    =    -474.99046577 Ry

     The total energy is F=E-TS. E is the sum of the following terms:
     one-electron contribution =    -824.70864473 Ry
     hartree contribution      =     419.92872566 Ry
     xc contribution           =     -48.90887573 Ry
     ewald contribution        =      85.40753661 Ry
     one-center paw contrib.   =    -106.70920757 Ry
      -> PAW hartree energy AE =     278.22841758 Ry
      -> PAW hartree energy PS =    -276.88094802 Ry
      -> PAW xc energy AE      =    -154.13124099 Ry
      -> PAW xc energy PS      =      46.07456385 Ry
      -> total E_H with PAW    =     421.27619523 Ry
      -> total E_XC with PAW   =    -156.96555287 Ry

     total magnetization       =     0.75 Bohr mag/cell
     absolute magnetization    =     0.92 Bohr mag/cell

     convergence has been achieved in  17 iterations

     Forces acting on atoms (cartesian axes, Ry/au):

     atom    1 type  1   force =     0.00000000    0.00000000    0.01817190
     atom    2 type  2   force =    -0.00000000   -0.00000000   -0.01786812
     atom    3 type  2   force =     0.00000000    0.00000000   -0.01446516
     atom    4 type  3   force =     0.00000000    0.00000000    0.01416138
     The non-local contrib.  to forces
     atom    1 type  1   force =     0.00000000    0.00000000    0.01844578
     atom    2 type  2   force =    -0.00000000   -0.00000000   -1.33225309
     atom    3 type  2   force =     0.00000000    0.00000000    1.07368022
     atom    4 type  3   force =     0.00000000    0.00000000    0.01227860
     The ionic contribution  to forces
     atom    1 type  1   force =    -0.00000000   -0.00000000    5.27039531
     atom    2 type  2   force =     0.00000000   -0.00000000   42.70401986
     atom    3 type  2   force =    -0.00000000    0.00000000  -39.00049739
     atom    4 type  3   force =     0.00000000   -0.00000000   -8.97391779
     The local contribution  to forces
     atom    1 type  1   force =    -0.00000000   -0.00000000   -5.27163741
     atom    2 type  2   force =     0.00000001   -0.00000001  -41.40169848
     atom    3 type  2   force =    -0.00000001    0.00000001   37.92125180
     atom    4 type  3   force =    -0.00000000   -0.00000000    8.97583895
     The core correction contribution to forces
     atom    1 type  1   force =    -0.00000000    0.00000000   -0.00014744
     atom    2 type  2   force =    -0.00000000    0.00000000    0.01160106
     atom    3 type  2   force =     0.00000000   -0.00000000   -0.00903223
     atom    4 type  3   force =     0.00000000    0.00000000    0.00000000
     The Hubbard contrib.    to forces
     atom    1 type  1   force =     0.00000000    0.00000000    0.00000000
     atom    2 type  2   force =     0.00000000    0.00000000    0.00000000
     atom    3 type  2   force =     0.00000000    0.00000000    0.00000000
     atom    4 type  3   force =     0.00000000    0.00000000    0.00000000
     The SCF correction term to forces
     atom    1 type  1   force =     0.00000000    0.00000000    0.00109777
     atom    2 type  2   force =     0.00000000   -0.00000000    0.00044464
     atom    3 type  2   force =    -0.00000000    0.00000000    0.00011455
     atom    4 type  3   force =     0.00000000   -0.00000000   -0.00005627

     Total force =     0.032546     Total SCF correction =     0.001191

     Writing all to output data dir ./out/pw.save/ :
     XML data file, charge density, pseudopotentials, collected wavefunctions
 
     init_run     :     12.40s CPU      2.94s WALL (       1 calls)
     electrons    :     88.86s CPU     23.96s WALL (       1 calls)
     forces       :      0.56s CPU      0.53s WALL (       1 calls)

     Called by init_run:
     wfcinit      :      0.28s CPU      0.36s WALL (       1 calls)
     wfcinit:atom :      0.04s CPU      0.04s WALL (      50 calls)
     wfcinit:wfcr :      0.18s CPU      0.24s WALL (      50 calls)
     potinit      :     11.61s CPU      2.03s WALL (       1 calls)
     hinit0       :      0.42s CPU      0.41s WALL (       1 calls)

     Called by electrons:
     c_bands      :     11.42s CPU     11.59s WALL (      17 calls)
     sum_band     :      1.98s CPU      1.99s WALL (      17 calls)
     v_of_rho     :      0.31s CPU      0.16s WALL (      18 calls)
     v_h          :      0.21s CPU      0.03s WALL (      18 calls)
     v_xc         :      0.11s CPU      0.14s WALL (      19 calls)
     newd         :      0.43s CPU      0.34s WALL (      18 calls)
                                        0.34s GPU  (      18 calls)
     PAW_pot      :     77.91s CPU      9.81s WALL (      18 calls)
     mix_rho      :      0.59s CPU      0.59s WALL (      17 calls)

     Called by c_bands:
     init_us_2    :      0.74s CPU      0.74s WALL (    1800 calls)
     cegterg      :      9.99s CPU     10.15s WALL (     850 calls)

     Called by sum_band:
     sum_band:wei :      0.02s CPU      0.02s WALL (      17 calls)
                                        0.02s GPU  (      17 calls)
     sum_band:loo :      1.22s CPU      1.22s WALL (      17 calls)
                                        1.22s GPU  (      17 calls)
     sum_band:buf :      0.16s CPU      0.17s WALL (     850 calls)
                                        0.16s GPU  (     850 calls)
     sum_band:ini :      0.35s CPU      0.36s WALL (     850 calls)
                                        0.35s GPU  (     850 calls)
     sum_band:cal :      0.03s CPU      0.05s WALL (     850 calls)
                                        0.04s GPU  (     850 calls)
     sum_band:bec :      0.19s CPU      0.21s WALL (     850 calls)
                                        0.19s GPU  (     850 calls)
     addusdens    :      0.60s CPU      0.61s WALL (      17 calls)
                                        0.61s GPU  (      17 calls)
     addusd:skk   :      0.00s CPU      0.00s WALL (      51 calls)
                                        0.00s GPU  (      51 calls)

     Called by *egterg:
     cdiaghg      :      3.10s CPU      3.23s WALL (    4023 calls)
                                        3.18s GPU  (    4023 calls)
     cegterg:over :      0.93s CPU      0.96s WALL (    3173 calls)
     cegterg:upda :      0.56s CPU      0.56s WALL (    3173 calls)
     cegterg:last :      0.11s CPU      0.12s WALL (    1715 calls)
     h_psi        :      3.64s CPU      3.78s WALL (    4073 calls)
                                        3.73s GPU  (    4073 calls)
     s_psi        :      0.63s CPU      0.66s WALL (    4073 calls)
     g_psi        :      0.02s CPU      0.08s WALL (    3173 calls)
                                        0.04s GPU  (    3173 calls)

     Called by h_psi:
     h_psi:calbec :      0.13s CPU      0.24s WALL (    4073 calls)
                                        0.19s GPU  (    4073 calls)
     vloc_psi     :      2.50s CPU      2.56s WALL (    4073 calls)
                                        2.51s GPU  (    4073 calls)
     add_vuspsi   :      0.57s CPU      0.68s WALL (    4073 calls)
                                        0.63s GPU  (    4073 calls)

     General routines
     calbec       :      0.14s CPU      0.17s WALL (    5123 calls)
     fft          :      3.34s CPU      0.62s WALL (     463 calls)
                                        0.02s GPU  (     427 calls)
     ffts         :      4.22s CPU      0.83s WALL (     792 calls)
                                        0.02s GPU  (     756 calls)
     fftw         :      0.23s CPU      0.88s WALL (   13346 calls)
                                        0.73s GPU  (   13346 calls)
     interpolate  :      7.69s CPU      1.43s WALL (      36 calls)
 
     Parallel routines

     PAW routines
     PAW_pot      :     77.91s CPU      9.81s WALL (      18 calls)
     PAW_symme    :      0.02s CPU      0.00s WALL (      35 calls)
 
     PWSCF        :   1m42.70s CPU     27.94s WALL

 
   This run was terminated on:   2:44:11  12Jul2026            

=------------------------------------------------------------------------------=
   JOB DONE.
=------------------------------------------------------------------------------=
Warning: ieee_divide_by_zero is signaling
Warning: ieee_inexact is signaling
FORTRAN STOP
