
     Program PWSCF v.7.3.1 starts on 12Jul2026 at  2:21:48 

     This program is part of the open-source Quantum ESPRESSO suite
     for quantum simulation of materials; please cite
         "P. Giannozzi et al., J. Phys.:Condens. Matter 21 395502 (2009);
         "P. Giannozzi et al., J. Phys.:Condens. Matter 29 465901 (2017);
         "P. Giannozzi et al., J. Chem. Phys. 152 154105 (2020);
          URL http://www.quantum-espresso.org", 
     in publications or presentations arising from this work. More details at
     http://www.quantum-espresso.org/quote

     Parallel version (MPI & OpenMP), running on      14 processor cores
     Number of MPI processes:                 1
     Threads/MPI process:                    14

     MPI processes distributed on     1 nodes
     848431 MiB available memory on the printing compute node when the environment starts
 
     Reading input from pw.in

     Current dimensions of program PWSCF are:
     Max number of different atomic species (ntypx) = 10
     Max number of k-points (npk) =  40000
     Max angular momentum in pseudopotentials (lmaxx) =  4
     file Co.pbe-spn-kjpaw_psl.0.3.1.UPF: wavefunction(s)  3P 3D renormalized
     file O.pbe-n-kjpaw_psl.1.0.0.UPF: wavefunction(s)  2S 2P renormalized
     file Na.pbe-spn-kjpaw_psl.1.0.0.UPF: wavefunction(s)  2P renormalized
 
     Subspace diagonalization in iterative solution of the eigenvalue problem:
     a serial algorithm will be used

 
     G-vector sticks info
     --------------------
     sticks:   dense  smooth     PW     G-vecs:    dense   smooth      PW
     Sum        2941    1483    421               142753    50601    7659
 
     Using Slab Decomposition
 


     bravais-lattice index     =            4
     lattice parameter (alat)  =       9.4527  a.u.
     unit-cell volume          =     804.2768 (a.u.)^3
     number of atoms/cell      =           10
     number of atomic types    =            3
     number of electrons       =        96.00
     number of Kohn-Sham states=           64
     kinetic-energy cutoff     =      60.0000  Ry
     charge density cutoff     =     480.0000  Ry
     scf convergence threshold =      1.0E-08
     mixing beta               =       0.3000
     number of iterations used =            8  plain     mixing
     Exchange-correlation= SLA  PW   PBX  PBC
                           (   1   4   3   4   0   0   0)

     GPU acceleration is ACTIVE.  1 visible GPUs per MPI rank
     GPU-aware MPI enabled


     GPU used by master process:

        Device Number: 0
        Device name: NVIDIA A100-SXM4-80GB
        Compute capability : 80
        Ratio of single to double precision performance  : 2
        Memory Clock Rate (KHz): 1593000
        Memory Bus Width (bits): 5120
        Peak Memory Bandwidth (GB/s): ******

     celldm(1)=   9.452718  celldm(2)=   0.000000  celldm(3)=   1.099524
     celldm(4)=   0.000000  celldm(5)=   0.000000  celldm(6)=   0.000000

     crystal axes: (cart. coord. in units of alat)
               a(1) = (   1.000000   0.000000   0.000000 )  
               a(2) = (  -0.500000   0.866025   0.000000 )  
               a(3) = (   0.000000   0.000000   1.099524 )  

     reciprocal axes: (cart. coord. in units 2 pi/alat)
               b(1) = (  1.000000  0.577350 -0.000000 )  
               b(2) = (  0.000000  1.154701  0.000000 )  
               b(3) = (  0.000000 -0.000000  0.909484 )  


     PseudoPot. # 1 for Co read from file:
     ../../pseudo/Co.pbe-spn-kjpaw_psl.0.3.1.UPF
     MD5 check sum: 3c0a43779828c046024e4f3be63f8e67
     Pseudo is Projector augmented-wave + core cor, Zval = 17.0
     Generated using &quot;atomic&quot; code by A. Dal Corso  v.6.2.2
     Shape of augmentation charge: PSQ
     Using radial grid of 1193 points,  6 beta functions with: 
                l(1) =   0
                l(2) =   0
                l(3) =   1
                l(4) =   1
                l(5) =   2
                l(6) =   2
     Q(r) pseudized with 0 coefficients 


     PseudoPot. # 2 for O  read from file:
     ../../pseudo/O.pbe-n-kjpaw_psl.1.0.0.UPF
     MD5 check sum: e99d9cef9b487d1ca56f5b95ecd0fd7a
     Pseudo is Projector augmented-wave + core cor, Zval =  6.0
     Generated using &quot;atomic&quot; code by A. Dal Corso  v.6.3
     Shape of augmentation charge: PSQ
     Using radial grid of 1095 points,  4 beta functions with: 
                l(1) =   0
                l(2) =   0
                l(3) =   1
                l(4) =   1
     Q(r) pseudized with 0 coefficients 


     PseudoPot. # 3 for Na read from file:
     ../../pseudo/Na.pbe-spn-kjpaw_psl.1.0.0.UPF
     MD5 check sum: 05b4deb74e3932c23ab016979dc8b5d4
     Pseudo is Projector augmented-wave + core cor, Zval =  9.0
     Generated using &quot;atomic&quot; code by A. Dal Corso  v.6.3
     Shape of augmentation charge: PSQ
     Using radial grid of 1121 points,  4 beta functions with: 
                l(1) =   0
                l(2) =   0
                l(3) =   1
                l(4) =   1
     Q(r) pseudized with 0 coefficients 


     atomic species   valence    mass     pseudopotential
     Co               17.00    58.93300     Co( 1.00)
     O                 6.00    15.99900     O ( 1.00)
     Na                9.00    22.98977     Na( 1.00)

     Starting magnetic structure 
     atomic species   magnetization
     Co              0.300
     O               0.000
     Na              0.000

      6 Sym. Ops. (no inversion) found ( 4 have fractional translation)


                                    s                        frac. trans.

      isym =  1     identity                                     

 cryst.   s( 1) = (     1          0          0      )
                  (     0          1          0      )
                  (     0          0          1      )

 cart.    s( 1) = (  1.0000000  0.0000000  0.0000000 )
                  (  0.0000000  1.0000000  0.0000000 )
                  (  0.0000000  0.0000000  1.0000000 )


      isym =  2     120 deg rotation - cryst. axis [0,0,1]       

 cryst.   s( 2) = (     0          1          0      )    f =(  0.3333333 )
                  (    -1         -1          0      )       ( -0.3333333 )
                  (     0          0          1      )       (  0.0000000 )

 cart.    s( 2) = ( -0.5000000 -0.8660254  0.0000000 )    f =(  0.5000000 )
                  (  0.8660254 -0.5000000  0.0000000 )       ( -0.2886751 )
                  (  0.0000000  0.0000000  1.0000000 )       (  0.0000000 )


      isym =  3     120 deg rotation - cryst. axis [0,0,-1]      

 cryst.   s( 3) = (    -1         -1          0      )    f =( -0.3333333 )
                  (     1          0          0      )       (  0.3333333 )
                  (     0          0          1      )       (  0.0000000 )

 cart.    s( 3) = ( -0.5000000  0.8660254  0.0000000 )    f =( -0.5000000 )
                  ( -0.8660254 -0.5000000  0.0000000 )       (  0.2886751 )
                  (  0.0000000  0.0000000  1.0000000 )       (  0.0000000 )


      isym =  4     inv. 180 deg rotation - cart. axis [0,1,0]   

 cryst.   s( 4) = (     1          0          0      )    f =( -0.3333333 )
                  (    -1         -1          0      )       (  0.3333333 )
                  (     0          0          1      )       (  0.0000000 )

 cart.    s( 4) = (  1.0000000  0.0000000  0.0000000 )    f =( -0.5000000 )
                  (  0.0000000 -1.0000000  0.0000000 )       (  0.2886751 )
                  (  0.0000000  0.0000000  1.0000000 )       (  0.0000000 )


      isym =  5     inv. 180 deg rotation - cryst. axis [1,-1,0] 

 cryst.   s( 5) = (     0          1          0      )
                  (     1          0          0      )
                  (     0          0          1      )

 cart.    s( 5) = ( -0.5000000  0.8660254  0.0000000 )
                  (  0.8660254  0.5000000  0.0000000 )
                  (  0.0000000  0.0000000  1.0000000 )


      isym =  6     inv. 180 deg rotation - cryst. axis [2,1,0]  

 cryst.   s( 6) = (    -1         -1          0      )    f =(  0.3333333 )
                  (     0          1          0      )       ( -0.3333333 )
                  (     0          0          1      )       (  0.0000000 )

 cart.    s( 6) = ( -0.5000000 -0.8660254  0.0000000 )    f =(  0.5000000 )
                  ( -0.8660254  0.5000000  0.0000000 )       ( -0.2886751 )
                  (  0.0000000  0.0000000  1.0000000 )       (  0.0000000 )


     point group C_3v (3m)  
     there are  3 classes
     the character table:

       E     2C3   3s_v 
A_1    1.00  1.00  1.00
A_2    1.00  1.00 -1.00
E      2.00 -1.00  0.00

     the symmetry operations in each class and the name of the first element:

     E        1
          identity                                               
     2C3      2    3
          120 deg rotation - cryst. axis [0,0,1]                 
     3s_v     4    6    5
          inv. 180 deg rotation - cart. axis [0,1,0]             

   Cartesian axes

     site n.     atom                  positions (alat units)
         1        Co     tau(   1) = (   0.0000000   0.0000000   0.0000000  )
         2        Co     tau(   2) = (  -0.0000000   0.5773503   0.0000000  )
         3        Co     tau(   3) = (   0.5000000   0.2886751   0.0000000  )
         4        O      tau(   4) = (   0.1666667   0.2886751   0.1919170  )
         5        O      tau(   5) = (   0.6666667   0.0000000   0.1919170  )
         6        O      tau(   6) = (  -0.3333333   0.5773503   0.1919170  )
         7        O      tau(   7) = (   0.3333333   0.0000000   0.9076074  )
         8        O      tau(   8) = (   0.3333333   0.5773503   0.9076074  )
         9        O      tau(   9) = (  -0.1666667   0.2886751   0.9076074  )
        10        Na     tau(  10) = (   0.1666667   0.2886751   0.6497190  )

   Crystallographic axes

     site n.     atom                  positions (cryst. coord.)
         1        Co     tau(   1) = (  0.0000000  0.0000000  0.0000000  )
         2        Co     tau(   2) = (  0.3333333  0.6666667  0.0000000  )
         3        Co     tau(   3) = (  0.6666667  0.3333333  0.0000000  )
         4        O      tau(   4) = (  0.3333333  0.3333333  0.1745455  )
         5        O      tau(   5) = (  0.6666667  0.0000000  0.1745455  )
         6        O      tau(   6) = (  0.0000000  0.6666667  0.1745455  )
         7        O      tau(   7) = (  0.3333333  0.0000000  0.8254545  )
         8        O      tau(   8) = (  0.6666667  0.6666667  0.8254545  )
         9        O      tau(   9) = ( -0.0000000  0.3333333  0.8254545  )
        10        Na     tau(  10) = (  0.3333333  0.3333333  0.5909091  )

     number of k points=    17  Marzari-Vanderbilt smearing, width (Ry)=  0.0200
                       cart. coord. in units 2pi/alat
        k(    1) = (   0.0000000   0.0000000   0.0000000), wk =   0.0092593
        k(    2) = (   0.0000000   0.0000000   0.3031614), wk =   0.0185185
        k(    3) = (   0.0000000   0.1924501   0.0000000), wk =   0.0555556
        k(    4) = (   0.0000000   0.1924501   0.3031614), wk =   0.1111111
        k(    5) = (   0.0000000   0.3849002   0.0000000), wk =   0.0555556
        k(    6) = (   0.0000000   0.3849002   0.3031614), wk =   0.1111111
        k(    7) = (   0.0000000  -0.5773503   0.0000000), wk =   0.0277778
        k(    8) = (   0.0000000  -0.5773503   0.3031614), wk =   0.0555556
        k(    9) = (   0.1666667   0.2886751   0.0000000), wk =   0.0555556
        k(   10) = (   0.1666667   0.2886751   0.3031614), wk =   0.0555556
        k(   11) = (   0.1666667   0.4811252   0.0000000), wk =   0.1111111
        k(   12) = (   0.1666667   0.4811252   0.3031614), wk =   0.1111111
        k(   13) = (   0.3333333   0.5773503   0.0000000), wk =   0.0185185
        k(   14) = (   0.3333333   0.5773503   0.3031614), wk =   0.0185185
        k(   15) = (  -0.1666667  -0.2886751   0.3031614), wk =   0.0555556
        k(   16) = (  -0.1666667  -0.4811252   0.3031614), wk =   0.1111111
        k(   17) = (  -0.3333333  -0.5773503   0.3031614), wk =   0.0185185

                       cryst. coord.
        k(    1) = (   0.0000000   0.0000000   0.0000000), wk =   0.0092593
        k(    2) = (   0.0000000   0.0000000   0.3333333), wk =   0.0185185
        k(    3) = (   0.0000000   0.1666667   0.0000000), wk =   0.0555556
        k(    4) = (   0.0000000   0.1666667   0.3333333), wk =   0.1111111
        k(    5) = (   0.0000000   0.3333333   0.0000000), wk =   0.0555556
        k(    6) = (   0.0000000   0.3333333   0.3333333), wk =   0.1111111
        k(    7) = (   0.0000000  -0.5000000   0.0000000), wk =   0.0277778
        k(    8) = (   0.0000000  -0.5000000   0.3333333), wk =   0.0555556
        k(    9) = (   0.1666667   0.1666667   0.0000000), wk =   0.0555556
        k(   10) = (   0.1666667   0.1666667   0.3333333), wk =   0.0555556
        k(   11) = (   0.1666667   0.3333333   0.0000000), wk =   0.1111111
        k(   12) = (   0.1666667   0.3333333   0.3333333), wk =   0.1111111
        k(   13) = (   0.3333333   0.3333333   0.0000000), wk =   0.0185185
        k(   14) = (   0.3333333   0.3333333   0.3333333), wk =   0.0185185
        k(   15) = (  -0.1666667  -0.1666667   0.3333333), wk =   0.0555556
        k(   16) = (  -0.1666667  -0.3333333   0.3333333), wk =   0.1111111
        k(   17) = (  -0.3333333  -0.3333333   0.3333333), wk =   0.0185185

     Dense  grid:   142753 G-vectors     FFT dimensions: (  72,  72,  75)

     Smooth grid:    50601 G-vectors     FFT dimensions: (  48,  48,  54)

     Dynamical RAM for                 wfc:       6.16 MB

     Dynamical RAM for     wfc (w. buffer):     215.74 MB

     Dynamical RAM for           str. fact:       6.53 MB

     Dynamical RAM for           local pot:       0.00 MB

     Dynamical RAM for          nlocal pot:      10.59 MB

     Dynamical RAM for                qrad:       5.27 MB

     Dynamical RAM for          rho,v,vnew:      30.87 MB

     Dynamical RAM for               rhoin:      10.29 MB

     Dynamical RAM for            rho*nmix:      69.70 MB

     Dynamical RAM for           G-vectors:       8.55 MB

     Dynamical RAM for          h,s,v(r/c):       0.75 MB

     Dynamical RAM for          <psi|beta>:       0.11 MB

     Dynamical RAM for                 psi:      12.33 MB

     Dynamical RAM for                hpsi:      12.33 MB

     Dynamical RAM for                spsi:      12.33 MB

     Dynamical RAM for      wfcinit/wfcrot:      12.42 MB

     Dynamical RAM for           addusdens:     420.40 MB

     Dynamical RAM for          addusforce:     442.23 MB

     Estimated static dynamical RAM per process >     314.37 MB

     Estimated max dynamical RAM per process >     826.30 MB

     Check: negative core charge=   -0.000009
     Generating pointlists ...
     new r_m :   0.1587 (alat units)  1.4998 (a.u.) for type    1
     new r_m :   0.1587 (alat units)  1.4998 (a.u.) for type    2
     new r_m :   0.1738 (alat units)  1.6433 (a.u.) for type    3

     Initial potential from superposition of free atoms

     starting charge      95.9928, renormalised to      96.0000
     Starting wfcs are   59 randomized atomic wfcs +    5 random wfcs
     Checking if some PAW data can be deallocated... 

     total cpu time spent up to now is        4.9 secs

     Self-consistent Calculation
[tb_dev] Currently allocated     9.94E-01 Mbytes, locked:    0 /   6
[tb_pin] Currently allocated     0.00E+00 Mbytes, locked:    0 /   0

     iteration #  1     ecut=    60.00 Ry     beta= 0.30
     Davidson diagonalization with overlap

---- Real-time Memory Report at c_bands before calling an iterative solver
           892 MiB given to the printing process from OS
             0 MiB allocation reported by mallinfo(arena+hblkhd)
        847991 MiB available memory on the node where the printing process lives
     GPU memory used/free/total (MiB): 1438 / 79712 / 81151
------------------
     ethr =  1.00E-02,  avg # of iterations = 10.1

     total cpu time spent up to now is        8.5 secs

     total energy              =   -1486.72187459 Ry
     estimated scf accuracy    <       6.18236675 Ry

     total magnetization       =    14.00 Bohr mag/cell
     absolute magnetization    =    14.00 Bohr mag/cell
[tb_dev] Currently allocated     7.63E-05 Mbytes, locked:    0 /   2
[tb_pin] Currently allocated     0.00E+00 Mbytes, locked:    0 /   0

     iteration #  2     ecut=    60.00 Ry     beta= 0.30
     Davidson diagonalization with overlap

---- Real-time Memory Report at c_bands before calling an iterative solver
           947 MiB given to the printing process from OS
             0 MiB allocation reported by mallinfo(arena+hblkhd)
        847601 MiB available memory on the node where the printing process lives
     GPU memory used/free/total (MiB): 1486 / 79664 / 81151
------------------
     ethr =  6.44E-03,  avg # of iterations =  2.0

     total cpu time spent up to now is       11.0 secs

     total energy              =   -1487.39626716 Ry
     estimated scf accuracy    <      18.08103926 Ry

     total magnetization       =     1.65 Bohr mag/cell
     absolute magnetization    =     2.06 Bohr mag/cell
[tb_dev] Currently allocated     7.63E-05 Mbytes, locked:    0 /   2
[tb_pin] Currently allocated     0.00E+00 Mbytes, locked:    0 /   0

     iteration #  3     ecut=    60.00 Ry     beta= 0.30
     Davidson diagonalization with overlap

---- Real-time Memory Report at c_bands before calling an iterative solver
           957 MiB given to the printing process from OS
             0 MiB allocation reported by mallinfo(arena+hblkhd)
        847589 MiB available memory on the node where the printing process lives
     GPU memory used/free/total (MiB): 1486 / 79664 / 81151
------------------
     ethr =  6.44E-03,  avg # of iterations =  1.0

     total cpu time spent up to now is       13.2 secs

     total energy              =   -1488.82174404 Ry
     estimated scf accuracy    <       0.45818185 Ry

     total magnetization       =     8.70 Bohr mag/cell
     absolute magnetization    =     8.72 Bohr mag/cell
[tb_dev] Currently allocated     7.63E-05 Mbytes, locked:    0 /   2
[tb_pin] Currently allocated     0.00E+00 Mbytes, locked:    0 /   0

     iteration #  4     ecut=    60.00 Ry     beta= 0.30
     Davidson diagonalization with overlap

---- Real-time Memory Report at c_bands before calling an iterative solver
           961 MiB given to the printing process from OS
             0 MiB allocation reported by mallinfo(arena+hblkhd)
        847648 MiB available memory on the node where the printing process lives
     GPU memory used/free/total (MiB): 1486 / 79664 / 81151
------------------
     ethr =  4.77E-04,  avg # of iterations =  4.8

     total cpu time spent up to now is       16.1 secs

     total energy              =   -1489.00328814 Ry
     estimated scf accuracy    <       0.73884791 Ry

     total magnetization       =     5.55 Bohr mag/cell
     absolute magnetization    =     5.99 Bohr mag/cell
[tb_dev] Currently allocated     7.63E-05 Mbytes, locked:    0 /   2
[tb_pin] Currently allocated     0.00E+00 Mbytes, locked:    0 /   0

     iteration #  5     ecut=    60.00 Ry     beta= 0.30
     Davidson diagonalization with overlap

---- Real-time Memory Report at c_bands before calling an iterative solver
           964 MiB given to the printing process from OS
             0 MiB allocation reported by mallinfo(arena+hblkhd)
        847589 MiB available memory on the node where the printing process lives
     GPU memory used/free/total (MiB): 1486 / 79664 / 81151
------------------
     ethr =  4.77E-04,  avg # of iterations =  1.7

     total cpu time spent up to now is       18.4 secs

     total energy              =   -1489.10531806 Ry
     estimated scf accuracy    <       0.59442436 Ry

     total magnetization       =     4.55 Bohr mag/cell
     absolute magnetization    =     5.26 Bohr mag/cell
[tb_dev] Currently allocated     7.63E-05 Mbytes, locked:    0 /   2
[tb_pin] Currently allocated     0.00E+00 Mbytes, locked:    0 /   0

     iteration #  6     ecut=    60.00 Ry     beta= 0.30
     Davidson diagonalization with overlap

---- Real-time Memory Report at c_bands before calling an iterative solver
           968 MiB given to the printing process from OS
             0 MiB allocation reported by mallinfo(arena+hblkhd)
        847563 MiB available memory on the node where the printing process lives
     GPU memory used/free/total (MiB): 1486 / 79664 / 81151
------------------
     ethr =  4.77E-04,  avg # of iterations =  1.6

     total cpu time spent up to now is       20.7 secs

     total energy              =   -1489.23966783 Ry
     estimated scf accuracy    <       0.21931331 Ry

     total magnetization       =     2.58 Bohr mag/cell
     absolute magnetization    =     3.95 Bohr mag/cell
[tb_dev] Currently allocated     7.63E-05 Mbytes, locked:    0 /   2
[tb_pin] Currently allocated     0.00E+00 Mbytes, locked:    0 /   0

     iteration #  7     ecut=    60.00 Ry     beta= 0.30
     Davidson diagonalization with overlap

---- Real-time Memory Report at c_bands before calling an iterative solver
           972 MiB given to the printing process from OS
             0 MiB allocation reported by mallinfo(arena+hblkhd)
        847569 MiB available memory on the node where the printing process lives
     GPU memory used/free/total (MiB): 1486 / 79664 / 81151
------------------
     ethr =  2.28E-04,  avg # of iterations =  3.0

     total cpu time spent up to now is       23.1 secs

     total energy              =   -1489.29065300 Ry
     estimated scf accuracy    <       0.03227475 Ry

     total magnetization       =     2.17 Bohr mag/cell
     absolute magnetization    =     2.42 Bohr mag/cell
[tb_dev] Currently allocated     7.63E-05 Mbytes, locked:    0 /   2
[tb_pin] Currently allocated     0.00E+00 Mbytes, locked:    0 /   0

     iteration #  8     ecut=    60.00 Ry     beta= 0.30
     Davidson diagonalization with overlap

---- Real-time Memory Report at c_bands before calling an iterative solver
           982 MiB given to the printing process from OS
             0 MiB allocation reported by mallinfo(arena+hblkhd)
        847544 MiB available memory on the node where the printing process lives
     GPU memory used/free/total (MiB): 1486 / 79664 / 81151
------------------
     c_bands:  1 eigenvalues not converged
     c_bands:  1 eigenvalues not converged
     c_bands:  1 eigenvalues not converged
     ethr =  3.36E-05,  avg # of iterations = 13.8

     total cpu time spent up to now is       27.4 secs

     total energy              =   -1489.30753124 Ry
     estimated scf accuracy    <       0.03955778 Ry

     total magnetization       =     2.04 Bohr mag/cell
     absolute magnetization    =     2.58 Bohr mag/cell
[tb_dev] Currently allocated     7.63E-05 Mbytes, locked:    0 /   2
[tb_pin] Currently allocated     0.00E+00 Mbytes, locked:    0 /   0

     iteration #  9     ecut=    60.00 Ry     beta= 0.30
     Davidson diagonalization with overlap

---- Real-time Memory Report at c_bands before calling an iterative solver
           984 MiB given to the printing process from OS
             0 MiB allocation reported by mallinfo(arena+hblkhd)
        847501 MiB available memory on the node where the printing process lives
     GPU memory used/free/total (MiB): 1486 / 79664 / 81151
------------------
     ethr =  3.36E-05,  avg # of iterations =  1.6

     total cpu time spent up to now is       29.7 secs

     total energy              =   -1489.31328378 Ry
     estimated scf accuracy    <       0.01500608 Ry

     total magnetization       =     2.12 Bohr mag/cell
     absolute magnetization    =     2.41 Bohr mag/cell
[tb_dev] Currently allocated     7.63E-05 Mbytes, locked:    0 /   2
[tb_pin] Currently allocated     0.00E+00 Mbytes, locked:    0 /   0

     iteration # 10     ecut=    60.00 Ry     beta= 0.30
     Davidson diagonalization with overlap

---- Real-time Memory Report at c_bands before calling an iterative solver
           990 MiB given to the printing process from OS
             0 MiB allocation reported by mallinfo(arena+hblkhd)
        847504 MiB available memory on the node where the printing process lives
     GPU memory used/free/total (MiB): 1486 / 79664 / 81151
------------------
     ethr =  1.56E-05,  avg # of iterations =  2.7

     total cpu time spent up to now is       32.2 secs

     total energy              =   -1489.31631305 Ry
     estimated scf accuracy    <       0.00271010 Ry

     total magnetization       =     2.35 Bohr mag/cell
     absolute magnetization    =     2.39 Bohr mag/cell
[tb_dev] Currently allocated     7.63E-05 Mbytes, locked:    0 /   2
[tb_pin] Currently allocated     0.00E+00 Mbytes, locked:    0 /   0

     iteration # 11     ecut=    60.00 Ry     beta= 0.30
     Davidson diagonalization with overlap

---- Real-time Memory Report at c_bands before calling an iterative solver
           990 MiB given to the printing process from OS
             0 MiB allocation reported by mallinfo(arena+hblkhd)
        847485 MiB available memory on the node where the printing process lives
     GPU memory used/free/total (MiB): 1486 / 79664 / 81151
------------------
     c_bands:  1 eigenvalues not converged
     c_bands:  1 eigenvalues not converged
     c_bands:  1 eigenvalues not converged
     c_bands:  1 eigenvalues not converged
     ethr =  2.82E-06,  avg # of iterations = 11.6

     total cpu time spent up to now is       36.2 secs

     total energy              =   -1489.31662414 Ry
     estimated scf accuracy    <       0.00111058 Ry

     total magnetization       =     2.35 Bohr mag/cell
     absolute magnetization    =     2.39 Bohr mag/cell
[tb_dev] Currently allocated     7.63E-05 Mbytes, locked:    0 /   2
[tb_pin] Currently allocated     0.00E+00 Mbytes, locked:    0 /   0

     iteration # 12     ecut=    60.00 Ry     beta= 0.30
     Davidson diagonalization with overlap

---- Real-time Memory Report at c_bands before calling an iterative solver
           990 MiB given to the printing process from OS
             0 MiB allocation reported by mallinfo(arena+hblkhd)
        848078 MiB available memory on the node where the printing process lives
     GPU memory used/free/total (MiB): 1486 / 79664 / 81151
------------------
     ethr =  1.16E-06,  avg # of iterations =  4.3

     total cpu time spent up to now is       39.0 secs

     total energy              =   -1489.31786663 Ry
     estimated scf accuracy    <       0.00440092 Ry

     total magnetization       =     2.37 Bohr mag/cell
     absolute magnetization    =     2.40 Bohr mag/cell
[tb_dev] Currently allocated     7.63E-05 Mbytes, locked:    0 /   2
[tb_pin] Currently allocated     0.00E+00 Mbytes, locked:    0 /   0

     iteration # 13     ecut=    60.00 Ry     beta= 0.30
     Davidson diagonalization with overlap

---- Real-time Memory Report at c_bands before calling an iterative solver
           990 MiB given to the printing process from OS
             0 MiB allocation reported by mallinfo(arena+hblkhd)
        847621 MiB available memory on the node where the printing process lives
     GPU memory used/free/total (MiB): 1486 / 79664 / 81151
------------------
     ethr =  1.16E-06,  avg # of iterations =  2.1

     total cpu time spent up to now is       41.3 secs

     total energy              =   -1489.31819022 Ry
     estimated scf accuracy    <       0.00011862 Ry

     total magnetization       =     2.32 Bohr mag/cell
     absolute magnetization    =     2.35 Bohr mag/cell
[tb_dev] Currently allocated     7.63E-05 Mbytes, locked:    0 /   2
[tb_pin] Currently allocated     0.00E+00 Mbytes, locked:    0 /   0

     iteration # 14     ecut=    60.00 Ry     beta= 0.30
     Davidson diagonalization with overlap

---- Real-time Memory Report at c_bands before calling an iterative solver
           990 MiB given to the printing process from OS
             0 MiB allocation reported by mallinfo(arena+hblkhd)
        847621 MiB available memory on the node where the printing process lives
     GPU memory used/free/total (MiB): 1486 / 79664 / 81151
------------------
     ethr =  1.24E-07,  avg # of iterations =  4.8

     total cpu time spent up to now is       44.2 secs

     total energy              =   -1489.31826553 Ry
     estimated scf accuracy    <       0.00005636 Ry

     total magnetization       =     2.29 Bohr mag/cell
     absolute magnetization    =     2.33 Bohr mag/cell
[tb_dev] Currently allocated     7.63E-05 Mbytes, locked:    0 /   2
[tb_pin] Currently allocated     0.00E+00 Mbytes, locked:    0 /   0

     iteration # 15     ecut=    60.00 Ry     beta= 0.30
     Davidson diagonalization with overlap

---- Real-time Memory Report at c_bands before calling an iterative solver
           990 MiB given to the printing process from OS
             0 MiB allocation reported by mallinfo(arena+hblkhd)
        847255 MiB available memory on the node where the printing process lives
     GPU memory used/free/total (MiB): 1486 / 79664 / 81151
------------------
     ethr =  5.87E-08,  avg # of iterations =  2.3

     total cpu time spent up to now is       46.6 secs

     total energy              =   -1489.31827264 Ry
     estimated scf accuracy    <       0.00001563 Ry

     total magnetization       =     2.29 Bohr mag/cell
     absolute magnetization    =     2.33 Bohr mag/cell
[tb_dev] Currently allocated     7.63E-05 Mbytes, locked:    0 /   2
[tb_pin] Currently allocated     0.00E+00 Mbytes, locked:    0 /   0

     iteration # 16     ecut=    60.00 Ry     beta= 0.30
     Davidson diagonalization with overlap

---- Real-time Memory Report at c_bands before calling an iterative solver
           990 MiB given to the printing process from OS
             0 MiB allocation reported by mallinfo(arena+hblkhd)
        847155 MiB available memory on the node where the printing process lives
     GPU memory used/free/total (MiB): 1486 / 79664 / 81151
------------------
     ethr =  1.63E-08,  avg # of iterations =  7.1

     total cpu time spent up to now is       49.8 secs

     total energy              =   -1489.31828013 Ry
     estimated scf accuracy    <       0.00000945 Ry

     total magnetization       =     2.30 Bohr mag/cell
     absolute magnetization    =     2.34 Bohr mag/cell
[tb_dev] Currently allocated     7.63E-05 Mbytes, locked:    0 /   2
[tb_pin] Currently allocated     0.00E+00 Mbytes, locked:    0 /   0

     iteration # 17     ecut=    60.00 Ry     beta= 0.30
     Davidson diagonalization with overlap

---- Real-time Memory Report at c_bands before calling an iterative solver
           990 MiB given to the printing process from OS
             0 MiB allocation reported by mallinfo(arena+hblkhd)
        847145 MiB available memory on the node where the printing process lives
     GPU memory used/free/total (MiB): 1486 / 79664 / 81151
------------------
     ethr =  9.84E-09,  avg # of iterations =  2.4

     total cpu time spent up to now is       52.2 secs

     total energy              =   -1489.31828090 Ry
     estimated scf accuracy    <       0.00000162 Ry

     total magnetization       =     2.30 Bohr mag/cell
     absolute magnetization    =     2.34 Bohr mag/cell
[tb_dev] Currently allocated     7.63E-05 Mbytes, locked:    0 /   2
[tb_pin] Currently allocated     0.00E+00 Mbytes, locked:    0 /   0

     iteration # 18     ecut=    60.00 Ry     beta= 0.30
     Davidson diagonalization with overlap

---- Real-time Memory Report at c_bands before calling an iterative solver
           990 MiB given to the printing process from OS
             0 MiB allocation reported by mallinfo(arena+hblkhd)
        847146 MiB available memory on the node where the printing process lives
     GPU memory used/free/total (MiB): 1486 / 79664 / 81151
------------------
     ethr =  1.68E-09,  avg # of iterations =  8.7

     total cpu time spent up to now is       55.7 secs

     total energy              =   -1489.31828244 Ry
     estimated scf accuracy    <       0.00000121 Ry

     total magnetization       =     2.30 Bohr mag/cell
     absolute magnetization    =     2.34 Bohr mag/cell
[tb_dev] Currently allocated     7.63E-05 Mbytes, locked:    0 /   2
[tb_pin] Currently allocated     0.00E+00 Mbytes, locked:    0 /   0

     iteration # 19     ecut=    60.00 Ry     beta= 0.30
     Davidson diagonalization with overlap

---- Real-time Memory Report at c_bands before calling an iterative solver
           990 MiB given to the printing process from OS
             0 MiB allocation reported by mallinfo(arena+hblkhd)
        847148 MiB available memory on the node where the printing process lives
     GPU memory used/free/total (MiB): 1486 / 79664 / 81151
------------------
     ethr =  1.26E-09,  avg # of iterations =  4.0

     total cpu time spent up to now is       58.4 secs

     total energy              =   -1489.31828281 Ry
     estimated scf accuracy    <       0.00000014 Ry

     total magnetization       =     2.30 Bohr mag/cell
     absolute magnetization    =     2.34 Bohr mag/cell
[tb_dev] Currently allocated     7.63E-05 Mbytes, locked:    0 /   2
[tb_pin] Currently allocated     0.00E+00 Mbytes, locked:    0 /   0

     iteration # 20     ecut=    60.00 Ry     beta= 0.30
     Davidson diagonalization with overlap

---- Real-time Memory Report at c_bands before calling an iterative solver
           990 MiB given to the printing process from OS
             0 MiB allocation reported by mallinfo(arena+hblkhd)
        847181 MiB available memory on the node where the printing process lives
     GPU memory used/free/total (MiB): 1486 / 79664 / 81151
------------------
     ethr =  1.46E-10,  avg # of iterations =  8.2

     total cpu time spent up to now is       61.8 secs

     total energy              =   -1489.31828291 Ry
     estimated scf accuracy    <       0.00000008 Ry

     total magnetization       =     2.30 Bohr mag/cell
     absolute magnetization    =     2.34 Bohr mag/cell
[tb_dev] Currently allocated     7.63E-05 Mbytes, locked:    0 /   2
[tb_pin] Currently allocated     0.00E+00 Mbytes, locked:    0 /   0

     iteration # 21     ecut=    60.00 Ry     beta= 0.30
     Davidson diagonalization with overlap

---- Real-time Memory Report at c_bands before calling an iterative solver
           990 MiB given to the printing process from OS
             0 MiB allocation reported by mallinfo(arena+hblkhd)
        847206 MiB available memory on the node where the printing process lives
     GPU memory used/free/total (MiB): 1486 / 79664 / 81151
------------------
     ethr =  8.23E-11,  avg # of iterations =  4.8

     total cpu time spent up to now is       64.6 secs

     total energy              =   -1489.31828293 Ry
     estimated scf accuracy    <       0.00000003 Ry

     total magnetization       =     2.30 Bohr mag/cell
     absolute magnetization    =     2.34 Bohr mag/cell
[tb_dev] Currently allocated     7.63E-05 Mbytes, locked:    0 /   2
[tb_pin] Currently allocated     0.00E+00 Mbytes, locked:    0 /   0

     iteration # 22     ecut=    60.00 Ry     beta= 0.30
     Davidson diagonalization with overlap

---- Real-time Memory Report at c_bands before calling an iterative solver
           990 MiB given to the printing process from OS
             0 MiB allocation reported by mallinfo(arena+hblkhd)
        847201 MiB available memory on the node where the printing process lives
     GPU memory used/free/total (MiB): 1486 / 79664 / 81151
------------------
     ethr =  2.67E-11,  avg # of iterations =  2.9
 
     Magnetic moment per site  (integrated on atomic sphere of radius R)
     atom   1 (R=0.159)  charge= 14.1023  magn=  0.5853
     atom   2 (R=0.159)  charge= 14.1023  magn=  0.5853
     atom   3 (R=0.159)  charge= 14.1023  magn=  0.5853
     atom   4 (R=0.159)  charge=  5.2479  magn=  0.0393
     atom   5 (R=0.159)  charge=  5.2081  magn=  0.0796
     atom   6 (R=0.159)  charge=  5.2081  magn=  0.0796
     atom   7 (R=0.159)  charge=  5.2597  magn=  0.0598
     atom   8 (R=0.159)  charge=  5.2597  magn=  0.0598
     atom   9 (R=0.159)  charge=  5.2597  magn=  0.0598
     atom  10 (R=0.174)  charge=  7.8531  magn=  0.0007

     total cpu time spent up to now is       67.0 secs

     End of self-consistent calculation

 ------ SPIN UP ------------


          k = 0.0000 0.0000 0.0000 (  6307 PWs)   bands (ev):

   -89.5328 -89.5272 -89.5272 -52.7828 -52.7805 -52.7805 -52.7804 -52.7540
   -52.7540 -52.7496 -52.7300 -52.7300 -43.3305 -15.3933 -15.3119 -15.3119
   -13.0489 -11.4308 -11.4308 -11.3613 -11.2471 -11.0744   0.5808   0.7404
     0.9051   0.9551   0.9551   1.1243   1.1243   1.2387   1.2387   2.8216
     2.8216   2.8290   3.0200   3.2600   3.2600   4.5815   4.6380   4.6380
     4.6692   4.6692   4.8089   4.8089   5.7203   5.7203   5.7450   5.7604
     5.8632   7.7616   7.8152   7.8152   7.8376   8.5557   8.5557  11.7208
    15.8889  17.2519  17.6623  17.6623  18.7529  18.7529  19.3089  19.8708

     occupation numbers 
     1.0000   1.0000   1.0000   1.0000   1.0000   1.0000   1.0000   1.0000
     1.0000   1.0000   1.0000   1.0000   1.0000   1.0000   1.0000   1.0000
     1.0000   1.0000   1.0000   1.0000   1.0000   1.0000   1.0000   1.0000
     1.0000   1.0000   1.0000   1.0000   1.0000   1.0000   1.0000   1.0000
     1.0000   1.0000   1.0000   1.0000   1.0000   1.0000   1.0000   1.0000
     1.0000   1.0000   1.0000   1.0000   1.0200   1.0200   1.0256   1.0297
     1.0630   0.0000   0.0000   0.0000   0.0000   0.0000   0.0000   0.0000
     0.0000   0.0000   0.0000   0.0000   0.0000   0.0000   0.0000   0.0000

          k = 0.0000 0.0000 0.3032 (  6332 PWs)   bands (ev):

   -89.5328 -89.5272 -89.5272 -52.7827 -52.7805 -52.7805 -52.7804 -52.7542
   -52.7542 -52.7494 -52.7302 -52.7302 -43.3306 -15.4121 -15.3119 -15.3119
   -12.9814 -11.4308 -11.4308 -11.3726 -11.2468 -11.1214   0.6787   0.7765
     0.8826   0.9329   0.9329   1.1231   1.1231   1.2585   1.2585   2.8464
     2.8464   2.8631   3.0420   3.2259   3.2259   4.1583   4.6405   4.6405
     4.6697   4.6697   4.8084   4.8084   5.7059   5.7059   5.7277   5.7449
     5.9517   7.8239   7.8672   7.8672   7.8920   8.5573   8.5573  12.5907
    14.8776  17.2805  17.4440  17.4440  18.7814  18.7814  19.4220  19.9928

     occupation numbers 
     1.0000   1.0000   1.0000   1.0000   1.0000   1.0000   1.0000   1.0000
     1.0000   1.0000   1.0000   1.0000   1.0000   1.0000   1.0000   1.0000
     1.0000   1.0000   1.0000   1.0000   1.0000   1.0000   1.0000   1.0000
     1.0000   1.0000   1.0000   1.0000   1.0000   1.0000   1.0000   1.0000
     1.0000   1.0000   1.0000   1.0000   1.0000   1.0000   1.0000   1.0000
     1.0000   1.0000   1.0000   1.0000   1.0171   1.0171   1.0216   1.0256
     1.0832   0.0000   0.0000   0.0000   0.0000   0.0000   0.0000   0.0000
     0.0000   0.0000   0.0000   0.0000   0.0000   0.0000   0.0000   0.0000

          k = 0.0000 0.1925 0.0000 (  6330 PWs)   bands (ev):

   -89.5324 -89.5275 -89.5274 -52.7889 -52.7866 -52.7737 -52.7709 -52.7561
   -52.7543 -52.7478 -52.7331 -52.7308 -43.3306 -15.3916 -15.3141 -15.3125
   -12.9468 -11.5446 -11.4679 -11.3392 -11.2461 -11.0813   0.4309   0.6796
     0.7089   0.9021   1.0111   1.0498   1.2008   1.6195   1.8074   2.5538
     2.6114   2.7158   2.8597   3.5331   3.6316   3.9719   4.1008   4.7167
     4.7512   4.7992   5.0538   5.2596   5.4675   5.4853   5.8366   5.9078
     5.9125   7.7803   7.8365   7.8726   7.9199   8.3007   8.4832  12.0783
    16.2809  16.8376  17.3174  17.4468  18.2488  19.0024  19.5601  19.8819

     occupation numbers 
     1.0000   1.0000   1.0000   1.0000   1.0000   1.0000   1.0000   1.0000
     1.0000   1.0000   1.0000   1.0000   1.0000   1.0000   1.0000   1.0000
     1.0000   1.0000   1.0000   1.0000   1.0000   1.0000   1.0000   1.0000
     1.0000   1.0000   1.0000   1.0000   1.0000   1.0000   1.0000   1.0000
     1.0000   1.0000   1.0000   1.0000   1.0000   1.0000   1.0000   1.0000
     1.0000   1.0000   1.0000   1.0000   1.0005   1.0007   1.0539   1.0763
     1.0775   0.0000   0.0000   0.0000   0.0000   0.0000   0.0000   0.0000
     0.0000   0.0000   0.0000   0.0000   0.0000   0.0000   0.0000   0.0000

          k = 0.0000 0.1925 0.3032 (  6320 PWs)   bands (ev):

   -89.5323 -89.5275 -89.5274 -52.7888 -52.7866 -52.7736 -52.7709 -52.7561
   -52.7543 -52.7476 -52.7331 -52.7308 -43.3305 -15.4087 -15.3137 -15.3123
   -12.8834 -11.5341 -11.4649 -11.3596 -11.2491 -11.1252   0.3986   0.6606
     0.8569   0.8821   0.9886   1.0367   1.1999   1.6298   1.8116   2.5487
     2.6062   2.7692   2.8771   3.5603   3.6375   3.9719   4.0744   4.4209
     4.7271   4.7941   5.0526   5.2473   5.4693   5.4888   5.8082   5.8763
     6.0133   7.8320   7.8765   7.9042   7.9634   8.2798   8.4872  12.8658
    15.2164  16.6302  16.9771  17.6542  18.2925  19.1317  19.5299  19.7612

     occupation numbers 
     1.0000   1.0000   1.0000   1.0000   1.0000   1.0000   1.0000   1.0000
     1.0000   1.0000   1.0000   1.0000   1.0000   1.0000   1.0000   1.0000
     1.0000   1.0000   1.0000   1.0000   1.0000   1.0000   1.0000   1.0000
     1.0000   1.0000   1.0000   1.0000   1.0000   1.0000   1.0000   1.0000
     1.0000   1.0000   1.0000   1.0000   1.0000   1.0000   1.0000   1.0000
     1.0000   1.0000   1.0000   1.0000   1.0006   1.0008   1.0442   1.0673
     1.0717   0.0000   0.0000   0.0000   0.0000   0.0000   0.0000   0.0000
     0.0000   0.0000   0.0000   0.0000   0.0000   0.0000   0.0000   0.0000

          k = 0.0000 0.3849 0.0000 (  6318 PWs)   bands (ev):

   -89.5312 -89.5283 -89.5277 -52.7945 -52.7843 -52.7678 -52.7641 -52.7623
   -52.7542 -52.7447 -52.7373 -52.7329 -43.3305 -15.3878 -15.3181 -15.3137
   -12.6635 -11.8476 -11.5124 -11.3636 -11.2010 -11.1033   0.0283   0.7961
     0.9032   0.9285   1.0403   1.2625   1.3614   1.8313   2.1013   2.3395
     2.4814   2.5885   2.9638   2.9786   3.4623   3.7912   4.2010   4.8182
     4.9347   5.1323   5.2031   5.2221   5.2466   5.6461   5.6868   5.8931
     5.9755   7.8023   7.8394   7.8734   7.8931   8.2255   8.2802  12.9733
    15.4485  16.9264  17.2164  17.5116  18.0009  18.9287  19.0988  19.4711

     occupation numbers 
     1.0000   1.0000   1.0000   1.0000   1.0000   1.0000   1.0000   1.0000
     1.0000   1.0000   1.0000   1.0000   1.0000   1.0000   1.0000   1.0000
     1.0000   1.0000   1.0000   1.0000   1.0000   1.0000   1.0000   1.0000
     1.0000   1.0000   1.0000   1.0000   1.0000   1.0000   1.0000   1.0000
     1.0000   1.0000   1.0000   1.0000   1.0000   1.0000   1.0000   1.0000
     1.0000   1.0000   1.0000   1.0000   1.0000   1.0084   1.0138   1.0724
     1.0823   0.0000   0.0000   0.0000   0.0000   0.0000   0.0000   0.0000
     0.0000   0.0000   0.0000   0.0000   0.0000   0.0000   0.0000   0.0000

          k = 0.0000 0.3849 0.3032 (  6304 PWs)   bands (ev):

   -89.5312 -89.5283 -89.5277 -52.7943 -52.7844 -52.7677 -52.7641 -52.7623
   -52.7542 -52.7446 -52.7373 -52.7329 -43.3305 -15.4020 -15.3175 -15.3132
   -12.6098 -11.8252 -11.5064 -11.3833 -11.2217 -11.1354  -0.0027   0.7281
     0.8461   0.8962   1.1897   1.2312   1.3614   1.8421   2.0832   2.4185
     2.5011   2.5989   2.9781   3.0043   3.4595   3.8883   4.2092   4.7388
     4.8246   5.1298   5.2082   5.2289   5.2565   5.6043   5.6644   5.9257
     5.9871   7.7595   7.8045   7.8757   7.9311   8.2406   8.2990  13.5199
    15.3827  16.0906  16.3889  17.6926  18.4318  18.6491  19.2267  19.7535

     occupation numbers 
     1.0000   1.0000   1.0000   1.0000   1.0000   1.0000   1.0000   1.0000
     1.0000   1.0000   1.0000   1.0000   1.0000   1.0000   1.0000   1.0000
     1.0000   1.0000   1.0000   1.0000   1.0000   1.0000   1.0000   1.0000
     1.0000   1.0000   1.0000   1.0000   1.0000   1.0000   1.0000   1.0000
     1.0000   1.0000   1.0000   1.0000   1.0000   1.0000   1.0000   1.0000
     1.0000   1.0000   1.0000   1.0000   1.0000   1.0048   1.0106   1.0802
     1.0804   0.0000   0.0000   0.0000   0.0000   0.0000   0.0000   0.0000
     0.0000   0.0000   0.0000   0.0000   0.0000   0.0000   0.0000   0.0000

          k = 0.0000-0.5774 0.0000 (  6336 PWs)   bands (ev):

   -89.5297 -89.5297 -89.5278 -52.7964 -52.7755 -52.7748 -52.7631 -52.7629
   -52.7535 -52.7444 -52.7368 -52.7348 -43.3306 -15.3858 -15.3204 -15.3143
   -12.3081 -12.2139 -11.5298 -11.3838 -11.1528 -11.1363  -0.1203   0.8020
     0.8578   1.2333   1.2668   1.5167   1.5502   1.6528   1.7776   2.2570
     2.3044   2.5173   2.8887   2.9169   3.3385   3.8739   4.7286   4.7330
     4.8368   5.0895   5.1460   5.1708   5.5323   5.6378   5.6718   5.8578
     5.9252   7.7139   7.7512   7.8749   7.9932   8.0133   8.4431  14.1275
    14.1440  16.7606  17.2067  18.2102  18.2380  18.6553  18.6949  18.7867

     occupation numbers 
     1.0000   1.0000   1.0000   1.0000   1.0000   1.0000   1.0000   1.0000
     1.0000   1.0000   1.0000   1.0000   1.0000   1.0000   1.0000   1.0000
     1.0000   1.0000   1.0000   1.0000   1.0000   1.0000   1.0000   1.0000
     1.0000   1.0000   1.0000   1.0000   1.0000   1.0000   1.0000   1.0000
     1.0000   1.0000   1.0000   1.0000   1.0000   1.0000   1.0000   1.0000
     1.0000   1.0000   1.0000   1.0000   1.0016   1.0076   1.0116   1.0611
     1.0801   0.0000   0.0000   0.0000   0.0000   0.0000   0.0000   0.0000
     0.0000   0.0000   0.0000   0.0000   0.0000   0.0000   0.0000   0.0000

          k = 0.0000-0.5774 0.3032 (  6310 PWs)   bands (ev):

   -89.5297 -89.5297 -89.5278 -52.7963 -52.7754 -52.7747 -52.7631 -52.7629
   -52.7535 -52.7444 -52.7368 -52.7348 -43.3305 -15.3986 -15.3196 -15.3138
   -12.2372 -12.2083 -11.5234 -11.4019 -11.1985 -11.1453  -0.1523   0.7042
     0.7906   1.2372   1.2718   1.4916   1.5751   1.7039   1.7767   2.3476
     2.3833   2.5398   2.8892   2.9148   3.3427   4.0066   4.6942   4.6957
     4.8259   5.0894   5.1501   5.1741   5.5171   5.6757   5.7111   5.8093
     5.8657   7.6166   7.6590   7.8724   8.0437   8.0716   8.4359  14.3280
    14.3876  16.1104  17.1818  17.2859  17.5038  18.8853  19.6270  19.7923

     occupation numbers 
     1.0000   1.0000   1.0000   1.0000   1.0000   1.0000   1.0000   1.0000
     1.0000   1.0000   1.0000   1.0000   1.0000   1.0000   1.0000   1.0000
     1.0000   1.0000   1.0000   1.0000   1.0000   1.0000   1.0000   1.0000
     1.0000   1.0000   1.0000   1.0000   1.0000   1.0000   1.0000   1.0000
     1.0000   1.0000   1.0000   1.0000   1.0000   1.0000   1.0000   1.0000
     1.0000   1.0000   1.0000   1.0000   1.0013   1.0121   1.0181   1.0445
     1.0638   0.0000   0.0000   0.0000   0.0000   0.0000   0.0000   0.0000
     0.0000   0.0000   0.0000   0.0000   0.0000   0.0000   0.0000   0.0000

          k = 0.1667 0.2887 0.0000 (  6317 PWs)   bands (ev):

   -89.5316 -89.5278 -89.5278 -52.7898 -52.7896 -52.7688 -52.7650 -52.7606
   -52.7541 -52.7453 -52.7366 -52.7321 -43.3305 -15.3887 -15.3168 -15.3137
   -12.7541 -11.6743 -11.6216 -11.2938 -11.2355 -11.0960   0.3302   0.4032
     0.8877   0.9658   1.0716   1.1110   1.3276   1.9746   1.9781   2.4525
     2.5304   2.6535   2.7292   3.1314   3.7848   3.8496   3.9177   4.7975
     4.9565   4.9579   5.2258   5.2869   5.2910   5.4870   5.8527   5.8585
     5.9233   7.7763   7.8286   7.8963   8.0298   8.0657   8.4090  12.6926
    16.2027  16.2388  16.9307  17.8004  18.6517  18.8230  19.1804  19.2444

     occupation numbers 
     1.0000   1.0000   1.0000   1.0000   1.0000   1.0000   1.0000   1.0000
     1.0000   1.0000   1.0000   1.0000   1.0000   1.0000   1.0000   1.0000
     1.0000   1.0000   1.0000   1.0000   1.0000   1.0000   1.0000   1.0000
     1.0000   1.0000   1.0000   1.0000   1.0000   1.0000   1.0000   1.0000
     1.0000   1.0000   1.0000   1.0000   1.0000   1.0000   1.0000   1.0000
     1.0000   1.0000   1.0000   1.0000   1.0000   1.0008   1.0594   1.0614
     1.0797   0.0000   0.0000   0.0000   0.0000   0.0000   0.0000   0.0000
     0.0000   0.0000   0.0000   0.0000   0.0000   0.0000   0.0000   0.0000

          k = 0.1667 0.2887 0.3032 (  6308 PWs)   bands (ev):

   -89.5315 -89.5278 -89.5278 -52.7897 -52.7896 -52.7688 -52.7650 -52.7606
   -52.7541 -52.7452 -52.7367 -52.7321 -43.3305 -15.4035 -15.3161 -15.3133
   -12.6984 -11.6573 -11.6195 -11.3197 -11.2377 -11.1326   0.2838   0.3839
     0.8360   1.0247   1.0784   1.1205   1.3263   1.9644   1.9686   2.4950
     2.5687   2.6743   2.7416   3.1515   3.7876   3.9114   3.9662   4.6146
     4.9482   4.9556   5.1505   5.2896   5.2926   5.4882   5.8315   5.8346
     6.0348   7.7586   7.8123   7.8321   8.0625   8.0950   8.4067  13.3825
    15.7523  16.1208  16.1852  18.2014  18.2371  18.4245  19.3648  19.6326

     occupation numbers 
     1.0000   1.0000   1.0000   1.0000   1.0000   1.0000   1.0000   1.0000
     1.0000   1.0000   1.0000   1.0000   1.0000   1.0000   1.0000   1.0000
     1.0000   1.0000   1.0000   1.0000   1.0000   1.0000   1.0000   1.0000
     1.0000   1.0000   1.0000   1.0000   1.0000   1.0000   1.0000   1.0000
     1.0000   1.0000   1.0000   1.0000   1.0000   1.0000   1.0000   1.0000
     1.0000   1.0000   1.0000   1.0000   1.0000   1.0008   1.0521   1.0532
     1.0595   0.0000   0.0000   0.0000   0.0000   0.0000   0.0000   0.0000
     0.0000   0.0000   0.0000   0.0000   0.0000   0.0000   0.0000   0.0000

          k = 0.1667 0.4811 0.0000 (  6294 PWs)   bands (ev):

   -89.5302 -89.5288 -89.5281 -52.7923 -52.7832 -52.7718 -52.7638 -52.7622
   -52.7529 -52.7446 -52.7368 -52.7339 -43.3305 -15.3857 -15.3192 -15.3150
   -12.4158 -12.0024 -11.7134 -11.2812 -11.1845 -11.1282   0.1015   0.6057
     0.7875   1.1832   1.2774   1.3580   1.5084   1.7861   1.8353   2.1983
     2.3012   2.4659   2.9248   3.1721   3.3426   3.9856   4.3876   4.7587
     4.9910   5.1739   5.1951   5.2466   5.3927   5.6182   5.6439   5.8140
     5.8519   7.6054   7.6843   7.8012   8.1488   8.2762   8.3702  13.6817
    14.8794  15.8253  17.8018  18.2057  18.3906  18.6070  18.7222  19.0060

     occupation numbers 
     1.0000   1.0000   1.0000   1.0000   1.0000   1.0000   1.0000   1.0000
     1.0000   1.0000   1.0000   1.0000   1.0000   1.0000   1.0000   1.0000
     1.0000   1.0000   1.0000   1.0000   1.0000   1.0000   1.0000   1.0000
     1.0000   1.0000   1.0000   1.0000   1.0000   1.0000   1.0000   1.0000
     1.0000   1.0000   1.0000   1.0000   1.0000   1.0000   1.0000   1.0000
     1.0000   1.0000   1.0000   1.0000   1.0001   1.0058   1.0082   1.0461
     1.0592   0.0000   0.0000   0.0000   0.0000   0.0000   0.0000   0.0000
     0.0000   0.0000   0.0000   0.0000   0.0000   0.0000   0.0000   0.0000

          k = 0.1667 0.4811 0.3032 (  6307 PWs)   bands (ev):

   -89.5302 -89.5288 -89.5281 -52.7924 -52.7833 -52.7718 -52.7638 -52.7622
   -52.7529 -52.7446 -52.7369 -52.7339 -43.3305 -15.3982 -15.3185 -15.3147
   -12.3702 -11.9797 -11.7073 -11.3059 -11.2040 -11.1479   0.0610   0.5374
     0.7086   1.1513   1.3028   1.3564   1.5232   1.7946   1.8253   2.3001
     2.3658   2.5152   2.9303   3.1776   3.3460   4.0987   4.4260   4.7247
     4.9817   5.1705   5.1931   5.2078   5.4007   5.6063   5.6348   5.8271
     5.9058   7.4754   7.5909   7.7472   8.1699   8.2831   8.3676  14.1426
    15.0530  15.8505  16.6812  17.5460  17.7002  19.1043  19.3465  19.7907

     occupation numbers 
     1.0000   1.0000   1.0000   1.0000   1.0000   1.0000   1.0000   1.0000
     1.0000   1.0000   1.0000   1.0000   1.0000   1.0000   1.0000   1.0000
     1.0000   1.0000   1.0000   1.0000   1.0000   1.0000   1.0000   1.0000
     1.0000   1.0000   1.0000   1.0000   1.0000   1.0000   1.0000   1.0000
     1.0000   1.0000   1.0000   1.0000   1.0000   1.0000   1.0000   1.0000
     1.0000   1.0000   1.0000   1.0000   1.0002   1.0049   1.0073   1.0506
     1.0758   0.0000   0.0000   0.0000   0.0000   0.0000   0.0000   0.0000
     0.0000   0.0000   0.0000   0.0000   0.0000   0.0000   0.0000   0.0000

          k = 0.3333 0.5774 0.0000 (  6294 PWs)   bands (ev):

   -89.5291 -89.5290 -89.5290 -52.7838 -52.7831 -52.7831 -52.7623 -52.7623
   -52.7518 -52.7451 -52.7350 -52.7350 -43.3305 -15.3849 -15.3177 -15.3177
   -12.1437 -12.0221 -12.0221 -11.2150 -11.1703 -11.1703   0.4278   0.5341
     0.5341   1.3208   1.3208   1.3579   1.6692   1.6692   1.7166   2.0368
     2.2057   2.2057   3.2534   3.2534   3.3338   4.3739   4.3994   4.3994
     5.1632   5.1959   5.1959   5.4291   5.4298   5.4298   5.6552   5.6956
     5.6956   7.5889   7.6424   7.6424   8.3382   8.3382   8.4109  14.6325
    14.6325  14.6931  18.2635  18.3038  18.3038  18.7022  18.7022  18.8511

     occupation numbers 
     1.0000   1.0000   1.0000   1.0000   1.0000   1.0000   1.0000   1.0000
     1.0000   1.0000   1.0000   1.0000   1.0000   1.0000   1.0000   1.0000
     1.0000   1.0000   1.0000   1.0000   1.0000   1.0000   1.0000   1.0000
     1.0000   1.0000   1.0000   1.0000   1.0000   1.0000   1.0000   1.0000
     1.0000   1.0000   1.0000   1.0000   1.0000   1.0000   1.0000   1.0000
     1.0000   1.0000   1.0000   1.0003   1.0003   1.0003   1.0094   1.0153
     1.0153   0.0000   0.0000   0.0000   0.0000   0.0000   0.0000   0.0000
     0.0000   0.0000   0.0000   0.0000   0.0000   0.0000   0.0000   0.0000

          k = 0.3333 0.5774 0.3032 (  6312 PWs)   bands (ev):

   -89.5291 -89.5290 -89.5290 -52.7839 -52.7832 -52.7832 -52.7624 -52.7624
   -52.7518 -52.7452 -52.7350 -52.7350 -43.3305 -15.3964 -15.3173 -15.3173
   -12.0762 -12.0183 -12.0183 -11.2678 -11.1759 -11.1759   0.3311   0.4856
     0.4856   1.2964   1.2964   1.3125   1.6662   1.6662   1.7126   2.1772
     2.3061   2.3061   3.2552   3.2552   3.3406   4.4417   4.4466   4.4466
     5.1430   5.1716   5.1716   5.4305   5.4305   5.4321   5.6918   5.7347
     5.7347   7.4610   7.5213   7.5213   8.3340   8.3340   8.4001  14.8981
    14.8981  15.0124  17.2207  17.3652  17.3652  19.5285  19.5285  19.8113

     occupation numbers 
     1.0000   1.0000   1.0000   1.0000   1.0000   1.0000   1.0000   1.0000
     1.0000   1.0000   1.0000   1.0000   1.0000   1.0000   1.0000   1.0000
     1.0000   1.0000   1.0000   1.0000   1.0000   1.0000   1.0000   1.0000
     1.0000   1.0000   1.0000   1.0000   1.0000   1.0000   1.0000   1.0000
     1.0000   1.0000   1.0000   1.0000   1.0000   1.0000   1.0000   1.0000
     1.0000   1.0000   1.0000   1.0003   1.0003   1.0003   1.0146   1.0232
     1.0232   0.0000   0.0000   0.0000   0.0000   0.0000   0.0000   0.0000
     0.0000   0.0000   0.0000   0.0000   0.0000   0.0000   0.0000   0.0000

          k =-0.1667-0.2887 0.3032 (  6308 PWs)   bands (ev):

   -89.5315 -89.5278 -89.5278 -52.7897 -52.7895 -52.7687 -52.7651 -52.7606
   -52.7541 -52.7452 -52.7367 -52.7321 -43.3305 -15.4040 -15.3161 -15.3134
   -12.6967 -11.6445 -11.6171 -11.3345 -11.2401 -11.1331   0.2858   0.3789
     0.8657   1.0344   1.0846   1.0969   1.3269   1.9709   1.9735   2.4827
     2.5523   2.6949   2.7682   3.1423   3.7858   3.8670   3.9373   4.6141
     4.9543   4.9631   5.1523   5.2933   5.2970   5.4873   5.8122   5.8157
     6.0060   7.8190   7.8738   7.8922   8.0431   8.0707   8.4110  13.2542
    15.7958  15.8655  15.9988  18.3127  18.6501  18.7823  19.2016  19.5724

     occupation numbers 
     1.0000   1.0000   1.0000   1.0000   1.0000   1.0000   1.0000   1.0000
     1.0000   1.0000   1.0000   1.0000   1.0000   1.0000   1.0000   1.0000
     1.0000   1.0000   1.0000   1.0000   1.0000   1.0000   1.0000   1.0000
     1.0000   1.0000   1.0000   1.0000   1.0000   1.0000   1.0000   1.0000
     1.0000   1.0000   1.0000   1.0000   1.0000   1.0000   1.0000   1.0000
     1.0000   1.0000   1.0000   1.0000   1.0000   1.0008   1.0455   1.0467
     1.0748   0.0000   0.0000   0.0000   0.0000   0.0000   0.0000   0.0000
     0.0000   0.0000   0.0000   0.0000   0.0000   0.0000   0.0000   0.0000

          k =-0.1667-0.4811 0.3032 (  6307 PWs)   bands (ev):

   -89.5302 -89.5288 -89.5281 -52.7924 -52.7833 -52.7718 -52.7638 -52.7623
   -52.7529 -52.7446 -52.7369 -52.7339 -43.3305 -15.3992 -15.3186 -15.3148
   -12.3655 -11.9726 -11.6954 -11.3261 -11.2075 -11.1496   0.0638   0.5499
     0.7322   1.1519   1.3117   1.3346   1.5185   1.7883   1.8263   2.3264
     2.3830   2.5415   2.9246   3.1761   3.3418   4.0276   4.3723   4.6854
     4.9989   5.1799   5.1957   5.2156   5.4078   5.5913   5.6322   5.7845
     5.8359   7.5981   7.7020   7.8268   8.1536   8.2807   8.3670  13.9040
    14.7732  15.4007  16.8824  17.9700  18.2312  19.0031  19.3772  19.8110

     occupation numbers 
     1.0000   1.0000   1.0000   1.0000   1.0000   1.0000   1.0000   1.0000
     1.0000   1.0000   1.0000   1.0000   1.0000   1.0000   1.0000   1.0000
     1.0000   1.0000   1.0000   1.0000   1.0000   1.0000   1.0000   1.0000
     1.0000   1.0000   1.0000   1.0000   1.0000   1.0000   1.0000   1.0000
     1.0000   1.0000   1.0000   1.0000   1.0000   1.0000   1.0000   1.0000
     1.0000   1.0000   1.0000   1.0000   1.0002   1.0040   1.0070   1.0366
     1.0536   0.0000   0.0000   0.0000   0.0000   0.0000   0.0000   0.0000
     0.0000   0.0000   0.0000   0.0000   0.0000   0.0000   0.0000   0.0000

          k =-0.3333-0.5774 0.3032 (  6312 PWs)   bands (ev):

   -89.5291 -89.5290 -89.5290 -52.7839 -52.7832 -52.7832 -52.7624 -52.7624
   -52.7518 -52.7452 -52.7350 -52.7350 -43.3305 -15.3979 -15.3173 -15.3173
   -12.0539 -12.0156 -12.0156 -11.2915 -11.1792 -11.1792   0.3566   0.4963
     0.4963   1.2895   1.2895   1.3000   1.6664   1.6664   1.7165   2.2082
     2.3347   2.3347   3.2547   3.2547   3.3336   4.3566   4.3779   4.3779
     5.1546   5.1903   5.1903   5.4301   5.4301   5.4312   5.6313   5.6685
     5.6685   7.6095   7.6629   7.6629   8.3356   8.3356   8.4066  14.4919
    14.4919  14.5819  17.7004  17.7564  17.7564  19.6766  19.6767  19.9477

     occupation numbers 
     1.0000   1.0000   1.0000   1.0000   1.0000   1.0000   1.0000   1.0000
     1.0000   1.0000   1.0000   1.0000   1.0000   1.0000   1.0000   1.0000
     1.0000   1.0000   1.0000   1.0000   1.0000   1.0000   1.0000   1.0000
     1.0000   1.0000   1.0000   1.0000   1.0000   1.0000   1.0000   1.0000
     1.0000   1.0000   1.0000   1.0000   1.0000   1.0000   1.0000   1.0000
     1.0000   1.0000   1.0000   1.0003   1.0003   1.0003   1.0069   1.0111
     1.0111   0.0000   0.0000   0.0000   0.0000   0.0000   0.0000   0.0000
     0.0000   0.0000   0.0000   0.0000   0.0000   0.0000   0.0000   0.0000

 ------ SPIN DOWN ----------


          k = 0.0000 0.0000 0.0000 (  6307 PWs)   bands (ev):

   -88.8165 -88.8107 -88.8107 -52.1394 -52.1368 -52.1368 -52.1341 -52.0965
   -52.0965 -51.9471 -51.9370 -51.9370 -43.3296 -15.3892 -15.3096 -15.3096
   -12.9505 -11.3253 -11.3253 -11.2718 -11.1066 -10.9572   0.8726   0.8934
     1.0642   1.1057   1.1057   1.2949   1.2949   1.3839   1.3839   3.0709
     3.0709   3.0847   3.3348   3.3390   3.3390   4.7687   4.8827   4.8827
     5.2518   5.2518   5.6416   5.6416   6.3028   6.3028   6.3073   6.3683
     6.7253   8.0764   8.1240   8.1240   8.1620   8.8652   8.8652  11.7807
    15.9910  17.3855  17.7014  17.7015  18.7922  18.7922  19.3551  19.9266

     occupation numbers 
     1.0000   1.0000   1.0000   1.0000   1.0000   1.0000   1.0000   1.0000
     1.0000   1.0000   1.0000   1.0000   1.0000   1.0000   1.0000   1.0000
     1.0000   1.0000   1.0000   1.0000   1.0000   1.0000   1.0000   1.0000
     1.0000   1.0000   1.0000   1.0000   1.0000   1.0000   1.0000   1.0000
     1.0000   1.0000   1.0000   1.0000   1.0000   1.0000   1.0000   1.0000
     1.0000   1.0000   1.0079   1.0079   0.5073   0.5073   0.4951   0.3402
     0.0061   0.0000   0.0000   0.0000   0.0000   0.0000   0.0000   0.0000
     0.0000   0.0000   0.0000   0.0000   0.0000   0.0000   0.0000   0.0000

          k = 0.0000 0.0000 0.3032 (  6332 PWs)   bands (ev):

   -88.8165 -88.8107 -88.8107 -52.1394 -52.1368 -52.1368 -52.1341 -52.0966
   -52.0966 -51.9468 -51.9372 -51.9372 -43.3296 -15.4070 -15.3095 -15.3095
   -12.8836 -11.3253 -11.3253 -11.2888 -11.1063 -10.9989   0.8194   1.0415
     1.0827   1.0827   1.0984   1.3034   1.3034   1.3944   1.3944   3.0964
     3.0964   3.1180   3.3047   3.3047   3.3569   4.3354   4.8819   4.8819
     5.2516   5.2516   5.6470   5.6470   6.2901   6.2901   6.2925   6.3542
     6.7979   8.1373   8.1756   8.1756   8.2170   8.8670   8.8670  12.6642
    14.9966  17.3715  17.4663  17.4663  18.8144  18.8144  19.4626  20.1758

     occupation numbers 
     1.0000   1.0000   1.0000   1.0000   1.0000   1.0000   1.0000   1.0000
     1.0000   1.0000   1.0000   1.0000   1.0000   1.0000   1.0000   1.0000
     1.0000   1.0000   1.0000   1.0000   1.0000   1.0000   1.0000   1.0000
     1.0000   1.0000   1.0000   1.0000   1.0000   1.0000   1.0000   1.0000
     1.0000   1.0000   1.0000   1.0000   1.0000   1.0000   1.0000   1.0000
     1.0000   1.0000   1.0085   1.0085   0.5420   0.5420   0.5353   0.3739
     0.0018   0.0000   0.0000   0.0000   0.0000   0.0000   0.0000   0.0000
     0.0000   0.0000   0.0000   0.0000   0.0000   0.0000   0.0000   0.0000

          k = 0.0000 0.1925 0.0000 (  6330 PWs)   bands (ev):

   -88.8161 -88.8109 -88.8109 -52.1465 -52.1428 -52.1273 -52.1244 -52.1016
   -52.0978 -51.9462 -51.9376 -51.9375 -43.3296 -15.3876 -15.3116 -15.3102
   -12.8482 -11.4427 -11.3625 -11.2418 -11.1106 -10.9639   0.5688   0.8146
     1.0098   1.0600   1.1575   1.2662   1.4186   1.7322   1.9314   2.7358
     2.8029   2.9839   3.1416   3.6868   3.8146   4.1882   4.3758   4.9263
     5.5445   5.6575   5.6964   5.7512   6.0720   6.1032   6.3887   6.4588
     6.7444   8.0943   8.1608   8.1943   8.2305   8.6154   8.7882  12.1358
    16.3828  16.8769  17.3546  17.5781  18.2940  19.0611  19.6703  19.9601

     occupation numbers 
     1.0000   1.0000   1.0000   1.0000   1.0000   1.0000   1.0000   1.0000
     1.0000   1.0000   1.0000   1.0000   1.0000   1.0000   1.0000   1.0000
     1.0000   1.0000   1.0000   1.0000   1.0000   1.0000   1.0000   1.0000
     1.0000   1.0000   1.0000   1.0000   1.0000   1.0000   1.0000   1.0000
     1.0000   1.0000   1.0000   1.0000   1.0000   1.0000   1.0000   1.0000
     1.0020   1.0097   1.0154   1.0272   1.0260   0.9848   0.2944   0.1657
     0.0044   0.0000   0.0000   0.0000   0.0000   0.0000   0.0000   0.0000
     0.0000   0.0000   0.0000   0.0000   0.0000   0.0000   0.0000   0.0000

          k = 0.0000 0.1925 0.3032 (  6320 PWs)   bands (ev):

   -88.8160 -88.8110 -88.8109 -52.1465 -52.1429 -52.1273 -52.1244 -52.1015
   -52.0977 -51.9460 -51.9377 -51.9375 -43.3296 -15.4039 -15.3113 -15.3099
   -12.7851 -11.4330 -11.3600 -11.2675 -11.1128 -11.0027   0.5367   0.7942
     1.0182   1.1314   1.1810   1.2715   1.4174   1.7418   1.9343   2.7260
     2.7912   3.0409   3.1596   3.7188   3.8263   4.1907   4.3366   4.6100
     5.5450   5.6427   5.6978   5.7525   6.0743   6.1064   6.3634   6.4295
     6.8258   8.1485   8.1959   8.2264   8.2729   8.5915   8.7925  12.9374
    15.3344  16.6582  17.0016  17.7487  18.3373  19.1748  19.6770  19.8972

     occupation numbers 
     1.0000   1.0000   1.0000   1.0000   1.0000   1.0000   1.0000   1.0000
     1.0000   1.0000   1.0000   1.0000   1.0000   1.0000   1.0000   1.0000
     1.0000   1.0000   1.0000   1.0000   1.0000   1.0000   1.0000   1.0000
     1.0000   1.0000   1.0000   1.0000   1.0000   1.0000   1.0000   1.0000
     1.0000   1.0000   1.0000   1.0000   1.0000   1.0000   1.0000   1.0000
     1.0020   1.0081   1.0157   1.0275   1.0234   0.9800   0.3517   0.2139
     0.0011   0.0000   0.0000   0.0000   0.0000   0.0000   0.0000   0.0000
     0.0000   0.0000   0.0000   0.0000   0.0000   0.0000   0.0000   0.0000

          k = 0.0000 0.3849 0.0000 (  6318 PWs)   bands (ev):

   -88.8148 -88.8118 -88.8112 -52.1524 -52.1406 -52.1179 -52.1145 -52.1134
   -52.1014 -51.9442 -51.9391 -51.9380 -43.3296 -15.3840 -15.3155 -15.3113
   -12.5646 -11.7442 -11.4081 -11.2558 -11.0791 -10.9842   0.1714   0.9488
     1.0863   1.1122   1.3347   1.3939   1.5658   1.9788   2.2684   2.6091
     2.7322   2.7943   3.1320   3.1617   3.7045   3.9619   4.3995   5.1143
     5.7089   5.7263   5.8594   5.8830   6.0749   6.0919   6.2472   6.4804
     6.7061   8.1287   8.1537   8.2024   8.2524   8.5138   8.5746  13.0260
    15.4899  16.9626  17.3142  17.5650  18.1321  19.0455  19.2041  19.5907

     occupation numbers 
     1.0000   1.0000   1.0000   1.0000   1.0000   1.0000   1.0000   1.0000
     1.0000   1.0000   1.0000   1.0000   1.0000   1.0000   1.0000   1.0000
     1.0000   1.0000   1.0000   1.0000   1.0000   1.0000   1.0000   1.0000
     1.0000   1.0000   1.0000   1.0000   1.0000   1.0000   1.0000   1.0000
     1.0000   1.0000   1.0000   1.0000   1.0000   1.0000   1.0000   1.0000
     1.0177   1.0213   1.0617   1.0694   1.0227   1.0012   0.6607   0.1356
     0.0082   0.0000   0.0000   0.0000   0.0000   0.0000   0.0000   0.0000
     0.0000   0.0000   0.0000   0.0000   0.0000   0.0000   0.0000   0.0000

          k = 0.0000 0.3849 0.3032 (  6304 PWs)   bands (ev):

   -88.8148 -88.8118 -88.8112 -52.1522 -52.1408 -52.1179 -52.1145 -52.1134
   -52.1014 -51.9441 -51.9392 -51.9380 -43.3296 -15.3976 -15.3149 -15.3108
   -12.5104 -11.7224 -11.4024 -11.2833 -11.0971 -11.0115   0.1409   0.8892
     1.0368   1.0585   1.3583   1.4898   1.5717   1.9888   2.2514   2.6653
     2.7366   2.8501   3.1474   3.2010   3.7007   4.0646   4.4039   4.9197
     5.7074   5.7201   5.8647   5.8880   6.0430   6.0927   6.2312   6.4370
     6.7777   8.0809   8.1240   8.2143   8.2665   8.5281   8.5962  13.5849
    15.4221  16.2013  16.4217  17.7519  18.5443  18.7577  19.3176  19.8765

     occupation numbers 
     1.0000   1.0000   1.0000   1.0000   1.0000   1.0000   1.0000   1.0000
     1.0000   1.0000   1.0000   1.0000   1.0000   1.0000   1.0000   1.0000
     1.0000   1.0000   1.0000   1.0000   1.0000   1.0000   1.0000   1.0000
     1.0000   1.0000   1.0000   1.0000   1.0000   1.0000   1.0000   1.0000
     1.0000   1.0000   1.0000   1.0000   1.0000   1.0000   1.0000   1.0000
     1.0174   1.0199   1.0635   1.0709   1.0535   1.0001   0.7041   0.2007
     0.0025   0.0000   0.0000   0.0000   0.0000   0.0000   0.0000   0.0000
     0.0000   0.0000   0.0000   0.0000   0.0000   0.0000   0.0000   0.0000

          k = 0.0000-0.5774 0.0000 (  6336 PWs)   bands (ev):

   -88.8133 -88.8133 -88.8113 -52.1544 -52.1312 -52.1288 -52.1109 -52.1092
   -52.1061 -51.9416 -51.9415 -51.9381 -43.3296 -15.3822 -15.3177 -15.3119
   -12.2172 -12.1017 -11.4260 -11.2735 -11.0418 -11.0093   0.0248   0.9884
     1.0498   1.4131   1.4567   1.6413   1.7428   1.9002   1.9780   2.4626
     2.5315   2.8483   3.0851   3.1322   3.4147   4.0344   4.9143   4.9395
     5.6527   5.7630   5.7850   5.7923   6.1600   6.3151   6.3943   6.4658
     6.5022   8.0432   8.0825   8.2407   8.3081   8.3097   8.7220  14.1764
    14.1889  16.7965  17.2524  18.3064  18.3405  18.7843  18.8406  18.9079

     occupation numbers 
     1.0000   1.0000   1.0000   1.0000   1.0000   1.0000   1.0000   1.0000
     1.0000   1.0000   1.0000   1.0000   1.0000   1.0000   1.0000   1.0000
     1.0000   1.0000   1.0000   1.0000   1.0000   1.0000   1.0000   1.0000
     1.0000   1.0000   1.0000   1.0000   1.0000   1.0000   1.0000   1.0000
     1.0000   1.0000   1.0000   1.0000   1.0000   1.0000   1.0000   1.0000
     1.0091   1.0304   1.0368   1.0391   0.8799   0.4742   0.2824   0.1555
     0.1093   0.0000   0.0000   0.0000   0.0000   0.0000   0.0000   0.0000
     0.0000   0.0000   0.0000   0.0000   0.0000   0.0000   0.0000   0.0000

          k = 0.0000-0.5774 0.3032 (  6310 PWs)   bands (ev):

   -88.8132 -88.8132 -88.8113 -52.1544 -52.1311 -52.1287 -52.1111 -52.1091
   -52.1060 -51.9415 -51.9414 -51.9383 -43.3296 -15.3944 -15.3169 -15.3114
   -12.1465 -12.0960 -11.4197 -11.2993 -11.0802 -11.0184  -0.0068   0.8866
     0.9800   1.4128   1.4524   1.5829   1.7978   1.9411   1.9792   2.5866
     2.6397   2.8664   3.0861   3.1310   3.4200   4.1699   4.8690   4.8882
     5.6418   5.7633   5.7862   5.7942   6.1526   6.2682   6.3386   6.4970
     6.5352   7.9365   7.9803   8.2472   8.3520   8.3703   8.7148  14.3846
    14.4373  16.1400  17.2832  17.4031  17.5824  18.9629  19.7612  19.9084

     occupation numbers 
     1.0000   1.0000   1.0000   1.0000   1.0000   1.0000   1.0000   1.0000
     1.0000   1.0000   1.0000   1.0000   1.0000   1.0000   1.0000   1.0000
     1.0000   1.0000   1.0000   1.0000   1.0000   1.0000   1.0000   1.0000
     1.0000   1.0000   1.0000   1.0000   1.0000   1.0000   1.0000   1.0000
     1.0000   1.0000   1.0000   1.0000   1.0000   1.0000   1.0000   1.0000
     1.0080   1.0304   1.0371   1.0397   0.8956   0.6027   0.4127   0.1152
     0.0772   0.0000   0.0000   0.0000   0.0000   0.0000   0.0000   0.0000
     0.0000   0.0000   0.0000   0.0000   0.0000   0.0000   0.0000   0.0000

          k = 0.1667 0.2887 0.0000 (  6317 PWs)   bands (ev):

   -88.8152 -88.8113 -88.8113 -52.1482 -52.1455 -52.1194 -52.1166 -52.1106
   -52.0999 -51.9448 -51.9382 -51.9381 -43.3296 -15.3849 -15.3142 -15.3113
   -12.6552 -11.5765 -11.5101 -11.1974 -11.1029 -10.9777   0.4730   0.5517
     1.1117   1.2144   1.2470   1.2578   1.5382   2.1221   2.1369   2.6622
     2.7329   2.8769   2.9871   3.3239   4.0211   4.0298   4.1301   5.0321
     5.7158   5.8542   5.8622   5.9070   5.9191   5.9426   6.3850   6.3979
     6.7331   8.1204   8.1785   8.2240   8.3273   8.3648   8.7038  12.7463
    16.2439  16.2756  17.0327  17.9342  18.6971  18.8874  19.2950  19.3584

     occupation numbers 
     1.0000   1.0000   1.0000   1.0000   1.0000   1.0000   1.0000   1.0000
     1.0000   1.0000   1.0000   1.0000   1.0000   1.0000   1.0000   1.0000
     1.0000   1.0000   1.0000   1.0000   1.0000   1.0000   1.0000   1.0000
     1.0000   1.0000   1.0000   1.0000   1.0000   1.0000   1.0000   1.0000
     1.0000   1.0000   1.0000   1.0000   1.0000   1.0000   1.0000   1.0000
     1.0191   1.0599   1.0627   1.0761   1.0789   1.0825   0.3025   0.2748
     0.0053   0.0000   0.0000   0.0000   0.0000   0.0000   0.0000   0.0000
     0.0000   0.0000   0.0000   0.0000   0.0000   0.0000   0.0000   0.0000

          k = 0.1667 0.2887 0.3032 (  6308 PWs)   bands (ev):

   -88.8152 -88.8113 -88.8113 -52.1482 -52.1455 -52.1194 -52.1166 -52.1106
   -52.0999 -51.9447 -51.9383 -51.9383 -43.3296 -15.3990 -15.3136 -15.3109
   -12.5993 -11.5609 -11.5081 -11.2274 -11.1050 -11.0095   0.4272   0.5339
     1.0432   1.1701   1.2235   1.4236   1.5368   2.1123   2.1267   2.6808
     2.7512   2.9211   3.0186   3.3556   4.0370   4.0863   4.1814   4.8010
     5.6801   5.8457   5.8569   5.9108   5.9211   5.9449   6.3664   6.3811
     6.8209   8.0989   8.1567   8.1603   8.3555   8.3929   8.7015  13.4518
    15.8617  16.1561  16.2195  18.2856  18.3081  18.5206  19.4399  19.7381

     occupation numbers 
     1.0000   1.0000   1.0000   1.0000   1.0000   1.0000   1.0000   1.0000
     1.0000   1.0000   1.0000   1.0000   1.0000   1.0000   1.0000   1.0000
     1.0000   1.0000   1.0000   1.0000   1.0000   1.0000   1.0000   1.0000
     1.0000   1.0000   1.0000   1.0000   1.0000   1.0000   1.0000   1.0000
     1.0000   1.0000   1.0000   1.0000   1.0000   1.0000   1.0000   1.0000
     1.0128   1.0570   1.0609   1.0771   1.0793   1.0827   0.3447   0.3111
     0.0012   0.0000   0.0000   0.0000   0.0000   0.0000   0.0000   0.0000
     0.0000   0.0000   0.0000   0.0000   0.0000   0.0000   0.0000   0.0000

          k = 0.1667 0.4811 0.0000 (  6294 PWs)   bands (ev):

   -88.8138 -88.8124 -88.8116 -52.1500 -52.1395 -52.1258 -52.1115 -52.1097
   -52.1036 -51.9425 -51.9400 -51.9386 -43.3296 -15.3821 -15.3165 -15.3125
   -12.3177 -11.8984 -11.6063 -11.1786 -11.0633 -11.0063   0.2522   0.7780
     0.9842   1.3320   1.4755   1.5257   1.7134   1.9750   2.0211   2.4491
     2.5475   2.7851   3.0972   3.2914   3.5629   4.1685   4.5881   4.9902
     5.7469   5.7918   5.8133   5.8695   6.1215   6.1688   6.2464   6.4089
     6.6078   7.9580   8.0418   8.1808   8.4339   8.5586   8.6510  13.7301
    14.9226  15.8645  17.9002  18.2700  18.5138  18.7150  18.8395  19.1279

     occupation numbers 
     1.0000   1.0000   1.0000   1.0000   1.0000   1.0000   1.0000   1.0000
     1.0000   1.0000   1.0000   1.0000   1.0000   1.0000   1.0000   1.0000
     1.0000   1.0000   1.0000   1.0000   1.0000   1.0000   1.0000   1.0000
     1.0000   1.0000   1.0000   1.0000   1.0000   1.0000   1.0000   1.0000
     1.0000   1.0000   1.0000   1.0000   1.0000   1.0000   1.0000   1.0000
     1.0261   1.0389   1.0459   1.0651   0.9552   0.8604   0.6628   0.2526
     0.0326   0.0000   0.0000   0.0000   0.0000   0.0000   0.0000   0.0000
     0.0000   0.0000   0.0000   0.0000   0.0000   0.0000   0.0000   0.0000

          k = 0.1667 0.4811 0.3032 (  6307 PWs)   bands (ev):

   -88.8138 -88.8124 -88.8116 -52.1502 -52.1396 -52.1258 -52.1115 -52.1097
   -52.1036 -51.9424 -51.9401 -51.9388 -43.3296 -15.3941 -15.3159 -15.3122
   -12.2705 -11.8768 -11.6013 -11.2110 -11.0787 -11.0222   0.2123   0.7102
     0.9030   1.2964   1.4267   1.5767   1.7381   1.9784   2.0131   2.5602
     2.6467   2.8334   3.1041   3.2990   3.5669   4.2873   4.6241   4.9294
     5.7326   5.7713   5.8080   5.8678   6.1067   6.1518   6.2493   6.4185
     6.6693   7.8196   7.9420   8.1225   8.4552   8.5659   8.6487  14.2037
    15.0998  15.8870  16.7890  17.6251  17.8019  19.1723  19.4613  19.9422

     occupation numbers 
     1.0000   1.0000   1.0000   1.0000   1.0000   1.0000   1.0000   1.0000
     1.0000   1.0000   1.0000   1.0000   1.0000   1.0000   1.0000   1.0000
     1.0000   1.0000   1.0000   1.0000   1.0000   1.0000   1.0000   1.0000
     1.0000   1.0000   1.0000   1.0000   1.0000   1.0000   1.0000   1.0000
     1.0000   1.0000   1.0000   1.0000   1.0000   1.0000   1.0000   1.0000
     1.0227   1.0327   1.0441   1.0645   0.9796   0.8973   0.6549   0.2340
     0.0141   0.0000   0.0000   0.0000   0.0000   0.0000   0.0000   0.0000
     0.0000   0.0000   0.0000   0.0000   0.0000   0.0000   0.0000   0.0000

          k = 0.3333 0.5774 0.0000 (  6294 PWs)   bands (ev):

   -88.8126 -88.8126 -88.8126 -52.1423 -52.1385 -52.1385 -52.1081 -52.1081
   -52.1045 -51.9405 -51.9404 -51.9404 -43.3296 -15.3814 -15.3151 -15.3151
   -12.0594 -11.9094 -11.9094 -11.1259 -11.0423 -11.0423   0.5951   0.7136
     0.7136   1.4603   1.4603   1.5025   1.8594   1.8594   1.9162   2.3097
     2.5244   2.5244   3.4203   3.4203   3.5257   4.5515   4.6261   4.6261
     5.7640   5.8172   5.8172   5.9992   5.9992   6.0249   6.3929   6.4310
     6.4310   7.9616   8.0226   8.0226   8.6124   8.6124   8.6897  14.6780
    14.6780  14.7317  18.3567  18.4055  18.4055  18.8263  18.8263  18.9699

     occupation numbers 
     1.0000   1.0000   1.0000   1.0000   1.0000   1.0000   1.0000   1.0000
     1.0000   1.0000   1.0000   1.0000   1.0000   1.0000   1.0000   1.0000
     1.0000   1.0000   1.0000   1.0000   1.0000   1.0000   1.0000   1.0000
     1.0000   1.0000   1.0000   1.0000   1.0000   1.0000   1.0000   1.0000
     1.0000   1.0000   1.0000   1.0000   1.0000   1.0000   1.0000   1.0000
     1.0306   1.0472   1.0472   1.0772   1.0772   1.0657   0.2853   0.2112
     0.2112   0.0000   0.0000   0.0000   0.0000   0.0000   0.0000   0.0000
     0.0000   0.0000   0.0000   0.0000   0.0000   0.0000   0.0000   0.0000

          k = 0.3333 0.5774 0.3032 (  6312 PWs)   bands (ev):

   -88.8126 -88.8126 -88.8126 -52.1425 -52.1386 -52.1386 -52.1081 -52.1081
   -52.1045 -51.9405 -51.9404 -51.9404 -43.3296 -15.3924 -15.3147 -15.3147
   -11.9926 -11.9054 -11.9054 -11.1785 -11.0480 -11.0480   0.4973   0.6657
     0.6657   1.4319   1.4319   1.4524   1.8564   1.8564   1.9120   2.4671
     2.6372   2.6372   3.4232   3.4232   3.5334   4.6135   4.6709   4.6709
     5.7471   5.7946   5.7946   5.9996   5.9996   6.0271   6.4180   6.4614
     6.4614   7.8311   7.8948   7.8948   8.6078   8.6078   8.6791  14.9522
    14.9522  15.0548  17.3153  17.4650  17.4650  19.6386  19.6386  19.9386

     occupation numbers 
     1.0000   1.0000   1.0000   1.0000   1.0000   1.0000   1.0000   1.0000
     1.0000   1.0000   1.0000   1.0000   1.0000   1.0000   1.0000   1.0000
     1.0000   1.0000   1.0000   1.0000   1.0000   1.0000   1.0000   1.0000
     1.0000   1.0000   1.0000   1.0000   1.0000   1.0000   1.0000   1.0000
     1.0000   1.0000   1.0000   1.0000   1.0000   1.0000   1.0000   1.0000
     1.0262   1.0398   1.0398   1.0771   1.0771   1.0644   0.2349   0.1620
     0.1620   0.0000   0.0000   0.0000   0.0000   0.0000   0.0000   0.0000
     0.0000   0.0000   0.0000   0.0000   0.0000   0.0000   0.0000   0.0000

          k =-0.1667-0.2887 0.3032 (  6308 PWs)   bands (ev):

   -88.8152 -88.8113 -88.8113 -52.1482 -52.1455 -52.1194 -52.1166 -52.1106
   -52.0999 -51.9447 -51.9383 -51.9383 -43.3296 -15.3995 -15.3136 -15.3110
   -12.5976 -11.5484 -11.5058 -11.2420 -11.1074 -11.0100   0.4288   0.5282
     1.0638   1.1786   1.2291   1.4110   1.5374   2.1183   2.1323   2.6694
     2.7343   2.9498   3.0542   3.3403   4.0338   4.0356   4.1456   4.8097
     5.6669   5.8524   5.8631   5.9135   5.9225   5.9474   6.3487   6.3630
     6.7989   8.1605   8.2208   8.2231   8.3361   8.3686   8.7060  13.3191
    15.8734  15.8996  16.0698  18.4113  18.7307  18.8974  19.2953  19.6386

     occupation numbers 
     1.0000   1.0000   1.0000   1.0000   1.0000   1.0000   1.0000   1.0000
     1.0000   1.0000   1.0000   1.0000   1.0000   1.0000   1.0000   1.0000
     1.0000   1.0000   1.0000   1.0000   1.0000   1.0000   1.0000   1.0000
     1.0000   1.0000   1.0000   1.0000   1.0000   1.0000   1.0000   1.0000
     1.0000   1.0000   1.0000   1.0000   1.0000   1.0000   1.0000   1.0000
     1.0109   1.0593   1.0630   1.0777   1.0796   1.0829   0.3873   0.3526
     0.0018   0.0000   0.0000   0.0000   0.0000   0.0000   0.0000   0.0000
     0.0000   0.0000   0.0000   0.0000   0.0000   0.0000   0.0000   0.0000

          k =-0.1667-0.4811 0.3032 (  6307 PWs)   bands (ev):

   -88.8138 -88.8124 -88.8116 -52.1502 -52.1395 -52.1258 -52.1115 -52.1096
   -52.1036 -51.9424 -51.9401 -51.9388 -43.3296 -15.3951 -15.3159 -15.3123
   -12.2657 -11.8698 -11.5901 -11.2312 -11.0817 -11.0238   0.2141   0.7200
     0.9221   1.2983   1.4348   1.5640   1.7310   1.9760   2.0138   2.5804
     2.6708   2.8708   3.0987   3.2971   3.5626   4.2073   4.5624   4.8883
     5.7407   5.7701   5.8142   5.8665   6.1092   6.1597   6.2299   6.3758
     6.6245   7.9482   8.0564   8.2030   8.4395   8.5635   8.6481  13.9586
    14.8153  15.4337  17.0042  18.0960  18.3508  19.0508  19.4809  19.9192

     occupation numbers 
     1.0000   1.0000   1.0000   1.0000   1.0000   1.0000   1.0000   1.0000
     1.0000   1.0000   1.0000   1.0000   1.0000   1.0000   1.0000   1.0000
     1.0000   1.0000   1.0000   1.0000   1.0000   1.0000   1.0000   1.0000
     1.0000   1.0000   1.0000   1.0000   1.0000   1.0000   1.0000   1.0000
     1.0000   1.0000   1.0000   1.0000   1.0000   1.0000   1.0000   1.0000
     1.0246   1.0324   1.0462   1.0641   0.9756   0.8805   0.7077   0.3230
     0.0262   0.0000   0.0000   0.0000   0.0000   0.0000   0.0000   0.0000
     0.0000   0.0000   0.0000   0.0000   0.0000   0.0000   0.0000   0.0000

          k =-0.3333-0.5774 0.3032 (  6312 PWs)   bands (ev):

   -88.8126 -88.8126 -88.8126 -52.1425 -52.1386 -52.1386 -52.1081 -52.1081
   -52.1045 -51.9405 -51.9404 -51.9404 -43.3296 -15.3938 -15.3148 -15.3148
   -11.9710 -11.9028 -11.9028 -11.2014 -11.0513 -11.0513   0.5197   0.6734
     0.6734   1.4287   1.4287   1.4444   1.8567   1.8567   1.9162   2.5018
     2.6721   2.6721   3.4221   3.4221   3.5256   4.5187   4.5884   4.5884
     5.7422   5.7956   5.7956   5.9993   5.9993   6.0267   6.3810   6.4196
     6.4196   7.9806   8.0411   8.0411   8.6098   8.6098   8.6856  14.5372
    14.5372  14.6175  17.8253  17.8897  17.8897  19.7402  19.7402  20.0520

     occupation numbers 
     1.0000   1.0000   1.0000   1.0000   1.0000   1.0000   1.0000   1.0000
     1.0000   1.0000   1.0000   1.0000   1.0000   1.0000   1.0000   1.0000
     1.0000   1.0000   1.0000   1.0000   1.0000   1.0000   1.0000   1.0000
     1.0000   1.0000   1.0000   1.0000   1.0000   1.0000   1.0000   1.0000
     1.0000   1.0000   1.0000   1.0000   1.0000   1.0000   1.0000   1.0000
     1.0249   1.0401   1.0401   1.0771   1.0771   1.0647   0.3112   0.2320
     0.2320   0.0000   0.0000   0.0000   0.0000   0.0000   0.0000   0.0000
     0.0000   0.0000   0.0000   0.0000   0.0000   0.0000   0.0000   0.0000

     the Fermi energy is     6.3434 ev

!    total energy              =   -1489.31828294 Ry
     total all-electron energy =     -9588.553090 Ry
     estimated scf accuracy    <          5.8E-09 Ry
     smearing contrib. (-TS)   =       0.00989172 Ry
     internal energy E=F+TS    =   -1489.32817467 Ry

     The total energy is F=E-TS. E is the sum of the following terms:
     one-electron contribution =   -1081.23292571 Ry
     hartree contribution      =     582.60897626 Ry
     xc contribution           =    -150.78174795 Ry
     ewald contribution        =    -504.40211236 Ry
     one-center paw contrib.   =    -335.52036490 Ry
      -> PAW hartree energy AE =     886.15481610 Ry
      -> PAW hartree energy PS =    -883.87878034 Ry
      -> PAW xc energy AE      =    -480.53802019 Ry
      -> PAW xc energy PS      =     142.74161953 Ry
      -> total E_H with PAW    =     584.88501201 Ry
      -> total E_XC with PAW   =    -488.57814860 Ry

     total magnetization       =     2.30 Bohr mag/cell
     absolute magnetization    =     2.34 Bohr mag/cell

     convergence has been achieved in  22 iterations

     Forces acting on atoms (cartesian axes, Ry/au):

     atom    1 type  1   force =    -0.01073767   -0.01859819    0.02461139
     atom    2 type  1   force =    -0.01073767    0.01859819    0.02461139
     atom    3 type  1   force =     0.02147534   -0.00000000    0.02461139
     atom    4 type  2   force =     0.00000000    0.00000000   -0.02999487
     atom    5 type  2   force =     0.00000000    0.00000000   -0.03271713
     atom    6 type  2   force =     0.00000000    0.00000000   -0.03271713
     atom    7 type  2   force =     0.00965406   -0.01672133    0.03753141
     atom    8 type  2   force =     0.00965406    0.01672133    0.03753141
     atom    9 type  2   force =    -0.01930813    0.00000000    0.03753141
     atom   10 type  3   force =     0.00000000   -0.00000000   -0.09099926
     The non-local contrib.  to forces
     atom    1 type  1   force =     0.02003584    0.03470310   -0.03570356
     atom    2 type  1   force =     0.02003584   -0.03470310   -0.03570356
     atom    3 type  1   force =    -0.04007169   -0.00000000   -0.03570356
     atom    4 type  2   force =     0.00000000    0.00000000   -1.06360327
     atom    5 type  2   force =     0.00000000    0.00000000   -1.23734852
     atom    6 type  2   force =     0.00000000    0.00000000   -1.23734852
     atom    7 type  2   force =    -0.05917891    0.10250088    1.10153018
     atom    8 type  2   force =    -0.05917891   -0.10250088    1.10153018
     atom    9 type  2   force =     0.11835782    0.00000000    1.10153018
     atom   10 type  3   force =     0.00000000    0.00000000   -0.16523371
     The ionic contribution  to forces
     atom    1 type  1   force =    -1.70105739   -2.94631783    4.28440442
     atom    2 type  1   force =    -1.70105738    2.94631782    4.28440442
     atom    3 type  1   force =     3.40211477    0.00000001    4.28440442
     atom    4 type  2   force =     0.00000000    0.00000001   23.87453768
     atom    5 type  2   force =    -0.00000000   -0.00000000   26.09449226
     atom    6 type  2   force =    -0.00000000   -0.00000000   26.09449226
     atom    7 type  2   force =     1.73005311   -2.99653988  -23.20286318
     atom    8 type  2   force =     1.73005311    2.99653988  -23.20286318
     atom    9 type  2   force =    -3.46010622    0.00000000  -23.20286318
     atom   10 type  3   force =     0.00000000    0.00000000  -19.30814592
     The local contribution  to forces
     atom    1 type  1   force =     1.67033493    2.89310490   -4.22417969
     atom    2 type  1   force =     1.67033514   -2.89310490   -4.22417969
     atom    3 type  1   force =    -3.34066985    0.00000018   -4.22417969
     atom    4 type  2   force =     0.00000001    0.00000001  -22.85051464
     atom    5 type  2   force =    -0.00000000    0.00000000  -24.90084833
     atom    6 type  2   force =     0.00000001   -0.00000000  -24.90084833
     atom    7 type  2   force =    -1.66154865    2.87788671   22.14882809
     atom    8 type  2   force =    -1.66154866   -2.87788671   22.14882809
     atom    9 type  2   force =     3.32309733    0.00000001   22.14882809
     atom   10 type  3   force =     0.00000006    0.00000010   19.38227375
     The core correction contribution to forces
     atom    1 type  1   force =    -0.00005726   -0.00009917    0.00003229
     atom    2 type  1   force =    -0.00005726    0.00009917    0.00003229
     atom    3 type  1   force =     0.00011451    0.00000000    0.00003229
     atom    4 type  2   force =     0.00000000   -0.00000000    0.00958346
     atom    5 type  2   force =     0.00000000   -0.00000000    0.01098486
     atom    6 type  2   force =     0.00000000    0.00000000    0.01098486
     atom    7 type  2   force =     0.00032568   -0.00056409   -0.00997404
     atom    8 type  2   force =     0.00032568    0.00056409   -0.00997404
     atom    9 type  2   force =    -0.00065136   -0.00000000   -0.00997404
     atom   10 type  3   force =     0.00000000    0.00000000    0.00013741
     The Hubbard contrib.    to forces
     atom    1 type  1   force =     0.00000000    0.00000000    0.00000000
     atom    2 type  1   force =     0.00000000    0.00000000    0.00000000
     atom    3 type  1   force =     0.00000000    0.00000000    0.00000000
     atom    4 type  2   force =     0.00000000    0.00000000    0.00000000
     atom    5 type  2   force =     0.00000000    0.00000000    0.00000000
     atom    6 type  2   force =     0.00000000    0.00000000    0.00000000
     atom    7 type  2   force =     0.00000000    0.00000000    0.00000000
     atom    8 type  2   force =     0.00000000    0.00000000    0.00000000
     atom    9 type  2   force =     0.00000000    0.00000000    0.00000000
     atom   10 type  3   force =     0.00000000    0.00000000    0.00000000
     The SCF correction term to forces
     atom    1 type  1   force =     0.00000620    0.00001074    0.00005957
     atom    2 type  1   force =     0.00000620   -0.00001074    0.00005957
     atom    3 type  1   force =    -0.00001240   -0.00000000    0.00005957
     atom    4 type  2   force =    -0.00000000   -0.00000000    0.00000354
     atom    5 type  2   force =     0.00000000    0.00000000    0.00000425
     atom    6 type  2   force =     0.00000000    0.00000000    0.00000425
     atom    7 type  2   force =     0.00000285   -0.00000494    0.00001200
     atom    8 type  2   force =     0.00000285    0.00000494    0.00001200
     atom    9 type  2   force =    -0.00000571   -0.00000000    0.00001200
     atom   10 type  3   force =    -0.00000000   -0.00000000   -0.00002916

     Total force =     0.140948     Total SCF correction =     0.000112

     Writing all to output data dir ./out/pw.save/ :
     XML data file, charge density, pseudopotentials, collected wavefunctions
 
     init_run     :     20.54s CPU      4.48s WALL (       1 calls)
     electrons    :    255.37s CPU     62.11s WALL (       1 calls)
     forces       :      1.12s CPU      0.90s WALL (       1 calls)

     Called by init_run:
     wfcinit      :      0.44s CPU      0.56s WALL (       1 calls)
     wfcinit:atom :      0.06s CPU      0.06s WALL (      34 calls)
     wfcinit:wfcr :      0.27s CPU      0.32s WALL (      34 calls)
     potinit      :     19.49s CPU      3.23s WALL (       1 calls)
     hinit0       :      0.50s CPU      0.50s WALL (       1 calls)

     Called by electrons:
     c_bands      :     26.69s CPU     26.72s WALL (      22 calls)
     sum_band     :      3.77s CPU      3.75s WALL (      22 calls)
     v_of_rho     :      0.47s CPU      0.33s WALL (      23 calls)
     v_h          :      0.31s CPU      0.07s WALL (      23 calls)
     v_xc         :      0.17s CPU      0.27s WALL (      24 calls)
     newd         :      0.55s CPU      0.46s WALL (      23 calls)
                                        0.46s GPU  (      23 calls)
     PAW_pot      :    233.26s CPU     31.58s WALL (      23 calls)
     mix_rho      :      0.52s CPU      0.55s WALL (      22 calls)

     Called by c_bands:
     init_us_2    :      0.92s CPU      0.89s WALL (    1564 calls)
     cegterg      :     22.79s CPU     22.88s WALL (     748 calls)

     Called by sum_band:
     sum_band:wei :      0.04s CPU      0.04s WALL (      22 calls)
                                        0.04s GPU  (      22 calls)
     sum_band:loo :      2.53s CPU      2.50s WALL (      22 calls)
                                        2.50s GPU  (      22 calls)
     sum_band:buf :      0.58s CPU      0.60s WALL (     748 calls)
                                        0.59s GPU  (     748 calls)
     sum_band:ini :      0.43s CPU      0.43s WALL (     748 calls)
                                        0.42s GPU  (     748 calls)
     sum_band:cal :      0.05s CPU      0.08s WALL (     748 calls)
                                        0.06s GPU  (     748 calls)
     sum_band:bec :      0.36s CPU      0.37s WALL (     748 calls)
                                        0.36s GPU  (     748 calls)
     addusdens    :      0.82s CPU      0.82s WALL (      22 calls)
                                        0.82s GPU  (      22 calls)
     addusd:skk   :      0.01s CPU      0.01s WALL (      66 calls)
                                        0.01s GPU  (      66 calls)

     Called by *egterg:
     cdiaghg      :     10.12s CPU     10.24s WALL (    4336 calls)
                                       10.19s GPU  (    4336 calls)
     cegterg:over :      1.04s CPU      1.06s WALL (    3588 calls)
     cegterg:upda :      1.38s CPU      1.39s WALL (    3588 calls)
     cegterg:last :      0.20s CPU      0.20s WALL (    1676 calls)
     h_psi        :      7.75s CPU      7.85s WALL (    4370 calls)
                                        7.80s GPU  (    4370 calls)
     s_psi        :      1.38s CPU      1.42s WALL (    4370 calls)
     g_psi        :      0.02s CPU      0.13s WALL (    3588 calls)
                                        0.08s GPU  (    3588 calls)

     Called by h_psi:
     h_psi:calbec :      0.18s CPU      0.39s WALL (    4370 calls)
                                        0.34s GPU  (    4370 calls)
     vloc_psi     :      5.63s CPU      5.61s WALL (    4370 calls)
                                        5.56s GPU  (    4370 calls)
     add_vuspsi   :      1.31s CPU      1.52s WALL (    4370 calls)
                                        1.46s GPU  (    4370 calls)

     General routines
     calbec       :      0.19s CPU      0.22s WALL (    5254 calls)
     fft          :      6.41s CPU      1.09s WALL (     588 calls)
                                        0.04s GPU  (     542 calls)
     ffts         :      2.70s CPU      0.60s WALL (      90 calls)
                                        0.00s GPU  (      44 calls)
     fftw         :      0.41s CPU      2.88s WALL (   22792 calls)
                                        2.62s GPU  (   22792 calls)
     interpolate  :      9.34s CPU      1.70s WALL (      46 calls)
 
     Parallel routines

     PAW routines
     PAW_pot      :    233.26s CPU     31.58s WALL (      23 calls)
     PAW_symme    :      0.04s CPU      0.01s WALL (      45 calls)
 
     PWSCF        :   4m37.86s CPU   1m 8.10s WALL

 
   This run was terminated on:   2:22:57  12Jul2026            

=------------------------------------------------------------------------------=
   JOB DONE.
=------------------------------------------------------------------------------=
Warning: ieee_invalid is signaling
Warning: ieee_divide_by_zero is signaling
Warning: ieee_inexact is signaling
FORTRAN STOP
