
     Program PWSCF v.7.3.1 starts on 12Jul2026 at  2:15: 9 

     This program is part of the open-source Quantum ESPRESSO suite
     for quantum simulation of materials; please cite
         "P. Giannozzi et al., J. Phys.:Condens. Matter 21 395502 (2009);
         "P. Giannozzi et al., J. Phys.:Condens. Matter 29 465901 (2017);
         "P. Giannozzi et al., J. Chem. Phys. 152 154105 (2020);
          URL http://www.quantum-espresso.org", 
     in publications or presentations arising from this work. More details at
     http://www.quantum-espresso.org/quote

     Parallel version (MPI & OpenMP), running on      14 processor cores
     Number of MPI processes:                 1
     Threads/MPI process:                    14

     MPI processes distributed on     1 nodes
     852009 MiB available memory on the printing compute node when the environment starts
 
     Reading input from pw.in

     Current dimensions of program PWSCF are:
     Max number of different atomic species (ntypx) = 10
     Max number of k-points (npk) =  40000
     Max angular momentum in pseudopotentials (lmaxx) =  4
     file Co.pbe-spn-kjpaw_psl.0.3.1.UPF: wavefunction(s)  3P 3D renormalized
     file O.pbe-n-kjpaw_psl.1.0.0.UPF: wavefunction(s)  2S 2P renormalized
     file Na.pbe-spn-kjpaw_psl.1.0.0.UPF: wavefunction(s)  2P renormalized
 
     Subspace diagonalization in iterative solution of the eigenvalue problem:
     a serial algorithm will be used

 
     G-vector sticks info
     --------------------
     sticks:   dense  smooth     PW     G-vecs:    dense   smooth      PW
     Sum         979     499    151                72573    25753    4225
 
     Using Slab Decomposition
 


     bravais-lattice index     =            4
     lattice parameter (alat)  =       5.4575  a.u.
     unit-cell volume          =     409.4500 (a.u.)^3
     number of atoms/cell      =            4
     number of atomic types    =            3
     number of electrons       =        38.00
     number of Kohn-Sham states=           27
     kinetic-energy cutoff     =      60.0000  Ry
     charge density cutoff     =     480.0000  Ry
     scf convergence threshold =      1.0E-08
     mixing beta               =       0.3000
     number of iterations used =            8  plain     mixing
     Exchange-correlation= SLA  PW   PBX  PBC
                           (   1   4   3   4   0   0   0)

     GPU acceleration is ACTIVE.  1 visible GPUs per MPI rank
     GPU-aware MPI enabled


     GPU used by master process:

        Device Number: 0
        Device name: NVIDIA A100-SXM4-80GB
        Compute capability : 80
        Ratio of single to double precision performance  : 2
        Memory Clock Rate (KHz): 1593000
        Memory Bus Width (bits): 5120
        Peak Memory Bandwidth (GB/s): ******

     celldm(1)=   5.457529  celldm(2)=   0.000000  celldm(3)=   2.908587
     celldm(4)=   0.000000  celldm(5)=   0.000000  celldm(6)=   0.000000

     crystal axes: (cart. coord. in units of alat)
               a(1) = (   1.000000   0.000000   0.000000 )  
               a(2) = (  -0.500000   0.866025   0.000000 )  
               a(3) = (   0.000000   0.000000   2.908587 )  

     reciprocal axes: (cart. coord. in units 2 pi/alat)
               b(1) = (  1.000000  0.577350 -0.000000 )  
               b(2) = (  0.000000  1.154701  0.000000 )  
               b(3) = (  0.000000 -0.000000  0.343810 )  


     PseudoPot. # 1 for Co read from file:
     ../../pseudo/Co.pbe-spn-kjpaw_psl.0.3.1.UPF
     MD5 check sum: 3c0a43779828c046024e4f3be63f8e67
     Pseudo is Projector augmented-wave + core cor, Zval = 17.0
     Generated using &quot;atomic&quot; code by A. Dal Corso  v.6.2.2
     Shape of augmentation charge: PSQ
     Using radial grid of 1193 points,  6 beta functions with: 
                l(1) =   0
                l(2) =   0
                l(3) =   1
                l(4) =   1
                l(5) =   2
                l(6) =   2
     Q(r) pseudized with 0 coefficients 


     PseudoPot. # 2 for O  read from file:
     ../../pseudo/O.pbe-n-kjpaw_psl.1.0.0.UPF
     MD5 check sum: e99d9cef9b487d1ca56f5b95ecd0fd7a
     Pseudo is Projector augmented-wave + core cor, Zval =  6.0
     Generated using &quot;atomic&quot; code by A. Dal Corso  v.6.3
     Shape of augmentation charge: PSQ
     Using radial grid of 1095 points,  4 beta functions with: 
                l(1) =   0
                l(2) =   0
                l(3) =   1
                l(4) =   1
     Q(r) pseudized with 0 coefficients 


     PseudoPot. # 3 for Na read from file:
     ../../pseudo/Na.pbe-spn-kjpaw_psl.1.0.0.UPF
     MD5 check sum: 05b4deb74e3932c23ab016979dc8b5d4
     Pseudo is Projector augmented-wave + core cor, Zval =  9.0
     Generated using &quot;atomic&quot; code by A. Dal Corso  v.6.3
     Shape of augmentation charge: PSQ
     Using radial grid of 1121 points,  4 beta functions with: 
                l(1) =   0
                l(2) =   0
                l(3) =   1
                l(4) =   1
     Q(r) pseudized with 0 coefficients 


     atomic species   valence    mass     pseudopotential
     Co               17.00    58.93300     Co( 1.00)
     O                 6.00    15.99900     O ( 1.00)
     Na                9.00    22.98977     Na( 1.00)

     Starting magnetic structure 
     atomic species   magnetization
     Co              0.300
     O               0.000
     Na              0.000

      6 Sym. Ops. (no inversion) found


                                    s                        frac. trans.

      isym =  1     identity                                     

 cryst.   s( 1) = (     1          0          0      )
                  (     0          1          0      )
                  (     0          0          1      )

 cart.    s( 1) = (  1.0000000  0.0000000  0.0000000 )
                  (  0.0000000  1.0000000  0.0000000 )
                  (  0.0000000  0.0000000  1.0000000 )


      isym =  2     120 deg rotation - cryst. axis [0,0,1]       

 cryst.   s( 2) = (     0          1          0      )
                  (    -1         -1          0      )
                  (     0          0          1      )

 cart.    s( 2) = ( -0.5000000 -0.8660254  0.0000000 )
                  (  0.8660254 -0.5000000  0.0000000 )
                  (  0.0000000  0.0000000  1.0000000 )


      isym =  3     120 deg rotation - cryst. axis [0,0,-1]      

 cryst.   s( 3) = (    -1         -1          0      )
                  (     1          0          0      )
                  (     0          0          1      )

 cart.    s( 3) = ( -0.5000000  0.8660254  0.0000000 )
                  ( -0.8660254 -0.5000000  0.0000000 )
                  (  0.0000000  0.0000000  1.0000000 )


      isym =  4     inv. 180 deg rotation - cart. axis [1,0,0]   

 cryst.   s( 4) = (    -1          0          0      )
                  (     1          1          0      )
                  (     0          0          1      )

 cart.    s( 4) = ( -1.0000000  0.0000000  0.0000000 )
                  (  0.0000000  1.0000000  0.0000000 )
                  (  0.0000000  0.0000000  1.0000000 )


      isym =  5     inv. 180 deg rotation - cryst. axis [0,1,0]  

 cryst.   s( 5) = (     1          1          0      )
                  (     0         -1          0      )
                  (     0          0          1      )

 cart.    s( 5) = (  0.5000000  0.8660254  0.0000000 )
                  (  0.8660254 -0.5000000  0.0000000 )
                  (  0.0000000  0.0000000  1.0000000 )


      isym =  6     inv. 180 deg rotation - cryst. axis [1,1,0]  

 cryst.   s( 6) = (     0         -1          0      )
                  (    -1          0          0      )
                  (     0          0          1      )

 cart.    s( 6) = (  0.5000000 -0.8660254  0.0000000 )
                  ( -0.8660254 -0.5000000  0.0000000 )
                  (  0.0000000  0.0000000  1.0000000 )


     point group C_3v (3m)  
     there are  3 classes
     the character table:

       E     2C3   3s_v 
A_1    1.00  1.00  1.00
A_2    1.00  1.00 -1.00
E      2.00 -1.00  0.00

     the symmetry operations in each class and the name of the first element:

     E        1
          identity                                               
     2C3      2    3
          120 deg rotation - cryst. axis [0,0,1]                 
     3s_v     4    5    6
          inv. 180 deg rotation - cart. axis [1,0,0]             

   Cartesian axes

     site n.     atom                  positions (alat units)
         1        Co     tau(   1) = (   0.0000000   0.0000000   0.0000000  )
         2        O      tau(   2) = (  -0.0000000   0.5773503   0.3324100  )
         3        O      tau(   3) = (   0.5000000   0.2886751   2.5761773  )
         4        Na     tau(   4) = (  -0.0000000   0.5773503   1.4542936  )

   Crystallographic axes

     site n.     atom                  positions (cryst. coord.)
         1        Co     tau(   1) = (  0.0000000  0.0000000  0.0000000  )
         2        O      tau(   2) = (  0.3333333  0.6666667  0.1142857  )
         3        O      tau(   3) = (  0.6666667  0.3333333  0.8857143  )
         4        Na     tau(   4) = (  0.3333333  0.6666667  0.5000000  )

     number of k points=    25  Marzari-Vanderbilt smearing, width (Ry)=  0.0200
                       cart. coord. in units 2pi/alat
        k(    1) = (   0.0000000   0.0000000   0.0000000), wk =   0.0052083
        k(    2) = (   0.0000000   0.0000000   0.1146032), wk =   0.0104167
        k(    3) = (   0.0000000   0.1443376   0.0000000), wk =   0.0312500
        k(    4) = (   0.0000000   0.1443376   0.1146032), wk =   0.0312500
        k(    5) = (   0.0000000   0.2886751   0.0000000), wk =   0.0312500
        k(    6) = (   0.0000000   0.2886751   0.1146032), wk =   0.0312500
        k(    7) = (   0.0000000   0.4330127   0.0000000), wk =   0.0312500
        k(    8) = (   0.0000000   0.4330127   0.1146032), wk =   0.0312500
        k(    9) = (   0.0000000  -0.5773503   0.0000000), wk =   0.0156250
        k(   10) = (   0.0000000  -0.5773503   0.1146032), wk =   0.0312500
        k(   11) = (   0.1250000   0.2165064   0.0000000), wk =   0.0312500
        k(   12) = (   0.1250000   0.2165064   0.1146032), wk =   0.0625000
        k(   13) = (   0.1250000   0.3608439   0.0000000), wk =   0.0625000
        k(   14) = (   0.1250000   0.3608439   0.1146032), wk =   0.0625000
        k(   15) = (   0.1250000   0.5051815   0.0000000), wk =   0.0625000
        k(   16) = (   0.1250000   0.5051815   0.1146032), wk =   0.0625000
        k(   17) = (   0.2500000   0.4330127   0.0000000), wk =   0.0312500
        k(   18) = (   0.2500000   0.4330127   0.1146032), wk =   0.0625000
        k(   19) = (   0.2500000   0.5773503   0.0000000), wk =   0.0312500
        k(   20) = (   0.2500000   0.5773503   0.1146032), wk =   0.0625000
        k(   21) = (   0.0000000  -0.1443376   0.1146032), wk =   0.0312500
        k(   22) = (   0.0000000  -0.2886751   0.1146032), wk =   0.0312500
        k(   23) = (   0.0000000  -0.4330127   0.1146032), wk =   0.0312500
        k(   24) = (  -0.1250000  -0.3608439   0.1146032), wk =   0.0625000
        k(   25) = (  -0.1250000  -0.5051815   0.1146032), wk =   0.0625000

                       cryst. coord.
        k(    1) = (   0.0000000   0.0000000   0.0000000), wk =   0.0052083
        k(    2) = (   0.0000000   0.0000000   0.3333333), wk =   0.0104167
        k(    3) = (   0.0000000   0.1250000   0.0000000), wk =   0.0312500
        k(    4) = (   0.0000000   0.1250000   0.3333333), wk =   0.0312500
        k(    5) = (   0.0000000   0.2500000   0.0000000), wk =   0.0312500
        k(    6) = (   0.0000000   0.2500000   0.3333333), wk =   0.0312500
        k(    7) = (   0.0000000   0.3750000   0.0000000), wk =   0.0312500
        k(    8) = (   0.0000000   0.3750000   0.3333333), wk =   0.0312500
        k(    9) = (   0.0000000  -0.5000000   0.0000000), wk =   0.0156250
        k(   10) = (   0.0000000  -0.5000000   0.3333333), wk =   0.0312500
        k(   11) = (   0.1250000   0.1250000   0.0000000), wk =   0.0312500
        k(   12) = (   0.1250000   0.1250000   0.3333333), wk =   0.0625000
        k(   13) = (   0.1250000   0.2500000   0.0000000), wk =   0.0625000
        k(   14) = (   0.1250000   0.2500000   0.3333333), wk =   0.0625000
        k(   15) = (   0.1250000   0.3750000   0.0000000), wk =   0.0625000
        k(   16) = (   0.1250000   0.3750000   0.3333333), wk =   0.0625000
        k(   17) = (   0.2500000   0.2500000   0.0000000), wk =   0.0312500
        k(   18) = (   0.2500000   0.2500000   0.3333333), wk =   0.0625000
        k(   19) = (   0.2500000   0.3750000   0.0000000), wk =   0.0312500
        k(   20) = (   0.2500000   0.3750000   0.3333333), wk =   0.0625000
        k(   21) = (   0.0000000  -0.1250000   0.3333333), wk =   0.0312500
        k(   22) = (   0.0000000  -0.2500000   0.3333333), wk =   0.0312500
        k(   23) = (   0.0000000  -0.3750000   0.3333333), wk =   0.0312500
        k(   24) = (  -0.1250000  -0.2500000   0.3333333), wk =   0.0625000
        k(   25) = (  -0.1250000  -0.3750000   0.3333333), wk =   0.0625000

     Dense  grid:    72573 G-vectors     FFT dimensions: (  40,  40, 120)

     Smooth grid:    25753 G-vectors     FFT dimensions: (  27,  27,  80)

     Dynamical RAM for                 wfc:       1.32 MB

     Dynamical RAM for     wfc (w. buffer):      67.51 MB

     Dynamical RAM for           str. fact:       3.32 MB

     Dynamical RAM for           local pot:       0.00 MB

     Dynamical RAM for          nlocal pot:       2.06 MB

     Dynamical RAM for                qrad:       5.27 MB

     Dynamical RAM for          rho,v,vnew:      15.43 MB

     Dynamical RAM for               rhoin:       5.14 MB

     Dynamical RAM for            rho*nmix:      35.44 MB

     Dynamical RAM for           G-vectors:       4.35 MB

     Dynamical RAM for          h,s,v(r/c):       0.13 MB

     Dynamical RAM for          <psi|beta>:       0.02 MB

     Dynamical RAM for                 psi:       2.65 MB

     Dynamical RAM for                hpsi:       2.65 MB

     Dynamical RAM for                spsi:       2.65 MB

     Dynamical RAM for      wfcinit/wfcrot:       2.66 MB

     Dynamical RAM for           addusdens:     209.29 MB

     Dynamical RAM for          addusforce:     211.52 MB

     Estimated static dynamical RAM per process >     116.31 MB

     Estimated max dynamical RAM per process >     363.27 MB

     Check: negative core charge=   -0.000007
     Generating pointlists ...
     new r_m :   0.2748 (alat units)  1.4998 (a.u.) for type    1
     new r_m :   0.2748 (alat units)  1.4998 (a.u.) for type    2
     new r_m :   0.4125 (alat units)  2.2512 (a.u.) for type    3

     Initial potential from superposition of free atoms

     starting charge      37.9934, renormalised to      38.0000
     Starting wfcs are   23 randomized atomic wfcs +    4 random wfcs
     Checking if some PAW data can be deallocated... 

     total cpu time spent up to now is        3.9 secs

     Self-consistent Calculation
[tb_dev] Currently allocated     6.54E-01 Mbytes, locked:    0 /   6
[tb_pin] Currently allocated     0.00E+00 Mbytes, locked:    0 /   0

     iteration #  1     ecut=    60.00 Ry     beta= 0.30
     Davidson diagonalization with overlap

---- Real-time Memory Report at c_bands before calling an iterative solver
           709 MiB given to the printing process from OS
             0 MiB allocation reported by mallinfo(arena+hblkhd)
        851327 MiB available memory on the node where the printing process lives
     GPU memory used/free/total (MiB): 1056 / 80094 / 81151
------------------
     ethr =  1.00E-02,  avg # of iterations =  9.7

     total cpu time spent up to now is        6.1 secs

     total energy              =    -568.52276444 Ry
     estimated scf accuracy    <       1.79414242 Ry

     total magnetization       =     4.23 Bohr mag/cell
     absolute magnetization    =     4.23 Bohr mag/cell
[tb_dev] Currently allocated     3.05E-05 Mbytes, locked:    0 /   2
[tb_pin] Currently allocated     0.00E+00 Mbytes, locked:    0 /   0

     iteration #  2     ecut=    60.00 Ry     beta= 0.30
     Davidson diagonalization with overlap

---- Real-time Memory Report at c_bands before calling an iterative solver
           753 MiB given to the printing process from OS
             0 MiB allocation reported by mallinfo(arena+hblkhd)
        851260 MiB available memory on the node where the printing process lives
     GPU memory used/free/total (MiB): 1074 / 80076 / 81151
------------------
     ethr =  4.72E-03,  avg # of iterations =  2.1

     total cpu time spent up to now is        7.2 secs

     total energy              =    -568.70749256 Ry
     estimated scf accuracy    <       2.96678901 Ry

     total magnetization       =     0.87 Bohr mag/cell
     absolute magnetization    =     1.05 Bohr mag/cell
[tb_dev] Currently allocated     3.05E-05 Mbytes, locked:    0 /   2
[tb_pin] Currently allocated     0.00E+00 Mbytes, locked:    0 /   0

     iteration #  3     ecut=    60.00 Ry     beta= 0.30
     Davidson diagonalization with overlap

---- Real-time Memory Report at c_bands before calling an iterative solver
           754 MiB given to the printing process from OS
             0 MiB allocation reported by mallinfo(arena+hblkhd)
        851292 MiB available memory on the node where the printing process lives
     GPU memory used/free/total (MiB): 1074 / 80076 / 81151
------------------
     ethr =  4.72E-03,  avg # of iterations =  1.2

     total cpu time spent up to now is        8.3 secs

     total energy              =    -568.95354566 Ry
     estimated scf accuracy    <       1.14265202 Ry

     total magnetization       =     3.84 Bohr mag/cell
     absolute magnetization    =     3.84 Bohr mag/cell
[tb_dev] Currently allocated     3.05E-05 Mbytes, locked:    0 /   2
[tb_pin] Currently allocated     0.00E+00 Mbytes, locked:    0 /   0

     iteration #  4     ecut=    60.00 Ry     beta= 0.30
     Davidson diagonalization with overlap

---- Real-time Memory Report at c_bands before calling an iterative solver
           756 MiB given to the printing process from OS
             0 MiB allocation reported by mallinfo(arena+hblkhd)
        851330 MiB available memory on the node where the printing process lives
     GPU memory used/free/total (MiB): 1074 / 80076 / 81151
------------------
     ethr =  3.01E-03,  avg # of iterations =  1.2

     total cpu time spent up to now is        9.4 secs

     total energy              =    -569.10258399 Ry
     estimated scf accuracy    <       0.28796905 Ry

     total magnetization       =     2.10 Bohr mag/cell
     absolute magnetization    =     2.18 Bohr mag/cell
[tb_dev] Currently allocated     3.05E-05 Mbytes, locked:    0 /   2
[tb_pin] Currently allocated     0.00E+00 Mbytes, locked:    0 /   0

     iteration #  5     ecut=    60.00 Ry     beta= 0.30
     Davidson diagonalization with overlap

---- Real-time Memory Report at c_bands before calling an iterative solver
           758 MiB given to the printing process from OS
             0 MiB allocation reported by mallinfo(arena+hblkhd)
        851339 MiB available memory on the node where the printing process lives
     GPU memory used/free/total (MiB): 1074 / 80076 / 81151
------------------
     ethr =  7.58E-04,  avg # of iterations =  2.5

     total cpu time spent up to now is       10.6 secs

     total energy              =    -569.14293150 Ry
     estimated scf accuracy    <       0.28029814 Ry

     total magnetization       =     1.40 Bohr mag/cell
     absolute magnetization    =     1.66 Bohr mag/cell
[tb_dev] Currently allocated     3.05E-05 Mbytes, locked:    0 /   2
[tb_pin] Currently allocated     0.00E+00 Mbytes, locked:    0 /   0

     iteration #  6     ecut=    60.00 Ry     beta= 0.30
     Davidson diagonalization with overlap

---- Real-time Memory Report at c_bands before calling an iterative solver
           758 MiB given to the printing process from OS
             0 MiB allocation reported by mallinfo(arena+hblkhd)
        851377 MiB available memory on the node where the printing process lives
     GPU memory used/free/total (MiB): 1074 / 80076 / 81151
------------------
     ethr =  7.38E-04,  avg # of iterations =  1.3

     total cpu time spent up to now is       11.6 secs

     total energy              =    -569.18165749 Ry
     estimated scf accuracy    <       0.09551189 Ry

     total magnetization       =     0.85 Bohr mag/cell
     absolute magnetization    =     1.28 Bohr mag/cell
[tb_dev] Currently allocated     3.05E-05 Mbytes, locked:    0 /   2
[tb_pin] Currently allocated     0.00E+00 Mbytes, locked:    0 /   0

     iteration #  7     ecut=    60.00 Ry     beta= 0.30
     Davidson diagonalization with overlap

---- Real-time Memory Report at c_bands before calling an iterative solver
           759 MiB given to the printing process from OS
             0 MiB allocation reported by mallinfo(arena+hblkhd)
        851393 MiB available memory on the node where the printing process lives
     GPU memory used/free/total (MiB): 1074 / 80076 / 81151
------------------
     ethr =  2.51E-04,  avg # of iterations =  4.4

     total cpu time spent up to now is       13.1 secs

     total energy              =    -569.19883119 Ry
     estimated scf accuracy    <       0.01654981 Ry

     total magnetization       =     0.62 Bohr mag/cell
     absolute magnetization    =     0.74 Bohr mag/cell
[tb_dev] Currently allocated     3.05E-05 Mbytes, locked:    0 /   2
[tb_pin] Currently allocated     0.00E+00 Mbytes, locked:    0 /   0

     iteration #  8     ecut=    60.00 Ry     beta= 0.30
     Davidson diagonalization with overlap

---- Real-time Memory Report at c_bands before calling an iterative solver
           759 MiB given to the printing process from OS
             0 MiB allocation reported by mallinfo(arena+hblkhd)
        851426 MiB available memory on the node where the printing process lives
     GPU memory used/free/total (MiB): 1074 / 80076 / 81151
------------------
     c_bands:  1 eigenvalues not converged
     ethr =  4.36E-05,  avg # of iterations =  8.4

     total cpu time spent up to now is       15.1 secs

     total energy              =    -569.20148431 Ry
     estimated scf accuracy    <       0.02572457 Ry

     total magnetization       =     0.65 Bohr mag/cell
     absolute magnetization    =     0.81 Bohr mag/cell
[tb_dev] Currently allocated     3.05E-05 Mbytes, locked:    0 /   2
[tb_pin] Currently allocated     0.00E+00 Mbytes, locked:    0 /   0

     iteration #  9     ecut=    60.00 Ry     beta= 0.30
     Davidson diagonalization with overlap

---- Real-time Memory Report at c_bands before calling an iterative solver
           763 MiB given to the printing process from OS
             0 MiB allocation reported by mallinfo(arena+hblkhd)
        851447 MiB available memory on the node where the printing process lives
     GPU memory used/free/total (MiB): 1074 / 80076 / 81151
------------------
     ethr =  4.36E-05,  avg # of iterations =  1.2

     total cpu time spent up to now is       16.2 secs

     total energy              =    -569.19754337 Ry
     estimated scf accuracy    <       0.01579848 Ry

     total magnetization       =     0.65 Bohr mag/cell
     absolute magnetization    =     0.80 Bohr mag/cell
[tb_dev] Currently allocated     3.05E-05 Mbytes, locked:    0 /   2
[tb_pin] Currently allocated     0.00E+00 Mbytes, locked:    0 /   0

     iteration # 10     ecut=    60.00 Ry     beta= 0.30
     Davidson diagonalization with overlap

---- Real-time Memory Report at c_bands before calling an iterative solver
           765 MiB given to the printing process from OS
             0 MiB allocation reported by mallinfo(arena+hblkhd)
        851918 MiB available memory on the node where the printing process lives
     GPU memory used/free/total (MiB): 1074 / 80076 / 81151
------------------
     ethr =  4.16E-05,  avg # of iterations =  2.1

     total cpu time spent up to now is       17.3 secs

     total energy              =    -569.20393151 Ry
     estimated scf accuracy    <       0.00855674 Ry

     total magnetization       =     0.46 Bohr mag/cell
     absolute magnetization    =     0.49 Bohr mag/cell
[tb_dev] Currently allocated     3.05E-05 Mbytes, locked:    0 /   2
[tb_pin] Currently allocated     0.00E+00 Mbytes, locked:    0 /   0

     iteration # 11     ecut=    60.00 Ry     beta= 0.30
     Davidson diagonalization with overlap

---- Real-time Memory Report at c_bands before calling an iterative solver
           765 MiB given to the printing process from OS
             0 MiB allocation reported by mallinfo(arena+hblkhd)
        851736 MiB available memory on the node where the printing process lives
     GPU memory used/free/total (MiB): 1074 / 80076 / 81151
------------------
     ethr =  2.25E-05,  avg # of iterations =  1.8

     total cpu time spent up to now is       18.5 secs

     total energy              =    -569.20442471 Ry
     estimated scf accuracy    <       0.00589774 Ry

     total magnetization       =     0.37 Bohr mag/cell
     absolute magnetization    =     0.39 Bohr mag/cell
[tb_dev] Currently allocated     3.05E-05 Mbytes, locked:    0 /   2
[tb_pin] Currently allocated     0.00E+00 Mbytes, locked:    0 /   0

     iteration # 12     ecut=    60.00 Ry     beta= 0.30
     Davidson diagonalization with overlap

---- Real-time Memory Report at c_bands before calling an iterative solver
           765 MiB given to the printing process from OS
             0 MiB allocation reported by mallinfo(arena+hblkhd)
        851640 MiB available memory on the node where the printing process lives
     GPU memory used/free/total (MiB): 1074 / 80076 / 81151
------------------
     ethr =  1.55E-05,  avg # of iterations =  1.2

     total cpu time spent up to now is       19.5 secs

     total energy              =    -569.20547826 Ry
     estimated scf accuracy    <       0.00143187 Ry

     total magnetization       =     0.50 Bohr mag/cell
     absolute magnetization    =     0.52 Bohr mag/cell
[tb_dev] Currently allocated     3.05E-05 Mbytes, locked:    0 /   2
[tb_pin] Currently allocated     0.00E+00 Mbytes, locked:    0 /   0

     iteration # 13     ecut=    60.00 Ry     beta= 0.30
     Davidson diagonalization with overlap

---- Real-time Memory Report at c_bands before calling an iterative solver
           765 MiB given to the printing process from OS
             0 MiB allocation reported by mallinfo(arena+hblkhd)
        851650 MiB available memory on the node where the printing process lives
     GPU memory used/free/total (MiB): 1074 / 80076 / 81151
------------------
     ethr =  3.77E-06,  avg # of iterations =  4.0

     total cpu time spent up to now is       20.9 secs

     total energy              =    -569.20585539 Ry
     estimated scf accuracy    <       0.00078709 Ry

     total magnetization       =     0.59 Bohr mag/cell
     absolute magnetization    =     0.60 Bohr mag/cell
[tb_dev] Currently allocated     3.05E-05 Mbytes, locked:    0 /   2
[tb_pin] Currently allocated     0.00E+00 Mbytes, locked:    0 /   0

     iteration # 14     ecut=    60.00 Ry     beta= 0.30
     Davidson diagonalization with overlap

---- Real-time Memory Report at c_bands before calling an iterative solver
           765 MiB given to the printing process from OS
             0 MiB allocation reported by mallinfo(arena+hblkhd)
        851426 MiB available memory on the node where the printing process lives
     GPU memory used/free/total (MiB): 1074 / 80076 / 81151
------------------
     ethr =  2.07E-06,  avg # of iterations =  3.3

     total cpu time spent up to now is       22.3 secs

     total energy              =    -569.20605718 Ry
     estimated scf accuracy    <       0.00023375 Ry

     total magnetization       =     0.65 Bohr mag/cell
     absolute magnetization    =     0.67 Bohr mag/cell
[tb_dev] Currently allocated     3.05E-05 Mbytes, locked:    0 /   2
[tb_pin] Currently allocated     0.00E+00 Mbytes, locked:    0 /   0

     iteration # 15     ecut=    60.00 Ry     beta= 0.30
     Davidson diagonalization with overlap

---- Real-time Memory Report at c_bands before calling an iterative solver
           765 MiB given to the printing process from OS
             0 MiB allocation reported by mallinfo(arena+hblkhd)
        851394 MiB available memory on the node where the printing process lives
     GPU memory used/free/total (MiB): 1074 / 80076 / 81151
------------------
     ethr =  6.15E-07,  avg # of iterations =  2.6

     total cpu time spent up to now is       23.5 secs

     total energy              =    -569.20608319 Ry
     estimated scf accuracy    <       0.00027306 Ry

     total magnetization       =     0.65 Bohr mag/cell
     absolute magnetization    =     0.66 Bohr mag/cell
[tb_dev] Currently allocated     3.05E-05 Mbytes, locked:    0 /   2
[tb_pin] Currently allocated     0.00E+00 Mbytes, locked:    0 /   0

     iteration # 16     ecut=    60.00 Ry     beta= 0.30
     Davidson diagonalization with overlap

---- Real-time Memory Report at c_bands before calling an iterative solver
           765 MiB given to the printing process from OS
             0 MiB allocation reported by mallinfo(arena+hblkhd)
        851394 MiB available memory on the node where the printing process lives
     GPU memory used/free/total (MiB): 1074 / 80076 / 81151
------------------
     ethr =  6.15E-07,  avg # of iterations =  1.6

     total cpu time spent up to now is       24.6 secs

     total energy              =    -569.20620546 Ry
     estimated scf accuracy    <       0.00027186 Ry

     total magnetization       =     0.65 Bohr mag/cell
     absolute magnetization    =     0.66 Bohr mag/cell
[tb_dev] Currently allocated     3.05E-05 Mbytes, locked:    0 /   2
[tb_pin] Currently allocated     0.00E+00 Mbytes, locked:    0 /   0

     iteration # 17     ecut=    60.00 Ry     beta= 0.30
     Davidson diagonalization with overlap

---- Real-time Memory Report at c_bands before calling an iterative solver
           765 MiB given to the printing process from OS
             0 MiB allocation reported by mallinfo(arena+hblkhd)
        851386 MiB available memory on the node where the printing process lives
     GPU memory used/free/total (MiB): 1074 / 80076 / 81151
------------------
     ethr =  6.15E-07,  avg # of iterations =  1.8

     total cpu time spent up to now is       25.8 secs

     total energy              =    -569.20629149 Ry
     estimated scf accuracy    <       0.00016261 Ry

     total magnetization       =     0.66 Bohr mag/cell
     absolute magnetization    =     0.68 Bohr mag/cell
[tb_dev] Currently allocated     3.05E-05 Mbytes, locked:    0 /   2
[tb_pin] Currently allocated     0.00E+00 Mbytes, locked:    0 /   0

     iteration # 18     ecut=    60.00 Ry     beta= 0.30
     Davidson diagonalization with overlap

---- Real-time Memory Report at c_bands before calling an iterative solver
           765 MiB given to the printing process from OS
             0 MiB allocation reported by mallinfo(arena+hblkhd)
        851377 MiB available memory on the node where the printing process lives
     GPU memory used/free/total (MiB): 1074 / 80076 / 81151
------------------
     ethr =  4.28E-07,  avg # of iterations =  1.4

     total cpu time spent up to now is       26.9 secs

     total energy              =    -569.20635138 Ry
     estimated scf accuracy    <       0.00013353 Ry

     total magnetization       =     0.67 Bohr mag/cell
     absolute magnetization    =     0.69 Bohr mag/cell
[tb_dev] Currently allocated     3.05E-05 Mbytes, locked:    0 /   2
[tb_pin] Currently allocated     0.00E+00 Mbytes, locked:    0 /   0

     iteration # 19     ecut=    60.00 Ry     beta= 0.30
     Davidson diagonalization with overlap

---- Real-time Memory Report at c_bands before calling an iterative solver
           765 MiB given to the printing process from OS
             0 MiB allocation reported by mallinfo(arena+hblkhd)
        851362 MiB available memory on the node where the printing process lives
     GPU memory used/free/total (MiB): 1074 / 80076 / 81151
------------------
     ethr =  3.51E-07,  avg # of iterations =  2.0

     total cpu time spent up to now is       28.1 secs

     total energy              =    -569.20634557 Ry
     estimated scf accuracy    <       0.00014748 Ry

     total magnetization       =     0.68 Bohr mag/cell
     absolute magnetization    =     0.70 Bohr mag/cell
[tb_dev] Currently allocated     3.05E-05 Mbytes, locked:    0 /   2
[tb_pin] Currently allocated     0.00E+00 Mbytes, locked:    0 /   0

     iteration # 20     ecut=    60.00 Ry     beta= 0.30
     Davidson diagonalization with overlap

---- Real-time Memory Report at c_bands before calling an iterative solver
           765 MiB given to the printing process from OS
             0 MiB allocation reported by mallinfo(arena+hblkhd)
        851314 MiB available memory on the node where the printing process lives
     GPU memory used/free/total (MiB): 1074 / 80076 / 81151
------------------
     ethr =  3.51E-07,  avg # of iterations =  1.5

     total cpu time spent up to now is       29.2 secs

     total energy              =    -569.20636264 Ry
     estimated scf accuracy    <       0.00002224 Ry

     total magnetization       =     0.68 Bohr mag/cell
     absolute magnetization    =     0.70 Bohr mag/cell
[tb_dev] Currently allocated     3.05E-05 Mbytes, locked:    0 /   2
[tb_pin] Currently allocated     0.00E+00 Mbytes, locked:    0 /   0

     iteration # 21     ecut=    60.00 Ry     beta= 0.30
     Davidson diagonalization with overlap

---- Real-time Memory Report at c_bands before calling an iterative solver
           765 MiB given to the printing process from OS
             0 MiB allocation reported by mallinfo(arena+hblkhd)
        851241 MiB available memory on the node where the printing process lives
     GPU memory used/free/total (MiB): 1074 / 80076 / 81151
------------------
     ethr =  5.85E-08,  avg # of iterations =  4.3

     total cpu time spent up to now is       30.7 secs

     total energy              =    -569.20636817 Ry
     estimated scf accuracy    <       0.00001285 Ry

     total magnetization       =     0.68 Bohr mag/cell
     absolute magnetization    =     0.71 Bohr mag/cell
[tb_dev] Currently allocated     3.05E-05 Mbytes, locked:    0 /   2
[tb_pin] Currently allocated     0.00E+00 Mbytes, locked:    0 /   0

     iteration # 22     ecut=    60.00 Ry     beta= 0.30
     Davidson diagonalization with overlap

---- Real-time Memory Report at c_bands before calling an iterative solver
           765 MiB given to the printing process from OS
             0 MiB allocation reported by mallinfo(arena+hblkhd)
        851682 MiB available memory on the node where the printing process lives
     GPU memory used/free/total (MiB): 1074 / 80076 / 81151
------------------
     ethr =  3.38E-08,  avg # of iterations =  3.3

     total cpu time spent up to now is       32.1 secs

     total energy              =    -569.20637054 Ry
     estimated scf accuracy    <       0.00000285 Ry

     total magnetization       =     0.68 Bohr mag/cell
     absolute magnetization    =     0.71 Bohr mag/cell
[tb_dev] Currently allocated     3.05E-05 Mbytes, locked:    0 /   2
[tb_pin] Currently allocated     0.00E+00 Mbytes, locked:    0 /   0

     iteration # 23     ecut=    60.00 Ry     beta= 0.30
     Davidson diagonalization with overlap

---- Real-time Memory Report at c_bands before calling an iterative solver
           765 MiB given to the printing process from OS
             0 MiB allocation reported by mallinfo(arena+hblkhd)
        851513 MiB available memory on the node where the printing process lives
     GPU memory used/free/total (MiB): 1074 / 80076 / 81151
------------------
     ethr =  7.49E-09,  avg # of iterations =  4.7

     total cpu time spent up to now is       33.6 secs

     total energy              =    -569.20637390 Ry
     estimated scf accuracy    <       0.00000362 Ry

     total magnetization       =     0.68 Bohr mag/cell
     absolute magnetization    =     0.71 Bohr mag/cell
[tb_dev] Currently allocated     3.05E-05 Mbytes, locked:    0 /   2
[tb_pin] Currently allocated     0.00E+00 Mbytes, locked:    0 /   0

     iteration # 24     ecut=    60.00 Ry     beta= 0.30
     Davidson diagonalization with overlap

---- Real-time Memory Report at c_bands before calling an iterative solver
           765 MiB given to the printing process from OS
             0 MiB allocation reported by mallinfo(arena+hblkhd)
        851520 MiB available memory on the node where the printing process lives
     GPU memory used/free/total (MiB): 1074 / 80076 / 81151
------------------
     ethr =  7.49E-09,  avg # of iterations =  1.5

     total cpu time spent up to now is       34.7 secs

     total energy              =    -569.20637412 Ry
     estimated scf accuracy    <       0.00000035 Ry

     total magnetization       =     0.68 Bohr mag/cell
     absolute magnetization    =     0.71 Bohr mag/cell
[tb_dev] Currently allocated     3.05E-05 Mbytes, locked:    0 /   2
[tb_pin] Currently allocated     0.00E+00 Mbytes, locked:    0 /   0

     iteration # 25     ecut=    60.00 Ry     beta= 0.30
     Davidson diagonalization with overlap

---- Real-time Memory Report at c_bands before calling an iterative solver
           765 MiB given to the printing process from OS
             0 MiB allocation reported by mallinfo(arena+hblkhd)
        851336 MiB available memory on the node where the printing process lives
     GPU memory used/free/total (MiB): 1074 / 80076 / 81151
------------------
     ethr =  9.08E-10,  avg # of iterations =  6.8

     total cpu time spent up to now is       36.5 secs

     total energy              =    -569.20637435 Ry
     estimated scf accuracy    <       0.00000027 Ry

     total magnetization       =     0.68 Bohr mag/cell
     absolute magnetization    =     0.71 Bohr mag/cell
[tb_dev] Currently allocated     3.05E-05 Mbytes, locked:    0 /   2
[tb_pin] Currently allocated     0.00E+00 Mbytes, locked:    0 /   0

     iteration # 26     ecut=    60.00 Ry     beta= 0.30
     Davidson diagonalization with overlap

---- Real-time Memory Report at c_bands before calling an iterative solver
           765 MiB given to the printing process from OS
             0 MiB allocation reported by mallinfo(arena+hblkhd)
        851280 MiB available memory on the node where the printing process lives
     GPU memory used/free/total (MiB): 1074 / 80076 / 81151
------------------
     ethr =  7.22E-10,  avg # of iterations =  1.6

     total cpu time spent up to now is       37.7 secs

     total energy              =    -569.20637441 Ry
     estimated scf accuracy    <       0.00000004 Ry

     total magnetization       =     0.68 Bohr mag/cell
     absolute magnetization    =     0.71 Bohr mag/cell
[tb_dev] Currently allocated     3.05E-05 Mbytes, locked:    0 /   2
[tb_pin] Currently allocated     0.00E+00 Mbytes, locked:    0 /   0

     iteration # 27     ecut=    60.00 Ry     beta= 0.30
     Davidson diagonalization with overlap

---- Real-time Memory Report at c_bands before calling an iterative solver
           765 MiB given to the printing process from OS
             0 MiB allocation reported by mallinfo(arena+hblkhd)
        851276 MiB available memory on the node where the printing process lives
     GPU memory used/free/total (MiB): 1074 / 80076 / 81151
------------------
     ethr =  1.13E-10,  avg # of iterations =  4.9

     total cpu time spent up to now is       39.2 secs

     total energy              =    -569.20637445 Ry
     estimated scf accuracy    <       0.00000002 Ry

     total magnetization       =     0.68 Bohr mag/cell
     absolute magnetization    =     0.71 Bohr mag/cell
[tb_dev] Currently allocated     3.05E-05 Mbytes, locked:    0 /   2
[tb_pin] Currently allocated     0.00E+00 Mbytes, locked:    0 /   0

     iteration # 28     ecut=    60.00 Ry     beta= 0.30
     Davidson diagonalization with overlap

---- Real-time Memory Report at c_bands before calling an iterative solver
           765 MiB given to the printing process from OS
             0 MiB allocation reported by mallinfo(arena+hblkhd)
        851238 MiB available memory on the node where the printing process lives
     GPU memory used/free/total (MiB): 1074 / 80076 / 81151
------------------
     ethr =  5.49E-11,  avg # of iterations =  3.1
 
     Magnetic moment per site  (integrated on atomic sphere of radius R)
     atom   1 (R=0.275)  charge= 14.1002  magn=  0.5358
     atom   2 (R=0.275)  charge=  5.2236  magn=  0.0523
     atom   3 (R=0.275)  charge=  5.2228  magn=  0.0531
     atom   4 (R=0.413)  charge=  8.2287  magn= -0.0028

     total cpu time spent up to now is       40.5 secs

     End of self-consistent calculation

 ------ SPIN UP ------------


          k = 0.0000 0.0000 0.0000 (  3231 PWs)   bands (ev):

   -90.3568 -53.5844 -53.5625 -53.5625 -48.2602 -20.1108 -20.0707 -20.0707
   -13.9384 -12.0476  -0.2939   0.2879   0.2879   3.0880   3.1017   3.8424
     3.8424   3.9407   3.9407   5.1563   7.7029   7.7029   8.4135  11.8391
    15.1943  16.1809  21.2807

     occupation numbers 
     1.0000   1.0000   1.0000   1.0000   1.0000   1.0000   1.0000   1.0000
     1.0000   1.0000   1.0000   1.0000   1.0000   1.0000   1.0000   1.0000
     1.0000   1.0000   1.0000   1.0437   0.0000   0.0000   0.0000   0.0000
     0.0000   0.0000   0.0000

          k = 0.0000 0.0000 0.1146 (  3237 PWs)   bands (ev):

   -90.3568 -53.5845 -53.5625 -53.5625 -48.2603 -20.1110 -20.0707 -20.0707
   -13.9383 -12.0480  -0.2580   0.2879   0.2879   2.4343   3.8424   3.8424
     3.9296   3.9406   3.9406   5.0576   7.7030   7.7030   8.0555  12.6409
    14.3528  16.3241  21.3586

     occupation numbers 
     1.0000   1.0000   1.0000   1.0000   1.0000   1.0000   1.0000   1.0000
     1.0000   1.0000   1.0000   1.0000   1.0000   1.0000   1.0000   1.0000
     1.0000   1.0000   1.0000   1.0833   0.0000   0.0000   0.0000   0.0000
     0.0000   0.0000   0.0000

          k = 0.0000 0.1443 0.0000 (  3229 PWs)   bands (ev):

   -90.3561 -53.5833 -53.5706 -53.5644 -48.2550 -20.1150 -20.1038 -20.0802
   -13.7670 -12.0516  -0.0850   0.1009   0.4007   2.7351   3.1618   3.4528
     3.4974   4.2579   4.5161   5.2414   7.1916   7.6046   8.7461  12.4196
    15.8247  16.5076  19.0772

     occupation numbers 
     1.0000   1.0000   1.0000   1.0000   1.0000   1.0000   1.0000   1.0000
     1.0000   1.0000   1.0000   1.0000   1.0000   1.0000   1.0000   1.0000
     1.0000   1.0000   1.0002   0.9218   0.0000   0.0000   0.0000   0.0000
     0.0000   0.0000   0.0000

          k = 0.0000 0.1443 0.1146 (  3219 PWs)   bands (ev):

   -90.3560 -53.5832 -53.5706 -53.5644 -48.2550 -20.1150 -20.1037 -20.0802
   -13.7668 -12.0519  -0.0572   0.0964   0.4007   2.7476   2.8964   3.1618
     4.1102   4.3549   4.5161   5.1147   7.2693   7.6046   8.4105  13.1237
    14.8589  16.9002  19.0690

     occupation numbers 
     1.0000   1.0000   1.0000   1.0000   1.0000   1.0000   1.0000   1.0000
     1.0000   1.0000   1.0000   1.0000   1.0000   1.0000   1.0000   1.0000
     1.0000   1.0000   1.0002   1.0719   0.0000   0.0000   0.0000   0.0000
     0.0000   0.0000   0.0000

          k = 0.0000 0.2887 0.0000 (  3212 PWs)   bands (ev):

   -90.3543 -53.5903 -53.5804 -53.5691 -48.2424 -20.2205 -20.1029 -20.0869
   -13.3166 -12.0752  -0.1659   0.4083   0.6692   1.4054   2.5975   3.7654
     4.3641   4.4941   4.7311   5.2127   6.5974   7.4865   9.5282  13.7166
    15.3149  17.0725  17.3215

     occupation numbers 
     1.0000   1.0000   1.0000   1.0000   1.0000   1.0000   1.0000   1.0000
     1.0000   1.0000   1.0000   1.0000   1.0000   1.0000   1.0000   1.0000
     1.0000   1.0001   1.0068   0.9728   0.0000   0.0000   0.0000   0.0000
     0.0000   0.0000   0.0000

          k = 0.0000 0.2887 0.1146 (  3212 PWs)   bands (ev):

   -90.3543 -53.5903 -53.5804 -53.5691 -48.2424 -20.2203 -20.1030 -20.0869
   -13.3165 -12.0754  -0.1737   0.4228   0.6692   1.4164   2.5975   3.6672
     4.2523   4.7311   4.8469   4.9848   6.7757   7.4864   9.3094  14.1515
    15.3392  16.0389  18.1476

     occupation numbers 
     1.0000   1.0000   1.0000   1.0000   1.0000   1.0000   1.0000   1.0000
     1.0000   1.0000   1.0000   1.0000   1.0000   1.0000   1.0000   1.0000
     1.0000   1.0068   1.0257   1.0694   0.0000   0.0000   0.0000   0.0000
     0.0000   0.0000   0.0000

          k = 0.0000 0.4330 0.0000 (  3198 PWs)   bands (ev):

   -90.3525 -53.6099 -53.5774 -53.5738 -48.2297 -20.3240 -20.1257 -20.0698
   -12.7724 -12.1523  -0.6186   0.4408   0.8809   1.4340   2.4139   3.2770
     4.2421   4.4887   4.7411   6.3444   6.9142   7.5256  10.8214  11.9186
    15.3864  15.8137  17.9640

     occupation numbers 
     1.0000   1.0000   1.0000   1.0000   1.0000   1.0000   1.0000   1.0000
     1.0000   1.0000   1.0000   1.0000   1.0000   1.0000   1.0000   1.0000
     1.0000   1.0001   1.0077   0.0000   0.0000   0.0000   0.0000   0.0000
     0.0000   0.0000   0.0000

          k = 0.0000 0.4330 0.1146 (  3216 PWs)   bands (ev):

   -90.3525 -53.6100 -53.5775 -53.5739 -48.2298 -20.3241 -20.1259 -20.0699
   -12.7724 -12.1524  -0.6201   0.4388   0.8808   1.4416   2.4139   3.2834
     4.2390   4.4886   4.7466   6.1711   7.1160   7.5255  10.7485  11.8922
    15.4856  16.1946  17.0703

     occupation numbers 
     1.0000   1.0000   1.0000   1.0000   1.0000   1.0000   1.0000   1.0000
     1.0000   1.0000   1.0000   1.0000   1.0000   1.0000   1.0000   1.0000
     1.0000   1.0001   1.0083   0.0000   0.0000   0.0000   0.0000   0.0000
     0.0000   0.0000   0.0000

          k = 0.0000-0.5774 0.0000 (  3214 PWs)   bands (ev):

   -90.3518 -53.6181 -53.5763 -53.5758 -48.2245 -20.3664 -20.1353 -20.0628
   -12.3891 -12.3270  -1.0003   0.6237   0.9245   1.6179   2.4723   3.0051
     3.9994   4.2708   4.6815   6.9446   7.5745   8.2865   9.6441  12.3617
    13.5705  16.5947  17.5415

     occupation numbers 
     1.0000   1.0000   1.0000   1.0000   1.0000   1.0000   1.0000   1.0000
     1.0000   1.0000   1.0000   1.0000   1.0000   1.0000   1.0000   1.0000
     1.0000   1.0000   1.0034   0.0000   0.0000   0.0000   0.0000   0.0000
     0.0000   0.0000   0.0000

          k = 0.0000-0.5774 0.1146 (  3216 PWs)   bands (ev):

   -90.3518 -53.6182 -53.5762 -53.5758 -48.2245 -20.3666 -20.1353 -20.0627
   -12.3890 -12.3270  -1.0008   0.6223   0.9245   1.6183   2.4723   3.0132
     3.9983   4.2708   4.6797   6.9479   7.5746   8.2526   9.6356  12.4632
    13.6207  16.4741  17.0926

     occupation numbers 
     1.0000   1.0000   1.0000   1.0000   1.0000   1.0000   1.0000   1.0000
     1.0000   1.0000   1.0000   1.0000   1.0000   1.0000   1.0000   1.0000
     1.0000   1.0000   1.0033   0.0000   0.0000   0.0000   0.0000   0.0000
     0.0000   0.0000   0.0000

          k = 0.1250 0.2165 0.0000 (  3225 PWs)   bands (ev):

   -90.3548 -53.5836 -53.5813 -53.5687 -48.2461 -20.1849 -20.1015 -20.0918
   -13.4560 -12.0645  -0.0691   0.2749   0.5531   1.8818   2.4575   3.8313
     4.1681   4.3203   4.8147   5.2175   6.7747   7.3654   9.2812  13.3679
    16.4796  16.8090  17.0736

     occupation numbers 
     1.0000   1.0000   1.0000   1.0000   1.0000   1.0000   1.0000   1.0000
     1.0000   1.0000   1.0000   1.0000   1.0000   1.0000   1.0000   1.0000
     1.0000   1.0000   1.0185   0.9649   0.0000   0.0000   0.0000   0.0000
     0.0000   0.0000   0.0000

          k = 0.1250 0.2165 0.1146 (  3212 PWs)   bands (ev):

   -90.3548 -53.5836 -53.5812 -53.5686 -48.2461 -20.1848 -20.1013 -20.0918
   -13.4558 -12.0648  -0.0771   0.2941   0.5537   1.8924   2.4575   3.5487
     4.3103   4.4765   4.8898   5.1145   6.8787   7.3252   9.1035  13.8210
    15.7497  16.5163  17.8117

     occupation numbers 
     1.0000   1.0000   1.0000   1.0000   1.0000   1.0000   1.0000   1.0000
     1.0000   1.0000   1.0000   1.0000   1.0000   1.0000   1.0000   1.0000
     1.0000   1.0001   1.0377   1.0720   0.0000   0.0000   0.0000   0.0000
     0.0000   0.0000   0.0000

          k = 0.1250 0.3608 0.0000 (  3216 PWs)   bands (ev):

   -90.3530 -53.6013 -53.5785 -53.5753 -48.2335 -20.2782 -20.1352 -20.0749
   -12.9597 -12.1071  -0.2091   0.2976   0.8849   1.3371   2.0281   3.5830
     4.3429   4.6089   4.9572   5.7721   6.7553   7.2655  10.3106  13.4732
    14.7994  17.2570  17.8320

     occupation numbers 
     1.0000   1.0000   1.0000   1.0000   1.0000   1.0000   1.0000   1.0000
     1.0000   1.0000   1.0000   1.0000   1.0000   1.0000   1.0000   1.0000
     1.0000   1.0011   1.0604   0.0139   0.0000   0.0000   0.0000   0.0000
     0.0000   0.0000   0.0000

          k = 0.1250 0.3608 0.1146 (  3205 PWs)   bands (ev):

   -90.3530 -53.6012 -53.5784 -53.5752 -48.2335 -20.2780 -20.1351 -20.0748
   -12.9596 -12.1072  -0.2131   0.2974   0.8879   1.3475   2.0283   3.5767
     4.3421   4.6241   4.9266   5.6927   6.9443   7.2085  10.2383  13.4629
    14.9942  16.9652  17.7892

     occupation numbers 
     1.0000   1.0000   1.0000   1.0000   1.0000   1.0000   1.0000   1.0000
     1.0000   1.0000   1.0000   1.0000   1.0000   1.0000   1.0000   1.0000
     1.0000   1.0014   1.0498   0.0403   0.0000   0.0000   0.0000   0.0000
     0.0000   0.0000   0.0000

          k = 0.1250 0.5052 0.0000 (  3220 PWs)   bands (ev):

   -90.3518 -53.6137 -53.5802 -53.5763 -48.2246 -20.3427 -20.1596 -20.0629
   -12.4989 -12.2177  -0.7114   0.3014   1.1596   1.6090   1.9879   2.9890
     4.0955   4.4026   4.8767   6.8818   7.2861   7.8420  10.6693  11.9480
    14.6542  15.9224  17.4578

     occupation numbers 
     1.0000   1.0000   1.0000   1.0000   1.0000   1.0000   1.0000   1.0000
     1.0000   1.0000   1.0000   1.0000   1.0000   1.0000   1.0000   1.0000
     1.0000   1.0000   1.0338   0.0000   0.0000   0.0000   0.0000   0.0000
     0.0000   0.0000   0.0000

          k = 0.1250 0.5052 0.1146 (  3217 PWs)   bands (ev):

   -90.3518 -53.6137 -53.5802 -53.5763 -48.2246 -20.3426 -20.1596 -20.0629
   -12.4988 -12.2178  -0.7119   0.3004   1.1589   1.6112   1.9877   2.9944
     4.0949   4.4034   4.8736   6.8509   7.3116   7.8468  10.6436  11.9600
    14.7682  16.0104  17.2079

     occupation numbers 
     1.0000   1.0000   1.0000   1.0000   1.0000   1.0000   1.0000   1.0000
     1.0000   1.0000   1.0000   1.0000   1.0000   1.0000   1.0000   1.0000
     1.0000   1.0000   1.0329   0.0000   0.0000   0.0000   0.0000   0.0000
     0.0000   0.0000   0.0000

          k = 0.2500 0.4330 0.0000 (  3215 PWs)   bands (ev):

   -90.3518 -53.6075 -53.5863 -53.5764 -48.2246 -20.3093 -20.1932 -20.0630
   -12.5549 -12.1623  -0.1410  -0.0316   0.9380   1.6612   1.6799   3.0188
     4.1567   4.5043   5.0624   6.8212   6.9760   7.6107  11.6799  11.8343
    14.7156  16.5477  17.0938

     occupation numbers 
     1.0000   1.0000   1.0000   1.0000   1.0000   1.0000   1.0000   1.0000
     1.0000   1.0000   1.0000   1.0000   1.0000   1.0000   1.0000   1.0000
     1.0000   1.0002   1.0833   0.0000   0.0000   0.0000   0.0000   0.0000
     0.0000   0.0000   0.0000

          k = 0.2500 0.4330 0.1146 (  3206 PWs)   bands (ev):

   -90.3518 -53.6075 -53.5863 -53.5763 -48.2245 -20.3093 -20.1931 -20.0629
   -12.5548 -12.1624  -0.1411  -0.0335   0.9382   1.6597   1.6860   3.0186
     4.1573   4.5061   5.0525   6.8681   6.9564   7.5729  11.7357  11.8351
    14.6775  16.5456  16.9614

     occupation numbers 
     1.0000   1.0000   1.0000   1.0000   1.0000   1.0000   1.0000   1.0000
     1.0000   1.0000   1.0000   1.0000   1.0000   1.0000   1.0000   1.0000
     1.0000   1.0002   1.0831   0.0000   0.0000   0.0000   0.0000   0.0000
     0.0000   0.0000   0.0000

          k = 0.2500 0.5774 0.0000 (  3210 PWs)   bands (ev):

   -90.3513 -53.6079 -53.5930 -53.5755 -48.2208 -20.3105 -20.2289 -20.0579
   -12.3145 -12.2491  -0.3025   0.0714   0.7687   1.7629   1.9602   2.5673
     3.8868   4.7057   4.9638   6.9587   6.9835   9.1343  10.1787  13.4555
    13.9692  14.4742  16.7447

     occupation numbers 
     1.0000   1.0000   1.0000   1.0000   1.0000   1.0000   1.0000   1.0000
     1.0000   1.0000   1.0000   1.0000   1.0000   1.0000   1.0000   1.0000
     1.0000   1.0048   1.0626   0.0000   0.0000   0.0000   0.0000   0.0000
     0.0000   0.0000   0.0000

          k = 0.2500 0.5774 0.1146 (  3215 PWs)   bands (ev):

   -90.3513 -53.6080 -53.5930 -53.5755 -48.2209 -20.3106 -20.2289 -20.0580
   -12.3145 -12.2491  -0.3030   0.0710   0.7689   1.7630   1.9604   2.5680
     3.8868   4.7060   4.9617   6.9651   6.9923   9.1132  10.1606  13.5108
    13.9560  14.5117  16.7456

     occupation numbers 
     1.0000   1.0000   1.0000   1.0000   1.0000   1.0000   1.0000   1.0000
     1.0000   1.0000   1.0000   1.0000   1.0000   1.0000   1.0000   1.0000
     1.0000   1.0048   1.0619   0.0000   0.0000   0.0000   0.0000   0.0000
     0.0000   0.0000   0.0000

          k = 0.0000-0.1443 0.1146 (  3219 PWs)   bands (ev):

   -90.3560 -53.5832 -53.5706 -53.5644 -48.2550 -20.1150 -20.1037 -20.0802
   -13.7668 -12.0519  -0.0536   0.0929   0.4007   2.6971   2.9574   3.1617
     4.0949   4.3528   4.5161   5.1347   7.2048   7.6047   8.4783  13.0750
    14.8918  16.8960  19.0883

     occupation numbers 
     1.0000   1.0000   1.0000   1.0000   1.0000   1.0000   1.0000   1.0000
     1.0000   1.0000   1.0000   1.0000   1.0000   1.0000   1.0000   1.0000
     1.0000   1.0000   1.0002   1.0607   0.0000   0.0000   0.0000   0.0000
     0.0000   0.0000   0.0000

          k = 0.0000-0.2887 0.1146 (  3212 PWs)   bands (ev):

   -90.3543 -53.5902 -53.5804 -53.5691 -48.2424 -20.2203 -20.1030 -20.0869
   -13.3165 -12.0754  -0.1708   0.4179   0.6692   1.4191   2.5975   3.6412
     4.2851   4.7024   4.7311   5.2214   6.5907   7.4865   9.4602  13.9666
    15.3212  16.1422  18.2683

     occupation numbers 
     1.0000   1.0000   1.0000   1.0000   1.0000   1.0000   1.0000   1.0000
     1.0000   1.0000   1.0000   1.0000   1.0000   1.0000   1.0000   1.0000
     1.0000   1.0046   1.0068   0.9584   0.0000   0.0000   0.0000   0.0000
     0.0000   0.0000   0.0000

          k = 0.0000-0.4330 0.1146 (  3216 PWs)   bands (ev):

   -90.3525 -53.6100 -53.5775 -53.5739 -48.2298 -20.3241 -20.1259 -20.0699
   -12.7723 -12.1524  -0.6202   0.4381   0.8808   1.4452   2.4138   3.2733
     4.2444   4.4886   4.7275   6.3951   6.8433   7.5255  10.9194  11.9190
    15.2279  15.8023  17.5378

     occupation numbers 
     1.0000   1.0000   1.0000   1.0000   1.0000   1.0000   1.0000   1.0000
     1.0000   1.0000   1.0000   1.0000   1.0000   1.0000   1.0000   1.0000
     1.0000   1.0001   1.0064   0.0000   0.0000   0.0000   0.0000   0.0000
     0.0000   0.0000   0.0000

          k =-0.1250-0.3608 0.1146 (  3205 PWs)   bands (ev):

   -90.3530 -53.6012 -53.5784 -53.5752 -48.2335 -20.2780 -20.1351 -20.0748
   -12.9596 -12.1072  -0.2125   0.2966   0.8862   1.3514   2.0277   3.5675
     4.3478   4.6293   4.8885   5.8251   6.7583   7.2571  10.3273  13.4745
    14.8450  16.9491  17.8170

     occupation numbers 
     1.0000   1.0000   1.0000   1.0000   1.0000   1.0000   1.0000   1.0000
     1.0000   1.0000   1.0000   1.0000   1.0000   1.0000   1.0000   1.0000
     1.0000   1.0015   1.0373   0.0062   0.0000   0.0000   0.0000   0.0000
     0.0000   0.0000   0.0000

          k =-0.1250-0.5052 0.1146 (  3217 PWs)   bands (ev):

   -90.3518 -53.6137 -53.5802 -53.5763 -48.2246 -20.3426 -20.1596 -20.0629
   -12.4988 -12.2178  -0.7120   0.3005   1.1587   1.6124   1.9884   2.9912
     4.0960   4.4034   4.8708   6.9174   7.2851   7.7762  10.6643  12.0734
    14.6649  15.8137  17.1418

     occupation numbers 
     1.0000   1.0000   1.0000   1.0000   1.0000   1.0000   1.0000   1.0000
     1.0000   1.0000   1.0000   1.0000   1.0000   1.0000   1.0000   1.0000
     1.0000   1.0000   1.0321   0.0000   0.0000   0.0000   0.0000   0.0000
     0.0000   0.0000   0.0000

 ------ SPIN DOWN ----------


          k = 0.0000 0.0000 0.0000 (  3231 PWs)   bands (ev):

   -89.7017 -52.9731 -52.9731 -52.8470 -48.2616 -20.1115 -20.0725 -20.0725
   -13.8521 -11.9545  -0.0329   0.4917   0.4917   3.1332   3.2199   4.0030
     4.0030   4.3798   4.3798   5.9018   7.9864   7.9864   8.4366  11.8977
    15.2774  16.2728  21.3093

     occupation numbers 
     1.0000   1.0000   1.0000   1.0000   1.0000   1.0000   1.0000   1.0000
     1.0000   1.0000   1.0000   1.0000   1.0000   1.0000   1.0000   1.0000
     1.0000   1.0000   1.0000   0.0017   0.0000   0.0000   0.0000   0.0000
     0.0000   0.0000   0.0000

          k = 0.0000 0.0000 0.1146 (  3237 PWs)   bands (ev):

   -89.7017 -52.9731 -52.9731 -52.8471 -48.2616 -20.1117 -20.0725 -20.0725
   -13.8519 -11.9549   0.0120   0.4916   0.4916   2.4814   4.0028   4.0028
     4.0266   4.3797   4.3797   5.8102   7.9865   7.9865   8.0790  12.7026
    14.4443  16.3944  21.4284

     occupation numbers 
     1.0000   1.0000   1.0000   1.0000   1.0000   1.0000   1.0000   1.0000
     1.0000   1.0000   1.0000   1.0000   1.0000   1.0000   1.0000   1.0000
     1.0000   1.0000   1.0000   0.0079   0.0000   0.0000   0.0000   0.0000
     0.0000   0.0000   0.0000

          k = 0.0000 0.1443 0.0000 (  3229 PWs)   bands (ev):

   -89.7009 -52.9815 -52.9751 -52.8458 -48.2564 -20.1169 -20.1045 -20.0820
   -13.6801 -11.9579   0.1770   0.2915   0.5980   2.8996   3.3953   3.5329
     3.6130   4.7183   4.9007   5.9367   7.4605   7.8805   8.7903  12.4727
    15.9069  16.6035  19.0581

     occupation numbers 
     1.0000   1.0000   1.0000   1.0000   1.0000   1.0000   1.0000   1.0000
     1.0000   1.0000   1.0000   1.0000   1.0000   1.0000   1.0000   1.0000
     1.0000   1.0057   1.0412   0.0009   0.0000   0.0000   0.0000   0.0000
     0.0000   0.0000   0.0000

          k = 0.0000 0.1443 0.1146 (  3219 PWs)   bands (ev):

   -89.7009 -52.9815 -52.9751 -52.8457 -48.2563 -20.1168 -20.1044 -20.0820
   -13.6799 -11.9582   0.2087   0.2890   0.5980   2.9145   2.9613   3.3954
     4.2785   4.7454   4.9007   5.8308   7.5588   7.8804   8.4328  13.1808
    14.9492  16.9765  19.0497

     occupation numbers 
     1.0000   1.0000   1.0000   1.0000   1.0000   1.0000   1.0000   1.0000
     1.0000   1.0000   1.0000   1.0000   1.0000   1.0000   1.0000   1.0000
     1.0000   1.0082   1.0412   0.0057   0.0000   0.0000   0.0000   0.0000
     0.0000   0.0000   0.0000

          k = 0.0000 0.2887 0.0000 (  3212 PWs)   bands (ev):

   -89.6991 -53.0018 -52.9799 -52.8428 -48.2437 -20.2224 -20.1047 -20.0876
   -13.2282 -11.9801   0.0082   0.6329   0.8510   1.5812   2.7953   3.9240
     4.6177   4.8720   5.1957   5.7961   6.9025   7.7447   9.5607  13.7578
    15.3009  17.1487  17.4240

     occupation numbers 
     1.0000   1.0000   1.0000   1.0000   1.0000   1.0000   1.0000   1.0000
     1.0000   1.0000   1.0000   1.0000   1.0000   1.0000   1.0000   1.0000
     1.0012   1.0324   0.9983   0.0098   0.0000   0.0000   0.0000   0.0000
     0.0000   0.0000   0.0000

          k = 0.0000 0.2887 0.1146 (  3212 PWs)   bands (ev):

   -89.6991 -53.0017 -52.9799 -52.8428 -48.2437 -20.2223 -20.1048 -20.0876
   -13.2281 -11.9803  -0.0004   0.6483   0.8510   1.5981   2.7953   3.7809
     4.6277   5.0285   5.1957   5.6903   7.0897   7.7446   9.3198  14.1932
    15.3295  16.1224  18.2340

     occupation numbers 
     1.0000   1.0000   1.0000   1.0000   1.0000   1.0000   1.0000   1.0000
     1.0000   1.0000   1.0000   1.0000   1.0000   1.0000   1.0000   1.0000
     1.0015   1.0804   0.9983   0.0415   0.0000   0.0000   0.0000   0.0000
     0.0000   0.0000   0.0000

          k = 0.0000 0.4330 0.0000 (  3198 PWs)   bands (ev):

   -89.6972 -53.0221 -52.9847 -52.8397 -48.2311 -20.3260 -20.1275 -20.0704
   -12.6815 -12.0566  -0.4738   0.5492   1.0572   1.7068   2.5379   3.4357
     4.8648   5.0498   5.3813   6.4013   7.1881   7.7783  10.8312  11.9036
    15.4191  15.8289  18.0679

     occupation numbers 
     1.0000   1.0000   1.0000   1.0000   1.0000   1.0000   1.0000   1.0000
     1.0000   1.0000   1.0000   1.0000   1.0000   1.0000   1.0000   1.0000
     1.0304   1.0830   0.5710   0.0000   0.0000   0.0000   0.0000   0.0000
     0.0000   0.0000   0.0000

          k = 0.0000 0.4330 0.1146 (  3216 PWs)   bands (ev):

   -89.6973 -53.0221 -52.9849 -52.8397 -48.2311 -20.3261 -20.1277 -20.0705
   -12.6815 -12.0567  -0.4753   0.5470   1.0571   1.7159   2.5378   3.4422
     4.8568   5.0497   5.3916   6.2508   7.3729   7.7782  10.7500  11.8772
    15.5079  16.2170  17.1474

     occupation numbers 
     1.0000   1.0000   1.0000   1.0000   1.0000   1.0000   1.0000   1.0000
     1.0000   1.0000   1.0000   1.0000   1.0000   1.0000   1.0000   1.0000
     1.0282   1.0830   0.5426   0.0000   0.0000   0.0000   0.0000   0.0000
     0.0000   0.0000   0.0000

          k = 0.0000-0.5774 0.0000 (  3214 PWs)   bands (ev):

   -89.6965 -53.0305 -52.9869 -52.8384 -48.2259 -20.3684 -20.1371 -20.0635
   -12.2973 -12.2308  -0.8697   0.7017   1.1053   1.9035   2.5336   3.1381
     4.7477   4.8931   5.2609   7.2843   7.8292   8.2777   9.6332  12.3525
    13.5839  16.6277  17.5891

     occupation numbers 
     1.0000   1.0000   1.0000   1.0000   1.0000   1.0000   1.0000   1.0000
     1.0000   1.0000   1.0000   1.0000   1.0000   1.0000   1.0000   1.0000
     1.0084   1.0388   0.8816   0.0000   0.0000   0.0000   0.0000   0.0000
     0.0000   0.0000   0.0000

          k = 0.0000-0.5774 0.1146 (  3216 PWs)   bands (ev):

   -89.6965 -53.0306 -52.9869 -52.8384 -48.2259 -20.3687 -20.1371 -20.0634
   -12.2973 -12.2308  -0.8702   0.7002   1.1053   1.9038   2.5336   3.1467
     4.7459   4.8931   5.2598   7.2888   7.8293   8.2392   9.6276  12.4564
    13.6317  16.5126  17.1511

     occupation numbers 
     1.0000   1.0000   1.0000   1.0000   1.0000   1.0000   1.0000   1.0000
     1.0000   1.0000   1.0000   1.0000   1.0000   1.0000   1.0000   1.0000
     1.0082   1.0388   0.8841   0.0000   0.0000   0.0000   0.0000   0.0000
     0.0000   0.0000   0.0000

          k = 0.1250 0.2165 0.0000 (  3225 PWs)   bands (ev):

   -89.6996 -52.9949 -52.9795 -52.8436 -48.2474 -20.1868 -20.1033 -20.0925
   -13.3680 -11.9699   0.1077   0.5259   0.7389   2.0369   2.6651   3.9627
     4.2691   4.8580   5.2234   5.8623   7.0492   7.6364   9.3193  13.4138
    16.4677  16.8779  17.1753

     occupation numbers 
     1.0000   1.0000   1.0000   1.0000   1.0000   1.0000   1.0000   1.0000
     1.0000   1.0000   1.0000   1.0000   1.0000   1.0000   1.0000   1.0000
     1.0000   1.0285   0.9549   0.0034   0.0000   0.0000   0.0000   0.0000
     0.0000   0.0000   0.0000

          k = 0.1250 0.2165 0.1146 (  3212 PWs)   bands (ev):

   -89.6996 -52.9949 -52.9794 -52.8436 -48.2474 -20.1867 -20.1031 -20.0924
   -13.3679 -11.9701   0.0986   0.5479   0.7406   2.0528   2.6648   3.6296
     4.6062   4.8580   5.2878   5.7750   7.1656   7.5911   9.1291  13.8682
    15.8417  16.4976  17.8875

     occupation numbers 
     1.0000   1.0000   1.0000   1.0000   1.0000   1.0000   1.0000   1.0000
     1.0000   1.0000   1.0000   1.0000   1.0000   1.0000   1.0000   1.0000
     1.0010   1.0285   0.8201   0.0133   0.0000   0.0000   0.0000   0.0000
     0.0000   0.0000   0.0000

          k = 0.1250 0.3608 0.0000 (  3216 PWs)   bands (ev):

   -89.6978 -53.0132 -52.9864 -52.8406 -48.2348 -20.2802 -20.1370 -20.0755
   -12.8697 -12.0113  -0.0486   0.4325   1.0663   1.5739   2.1921   3.7362
     4.9240   5.2995   5.4271   5.8249   7.0508   7.5252  10.3288  13.4564
    14.8324  17.3138  17.8694

     occupation numbers 
     1.0000   1.0000   1.0000   1.0000   1.0000   1.0000   1.0000   1.0000
     1.0000   1.0000   1.0000   1.0000   1.0000   1.0000   1.0000   1.0000
     1.0489   0.7914   0.4469   0.0063   0.0000   0.0000   0.0000   0.0000
     0.0000   0.0000   0.0000

          k = 0.1250 0.3608 0.1146 (  3205 PWs)   bands (ev):

   -89.6978 -53.0131 -52.9864 -52.8406 -48.2348 -20.2800 -20.1369 -20.0755
   -12.8697 -12.0114  -0.0529   0.4321   1.0684   1.5887   2.1924   3.7261
     4.9189   5.2500   5.4676   5.7610   7.2304   7.4688  10.2466  13.4458
    15.0260  17.0533  17.8102

     occupation numbers 
     1.0000   1.0000   1.0000   1.0000   1.0000   1.0000   1.0000   1.0000
     1.0000   1.0000   1.0000   1.0000   1.0000   1.0000   1.0000   1.0000
     1.0472   0.9045   0.3458   0.0163   0.0000   0.0000   0.0000   0.0000
     0.0000   0.0000   0.0000

          k = 0.1250 0.5052 0.0000 (  3220 PWs)   bands (ev):

   -89.6965 -53.0260 -52.9914 -52.8385 -48.2259 -20.3447 -20.1614 -20.0636
   -12.4065 -12.1221  -0.5800   0.4187   1.3141   1.8318   2.1349   3.1400
     4.8955   4.9965   5.3881   7.1796   7.5321   7.8746  10.6548  11.9470
    14.6591  15.9381  17.4976

     occupation numbers 
     1.0000   1.0000   1.0000   1.0000   1.0000   1.0000   1.0000   1.0000
     1.0000   1.0000   1.0000   1.0000   1.0000   1.0000   1.0000   1.0000
     1.0395   1.0729   0.5523   0.0000   0.0000   0.0000   0.0000   0.0000
     0.0000   0.0000   0.0000

          k = 0.1250 0.5052 0.1146 (  3217 PWs)   bands (ev):

   -89.6965 -53.0260 -52.9914 -52.8385 -48.2259 -20.3446 -20.1614 -20.0635
   -12.4064 -12.1221  -0.5805   0.4177   1.3134   1.8338   2.1349   3.1462
     4.8941   4.9974   5.3850   7.1315   7.5741   7.8811  10.6289  11.9593
    14.7712  16.0255  17.2497

     occupation numbers 
     1.0000   1.0000   1.0000   1.0000   1.0000   1.0000   1.0000   1.0000
     1.0000   1.0000   1.0000   1.0000   1.0000   1.0000   1.0000   1.0000
     1.0391   1.0731   0.5608   0.0000   0.0000   0.0000   0.0000   0.0000
     0.0000   0.0000   0.0000

          k = 0.2500 0.4330 0.0000 (  3215 PWs)   bands (ev):

   -89.6965 -53.0196 -52.9977 -52.8385 -48.2259 -20.3113 -20.1951 -20.0637
   -12.4628 -12.0663  -0.0235   0.1198   1.0460   1.8198   1.9391   3.1744
     4.9908   5.0785   5.5463   7.0293   7.2702   7.6715  11.6756  11.8203
    14.7226  16.5439  17.1265

     occupation numbers 
     1.0000   1.0000   1.0000   1.0000   1.0000   1.0000   1.0000   1.0000
     1.0000   1.0000   1.0000   1.0000   1.0000   1.0000   1.0000   1.0000
     1.0712   1.0822   0.1881   0.0000   0.0000   0.0000   0.0000   0.0000
     0.0000   0.0000   0.0000

          k = 0.2500 0.4330 0.1146 (  3206 PWs)   bands (ev):

   -89.6965 -53.0196 -52.9976 -52.8384 -48.2258 -20.3113 -20.1950 -20.0635
   -12.4627 -12.0664  -0.0235   0.1178   1.0461   1.8183   1.9462   3.1738
     4.9909   5.0805   5.5333   7.0855   7.2410   7.6372  11.7282  11.8240
    14.6836  16.5465  16.9813

     occupation numbers 
     1.0000   1.0000   1.0000   1.0000   1.0000   1.0000   1.0000   1.0000
     1.0000   1.0000   1.0000   1.0000   1.0000   1.0000   1.0000   1.0000
     1.0713   1.0819   0.2101   0.0000   0.0000   0.0000   0.0000   0.0000
     0.0000   0.0000   0.0000

          k = 0.2500 0.5774 0.0000 (  3210 PWs)   bands (ev):

   -89.6960 -53.0200 -53.0046 -52.8375 -48.2222 -20.3125 -20.2308 -20.0585
   -12.2209 -12.1536  -0.1774   0.1979   0.8684   1.9335   2.2026   2.6951
     4.7764   5.2602   5.4784   7.2530   7.2643   9.1185  10.1635  13.4452
    13.9711  14.4792  16.7519

     occupation numbers 
     1.0000   1.0000   1.0000   1.0000   1.0000   1.0000   1.0000   1.0000
     1.0000   1.0000   1.0000   1.0000   1.0000   1.0000   1.0000   1.0000
     1.0120   0.8832   0.3210   0.0000   0.0000   0.0000   0.0000   0.0000
     0.0000   0.0000   0.0000

          k = 0.2500 0.5774 0.1146 (  3215 PWs)   bands (ev):

   -89.6960 -53.0201 -53.0046 -52.8376 -48.2222 -20.3126 -20.2308 -20.0586
   -12.2208 -12.1536  -0.1778   0.1975   0.8686   1.9335   2.2027   2.6963
     4.7765   5.2605   5.4760   7.2637   7.2716   9.0943  10.1437  13.5039
    13.9578  14.5177  16.7566

     occupation numbers 
     1.0000   1.0000   1.0000   1.0000   1.0000   1.0000   1.0000   1.0000
     1.0000   1.0000   1.0000   1.0000   1.0000   1.0000   1.0000   1.0000
     1.0120   0.8825   0.3264   0.0000   0.0000   0.0000   0.0000   0.0000
     0.0000   0.0000   0.0000

          k = 0.0000-0.1443 0.1146 (  3219 PWs)   bands (ev):

   -89.7009 -52.9815 -52.9751 -52.8458 -48.2563 -20.1168 -20.1044 -20.0820
   -13.6799 -11.9582   0.2160   0.2819   0.5980   2.8188   3.0729   3.3953
     4.2449   4.7662   4.9007   5.8418   7.4769   7.8805   8.5176  13.1306
    14.9847  16.9705  19.0692

     occupation numbers 
     1.0000   1.0000   1.0000   1.0000   1.0000   1.0000   1.0000   1.0000
     1.0000   1.0000   1.0000   1.0000   1.0000   1.0000   1.0000   1.0000
     1.0000   1.0106   1.0412   0.0048   0.0000   0.0000   0.0000   0.0000
     0.0000   0.0000   0.0000

          k = 0.0000-0.2887 0.1146 (  3212 PWs)   bands (ev):

   -89.6991 -53.0017 -52.9800 -52.8428 -48.2437 -20.2223 -20.1048 -20.0876
   -13.2280 -11.9803   0.0022   0.6437   0.8510   1.6011   2.7953   3.7569
     4.6401   5.0485   5.1957   5.7754   6.8968   7.7446   9.4852  14.0050
    15.3088  16.2397  18.3436

     occupation numbers 
     1.0000   1.0000   1.0000   1.0000   1.0000   1.0000   1.0000   1.0000
     1.0000   1.0000   1.0000   1.0000   1.0000   1.0000   1.0000   1.0000
     1.0018   1.0829   0.9983   0.0133   0.0000   0.0000   0.0000   0.0000
     0.0000   0.0000   0.0000

          k = 0.0000-0.4330 0.1146 (  3216 PWs)   bands (ev):

   -89.6973 -53.0221 -52.9849 -52.8397 -48.2311 -20.3261 -20.1277 -20.0705
   -12.6814 -12.0568  -0.4755   0.5464   1.0571   1.7209   2.5378   3.4297
     4.8591   5.0498   5.3671   6.4374   7.1411   7.7783  10.9273  11.9037
    15.2576  15.8171  17.6502

     occupation numbers 
     1.0000   1.0000   1.0000   1.0000   1.0000   1.0000   1.0000   1.0000
     1.0000   1.0000   1.0000   1.0000   1.0000   1.0000   1.0000   1.0000
     1.0288   1.0830   0.6103   0.0000   0.0000   0.0000   0.0000   0.0000
     0.0000   0.0000   0.0000

          k =-0.1250-0.3608 0.1146 (  3205 PWs)   bands (ev):

   -89.6978 -53.0131 -52.9864 -52.8406 -48.2348 -20.2800 -20.1369 -20.0755
   -12.8696 -12.0115  -0.0525   0.4314   1.0668   1.5932   2.1917   3.7150
     4.9253   5.2766   5.3727   5.9124   7.0570   7.5173  10.3404  13.4570
    14.8752  17.0352  17.8398

     occupation numbers 
     1.0000   1.0000   1.0000   1.0000   1.0000   1.0000   1.0000   1.0000
     1.0000   1.0000   1.0000   1.0000   1.0000   1.0000   1.0000   1.0000
     1.0494   0.8464   0.5949   0.0014   0.0000   0.0000   0.0000   0.0000
     0.0000   0.0000   0.0000

          k =-0.1250-0.5052 0.1146 (  3217 PWs)   bands (ev):

   -89.6965 -53.0260 -52.9914 -52.8385 -48.2259 -20.3446 -20.1614 -20.0635
   -12.4064 -12.1222  -0.5806   0.4177   1.3132   1.8349   2.1365   3.1421
     4.8953   4.9969   5.3817   7.2384   7.5154   7.8017  10.6492  12.0736
    14.6711  15.8312  17.1701

     occupation numbers 
     1.0000   1.0000   1.0000   1.0000   1.0000   1.0000   1.0000   1.0000
     1.0000   1.0000   1.0000   1.0000   1.0000   1.0000   1.0000   1.0000
     1.0394   1.0730   0.5701   0.0000   0.0000   0.0000   0.0000   0.0000
     0.0000   0.0000   0.0000

     the Fermi energy is     5.4451 ev

!    total energy              =    -569.20637447 Ry
     total all-electron energy =     -3412.696930 Ry
     estimated scf accuracy    <          8.2E-09 Ry
     smearing contrib. (-TS)   =       0.00314704 Ry
     internal energy E=F+TS    =    -569.20952151 Ry

     The total energy is F=E-TS. E is the sum of the following terms:
     one-electron contribution =    -542.45984701 Ry
     hartree contribution      =     285.86100559 Ry
     xc contribution           =     -60.01112558 Ry
     ewald contribution        =    -130.64745911 Ry
     one-center paw contrib.   =    -121.95209540 Ry
      -> PAW hartree energy AE =     342.70385350 Ry
      -> PAW hartree energy PS =    -342.70463943 Ry
      -> PAW xc energy AE      =    -178.92912472 Ry
      -> PAW xc energy PS      =      56.97781525 Ry
      -> total E_H with PAW    =     285.86021966 Ry
      -> total E_XC with PAW   =    -181.96243504 Ry

     total magnetization       =     0.68 Bohr mag/cell
     absolute magnetization    =     0.71 Bohr mag/cell

     convergence has been achieved in  28 iterations

     Forces acting on atoms (cartesian axes, Ry/au):

     atom    1 type  1   force =    -0.00000000   -0.00000000   -0.00005728
     atom    2 type  2   force =     0.00000000    0.00000000   -0.00887988
     atom    3 type  2   force =    -0.00000000   -0.00000000    0.00946498
     atom    4 type  3   force =    -0.00000000   -0.00000000   -0.00052783
     The non-local contrib.  to forces
     atom    1 type  1   force =     0.00000000   -0.00000000    0.00106926
     atom    2 type  2   force =    -0.00000000   -0.00000000   -1.04099234
     atom    3 type  2   force =     0.00000000    0.00000000    1.04313880
     atom    4 type  3   force =     0.00000000    0.00000000    0.01161865
     The ionic contribution  to forces
     atom    1 type  1   force =    -0.00000000    0.00000000    0.00000000
     atom    2 type  2   force =     0.00000000   -0.00000000   31.12392069
     atom    3 type  2   force =    -0.00000000    0.00000000  -31.19247147
     atom    4 type  3   force =     0.00000000   -0.00000000    0.06855078
     The local contribution  to forces
     atom    1 type  1   force =    -0.00000000   -0.00000000   -0.00089761
     atom    2 type  2   force =     0.00000001   -0.00000001  -30.10078971
     atom    3 type  2   force =    -0.00000001    0.00000001   30.16787358
     atom    4 type  3   force =     0.00000006   -0.00000004   -0.08076360
     The core correction contribution to forces
     atom    1 type  1   force =    -0.00000000    0.00000000   -0.00000868
     atom    2 type  2   force =    -0.00000000    0.00000000    0.00906060
     atom    3 type  2   force =     0.00000000   -0.00000000   -0.00907079
     atom    4 type  3   force =     0.00000000   -0.00000000   -0.00000575
     The Hubbard contrib.    to forces
     atom    1 type  1   force =     0.00000000    0.00000000    0.00000000
     atom    2 type  2   force =     0.00000000    0.00000000    0.00000000
     atom    3 type  2   force =     0.00000000    0.00000000    0.00000000
     atom    4 type  3   force =     0.00000000    0.00000000    0.00000000
     The SCF correction term to forces
     atom    1 type  1   force =     0.00000000   -0.00000000   -0.00021999
     atom    2 type  2   force =     0.00000000   -0.00000000   -0.00007886
     atom    3 type  2   force =    -0.00000000    0.00000000   -0.00000489
     atom    4 type  3   force =     0.00000000   -0.00000000    0.00007236

     Total force =     0.012989     Total SCF correction =     0.000245

     Writing all to output data dir ./out/pw.save/ :
     XML data file, charge density, pseudopotentials, collected wavefunctions
 
     init_run     :     14.29s CPU      3.49s WALL (       1 calls)
     electrons    :    144.49s CPU     36.58s WALL (       1 calls)
     forces       :      0.64s CPU      0.59s WALL (       1 calls)

     Called by init_run:
     wfcinit      :      0.30s CPU      0.39s WALL (       1 calls)
     wfcinit:atom :      0.04s CPU      0.04s WALL (      50 calls)
     wfcinit:wfcr :      0.20s CPU      0.25s WALL (      50 calls)
     potinit      :     13.41s CPU      2.47s WALL (       1 calls)
     hinit0       :      0.49s CPU      0.50s WALL (       1 calls)

     Called by electrons:
     c_bands      :     16.63s CPU     16.76s WALL (      28 calls)
     sum_band     :      3.21s CPU      3.19s WALL (      28 calls)
     v_of_rho     :      0.48s CPU      0.23s WALL (      29 calls)
     v_h          :      0.33s CPU      0.05s WALL (      29 calls)
     v_xc         :      0.16s CPU      0.19s WALL (      30 calls)
     newd         :      0.69s CPU      0.51s WALL (      29 calls)
                                        0.51s GPU  (      29 calls)
     PAW_pot      :    126.34s CPU     15.80s WALL (      29 calls)
     mix_rho      :      0.50s CPU      0.51s WALL (      28 calls)

     Called by c_bands:
     init_us_2    :      1.20s CPU      1.17s WALL (    2900 calls)
     cegterg      :     14.27s CPU     14.42s WALL (    1400 calls)

     Called by sum_band:
     sum_band:wei :      0.04s CPU      0.04s WALL (      28 calls)
                                        0.04s GPU  (      28 calls)
     sum_band:loo :      2.00s CPU      1.98s WALL (      28 calls)
                                        1.98s GPU  (      28 calls)
     sum_band:buf :      0.25s CPU      0.29s WALL (    1400 calls)
                                        0.27s GPU  (    1400 calls)
     sum_band:ini :      0.57s CPU      0.57s WALL (    1400 calls)
                                        0.56s GPU  (    1400 calls)
     sum_band:cal :      0.05s CPU      0.09s WALL (    1400 calls)
                                        0.07s GPU  (    1400 calls)
     sum_band:bec :      0.31s CPU      0.33s WALL (    1400 calls)
                                        0.31s GPU  (    1400 calls)
     addusdens    :      0.96s CPU      0.96s WALL (      28 calls)
                                        0.96s GPU  (      28 calls)
     addusd:skk   :      0.00s CPU      0.01s WALL (      84 calls)
                                        0.01s GPU  (      84 calls)

     Called by *egterg:
     cdiaghg      :      4.81s CPU      4.98s WALL (    5668 calls)
                                        4.91s GPU  (    5668 calls)
     cegterg:over :      1.07s CPU      1.11s WALL (    4268 calls)
     cegterg:upda :      0.83s CPU      0.84s WALL (    4268 calls)
     cegterg:last :      0.15s CPU      0.15s WALL (    2538 calls)
     h_psi        :      5.36s CPU      5.50s WALL (    5718 calls)
                                        5.43s GPU  (    5718 calls)
     s_psi        :      0.91s CPU      0.95s WALL (    5718 calls)
     g_psi        :      0.02s CPU      0.11s WALL (    4268 calls)
                                        0.05s GPU  (    4268 calls)

     Called by h_psi:
     h_psi:calbec :      0.18s CPU      0.32s WALL (    5718 calls)
                                        0.25s GPU  (    5718 calls)
     vloc_psi     :      3.74s CPU      3.79s WALL (    5718 calls)
                                        3.72s GPU  (    5718 calls)
     add_vuspsi   :      0.82s CPU      0.97s WALL (    5718 calls)
                                        0.89s GPU  (    5718 calls)

     General routines
     calbec       :      0.20s CPU      0.22s WALL (    7318 calls)
     fft          :      4.54s CPU      1.10s WALL (     738 calls)
                                        0.08s GPU  (     680 calls)
     ffts         :      5.17s CPU      0.85s WALL (     114 calls)
                                        0.00s GPU  (      56 calls)
     fftw         :      0.41s CPU      1.32s WALL (   19936 calls)
                                        1.09s GPU  (   19936 calls)
     interpolate  :      9.87s CPU      1.90s WALL (      58 calls)
 
     Parallel routines

     PAW routines
     PAW_pot      :    126.34s CPU     15.80s WALL (      29 calls)
     PAW_symme    :      0.03s CPU      0.01s WALL (      57 calls)
 
     PWSCF        :   2m40.30s CPU     41.18s WALL

 
   This run was terminated on:   2:15:51  12Jul2026            

=------------------------------------------------------------------------------=
   JOB DONE.
=------------------------------------------------------------------------------=
Warning: ieee_divide_by_zero is signaling
Warning: ieee_inexact is signaling
FORTRAN STOP
