
     Program PWSCF v.7.3.1 starts on 12Jul2026 at  5:54: 4 

     This program is part of the open-source Quantum ESPRESSO suite
     for quantum simulation of materials; please cite
         "P. Giannozzi et al., J. Phys.:Condens. Matter 21 395502 (2009);
         "P. Giannozzi et al., J. Phys.:Condens. Matter 29 465901 (2017);
         "P. Giannozzi et al., J. Chem. Phys. 152 154105 (2020);
          URL http://www.quantum-espresso.org", 
     in publications or presentations arising from this work. More details at
     http://www.quantum-espresso.org/quote

     Parallel version (MPI & OpenMP), running on      14 processor cores
     Number of MPI processes:                 1
     Threads/MPI process:                    14

     MPI processes distributed on     1 nodes
     1344699 MiB available memory on the printing compute node when the environment starts
 
     Reading input from pw.in

     Current dimensions of program PWSCF are:
     Max number of different atomic species (ntypx) = 10
     Max number of k-points (npk) =  40000
     Max angular momentum in pseudopotentials (lmaxx) =  4
     file Na.pbe-spn-kjpaw_psl.1.0.0.UPF: wavefunction(s)  2P renormalized
     file Co.pbe-spn-kjpaw_psl.0.3.1.UPF: wavefunction(s)  3P 3D renormalized
     file Se.pbe-dn-kjpaw_psl.1.0.0.UPF: wavefunction(s)  4S 4P 3D renormalized
     file O.pbe-n-kjpaw_psl.1.0.0.UPF: wavefunction(s)  2S 2P renormalized

     Atomic positions and unit cell read from directory:
     ../Na2CoSe2O_scf/out/pw.save/
 
 
     Subspace diagonalization in iterative solution of the eigenvalue problem:
     a serial algorithm will be used

 
     G-vector sticks info
     --------------------
     sticks:   dense  smooth     PW     G-vecs:    dense   smooth      PW
     Sum        4625    2317    739               122743    43535    7863
 
     Using Slab Decomposition
 


     bravais-lattice index     =            5
     lattice parameter (alat)  =      18.5086  a.u.
     unit-cell volume          =     692.2942 (a.u.)^3
     number of atoms/cell      =            6
     number of atomic types    =            4
     number of electrons       =        73.00
     number of Kohn-Sham states=           48
     kinetic-energy cutoff     =      60.0000  Ry
     charge density cutoff     =     480.0000  Ry
     Exchange-correlation= SLA  PW   PBX  PBC
                           (   1   4   3   4   0   0   0)

     GPU acceleration is ACTIVE.  1 visible GPUs per MPI rank
     GPU-aware MPI enabled


     GPU used by master process:

        Device Number: 0
        Device name: NVIDIA A100-SXM4-80GB
        Compute capability : 80
        Ratio of single to double precision performance  : 2
        Memory Clock Rate (KHz): 1593000
        Memory Bus Width (bits): 5120
        Peak Memory Bandwidth (GB/s): ******

     celldm(1)=  18.508642  celldm(2)=   0.000000  celldm(3)=   0.000000
     celldm(4)=   0.935562  celldm(5)=   0.000000  celldm(6)=   0.000000

     crystal axes: (cart. coord. in units of alat)
               a(1) = (   0.179496  -0.103632   0.978285 )  
               a(2) = (   0.000000   0.207264   0.978285 )  
               a(3) = (  -0.179496  -0.103632   0.978285 )  

     reciprocal axes: (cart. coord. in units 2 pi/alat)
               b(1) = (  2.785573 -1.608251  0.340732 )  
               b(2) = ( -0.000000  3.216502  0.340732 )  
               b(3) = ( -2.785573 -1.608251  0.340732 )  


     PseudoPot. # 1 for Na read from file:
     ../../pseudo/Na.pbe-spn-kjpaw_psl.1.0.0.UPF
     MD5 check sum: 05b4deb74e3932c23ab016979dc8b5d4
     Pseudo is Projector augmented-wave + core cor, Zval =  9.0
     Generated using &quot;atomic&quot; code by A. Dal Corso  v.6.3
     Shape of augmentation charge: PSQ
     Using radial grid of 1121 points,  4 beta functions with: 
                l(1) =   0
                l(2) =   0
                l(3) =   1
                l(4) =   1
     Q(r) pseudized with 0 coefficients 


     PseudoPot. # 2 for Co read from file:
     ../../pseudo/Co.pbe-spn-kjpaw_psl.0.3.1.UPF
     MD5 check sum: 3c0a43779828c046024e4f3be63f8e67
     Pseudo is Projector augmented-wave + core cor, Zval = 17.0
     Generated using &quot;atomic&quot; code by A. Dal Corso  v.6.2.2
     Shape of augmentation charge: PSQ
     Using radial grid of 1193 points,  6 beta functions with: 
                l(1) =   0
                l(2) =   0
                l(3) =   1
                l(4) =   1
                l(5) =   2
                l(6) =   2
     Q(r) pseudized with 0 coefficients 


     PseudoPot. # 3 for Se read from file:
     ../../pseudo/Se.pbe-dn-kjpaw_psl.1.0.0.UPF
     MD5 check sum: ac240dd2bae32a30e0bf3a38df9c8785
     Pseudo is Projector augmented-wave + core cor, Zval = 16.0
     Generated using &quot;atomic&quot; code by A. Dal Corso  v.6.3
     Shape of augmentation charge: PSQ
     Using radial grid of 1211 points,  6 beta functions with: 
                l(1) =   0
                l(2) =   0
                l(3) =   1
                l(4) =   1
                l(5) =   2
                l(6) =   2
     Q(r) pseudized with 0 coefficients 


     PseudoPot. # 4 for O  read from file:
     ../../pseudo/O.pbe-n-kjpaw_psl.1.0.0.UPF
     MD5 check sum: e99d9cef9b487d1ca56f5b95ecd0fd7a
     Pseudo is Projector augmented-wave + core cor, Zval =  6.0
     Generated using &quot;atomic&quot; code by A. Dal Corso  v.6.3
     Shape of augmentation charge: PSQ
     Using radial grid of 1095 points,  4 beta functions with: 
                l(1) =   0
                l(2) =   0
                l(3) =   1
                l(4) =   1
     Q(r) pseudized with 0 coefficients 


     atomic species   valence    mass     pseudopotential
     Na                9.00    22.98977     Na( 1.00)
     Co               17.00    58.93300     Co( 1.00)
     Se               16.00    78.97100     Se( 1.00)
     O                 6.00    15.99900     O ( 1.00)

     Starting magnetic structure 
     atomic species   magnetization
     Na              0.000
     Co              0.300
     Se              0.000
     O               0.000

     12 Sym. Ops., with inversion, found


                                    s                        frac. trans.

      isym =  1     identity                                     

 cryst.   s( 1) = (     1          0          0      )
                  (     0          1          0      )
                  (     0          0          1      )

 cart.    s( 1) = (  1.0000000 -0.0000000  0.0000000 )
                  (  0.0000000  1.0000000 -0.0000000 )
                  ( -0.0000000  0.0000000  1.0000000 )


      isym =  2     180 deg rotation - cart. axis [1,0,0]        

 cryst.   s( 2) = (     0          0         -1      )
                  (     0         -1          0      )
                  (    -1          0          0      )

 cart.    s( 2) = (  1.0000000  0.0000000 -0.0000000 )
                  ( -0.0000000 -1.0000000  0.0000000 )
                  (  0.0000000 -0.0000000 -1.0000000 )


      isym =  3     120 deg rotation - cryst. axis [0,0,1]       

 cryst.   s( 3) = (     0          1          0      )
                  (     0          0          1      )
                  (     1          0          0      )

 cart.    s( 3) = ( -0.5000000 -0.8660254 -0.0000000 )
                  (  0.8660254 -0.5000000 -0.0000000 )
                  ( -0.0000000  0.0000000  1.0000000 )


      isym =  4     120 deg rotation - cryst. axis [0,0,-1]      

 cryst.   s( 4) = (     0          0          1      )
                  (     1          0          0      )
                  (     0          1          0      )

 cart.    s( 4) = ( -0.5000000  0.8660254  0.0000000 )
                  ( -0.8660254 -0.5000000 -0.0000000 )
                  ( -0.0000000 -0.0000000  1.0000000 )


      isym =  5     180 deg rotation - cryst. axis [0,1,0]       

 cryst.   s( 5) = (     0         -1          0      )
                  (    -1          0          0      )
                  (     0          0         -1      )

 cart.    s( 5) = ( -0.5000000 -0.8660254 -0.0000000 )
                  ( -0.8660254  0.5000000  0.0000000 )
                  (  0.0000000  0.0000000 -1.0000000 )


      isym =  6     180 deg rotation - cryst. axis [1,1,0]       

 cryst.   s( 6) = (    -1          0          0      )
                  (     0          0         -1      )
                  (     0         -1          0      )

 cart.    s( 6) = ( -0.5000000  0.8660254  0.0000000 )
                  (  0.8660254  0.5000000  0.0000000 )
                  (  0.0000000 -0.0000000 -1.0000000 )


      isym =  7     inversion                                    

 cryst.   s( 7) = (    -1          0          0      )
                  (     0         -1          0      )
                  (     0          0         -1      )

 cart.    s( 7) = ( -1.0000000  0.0000000 -0.0000000 )
                  ( -0.0000000 -1.0000000  0.0000000 )
                  (  0.0000000 -0.0000000 -1.0000000 )


      isym =  8     inv. 180 deg rotation - cart. axis [1,0,0]   

 cryst.   s( 8) = (     0          0          1      )
                  (     0          1          0      )
                  (     1          0          0      )

 cart.    s( 8) = ( -1.0000000 -0.0000000  0.0000000 )
                  (  0.0000000  1.0000000 -0.0000000 )
                  ( -0.0000000  0.0000000  1.0000000 )


      isym =  9     inv. 120 deg rotation - cryst. axis [0,0,1]  

 cryst.   s( 9) = (     0         -1          0      )
                  (     0          0         -1      )
                  (    -1          0          0      )

 cart.    s( 9) = (  0.5000000  0.8660254  0.0000000 )
                  ( -0.8660254  0.5000000  0.0000000 )
                  (  0.0000000 -0.0000000 -1.0000000 )


      isym = 10     inv. 120 deg rotation - cryst. axis [0,0,-1] 

 cryst.   s(10) = (     0          0         -1      )
                  (    -1          0          0      )
                  (     0         -1          0      )

 cart.    s(10) = (  0.5000000 -0.8660254 -0.0000000 )
                  (  0.8660254  0.5000000  0.0000000 )
                  (  0.0000000  0.0000000 -1.0000000 )


      isym = 11     inv. 180 deg rotation - cryst. axis [0,1,0]  

 cryst.   s(11) = (     0          1          0      )
                  (     1          0          0      )
                  (     0          0          1      )

 cart.    s(11) = (  0.5000000  0.8660254  0.0000000 )
                  (  0.8660254 -0.5000000 -0.0000000 )
                  ( -0.0000000 -0.0000000  1.0000000 )


      isym = 12     inv. 180 deg rotation - cryst. axis [1,1,0]  

 cryst.   s(12) = (     1          0          0      )
                  (     0          0          1      )
                  (     0          1          0      )

 cart.    s(12) = (  0.5000000 -0.8660254 -0.0000000 )
                  ( -0.8660254 -0.5000000 -0.0000000 )
                  ( -0.0000000  0.0000000  1.0000000 )


     point group D_3d (-3m) 
     there are  6 classes
     the character table:

       E     2C3   3C2'  i     2S6   3s_d 
A_1g   1.00  1.00  1.00  1.00  1.00  1.00
A_2g   1.00  1.00 -1.00  1.00  1.00 -1.00
E_g    2.00 -1.00  0.00  2.00 -1.00  0.00
A_1u   1.00  1.00  1.00 -1.00 -1.00 -1.00
A_2u   1.00  1.00 -1.00 -1.00 -1.00  1.00
E_u    2.00 -1.00  0.00 -2.00  1.00  0.00

     the symmetry operations in each class and the name of the first element:

     E        1
          identity                                               
     2C3      3    4
          120 deg rotation - cryst. axis [0,0,1]                 
     3C2'     2    5    6
          180 deg rotation - cart. axis [1,0,0]                  
     i        7
          inversion                                              
     2S6      9   10
          inv. 120 deg rotation - cryst. axis [0,0,1]            
     3s_d     8   11   12
          inv. 180 deg rotation - cart. axis [1,0,0]             

   Cartesian axes

     site n.     atom                  positions (alat units)
         1        Co     tau(   1) = (   0.0000000   0.0000000   0.0000000  )
         2        O      tau(   2) = (   0.0000000  -0.0000000   1.4674274  )
         3        Se     tau(   3) = (   0.0000000  -0.0000000   0.8477035  )
         4        Se     tau(   4) = (  -0.0000000  -0.0000000   2.0871514  )
         5        Na     tau(   5) = (  -0.0000000  -0.0000000   0.3671503  )
         6        Na     tau(   6) = (   0.0000000  -0.0000000   2.5677045  )

   Crystallographic axes

     site n.     atom                  positions (cryst. coord.)
         1        Co     tau(   1) = (  0.0000000  0.0000000  0.0000000  )
         2        O      tau(   2) = (  0.5000000  0.5000000  0.5000000  )
         3        Se     tau(   3) = (  0.2888400  0.2888400  0.2888400  )
         4        Se     tau(   4) = (  0.7111600  0.7111600  0.7111600  )
         5        Na     tau(   5) = (  0.1251000  0.1251000  0.1251000  )
         6        Na     tau(   6) = (  0.8749000  0.8749000  0.8749000  )

     number of k points=   417  Marzari-Vanderbilt smearing, width (Ry)=  0.0200
                       cart. coord. in units 2pi/alat
        k(    1) = (   0.0000000   0.0000000   0.0000000), wk =   0.0002441
        k(    2) = (  -0.1740983  -0.1005157   0.0212958), wk =   0.0014648
        k(    3) = (  -0.3481966  -0.2010314   0.0425915), wk =   0.0014648
        k(    4) = (  -0.5222949  -0.3015471   0.0638873), wk =   0.0014648
        k(    5) = (  -0.6963931  -0.4020628   0.0851831), wk =   0.0014648
        k(    6) = (  -0.8704914  -0.5025785   0.1064789), wk =   0.0014648
        k(    7) = (  -1.0445897  -0.6030942   0.1277746), wk =   0.0014648
        k(    8) = (  -1.2186880  -0.7036099   0.1490704), wk =   0.0014648
        k(    9) = (   1.3927863   0.8041255  -0.1703662), wk =   0.0007324
        k(   10) = (  -0.1740983   0.1005157   0.0425915), wk =   0.0014648
        k(   11) = (  -0.3481966   0.0000000   0.0638873), wk =   0.0029297
        k(   12) = (  -0.5222949  -0.1005157   0.0851831), wk =   0.0029297
        k(   13) = (  -0.6963931  -0.2010314   0.1064789), wk =   0.0029297
        k(   14) = (  -0.8704914  -0.3015471   0.1277746), wk =   0.0029297
        k(   15) = (  -1.0445897  -0.4020628   0.1490704), wk =   0.0029297
        k(   16) = (  -1.2186880  -0.5025785   0.1703662), wk =   0.0029297
        k(   17) = (   1.3927863   1.0051569  -0.1490704), wk =   0.0029297
        k(   18) = (   1.2186880   0.9046412  -0.1277746), wk =   0.0029297
        k(   19) = (   1.0445897   0.8041255  -0.1064789), wk =   0.0029297
        k(   20) = (   0.8704914   0.7036099  -0.0851831), wk =   0.0029297
        k(   21) = (   0.6963931   0.6030942  -0.0638873), wk =   0.0029297
        k(   22) = (   0.5222949   0.5025785  -0.0425915), wk =   0.0029297
        k(   23) = (   0.3481966   0.4020628  -0.0212958), wk =   0.0029297
        k(   24) = (   0.1740983   0.3015471   0.0000000), wk =   0.0014648
        k(   25) = (  -0.3481966   0.2010314   0.0851831), wk =   0.0014648
        k(   26) = (  -0.5222949   0.1005157   0.1064789), wk =   0.0029297
        k(   27) = (  -0.6963931   0.0000000   0.1277746), wk =   0.0029297
        k(   28) = (  -0.8704914  -0.1005157   0.1490704), wk =   0.0029297
        k(   29) = (  -1.0445897  -0.2010314   0.1703662), wk =   0.0029297
        k(   30) = (  -1.2186880  -0.3015471   0.1916619), wk =   0.0029297
        k(   31) = (   1.3927863   1.2061883  -0.1277746), wk =   0.0029297
        k(   32) = (   1.2186880   1.1056726  -0.1064789), wk =   0.0029297
        k(   33) = (   1.0445897   1.0051569  -0.0851831), wk =   0.0029297
        k(   34) = (   0.8704914   0.9046412  -0.0638873), wk =   0.0029297
        k(   35) = (   0.6963931   0.8041255  -0.0425915), wk =   0.0029297
        k(   36) = (   0.5222949   0.7036099  -0.0212958), wk =   0.0029297
        k(   37) = (   0.3481966   0.6030942   0.0000000), wk =   0.0014648
        k(   38) = (  -0.5222949   0.3015471   0.1277746), wk =   0.0014648
        k(   39) = (  -0.6963931   0.2010314   0.1490704), wk =   0.0029297
        k(   40) = (  -0.8704914   0.1005157   0.1703662), wk =   0.0029297
        k(   41) = (  -1.0445897   0.0000000   0.1916619), wk =   0.0029297
        k(   42) = (  -1.2186880  -0.1005157   0.2129577), wk =   0.0029297
        k(   43) = (   1.3927863   1.4072197  -0.1064789), wk =   0.0029297
        k(   44) = (   1.2186880   1.3067040  -0.0851831), wk =   0.0029297
        k(   45) = (   1.0445897   1.2061883  -0.0638873), wk =   0.0029297
        k(   46) = (   0.8704914   1.1056726  -0.0425915), wk =   0.0029297
        k(   47) = (   0.6963931   1.0051569  -0.0212958), wk =   0.0029297
        k(   48) = (   0.5222949   0.9046412   0.0000000), wk =   0.0014648
        k(   49) = (  -0.6963931   0.4020628   0.1703662), wk =   0.0014648
        k(   50) = (  -0.8704914   0.3015471   0.1916619), wk =   0.0029297
        k(   51) = (  -1.0445897   0.2010314   0.2129577), wk =   0.0029297
        k(   52) = (  -1.2186880   0.1005157   0.2342535), wk =   0.0029297
        k(   53) = (   1.3927863   1.6082511  -0.0851831), wk =   0.0029297
        k(   54) = (   1.2186880   1.5077354  -0.0638873), wk =   0.0029297
        k(   55) = (   1.0445897   1.4072197  -0.0425915), wk =   0.0029297
        k(   56) = (   0.8704914   1.3067040  -0.0212958), wk =   0.0029297
        k(   57) = (   0.6963931   1.2061883   0.0000000), wk =   0.0014648
        k(   58) = (  -0.8704914   0.5025785   0.2129577), wk =   0.0014648
        k(   59) = (  -1.0445897   0.4020628   0.2342535), wk =   0.0029297
        k(   60) = (  -1.2186880   0.3015471   0.2555493), wk =   0.0029297
        k(   61) = (   1.3927863   1.8092825  -0.0638873), wk =   0.0029297
        k(   62) = (   1.2186880   1.7087668  -0.0425915), wk =   0.0029297
        k(   63) = (   1.0445897   1.6082511  -0.0212958), wk =   0.0029297
        k(   64) = (   0.8704914   1.5077354   0.0000000), wk =   0.0014648
        k(   65) = (  -1.0445897   0.6030942   0.2555493), wk =   0.0014648
        k(   66) = (  -1.2186880   0.5025785   0.2768450), wk =   0.0029297
        k(   67) = (   1.3927863   2.0103139  -0.0425915), wk =   0.0029297
        k(   68) = (   1.2186880   1.9097982  -0.0212958), wk =   0.0029297
        k(   69) = (   1.0445897   1.8092825   0.0000000), wk =   0.0014648
        k(   70) = (  -1.2186880   0.7036099   0.2981408), wk =   0.0014648
        k(   71) = (   1.3927863   2.2113452  -0.0212958), wk =   0.0029297
        k(   72) = (   1.2186880   2.1108296   0.0000000), wk =   0.0014648
        k(   73) = (   1.3927863  -0.8041255  -0.3407324), wk =   0.0007324
        k(   74) = (  -0.0000000   0.0000000   0.0638873), wk =   0.0004883
        k(   75) = (  -0.1740983  -0.1005157   0.0851831), wk =   0.0014648
        k(   76) = (  -0.3481966  -0.2010314   0.1064789), wk =   0.0014648
        k(   77) = (  -0.5222949  -0.3015471   0.1277746), wk =   0.0014648
        k(   78) = (  -0.6963931  -0.4020628   0.1490704), wk =   0.0014648
        k(   79) = (  -0.8704914  -0.5025785   0.1703662), wk =   0.0014648
        k(   80) = (  -1.0445897  -0.6030942   0.1916619), wk =   0.0014648
        k(   81) = (   1.5668846   0.9046412  -0.1277746), wk =   0.0014648
        k(   82) = (   1.3927863   0.8041255  -0.1064789), wk =   0.0014648
        k(   83) = (   1.2186880   0.7036099  -0.0851831), wk =   0.0014648
        k(   84) = (   1.0445897   0.6030942  -0.0638873), wk =   0.0014648
        k(   85) = (   0.8704914   0.5025785  -0.0425915), wk =   0.0014648
        k(   86) = (   0.6963931   0.4020628  -0.0212958), wk =   0.0014648
        k(   87) = (   0.5222949   0.3015471   0.0000000), wk =   0.0014648
        k(   88) = (   0.3481966   0.2010314   0.0212958), wk =   0.0014648
        k(   89) = (  -0.1740983   0.1005157   0.1064789), wk =   0.0014648
        k(   90) = (  -0.3481966   0.0000000   0.1277746), wk =   0.0029297
        k(   91) = (  -0.5222949  -0.1005157   0.1490704), wk =   0.0029297
        k(   92) = (  -0.6963931  -0.2010314   0.1703662), wk =   0.0029297
        k(   93) = (  -0.8704914  -0.3015471   0.1916619), wk =   0.0029297
        k(   94) = (  -1.0445897  -0.4020628   0.2129577), wk =   0.0029297
        k(   95) = (   1.5668846   1.1056726  -0.1064789), wk =   0.0029297
        k(   96) = (   1.3927863   1.0051569  -0.0851831), wk =   0.0029297
        k(   97) = (   1.2186880   0.9046412  -0.0638873), wk =   0.0029297
        k(   98) = (   1.0445897   0.8041255  -0.0425915), wk =   0.0029297
        k(   99) = (   0.8704914   0.7036099  -0.0212958), wk =   0.0029297
        k(  100) = (   0.6963931   0.6030942   0.0000000), wk =   0.0029297
        k(  101) = (   0.5222949   0.5025785   0.0212958), wk =   0.0029297
        k(  102) = (   0.3481966   0.4020628   0.0425915), wk =   0.0029297
        k(  103) = (  -0.3481966   0.2010314   0.1490704), wk =   0.0014648
        k(  104) = (  -0.5222949   0.1005157   0.1703662), wk =   0.0029297
        k(  105) = (  -0.6963931  -0.0000000   0.1916619), wk =   0.0029297
        k(  106) = (  -0.8704914  -0.1005157   0.2129577), wk =   0.0029297
        k(  107) = (  -1.0445897  -0.2010314   0.2342535), wk =   0.0029297
        k(  108) = (   1.5668846   1.3067040  -0.0851831), wk =   0.0029297
        k(  109) = (   1.3927863   1.2061883  -0.0638873), wk =   0.0029297
        k(  110) = (   1.2186880   1.1056726  -0.0425915), wk =   0.0029297
        k(  111) = (   1.0445897   1.0051569  -0.0212958), wk =   0.0029297
        k(  112) = (   0.8704914   0.9046412   0.0000000), wk =   0.0029297
        k(  113) = (   0.6963931   0.8041255   0.0212958), wk =   0.0029297
        k(  114) = (   0.5222949   0.7036099   0.0425915), wk =   0.0029297
        k(  115) = (   0.3481966   0.6030942   0.0638873), wk =   0.0029297
        k(  116) = (  -0.5222949   0.3015471   0.1916619), wk =   0.0014648
        k(  117) = (  -0.6963931   0.2010314   0.2129577), wk =   0.0029297
        k(  118) = (  -0.8704914   0.1005157   0.2342535), wk =   0.0029297
        k(  119) = (  -1.0445897  -0.0000000   0.2555493), wk =   0.0029297
        k(  120) = (   1.5668846   1.5077354  -0.0638873), wk =   0.0029297
        k(  121) = (   1.3927863   1.4072197  -0.0425915), wk =   0.0029297
        k(  122) = (   1.2186880   1.3067040  -0.0212958), wk =   0.0029297
        k(  123) = (   1.0445897   1.2061883   0.0000000), wk =   0.0029297
        k(  124) = (   0.8704914   1.1056726   0.0212958), wk =   0.0029297
        k(  125) = (   0.6963931   1.0051569   0.0425915), wk =   0.0029297
        k(  126) = (   0.5222949   0.9046412   0.0638873), wk =   0.0029297
        k(  127) = (   0.3481966   0.8041255   0.0851831), wk =   0.0029297
        k(  128) = (  -0.6963931   0.4020628   0.2342535), wk =   0.0014648
        k(  129) = (  -0.8704914   0.3015471   0.2555493), wk =   0.0029297
        k(  130) = (  -1.0445897   0.2010314   0.2768450), wk =   0.0029297
        k(  131) = (   1.5668846   1.7087668  -0.0425915), wk =   0.0029297
        k(  132) = (   1.3927863   1.6082511  -0.0212958), wk =   0.0029297
        k(  133) = (   1.2186880   1.5077354   0.0000000), wk =   0.0029297
        k(  134) = (   1.0445897   1.4072197   0.0212958), wk =   0.0029297
        k(  135) = (   0.8704914   1.3067040   0.0425915), wk =   0.0029297
        k(  136) = (   0.6963931   1.2061883   0.0638873), wk =   0.0029297
        k(  137) = (   0.5222949   1.1056726   0.0851831), wk =   0.0029297
        k(  138) = (   0.3481966   1.0051569   0.1064789), wk =   0.0029297
        k(  139) = (  -0.8704914   0.5025785   0.2768450), wk =   0.0014648
        k(  140) = (  -1.0445897   0.4020628   0.2981408), wk =   0.0029297
        k(  141) = (   1.5668846   1.9097982  -0.0212958), wk =   0.0029297
        k(  142) = (   1.3927863   1.8092825   0.0000000), wk =   0.0029297
        k(  143) = (   1.2186880   1.7087668   0.0212958), wk =   0.0029297
        k(  144) = (   1.0445897   1.6082511   0.0425915), wk =   0.0029297
        k(  145) = (   0.8704914   1.5077354   0.0638873), wk =   0.0029297
        k(  146) = (   0.6963931   1.4072197   0.0851831), wk =   0.0029297
        k(  147) = (   0.5222949   1.3067040   0.1064789), wk =   0.0029297
        k(  148) = (   0.3481966   1.2061883   0.1277746), wk =   0.0029297
        k(  149) = (  -1.0445897   0.6030942   0.3194366), wk =   0.0014648
        k(  150) = (   1.5668846   2.1108296   0.0000000), wk =   0.0029297
        k(  151) = (   1.3927863   2.0103139   0.0212958), wk =   0.0029297
        k(  152) = (   1.2186880   1.9097982   0.0425915), wk =   0.0029297
        k(  153) = (   1.0445897   1.8092825   0.0638873), wk =   0.0029297
        k(  154) = (   0.8704914   1.7087668   0.0851831), wk =   0.0029297
        k(  155) = (   0.6963931   1.6082511   0.1064789), wk =   0.0029297
        k(  156) = (   0.5222949   1.5077354   0.1277746), wk =   0.0029297
        k(  157) = (   0.3481966   1.4072197   0.1490704), wk =   0.0029297
        k(  158) = (   1.5668846  -0.9046412  -0.3194366), wk =   0.0014648
        k(  159) = (   1.3927863  -1.0051569  -0.2981408), wk =   0.0029297
        k(  160) = (   1.2186880  -1.1056726  -0.2768450), wk =   0.0029297
        k(  161) = (   1.0445897  -1.2061883  -0.2555493), wk =   0.0029297
        k(  162) = (   0.8704914  -1.3067040  -0.2342535), wk =   0.0029297
        k(  163) = (   0.6963931  -1.4072197  -0.2129577), wk =   0.0029297
        k(  164) = (   0.5222949  -1.5077354  -0.1916619), wk =   0.0029297
        k(  165) = (   0.3481966  -1.6082511  -0.1703662), wk =   0.0014648
        k(  166) = (   1.3927863  -0.8041255  -0.2768450), wk =   0.0014648
        k(  167) = (   1.2186880  -0.9046412  -0.2555493), wk =   0.0029297
        k(  168) = (   1.0445897  -1.0051569  -0.2342535), wk =   0.0029297
        k(  169) = (   0.8704914  -1.1056726  -0.2129577), wk =   0.0029297
        k(  170) = (   0.6963931  -1.2061883  -0.1916619), wk =   0.0029297
        k(  171) = (   0.5222949  -1.3067040  -0.1703662), wk =   0.0029297
        k(  172) = (   1.2186880  -0.7036099  -0.2342535), wk =   0.0014648
        k(  173) = (   1.0445897  -0.8041255  -0.2129577), wk =   0.0029297
        k(  174) = (   0.8704914  -0.9046412  -0.1916619), wk =   0.0029297
        k(  175) = (   0.6963931  -1.0051569  -0.1703662), wk =   0.0029297
        k(  176) = (   0.5222949  -1.1056726  -0.1490704), wk =   0.0029297
        k(  177) = (   1.0445897  -0.6030942  -0.1916619), wk =   0.0014648
        k(  178) = (   0.8704914  -0.7036099  -0.1703662), wk =   0.0029297
        k(  179) = (   0.6963931  -0.8041255  -0.1490704), wk =   0.0029297
        k(  180) = (   0.5222949  -0.9046412  -0.1277746), wk =   0.0029297
        k(  181) = (   0.8704914  -0.5025785  -0.1490704), wk =   0.0014648
        k(  182) = (   0.6963931  -0.6030942  -0.1277746), wk =   0.0029297
        k(  183) = (   0.5222949  -0.7036099  -0.1064789), wk =   0.0029297
        k(  184) = (   0.6963931  -0.4020628  -0.1064789), wk =   0.0014648
        k(  185) = (   0.5222949  -0.5025785  -0.0851831), wk =   0.0029297
        k(  186) = (   0.5222949  -0.3015471  -0.0638873), wk =   0.0014648
        k(  187) = (  -0.0000000   0.0000000   0.1277746), wk =   0.0004883
        k(  188) = (  -0.1740983  -0.1005157   0.1490704), wk =   0.0014648
        k(  189) = (  -0.3481966  -0.2010314   0.1703662), wk =   0.0014648
        k(  190) = (  -0.5222949  -0.3015471   0.1916619), wk =   0.0014648
        k(  191) = (  -0.6963931  -0.4020628   0.2129577), wk =   0.0014648
        k(  192) = (  -0.8704914  -0.5025785   0.2342535), wk =   0.0014648
        k(  193) = (   1.7409829   1.0051569  -0.0851831), wk =   0.0014648
        k(  194) = (   1.5668846   0.9046412  -0.0638873), wk =   0.0014648
        k(  195) = (   1.3927863   0.8041255  -0.0425915), wk =   0.0014648
        k(  196) = (   1.2186880   0.7036099  -0.0212958), wk =   0.0014648
        k(  197) = (   1.0445897   0.6030942   0.0000000), wk =   0.0014648
        k(  198) = (   0.8704914   0.5025785   0.0212958), wk =   0.0014648
        k(  199) = (   0.6963931   0.4020628   0.0425915), wk =   0.0014648
        k(  200) = (  -0.1740983   0.1005157   0.1703662), wk =   0.0014648
        k(  201) = (  -0.3481966   0.0000000   0.1916619), wk =   0.0029297
        k(  202) = (  -0.5222949  -0.1005157   0.2129577), wk =   0.0029297
        k(  203) = (  -0.6963931  -0.2010314   0.2342535), wk =   0.0029297
        k(  204) = (  -0.8704914  -0.3015471   0.2555493), wk =   0.0029297
        k(  205) = (   1.7409829   1.2061883  -0.0638873), wk =   0.0029297
        k(  206) = (   1.5668846   1.1056726  -0.0425915), wk =   0.0029297
        k(  207) = (   1.3927863   1.0051569  -0.0212958), wk =   0.0029297
        k(  208) = (   1.2186880   0.9046412   0.0000000), wk =   0.0029297
        k(  209) = (   1.0445897   0.8041255   0.0212958), wk =   0.0029297
        k(  210) = (   0.8704914   0.7036099   0.0425915), wk =   0.0029297
        k(  211) = (   0.6963931   0.6030942   0.0638873), wk =   0.0029297
        k(  212) = (  -0.3481966   0.2010314   0.2129577), wk =   0.0014648
        k(  213) = (  -0.5222949   0.1005157   0.2342535), wk =   0.0029297
        k(  214) = (  -0.6963931   0.0000000   0.2555493), wk =   0.0029297
        k(  215) = (  -0.8704914  -0.1005157   0.2768450), wk =   0.0029297
        k(  216) = (   1.7409829   1.4072197  -0.0425915), wk =   0.0029297
        k(  217) = (   1.5668846   1.3067040  -0.0212958), wk =   0.0029297
        k(  218) = (   1.3927863   1.2061883   0.0000000), wk =   0.0029297
        k(  219) = (   1.2186880   1.1056726   0.0212958), wk =   0.0029297
        k(  220) = (   1.0445897   1.0051569   0.0425915), wk =   0.0029297
        k(  221) = (   0.8704914   0.9046412   0.0638873), wk =   0.0029297
        k(  222) = (   0.6963931   0.8041255   0.0851831), wk =   0.0029297
        k(  223) = (  -0.5222949   0.3015471   0.2555493), wk =   0.0014648
        k(  224) = (  -0.6963931   0.2010314   0.2768450), wk =   0.0029297
        k(  225) = (  -0.8704914   0.1005157   0.2981408), wk =   0.0029297
        k(  226) = (   1.7409829   1.6082511  -0.0212958), wk =   0.0029297
        k(  227) = (   1.5668846   1.5077354   0.0000000), wk =   0.0029297
        k(  228) = (   1.3927863   1.4072197   0.0212958), wk =   0.0029297
        k(  229) = (   1.2186880   1.3067040   0.0425915), wk =   0.0029297
        k(  230) = (   1.0445897   1.2061883   0.0638873), wk =   0.0029297
        k(  231) = (   0.8704914   1.1056726   0.0851831), wk =   0.0029297
        k(  232) = (   0.6963931   1.0051569   0.1064789), wk =   0.0029297
        k(  233) = (  -0.6963931   0.4020628   0.2981408), wk =   0.0014648
        k(  234) = (  -0.8704914   0.3015471   0.3194366), wk =   0.0029297
        k(  235) = (   1.7409829   1.8092825   0.0000000), wk =   0.0029297
        k(  236) = (   1.5668846   1.7087668   0.0212958), wk =   0.0029297
        k(  237) = (   1.3927863   1.6082511   0.0425915), wk =   0.0029297
        k(  238) = (   1.2186880   1.5077354   0.0638873), wk =   0.0029297
        k(  239) = (   1.0445897   1.4072197   0.0851831), wk =   0.0029297
        k(  240) = (   0.8704914   1.3067040   0.1064789), wk =   0.0029297
        k(  241) = (   0.6963931   1.2061883   0.1277746), wk =   0.0029297
        k(  242) = (  -0.8704914   0.5025785   0.3407324), wk =   0.0014648
        k(  243) = (   1.7409829   2.0103139   0.0212958), wk =   0.0029297
        k(  244) = (   1.5668846   1.9097982   0.0425915), wk =   0.0029297
        k(  245) = (   1.3927863   1.8092825   0.0638873), wk =   0.0029297
        k(  246) = (   1.2186880   1.7087668   0.0851831), wk =   0.0029297
        k(  247) = (   1.0445897   1.6082511   0.1064789), wk =   0.0029297
        k(  248) = (   0.8704914   1.5077354   0.1277746), wk =   0.0029297
        k(  249) = (   0.6963931   1.4072197   0.1490704), wk =   0.0029297
        k(  250) = (   1.7409829  -1.0051569  -0.2981408), wk =   0.0014648
        k(  251) = (   1.5668846  -1.1056726  -0.2768450), wk =   0.0029297
        k(  252) = (   1.3927863  -1.2061883  -0.2555493), wk =   0.0029297
        k(  253) = (   1.2186880  -1.3067040  -0.2342535), wk =   0.0029297
        k(  254) = (   1.0445897  -1.4072197  -0.2129577), wk =   0.0029297
        k(  255) = (   0.8704914  -1.5077354  -0.1916619), wk =   0.0029297
        k(  256) = (   0.6963931  -1.6082511  -0.1703662), wk =   0.0014648
        k(  257) = (   1.5668846  -0.9046412  -0.2555493), wk =   0.0014648
        k(  258) = (   1.3927863  -1.0051569  -0.2342535), wk =   0.0029297
        k(  259) = (   1.2186880  -1.1056726  -0.2129577), wk =   0.0029297
        k(  260) = (   1.0445897  -1.2061883  -0.1916619), wk =   0.0029297
        k(  261) = (   0.8704914  -1.3067040  -0.1703662), wk =   0.0029297
        k(  262) = (   1.3927863  -0.8041255  -0.2129577), wk =   0.0014648
        k(  263) = (   1.2186880  -0.9046412  -0.1916619), wk =   0.0029297
        k(  264) = (   1.0445897  -1.0051569  -0.1703662), wk =   0.0029297
        k(  265) = (   0.8704914  -1.1056726  -0.1490704), wk =   0.0029297
        k(  266) = (   1.2186880  -0.7036099  -0.1703662), wk =   0.0014648
        k(  267) = (   1.0445897  -0.8041255  -0.1490704), wk =   0.0029297
        k(  268) = (   0.8704914  -0.9046412  -0.1277746), wk =   0.0029297
        k(  269) = (   1.0445897  -0.6030942  -0.1277746), wk =   0.0014648
        k(  270) = (   0.8704914  -0.7036099  -0.1064789), wk =   0.0029297
        k(  271) = (   0.8704914  -0.5025785  -0.0851831), wk =   0.0014648
        k(  272) = (  -0.0000000   0.0000000   0.1916619), wk =   0.0004883
        k(  273) = (  -0.1740983  -0.1005157   0.2129577), wk =   0.0014648
        k(  274) = (  -0.3481966  -0.2010314   0.2342535), wk =   0.0014648
        k(  275) = (  -0.5222949  -0.3015471   0.2555493), wk =   0.0014648
        k(  276) = (  -0.6963931  -0.4020628   0.2768450), wk =   0.0014648
        k(  277) = (   1.9150812   1.1056726  -0.0425915), wk =   0.0014648
        k(  278) = (   1.7409829   1.0051569  -0.0212958), wk =   0.0014648
        k(  279) = (   1.5668846   0.9046412   0.0000000), wk =   0.0014648
        k(  280) = (   1.3927863   0.8041255   0.0212958), wk =   0.0014648
        k(  281) = (   1.2186880   0.7036099   0.0425915), wk =   0.0014648
        k(  282) = (   1.0445897   0.6030942   0.0638873), wk =   0.0014648
        k(  283) = (  -0.1740983   0.1005157   0.2342535), wk =   0.0014648
        k(  284) = (  -0.3481966  -0.0000000   0.2555493), wk =   0.0029297
        k(  285) = (  -0.5222949  -0.1005157   0.2768450), wk =   0.0029297
        k(  286) = (  -0.6963931  -0.2010314   0.2981408), wk =   0.0029297
        k(  287) = (   1.9150812   1.3067040  -0.0212958), wk =   0.0029297
        k(  288) = (   1.7409829   1.2061883   0.0000000), wk =   0.0029297
        k(  289) = (   1.5668846   1.1056726   0.0212958), wk =   0.0029297
        k(  290) = (   1.3927863   1.0051569   0.0425915), wk =   0.0029297
        k(  291) = (   1.2186880   0.9046412   0.0638873), wk =   0.0029297
        k(  292) = (   1.0445897   0.8041255   0.0851831), wk =   0.0029297
        k(  293) = (  -0.3481966   0.2010314   0.2768450), wk =   0.0014648
        k(  294) = (  -0.5222949   0.1005157   0.2981408), wk =   0.0029297
        k(  295) = (  -0.6963931  -0.0000000   0.3194366), wk =   0.0029297
        k(  296) = (   1.9150812   1.5077354   0.0000000), wk =   0.0029297
        k(  297) = (   1.7409829   1.4072197   0.0212958), wk =   0.0029297
        k(  298) = (   1.5668846   1.3067040   0.0425915), wk =   0.0029297
        k(  299) = (   1.3927863   1.2061883   0.0638873), wk =   0.0029297
        k(  300) = (   1.2186880   1.1056726   0.0851831), wk =   0.0029297
        k(  301) = (   1.0445897   1.0051569   0.1064789), wk =   0.0029297
        k(  302) = (  -0.5222949   0.3015471   0.3194366), wk =   0.0014648
        k(  303) = (  -0.6963931   0.2010314   0.3407324), wk =   0.0029297
        k(  304) = (   1.9150812   1.7087668   0.0212958), wk =   0.0029297
        k(  305) = (   1.7409829   1.6082511   0.0425915), wk =   0.0029297
        k(  306) = (   1.5668846   1.5077354   0.0638873), wk =   0.0029297
        k(  307) = (   1.3927863   1.4072197   0.0851831), wk =   0.0029297
        k(  308) = (   1.2186880   1.3067040   0.1064789), wk =   0.0029297
        k(  309) = (   1.0445897   1.2061883   0.1277746), wk =   0.0029297
        k(  310) = (  -0.6963931   0.4020628   0.3620281), wk =   0.0014648
        k(  311) = (   1.9150812   1.9097982   0.0425915), wk =   0.0029297
        k(  312) = (   1.7409829   1.8092825   0.0638873), wk =   0.0029297
        k(  313) = (   1.5668846   1.7087668   0.0851831), wk =   0.0029297
        k(  314) = (   1.3927863   1.6082511   0.1064789), wk =   0.0029297
        k(  315) = (   1.2186880   1.5077354   0.1277746), wk =   0.0029297
        k(  316) = (   1.0445897   1.4072197   0.1490704), wk =   0.0029297
        k(  317) = (   1.9150812  -1.1056726  -0.2768450), wk =   0.0014648
        k(  318) = (   1.7409829  -1.2061883  -0.2555493), wk =   0.0029297
        k(  319) = (   1.5668846  -1.3067040  -0.2342535), wk =   0.0029297
        k(  320) = (   1.3927863  -1.4072197  -0.2129577), wk =   0.0029297
        k(  321) = (   1.2186880  -1.5077354  -0.1916619), wk =   0.0029297
        k(  322) = (   1.0445897  -1.6082511  -0.1703662), wk =   0.0014648
        k(  323) = (   1.7409829  -1.0051569  -0.2342535), wk =   0.0014648
        k(  324) = (   1.5668846  -1.1056726  -0.2129577), wk =   0.0029297
        k(  325) = (   1.3927863  -1.2061883  -0.1916619), wk =   0.0029297
        k(  326) = (   1.2186880  -1.3067040  -0.1703662), wk =   0.0029297
        k(  327) = (   1.5668846  -0.9046412  -0.1916619), wk =   0.0014648
        k(  328) = (   1.3927863  -1.0051569  -0.1703662), wk =   0.0029297
        k(  329) = (   1.2186880  -1.1056726  -0.1490704), wk =   0.0029297
        k(  330) = (   1.3927863  -0.8041255  -0.1490704), wk =   0.0014648
        k(  331) = (   1.2186880  -0.9046412  -0.1277746), wk =   0.0029297
        k(  332) = (   1.2186880  -0.7036099  -0.1064789), wk =   0.0014648
        k(  333) = (  -0.0000000   0.0000000   0.2555493), wk =   0.0004883
        k(  334) = (  -0.1740983  -0.1005157   0.2768450), wk =   0.0014648
        k(  335) = (  -0.3481966  -0.2010314   0.2981408), wk =   0.0014648
        k(  336) = (  -0.5222949  -0.3015471   0.3194366), wk =   0.0014648
        k(  337) = (   2.0891794   1.2061883   0.0000000), wk =   0.0014648
        k(  338) = (   1.9150812   1.1056726   0.0212958), wk =   0.0014648
        k(  339) = (   1.7409829   1.0051569   0.0425915), wk =   0.0014648
        k(  340) = (   1.5668846   0.9046412   0.0638873), wk =   0.0014648
        k(  341) = (   1.3927863   0.8041255   0.0851831), wk =   0.0014648
        k(  342) = (  -0.1740983   0.1005157   0.2981408), wk =   0.0014648
        k(  343) = (  -0.3481966   0.0000000   0.3194366), wk =   0.0029297
        k(  344) = (  -0.5222949  -0.1005157   0.3407324), wk =   0.0029297
        k(  345) = (   2.0891794   1.4072197   0.0212958), wk =   0.0029297
        k(  346) = (   1.9150812   1.3067040   0.0425915), wk =   0.0029297
        k(  347) = (   1.7409829   1.2061883   0.0638873), wk =   0.0029297
        k(  348) = (   1.5668846   1.1056726   0.0851831), wk =   0.0029297
        k(  349) = (   1.3927863   1.0051569   0.1064789), wk =   0.0029297
        k(  350) = (  -0.3481966   0.2010314   0.3407324), wk =   0.0014648
        k(  351) = (  -0.5222949   0.1005157   0.3620281), wk =   0.0029297
        k(  352) = (   2.0891794   1.6082511   0.0425915), wk =   0.0029297
        k(  353) = (   1.9150812   1.5077354   0.0638873), wk =   0.0029297
        k(  354) = (   1.7409829   1.4072197   0.0851831), wk =   0.0029297
        k(  355) = (   1.5668846   1.3067040   0.1064789), wk =   0.0029297
        k(  356) = (   1.3927863   1.2061883   0.1277746), wk =   0.0029297
        k(  357) = (  -0.5222949   0.3015471   0.3833239), wk =   0.0014648
        k(  358) = (   2.0891794   1.8092825   0.0638873), wk =   0.0029297
        k(  359) = (   1.9150812   1.7087668   0.0851831), wk =   0.0029297
        k(  360) = (   1.7409829   1.6082511   0.1064789), wk =   0.0029297
        k(  361) = (   1.5668846   1.5077354   0.1277746), wk =   0.0029297
        k(  362) = (   1.3927863   1.4072197   0.1490704), wk =   0.0029297
        k(  363) = (   2.0891794  -1.2061883  -0.2555493), wk =   0.0014648
        k(  364) = (   1.9150812  -1.3067040  -0.2342535), wk =   0.0029297
        k(  365) = (   1.7409829  -1.4072197  -0.2129577), wk =   0.0029297
        k(  366) = (   1.5668846  -1.5077354  -0.1916619), wk =   0.0029297
        k(  367) = (   1.3927863  -1.6082511  -0.1703662), wk =   0.0014648
        k(  368) = (   1.9150812  -1.1056726  -0.2129577), wk =   0.0014648
        k(  369) = (   1.7409829  -1.2061883  -0.1916619), wk =   0.0029297
        k(  370) = (   1.5668846  -1.3067040  -0.1703662), wk =   0.0029297
        k(  371) = (   1.7409829  -1.0051569  -0.1703662), wk =   0.0014648
        k(  372) = (   1.5668846  -1.1056726  -0.1490704), wk =   0.0029297
        k(  373) = (   1.5668846  -0.9046412  -0.1277746), wk =   0.0014648
        k(  374) = (  -0.0000000  -0.0000000   0.3194366), wk =   0.0004883
        k(  375) = (  -0.1740983  -0.1005157   0.3407324), wk =   0.0014648
        k(  376) = (  -0.3481966  -0.2010314   0.3620281), wk =   0.0014648
        k(  377) = (   2.2632777   1.3067040   0.0425915), wk =   0.0014648
        k(  378) = (   2.0891794   1.2061883   0.0638873), wk =   0.0014648
        k(  379) = (   1.9150812   1.1056726   0.0851831), wk =   0.0014648
        k(  380) = (   1.7409829   1.0051569   0.1064789), wk =   0.0014648
        k(  381) = (  -0.1740983   0.1005157   0.3620281), wk =   0.0014648
        k(  382) = (  -0.3481966   0.0000000   0.3833239), wk =   0.0029297
        k(  383) = (   2.2632777   1.5077354   0.0638873), wk =   0.0029297
        k(  384) = (   2.0891794   1.4072197   0.0851831), wk =   0.0029297
        k(  385) = (   1.9150812   1.3067040   0.1064789), wk =   0.0029297
        k(  386) = (   1.7409829   1.2061883   0.1277746), wk =   0.0029297
        k(  387) = (  -0.3481966   0.2010314   0.4046197), wk =   0.0014648
        k(  388) = (   2.2632777   1.7087668   0.0851831), wk =   0.0029297
        k(  389) = (   2.0891794   1.6082511   0.1064789), wk =   0.0029297
        k(  390) = (   1.9150812   1.5077354   0.1277746), wk =   0.0029297
        k(  391) = (   1.7409829   1.4072197   0.1490704), wk =   0.0029297
        k(  392) = (   2.2632777  -1.3067040  -0.2342535), wk =   0.0014648
        k(  393) = (   2.0891794  -1.4072197  -0.2129577), wk =   0.0029297
        k(  394) = (   1.9150812  -1.5077354  -0.1916619), wk =   0.0029297
        k(  395) = (   1.7409829  -1.6082511  -0.1703662), wk =   0.0014648
        k(  396) = (   2.0891794  -1.2061883  -0.1916619), wk =   0.0014648
        k(  397) = (   1.9150812  -1.3067040  -0.1703662), wk =   0.0029297
        k(  398) = (   1.9150812  -1.1056726  -0.1490704), wk =   0.0014648
        k(  399) = (  -0.0000000   0.0000000   0.3833239), wk =   0.0004883
        k(  400) = (  -0.1740983  -0.1005157   0.4046197), wk =   0.0014648
        k(  401) = (   2.4373760   1.4072197   0.0851831), wk =   0.0014648
        k(  402) = (   2.2632777   1.3067040   0.1064789), wk =   0.0014648
        k(  403) = (   2.0891794   1.2061883   0.1277746), wk =   0.0014648
        k(  404) = (  -0.1740983   0.1005157   0.4259154), wk =   0.0014648
        k(  405) = (   2.4373760   1.6082511   0.1064789), wk =   0.0029297
        k(  406) = (   2.2632777   1.5077354   0.1277746), wk =   0.0029297
        k(  407) = (   2.0891794   1.4072197   0.1490704), wk =   0.0029297
        k(  408) = (   2.4373760  -1.4072197  -0.2129577), wk =   0.0014648
        k(  409) = (   2.2632777  -1.5077354  -0.1916619), wk =   0.0029297
        k(  410) = (   2.0891794  -1.6082511  -0.1703662), wk =   0.0014648
        k(  411) = (   2.2632777  -1.3067040  -0.1703662), wk =   0.0014648
        k(  412) = (  -0.0000000   0.0000000   0.4472112), wk =   0.0004883
        k(  413) = (   2.6114743   1.5077354   0.1277746), wk =   0.0014648
        k(  414) = (   2.4373760   1.4072197   0.1490704), wk =   0.0014648
        k(  415) = (   2.6114743  -1.5077354  -0.1916619), wk =   0.0014648
        k(  416) = (   2.4373760  -1.6082511  -0.1703662), wk =   0.0014648
        k(  417) = (   0.0000000   0.0000000  -0.5110985), wk =   0.0002441

                       cryst. coord.
        k(    1) = (   0.0000000   0.0000000   0.0000000), wk =   0.0002441
        k(    2) = (   0.0000000   0.0000000   0.0625000), wk =   0.0014648
        k(    3) = (   0.0000000   0.0000000   0.1250000), wk =   0.0014648
        k(    4) = (   0.0000000   0.0000000   0.1875000), wk =   0.0014648
        k(    5) = (   0.0000000   0.0000000   0.2500000), wk =   0.0014648
        k(    6) = (  -0.0000000   0.0000000   0.3125000), wk =   0.0014648
        k(    7) = (   0.0000000   0.0000000   0.3750000), wk =   0.0014648
        k(    8) = (  -0.0000000   0.0000000   0.4375000), wk =   0.0014648
        k(    9) = (  -0.0000000  -0.0000000  -0.5000000), wk =   0.0007324
        k(   10) = (   0.0000000   0.0625000   0.0625000), wk =   0.0014648
        k(   11) = (   0.0000000   0.0625000   0.1250000), wk =   0.0029297
        k(   12) = (   0.0000000   0.0625000   0.1875000), wk =   0.0029297
        k(   13) = (   0.0000000   0.0625000   0.2500000), wk =   0.0029297
        k(   14) = (   0.0000000   0.0625000   0.3125000), wk =   0.0029297
        k(   15) = (   0.0000000   0.0625000   0.3750000), wk =   0.0029297
        k(   16) = (  -0.0000000   0.0625000   0.4375000), wk =   0.0029297
        k(   17) = (   0.0000000   0.0625000  -0.5000000), wk =   0.0029297
        k(   18) = (  -0.0000000   0.0625000  -0.4375000), wk =   0.0029297
        k(   19) = (  -0.0000000   0.0625000  -0.3750000), wk =   0.0029297
        k(   20) = (  -0.0000000   0.0625000  -0.3125000), wk =   0.0029297
        k(   21) = (  -0.0000000   0.0625000  -0.2500000), wk =   0.0029297
        k(   22) = (   0.0000000   0.0625000  -0.1875000), wk =   0.0029297
        k(   23) = (   0.0000000   0.0625000  -0.1250000), wk =   0.0029297
        k(   24) = (   0.0000000   0.0625000  -0.0625000), wk =   0.0014648
        k(   25) = (   0.0000000   0.1250000   0.1250000), wk =   0.0014648
        k(   26) = (   0.0000000   0.1250000   0.1875000), wk =   0.0029297
        k(   27) = (   0.0000000   0.1250000   0.2500000), wk =   0.0029297
        k(   28) = (   0.0000000   0.1250000   0.3125000), wk =   0.0029297
        k(   29) = (   0.0000000   0.1250000   0.3750000), wk =   0.0029297
        k(   30) = (  -0.0000000   0.1250000   0.4375000), wk =   0.0029297
        k(   31) = (  -0.0000000   0.1250000  -0.5000000), wk =   0.0029297
        k(   32) = (  -0.0000000   0.1250000  -0.4375000), wk =   0.0029297
        k(   33) = (   0.0000000   0.1250000  -0.3750000), wk =   0.0029297
        k(   34) = (   0.0000000   0.1250000  -0.3125000), wk =   0.0029297
        k(   35) = (   0.0000000   0.1250000  -0.2500000), wk =   0.0029297
        k(   36) = (   0.0000000   0.1250000  -0.1875000), wk =   0.0029297
        k(   37) = (   0.0000000   0.1250000  -0.1250000), wk =   0.0014648
        k(   38) = (   0.0000000   0.1875000   0.1875000), wk =   0.0014648
        k(   39) = (   0.0000000   0.1875000   0.2500000), wk =   0.0029297
        k(   40) = (  -0.0000000   0.1875000   0.3125000), wk =   0.0029297
        k(   41) = (   0.0000000   0.1875000   0.3750000), wk =   0.0029297
        k(   42) = (  -0.0000000   0.1875000   0.4375000), wk =   0.0029297
        k(   43) = (  -0.0000000   0.1875000  -0.5000000), wk =   0.0029297
        k(   44) = (  -0.0000000   0.1875000  -0.4375000), wk =   0.0029297
        k(   45) = (  -0.0000000   0.1875000  -0.3750000), wk =   0.0029297
        k(   46) = (   0.0000000   0.1875000  -0.3125000), wk =   0.0029297
        k(   47) = (   0.0000000   0.1875000  -0.2500000), wk =   0.0029297
        k(   48) = (  -0.0000000   0.1875000  -0.1875000), wk =   0.0014648
        k(   49) = (   0.0000000   0.2500000   0.2500000), wk =   0.0014648
        k(   50) = (   0.0000000   0.2500000   0.3125000), wk =   0.0029297
        k(   51) = (   0.0000000   0.2500000   0.3750000), wk =   0.0029297
        k(   52) = (  -0.0000000   0.2500000   0.4375000), wk =   0.0029297
        k(   53) = (   0.0000000   0.2500000  -0.5000000), wk =   0.0029297
        k(   54) = (   0.0000000   0.2500000  -0.4375000), wk =   0.0029297
        k(   55) = (   0.0000000   0.2500000  -0.3750000), wk =   0.0029297
        k(   56) = (  -0.0000000   0.2500000  -0.3125000), wk =   0.0029297
        k(   57) = (   0.0000000   0.2500000  -0.2500000), wk =   0.0014648
        k(   58) = (   0.0000000   0.3125000   0.3125000), wk =   0.0014648
        k(   59) = (   0.0000000   0.3125000   0.3750000), wk =   0.0029297
        k(   60) = (   0.0000000   0.3125000   0.4375000), wk =   0.0029297
        k(   61) = (   0.0000000   0.3125000  -0.5000000), wk =   0.0029297
        k(   62) = (   0.0000000   0.3125000  -0.4375000), wk =   0.0029297
        k(   63) = (   0.0000000   0.3125000  -0.3750000), wk =   0.0029297
        k(   64) = (   0.0000000   0.3125000  -0.3125000), wk =   0.0014648
        k(   65) = (   0.0000000   0.3750000   0.3750000), wk =   0.0014648
        k(   66) = (  -0.0000000   0.3750000   0.4375000), wk =   0.0029297
        k(   67) = (   0.0000000   0.3750000  -0.5000000), wk =   0.0029297
        k(   68) = (  -0.0000000   0.3750000  -0.4375000), wk =   0.0029297
        k(   69) = (  -0.0000000   0.3750000  -0.3750000), wk =   0.0014648
        k(   70) = (  -0.0000000   0.4375000   0.4375000), wk =   0.0014648
        k(   71) = (   0.0000000   0.4375000  -0.5000000), wk =   0.0029297
        k(   72) = (   0.0000000   0.4375000  -0.4375000), wk =   0.0014648
        k(   73) = (  -0.0000000  -0.5000000  -0.5000000), wk =   0.0007324
        k(   74) = (   0.0625000   0.0625000   0.0625000), wk =   0.0004883
        k(   75) = (   0.0625000   0.0625000   0.1250000), wk =   0.0014648
        k(   76) = (   0.0625000   0.0625000   0.1875000), wk =   0.0014648
        k(   77) = (   0.0625000   0.0625000   0.2500000), wk =   0.0014648
        k(   78) = (   0.0625000   0.0625000   0.3125000), wk =   0.0014648
        k(   79) = (   0.0625000   0.0625000   0.3750000), wk =   0.0014648
        k(   80) = (   0.0625000   0.0625000   0.4375000), wk =   0.0014648
        k(   81) = (   0.0625000   0.0625000  -0.5000000), wk =   0.0014648
        k(   82) = (   0.0625000   0.0625000  -0.4375000), wk =   0.0014648
        k(   83) = (   0.0625000   0.0625000  -0.3750000), wk =   0.0014648
        k(   84) = (   0.0625000   0.0625000  -0.3125000), wk =   0.0014648
        k(   85) = (   0.0625000   0.0625000  -0.2500000), wk =   0.0014648
        k(   86) = (   0.0625000   0.0625000  -0.1875000), wk =   0.0014648
        k(   87) = (   0.0625000   0.0625000  -0.1250000), wk =   0.0014648
        k(   88) = (   0.0625000   0.0625000  -0.0625000), wk =   0.0014648
        k(   89) = (   0.0625000   0.1250000   0.1250000), wk =   0.0014648
        k(   90) = (   0.0625000   0.1250000   0.1875000), wk =   0.0029297
        k(   91) = (   0.0625000   0.1250000   0.2500000), wk =   0.0029297
        k(   92) = (   0.0625000   0.1250000   0.3125000), wk =   0.0029297
        k(   93) = (   0.0625000   0.1250000   0.3750000), wk =   0.0029297
        k(   94) = (   0.0625000   0.1250000   0.4375000), wk =   0.0029297
        k(   95) = (   0.0625000   0.1250000  -0.5000000), wk =   0.0029297
        k(   96) = (   0.0625000   0.1250000  -0.4375000), wk =   0.0029297
        k(   97) = (   0.0625000   0.1250000  -0.3750000), wk =   0.0029297
        k(   98) = (   0.0625000   0.1250000  -0.3125000), wk =   0.0029297
        k(   99) = (   0.0625000   0.1250000  -0.2500000), wk =   0.0029297
        k(  100) = (   0.0625000   0.1250000  -0.1875000), wk =   0.0029297
        k(  101) = (   0.0625000   0.1250000  -0.1250000), wk =   0.0029297
        k(  102) = (   0.0625000   0.1250000  -0.0625000), wk =   0.0029297
        k(  103) = (   0.0625000   0.1875000   0.1875000), wk =   0.0014648
        k(  104) = (   0.0625000   0.1875000   0.2500000), wk =   0.0029297
        k(  105) = (   0.0625000   0.1875000   0.3125000), wk =   0.0029297
        k(  106) = (   0.0625000   0.1875000   0.3750000), wk =   0.0029297
        k(  107) = (   0.0625000   0.1875000   0.4375000), wk =   0.0029297
        k(  108) = (   0.0625000   0.1875000  -0.5000000), wk =   0.0029297
        k(  109) = (   0.0625000   0.1875000  -0.4375000), wk =   0.0029297
        k(  110) = (   0.0625000   0.1875000  -0.3750000), wk =   0.0029297
        k(  111) = (   0.0625000   0.1875000  -0.3125000), wk =   0.0029297
        k(  112) = (   0.0625000   0.1875000  -0.2500000), wk =   0.0029297
        k(  113) = (   0.0625000   0.1875000  -0.1875000), wk =   0.0029297
        k(  114) = (   0.0625000   0.1875000  -0.1250000), wk =   0.0029297
        k(  115) = (   0.0625000   0.1875000  -0.0625000), wk =   0.0029297
        k(  116) = (   0.0625000   0.2500000   0.2500000), wk =   0.0014648
        k(  117) = (   0.0625000   0.2500000   0.3125000), wk =   0.0029297
        k(  118) = (   0.0625000   0.2500000   0.3750000), wk =   0.0029297
        k(  119) = (   0.0625000   0.2500000   0.4375000), wk =   0.0029297
        k(  120) = (   0.0625000   0.2500000  -0.5000000), wk =   0.0029297
        k(  121) = (   0.0625000   0.2500000  -0.4375000), wk =   0.0029297
        k(  122) = (   0.0625000   0.2500000  -0.3750000), wk =   0.0029297
        k(  123) = (   0.0625000   0.2500000  -0.3125000), wk =   0.0029297
        k(  124) = (   0.0625000   0.2500000  -0.2500000), wk =   0.0029297
        k(  125) = (   0.0625000   0.2500000  -0.1875000), wk =   0.0029297
        k(  126) = (   0.0625000   0.2500000  -0.1250000), wk =   0.0029297
        k(  127) = (   0.0625000   0.2500000  -0.0625000), wk =   0.0029297
        k(  128) = (   0.0625000   0.3125000   0.3125000), wk =   0.0014648
        k(  129) = (   0.0625000   0.3125000   0.3750000), wk =   0.0029297
        k(  130) = (   0.0625000   0.3125000   0.4375000), wk =   0.0029297
        k(  131) = (   0.0625000   0.3125000  -0.5000000), wk =   0.0029297
        k(  132) = (   0.0625000   0.3125000  -0.4375000), wk =   0.0029297
        k(  133) = (   0.0625000   0.3125000  -0.3750000), wk =   0.0029297
        k(  134) = (   0.0625000   0.3125000  -0.3125000), wk =   0.0029297
        k(  135) = (   0.0625000   0.3125000  -0.2500000), wk =   0.0029297
        k(  136) = (   0.0625000   0.3125000  -0.1875000), wk =   0.0029297
        k(  137) = (   0.0625000   0.3125000  -0.1250000), wk =   0.0029297
        k(  138) = (   0.0625000   0.3125000  -0.0625000), wk =   0.0029297
        k(  139) = (   0.0625000   0.3750000   0.3750000), wk =   0.0014648
        k(  140) = (   0.0625000   0.3750000   0.4375000), wk =   0.0029297
        k(  141) = (   0.0625000   0.3750000  -0.5000000), wk =   0.0029297
        k(  142) = (   0.0625000   0.3750000  -0.4375000), wk =   0.0029297
        k(  143) = (   0.0625000   0.3750000  -0.3750000), wk =   0.0029297
        k(  144) = (   0.0625000   0.3750000  -0.3125000), wk =   0.0029297
        k(  145) = (   0.0625000   0.3750000  -0.2500000), wk =   0.0029297
        k(  146) = (   0.0625000   0.3750000  -0.1875000), wk =   0.0029297
        k(  147) = (   0.0625000   0.3750000  -0.1250000), wk =   0.0029297
        k(  148) = (   0.0625000   0.3750000  -0.0625000), wk =   0.0029297
        k(  149) = (   0.0625000   0.4375000   0.4375000), wk =   0.0014648
        k(  150) = (   0.0625000   0.4375000  -0.5000000), wk =   0.0029297
        k(  151) = (   0.0625000   0.4375000  -0.4375000), wk =   0.0029297
        k(  152) = (   0.0625000   0.4375000  -0.3750000), wk =   0.0029297
        k(  153) = (   0.0625000   0.4375000  -0.3125000), wk =   0.0029297
        k(  154) = (   0.0625000   0.4375000  -0.2500000), wk =   0.0029297
        k(  155) = (   0.0625000   0.4375000  -0.1875000), wk =   0.0029297
        k(  156) = (   0.0625000   0.4375000  -0.1250000), wk =   0.0029297
        k(  157) = (   0.0625000   0.4375000  -0.0625000), wk =   0.0029297
        k(  158) = (   0.0625000  -0.5000000  -0.5000000), wk =   0.0014648
        k(  159) = (   0.0625000  -0.5000000  -0.4375000), wk =   0.0029297
        k(  160) = (   0.0625000  -0.5000000  -0.3750000), wk =   0.0029297
        k(  161) = (   0.0625000  -0.5000000  -0.3125000), wk =   0.0029297
        k(  162) = (   0.0625000  -0.5000000  -0.2500000), wk =   0.0029297
        k(  163) = (   0.0625000  -0.5000000  -0.1875000), wk =   0.0029297
        k(  164) = (   0.0625000  -0.5000000  -0.1250000), wk =   0.0029297
        k(  165) = (   0.0625000  -0.5000000  -0.0625000), wk =   0.0014648
        k(  166) = (   0.0625000  -0.4375000  -0.4375000), wk =   0.0014648
        k(  167) = (   0.0625000  -0.4375000  -0.3750000), wk =   0.0029297
        k(  168) = (   0.0625000  -0.4375000  -0.3125000), wk =   0.0029297
        k(  169) = (   0.0625000  -0.4375000  -0.2500000), wk =   0.0029297
        k(  170) = (   0.0625000  -0.4375000  -0.1875000), wk =   0.0029297
        k(  171) = (   0.0625000  -0.4375000  -0.1250000), wk =   0.0029297
        k(  172) = (   0.0625000  -0.3750000  -0.3750000), wk =   0.0014648
        k(  173) = (   0.0625000  -0.3750000  -0.3125000), wk =   0.0029297
        k(  174) = (   0.0625000  -0.3750000  -0.2500000), wk =   0.0029297
        k(  175) = (   0.0625000  -0.3750000  -0.1875000), wk =   0.0029297
        k(  176) = (   0.0625000  -0.3750000  -0.1250000), wk =   0.0029297
        k(  177) = (   0.0625000  -0.3125000  -0.3125000), wk =   0.0014648
        k(  178) = (   0.0625000  -0.3125000  -0.2500000), wk =   0.0029297
        k(  179) = (   0.0625000  -0.3125000  -0.1875000), wk =   0.0029297
        k(  180) = (   0.0625000  -0.3125000  -0.1250000), wk =   0.0029297
        k(  181) = (   0.0625000  -0.2500000  -0.2500000), wk =   0.0014648
        k(  182) = (   0.0625000  -0.2500000  -0.1875000), wk =   0.0029297
        k(  183) = (   0.0625000  -0.2500000  -0.1250000), wk =   0.0029297
        k(  184) = (   0.0625000  -0.1875000  -0.1875000), wk =   0.0014648
        k(  185) = (   0.0625000  -0.1875000  -0.1250000), wk =   0.0029297
        k(  186) = (   0.0625000  -0.1250000  -0.1250000), wk =   0.0014648
        k(  187) = (   0.1250000   0.1250000   0.1250000), wk =   0.0004883
        k(  188) = (   0.1250000   0.1250000   0.1875000), wk =   0.0014648
        k(  189) = (   0.1250000   0.1250000   0.2500000), wk =   0.0014648
        k(  190) = (   0.1250000   0.1250000   0.3125000), wk =   0.0014648
        k(  191) = (   0.1250000   0.1250000   0.3750000), wk =   0.0014648
        k(  192) = (   0.1250000   0.1250000   0.4375000), wk =   0.0014648
        k(  193) = (   0.1250000   0.1250000  -0.5000000), wk =   0.0014648
        k(  194) = (   0.1250000   0.1250000  -0.4375000), wk =   0.0014648
        k(  195) = (   0.1250000   0.1250000  -0.3750000), wk =   0.0014648
        k(  196) = (   0.1250000   0.1250000  -0.3125000), wk =   0.0014648
        k(  197) = (   0.1250000   0.1250000  -0.2500000), wk =   0.0014648
        k(  198) = (   0.1250000   0.1250000  -0.1875000), wk =   0.0014648
        k(  199) = (   0.1250000   0.1250000  -0.1250000), wk =   0.0014648
        k(  200) = (   0.1250000   0.1875000   0.1875000), wk =   0.0014648
        k(  201) = (   0.1250000   0.1875000   0.2500000), wk =   0.0029297
        k(  202) = (   0.1250000   0.1875000   0.3125000), wk =   0.0029297
        k(  203) = (   0.1250000   0.1875000   0.3750000), wk =   0.0029297
        k(  204) = (   0.1250000   0.1875000   0.4375000), wk =   0.0029297
        k(  205) = (   0.1250000   0.1875000  -0.5000000), wk =   0.0029297
        k(  206) = (   0.1250000   0.1875000  -0.4375000), wk =   0.0029297
        k(  207) = (   0.1250000   0.1875000  -0.3750000), wk =   0.0029297
        k(  208) = (   0.1250000   0.1875000  -0.3125000), wk =   0.0029297
        k(  209) = (   0.1250000   0.1875000  -0.2500000), wk =   0.0029297
        k(  210) = (   0.1250000   0.1875000  -0.1875000), wk =   0.0029297
        k(  211) = (   0.1250000   0.1875000  -0.1250000), wk =   0.0029297
        k(  212) = (   0.1250000   0.2500000   0.2500000), wk =   0.0014648
        k(  213) = (   0.1250000   0.2500000   0.3125000), wk =   0.0029297
        k(  214) = (   0.1250000   0.2500000   0.3750000), wk =   0.0029297
        k(  215) = (   0.1250000   0.2500000   0.4375000), wk =   0.0029297
        k(  216) = (   0.1250000   0.2500000  -0.5000000), wk =   0.0029297
        k(  217) = (   0.1250000   0.2500000  -0.4375000), wk =   0.0029297
        k(  218) = (   0.1250000   0.2500000  -0.3750000), wk =   0.0029297
        k(  219) = (   0.1250000   0.2500000  -0.3125000), wk =   0.0029297
        k(  220) = (   0.1250000   0.2500000  -0.2500000), wk =   0.0029297
        k(  221) = (   0.1250000   0.2500000  -0.1875000), wk =   0.0029297
        k(  222) = (   0.1250000   0.2500000  -0.1250000), wk =   0.0029297
        k(  223) = (   0.1250000   0.3125000   0.3125000), wk =   0.0014648
        k(  224) = (   0.1250000   0.3125000   0.3750000), wk =   0.0029297
        k(  225) = (   0.1250000   0.3125000   0.4375000), wk =   0.0029297
        k(  226) = (   0.1250000   0.3125000  -0.5000000), wk =   0.0029297
        k(  227) = (   0.1250000   0.3125000  -0.4375000), wk =   0.0029297
        k(  228) = (   0.1250000   0.3125000  -0.3750000), wk =   0.0029297
        k(  229) = (   0.1250000   0.3125000  -0.3125000), wk =   0.0029297
        k(  230) = (   0.1250000   0.3125000  -0.2500000), wk =   0.0029297
        k(  231) = (   0.1250000   0.3125000  -0.1875000), wk =   0.0029297
        k(  232) = (   0.1250000   0.3125000  -0.1250000), wk =   0.0029297
        k(  233) = (   0.1250000   0.3750000   0.3750000), wk =   0.0014648
        k(  234) = (   0.1250000   0.3750000   0.4375000), wk =   0.0029297
        k(  235) = (   0.1250000   0.3750000  -0.5000000), wk =   0.0029297
        k(  236) = (   0.1250000   0.3750000  -0.4375000), wk =   0.0029297
        k(  237) = (   0.1250000   0.3750000  -0.3750000), wk =   0.0029297
        k(  238) = (   0.1250000   0.3750000  -0.3125000), wk =   0.0029297
        k(  239) = (   0.1250000   0.3750000  -0.2500000), wk =   0.0029297
        k(  240) = (   0.1250000   0.3750000  -0.1875000), wk =   0.0029297
        k(  241) = (   0.1250000   0.3750000  -0.1250000), wk =   0.0029297
        k(  242) = (   0.1250000   0.4375000   0.4375000), wk =   0.0014648
        k(  243) = (   0.1250000   0.4375000  -0.5000000), wk =   0.0029297
        k(  244) = (   0.1250000   0.4375000  -0.4375000), wk =   0.0029297
        k(  245) = (   0.1250000   0.4375000  -0.3750000), wk =   0.0029297
        k(  246) = (   0.1250000   0.4375000  -0.3125000), wk =   0.0029297
        k(  247) = (   0.1250000   0.4375000  -0.2500000), wk =   0.0029297
        k(  248) = (   0.1250000   0.4375000  -0.1875000), wk =   0.0029297
        k(  249) = (   0.1250000   0.4375000  -0.1250000), wk =   0.0029297
        k(  250) = (   0.1250000  -0.5000000  -0.5000000), wk =   0.0014648
        k(  251) = (   0.1250000  -0.5000000  -0.4375000), wk =   0.0029297
        k(  252) = (   0.1250000  -0.5000000  -0.3750000), wk =   0.0029297
        k(  253) = (   0.1250000  -0.5000000  -0.3125000), wk =   0.0029297
        k(  254) = (   0.1250000  -0.5000000  -0.2500000), wk =   0.0029297
        k(  255) = (   0.1250000  -0.5000000  -0.1875000), wk =   0.0029297
        k(  256) = (   0.1250000  -0.5000000  -0.1250000), wk =   0.0014648
        k(  257) = (   0.1250000  -0.4375000  -0.4375000), wk =   0.0014648
        k(  258) = (   0.1250000  -0.4375000  -0.3750000), wk =   0.0029297
        k(  259) = (   0.1250000  -0.4375000  -0.3125000), wk =   0.0029297
        k(  260) = (   0.1250000  -0.4375000  -0.2500000), wk =   0.0029297
        k(  261) = (   0.1250000  -0.4375000  -0.1875000), wk =   0.0029297
        k(  262) = (   0.1250000  -0.3750000  -0.3750000), wk =   0.0014648
        k(  263) = (   0.1250000  -0.3750000  -0.3125000), wk =   0.0029297
        k(  264) = (   0.1250000  -0.3750000  -0.2500000), wk =   0.0029297
        k(  265) = (   0.1250000  -0.3750000  -0.1875000), wk =   0.0029297
        k(  266) = (   0.1250000  -0.3125000  -0.3125000), wk =   0.0014648
        k(  267) = (   0.1250000  -0.3125000  -0.2500000), wk =   0.0029297
        k(  268) = (   0.1250000  -0.3125000  -0.1875000), wk =   0.0029297
        k(  269) = (   0.1250000  -0.2500000  -0.2500000), wk =   0.0014648
        k(  270) = (   0.1250000  -0.2500000  -0.1875000), wk =   0.0029297
        k(  271) = (   0.1250000  -0.1875000  -0.1875000), wk =   0.0014648
        k(  272) = (   0.1875000   0.1875000   0.1875000), wk =   0.0004883
        k(  273) = (   0.1875000   0.1875000   0.2500000), wk =   0.0014648
        k(  274) = (   0.1875000   0.1875000   0.3125000), wk =   0.0014648
        k(  275) = (   0.1875000   0.1875000   0.3750000), wk =   0.0014648
        k(  276) = (   0.1875000   0.1875000   0.4375000), wk =   0.0014648
        k(  277) = (   0.1875000   0.1875000  -0.5000000), wk =   0.0014648
        k(  278) = (   0.1875000   0.1875000  -0.4375000), wk =   0.0014648
        k(  279) = (   0.1875000   0.1875000  -0.3750000), wk =   0.0014648
        k(  280) = (   0.1875000   0.1875000  -0.3125000), wk =   0.0014648
        k(  281) = (   0.1875000   0.1875000  -0.2500000), wk =   0.0014648
        k(  282) = (   0.1875000   0.1875000  -0.1875000), wk =   0.0014648
        k(  283) = (   0.1875000   0.2500000   0.2500000), wk =   0.0014648
        k(  284) = (   0.1875000   0.2500000   0.3125000), wk =   0.0029297
        k(  285) = (   0.1875000   0.2500000   0.3750000), wk =   0.0029297
        k(  286) = (   0.1875000   0.2500000   0.4375000), wk =   0.0029297
        k(  287) = (   0.1875000   0.2500000  -0.5000000), wk =   0.0029297
        k(  288) = (   0.1875000   0.2500000  -0.4375000), wk =   0.0029297
        k(  289) = (   0.1875000   0.2500000  -0.3750000), wk =   0.0029297
        k(  290) = (   0.1875000   0.2500000  -0.3125000), wk =   0.0029297
        k(  291) = (   0.1875000   0.2500000  -0.2500000), wk =   0.0029297
        k(  292) = (   0.1875000   0.2500000  -0.1875000), wk =   0.0029297
        k(  293) = (   0.1875000   0.3125000   0.3125000), wk =   0.0014648
        k(  294) = (   0.1875000   0.3125000   0.3750000), wk =   0.0029297
        k(  295) = (   0.1875000   0.3125000   0.4375000), wk =   0.0029297
        k(  296) = (   0.1875000   0.3125000  -0.5000000), wk =   0.0029297
        k(  297) = (   0.1875000   0.3125000  -0.4375000), wk =   0.0029297
        k(  298) = (   0.1875000   0.3125000  -0.3750000), wk =   0.0029297
        k(  299) = (   0.1875000   0.3125000  -0.3125000), wk =   0.0029297
        k(  300) = (   0.1875000   0.3125000  -0.2500000), wk =   0.0029297
        k(  301) = (   0.1875000   0.3125000  -0.1875000), wk =   0.0029297
        k(  302) = (   0.1875000   0.3750000   0.3750000), wk =   0.0014648
        k(  303) = (   0.1875000   0.3750000   0.4375000), wk =   0.0029297
        k(  304) = (   0.1875000   0.3750000  -0.5000000), wk =   0.0029297
        k(  305) = (   0.1875000   0.3750000  -0.4375000), wk =   0.0029297
        k(  306) = (   0.1875000   0.3750000  -0.3750000), wk =   0.0029297
        k(  307) = (   0.1875000   0.3750000  -0.3125000), wk =   0.0029297
        k(  308) = (   0.1875000   0.3750000  -0.2500000), wk =   0.0029297
        k(  309) = (   0.1875000   0.3750000  -0.1875000), wk =   0.0029297
        k(  310) = (   0.1875000   0.4375000   0.4375000), wk =   0.0014648
        k(  311) = (   0.1875000   0.4375000  -0.5000000), wk =   0.0029297
        k(  312) = (   0.1875000   0.4375000  -0.4375000), wk =   0.0029297
        k(  313) = (   0.1875000   0.4375000  -0.3750000), wk =   0.0029297
        k(  314) = (   0.1875000   0.4375000  -0.3125000), wk =   0.0029297
        k(  315) = (   0.1875000   0.4375000  -0.2500000), wk =   0.0029297
        k(  316) = (   0.1875000   0.4375000  -0.1875000), wk =   0.0029297
        k(  317) = (   0.1875000  -0.5000000  -0.5000000), wk =   0.0014648
        k(  318) = (   0.1875000  -0.5000000  -0.4375000), wk =   0.0029297
        k(  319) = (   0.1875000  -0.5000000  -0.3750000), wk =   0.0029297
        k(  320) = (   0.1875000  -0.5000000  -0.3125000), wk =   0.0029297
        k(  321) = (   0.1875000  -0.5000000  -0.2500000), wk =   0.0029297
        k(  322) = (   0.1875000  -0.5000000  -0.1875000), wk =   0.0014648
        k(  323) = (   0.1875000  -0.4375000  -0.4375000), wk =   0.0014648
        k(  324) = (   0.1875000  -0.4375000  -0.3750000), wk =   0.0029297
        k(  325) = (   0.1875000  -0.4375000  -0.3125000), wk =   0.0029297
        k(  326) = (   0.1875000  -0.4375000  -0.2500000), wk =   0.0029297
        k(  327) = (   0.1875000  -0.3750000  -0.3750000), wk =   0.0014648
        k(  328) = (   0.1875000  -0.3750000  -0.3125000), wk =   0.0029297
        k(  329) = (   0.1875000  -0.3750000  -0.2500000), wk =   0.0029297
        k(  330) = (   0.1875000  -0.3125000  -0.3125000), wk =   0.0014648
        k(  331) = (   0.1875000  -0.3125000  -0.2500000), wk =   0.0029297
        k(  332) = (   0.1875000  -0.2500000  -0.2500000), wk =   0.0014648
        k(  333) = (   0.2500000   0.2500000   0.2500000), wk =   0.0004883
        k(  334) = (   0.2500000   0.2500000   0.3125000), wk =   0.0014648
        k(  335) = (   0.2500000   0.2500000   0.3750000), wk =   0.0014648
        k(  336) = (   0.2500000   0.2500000   0.4375000), wk =   0.0014648
        k(  337) = (   0.2500000   0.2500000  -0.5000000), wk =   0.0014648
        k(  338) = (   0.2500000   0.2500000  -0.4375000), wk =   0.0014648
        k(  339) = (   0.2500000   0.2500000  -0.3750000), wk =   0.0014648
        k(  340) = (   0.2500000   0.2500000  -0.3125000), wk =   0.0014648
        k(  341) = (   0.2500000   0.2500000  -0.2500000), wk =   0.0014648
        k(  342) = (   0.2500000   0.3125000   0.3125000), wk =   0.0014648
        k(  343) = (   0.2500000   0.3125000   0.3750000), wk =   0.0029297
        k(  344) = (   0.2500000   0.3125000   0.4375000), wk =   0.0029297
        k(  345) = (   0.2500000   0.3125000  -0.5000000), wk =   0.0029297
        k(  346) = (   0.2500000   0.3125000  -0.4375000), wk =   0.0029297
        k(  347) = (   0.2500000   0.3125000  -0.3750000), wk =   0.0029297
        k(  348) = (   0.2500000   0.3125000  -0.3125000), wk =   0.0029297
        k(  349) = (   0.2500000   0.3125000  -0.2500000), wk =   0.0029297
        k(  350) = (   0.2500000   0.3750000   0.3750000), wk =   0.0014648
        k(  351) = (   0.2500000   0.3750000   0.4375000), wk =   0.0029297
        k(  352) = (   0.2500000   0.3750000  -0.5000000), wk =   0.0029297
        k(  353) = (   0.2500000   0.3750000  -0.4375000), wk =   0.0029297
        k(  354) = (   0.2500000   0.3750000  -0.3750000), wk =   0.0029297
        k(  355) = (   0.2500000   0.3750000  -0.3125000), wk =   0.0029297
        k(  356) = (   0.2500000   0.3750000  -0.2500000), wk =   0.0029297
        k(  357) = (   0.2500000   0.4375000   0.4375000), wk =   0.0014648
        k(  358) = (   0.2500000   0.4375000  -0.5000000), wk =   0.0029297
        k(  359) = (   0.2500000   0.4375000  -0.4375000), wk =   0.0029297
        k(  360) = (   0.2500000   0.4375000  -0.3750000), wk =   0.0029297
        k(  361) = (   0.2500000   0.4375000  -0.3125000), wk =   0.0029297
        k(  362) = (   0.2500000   0.4375000  -0.2500000), wk =   0.0029297
        k(  363) = (   0.2500000  -0.5000000  -0.5000000), wk =   0.0014648
        k(  364) = (   0.2500000  -0.5000000  -0.4375000), wk =   0.0029297
        k(  365) = (   0.2500000  -0.5000000  -0.3750000), wk =   0.0029297
        k(  366) = (   0.2500000  -0.5000000  -0.3125000), wk =   0.0029297
        k(  367) = (   0.2500000  -0.5000000  -0.2500000), wk =   0.0014648
        k(  368) = (   0.2500000  -0.4375000  -0.4375000), wk =   0.0014648
        k(  369) = (   0.2500000  -0.4375000  -0.3750000), wk =   0.0029297
        k(  370) = (   0.2500000  -0.4375000  -0.3125000), wk =   0.0029297
        k(  371) = (   0.2500000  -0.3750000  -0.3750000), wk =   0.0014648
        k(  372) = (   0.2500000  -0.3750000  -0.3125000), wk =   0.0029297
        k(  373) = (   0.2500000  -0.3125000  -0.3125000), wk =   0.0014648
        k(  374) = (   0.3125000   0.3125000   0.3125000), wk =   0.0004883
        k(  375) = (   0.3125000   0.3125000   0.3750000), wk =   0.0014648
        k(  376) = (   0.3125000   0.3125000   0.4375000), wk =   0.0014648
        k(  377) = (   0.3125000   0.3125000  -0.5000000), wk =   0.0014648
        k(  378) = (   0.3125000   0.3125000  -0.4375000), wk =   0.0014648
        k(  379) = (   0.3125000   0.3125000  -0.3750000), wk =   0.0014648
        k(  380) = (   0.3125000   0.3125000  -0.3125000), wk =   0.0014648
        k(  381) = (   0.3125000   0.3750000   0.3750000), wk =   0.0014648
        k(  382) = (   0.3125000   0.3750000   0.4375000), wk =   0.0029297
        k(  383) = (   0.3125000   0.3750000  -0.5000000), wk =   0.0029297
        k(  384) = (   0.3125000   0.3750000  -0.4375000), wk =   0.0029297
        k(  385) = (   0.3125000   0.3750000  -0.3750000), wk =   0.0029297
        k(  386) = (   0.3125000   0.3750000  -0.3125000), wk =   0.0029297
        k(  387) = (   0.3125000   0.4375000   0.4375000), wk =   0.0014648
        k(  388) = (   0.3125000   0.4375000  -0.5000000), wk =   0.0029297
        k(  389) = (   0.3125000   0.4375000  -0.4375000), wk =   0.0029297
        k(  390) = (   0.3125000   0.4375000  -0.3750000), wk =   0.0029297
        k(  391) = (   0.3125000   0.4375000  -0.3125000), wk =   0.0029297
        k(  392) = (   0.3125000  -0.5000000  -0.5000000), wk =   0.0014648
        k(  393) = (   0.3125000  -0.5000000  -0.4375000), wk =   0.0029297
        k(  394) = (   0.3125000  -0.5000000  -0.3750000), wk =   0.0029297
        k(  395) = (   0.3125000  -0.5000000  -0.3125000), wk =   0.0014648
        k(  396) = (   0.3125000  -0.4375000  -0.4375000), wk =   0.0014648
        k(  397) = (   0.3125000  -0.4375000  -0.3750000), wk =   0.0029297
        k(  398) = (   0.3125000  -0.3750000  -0.3750000), wk =   0.0014648
        k(  399) = (   0.3750000   0.3750000   0.3750000), wk =   0.0004883
        k(  400) = (   0.3750000   0.3750000   0.4375000), wk =   0.0014648
        k(  401) = (   0.3750000   0.3750000  -0.5000000), wk =   0.0014648
        k(  402) = (   0.3750000   0.3750000  -0.4375000), wk =   0.0014648
        k(  403) = (   0.3750000   0.3750000  -0.3750000), wk =   0.0014648
        k(  404) = (   0.3750000   0.4375000   0.4375000), wk =   0.0014648
        k(  405) = (   0.3750000   0.4375000  -0.5000000), wk =   0.0029297
        k(  406) = (   0.3750000   0.4375000  -0.4375000), wk =   0.0029297
        k(  407) = (   0.3750000   0.4375000  -0.3750000), wk =   0.0029297
        k(  408) = (   0.3750000  -0.5000000  -0.5000000), wk =   0.0014648
        k(  409) = (   0.3750000  -0.5000000  -0.4375000), wk =   0.0029297
        k(  410) = (   0.3750000  -0.5000000  -0.3750000), wk =   0.0014648
        k(  411) = (   0.3750000  -0.4375000  -0.4375000), wk =   0.0014648
        k(  412) = (   0.4375000   0.4375000   0.4375000), wk =   0.0004883
        k(  413) = (   0.4375000   0.4375000  -0.5000000), wk =   0.0014648
        k(  414) = (   0.4375000   0.4375000  -0.4375000), wk =   0.0014648
        k(  415) = (   0.4375000  -0.5000000  -0.5000000), wk =   0.0014648
        k(  416) = (   0.4375000  -0.5000000  -0.4375000), wk =   0.0014648
        k(  417) = (  -0.5000000  -0.5000000  -0.5000000), wk =   0.0002441

     Dense  grid:   122743 G-vectors     FFT dimensions: ( 135, 135, 135)

     Smooth grid:    43535 G-vectors     FFT dimensions: (  96,  96,  96)

     Dynamical RAM for                 wfc:       3.98 MB

     Dynamical RAM for     wfc (w. buffer):       3.98 MB

     Dynamical RAM for           str. fact:       7.49 MB

     Dynamical RAM for           local pot:       0.00 MB

     Dynamical RAM for          nlocal pot:       6.47 MB

     Dynamical RAM for                qrad:       7.03 MB

     Dynamical RAM for          rho,v,vnew:     123.86 MB

     Dynamical RAM for           G-vectors:       7.36 MB

     Dynamical RAM for          h,s,v(r/c):       0.42 MB

     Dynamical RAM for          <psi|beta>:       0.06 MB

     Dynamical RAM for                 psi:       7.96 MB

     Dynamical RAM for                hpsi:       7.96 MB

     Dynamical RAM for                spsi:       7.96 MB

     Dynamical RAM for      wfcinit/wfcrot:       8.01 MB

     Dynamical RAM for           addusdens:     353.98 MB

     Estimated static dynamical RAM per process >     278.18 MB

     Estimated max dynamical RAM per process >     632.16 MB

     Check: negative core charge=   -0.000004
     Generating pointlists ...
     new r_m :   0.0992 (alat units)  1.8362 (a.u.) for type    1
     new r_m :   0.1010 (alat units)  1.8703 (a.u.) for type    2
     new r_m :   0.1010 (alat units)  1.8703 (a.u.) for type    3
     new r_m :   0.0992 (alat units)  1.8362 (a.u.) for type    4

     The potential is recalculated from file :
     ../Na2CoSe2O_scf/out/pw.save/charge-density

     Starting wfcs are   42 randomized atomic wfcs +    6 random wfcs
     Checking if some PAW data can be deallocated... 

     Band Structure Calculation
     Davidson diagonalization with overlap

     Computing kpt #:     1  of   834
     total cpu time spent up to now is        8.0 secs

     Computing kpt #:     2  of   834
     total cpu time spent up to now is        8.4 secs

     Computing kpt #:     3  of   834
     total cpu time spent up to now is        9.0 secs

     Computing kpt #:     4  of   834
     c_bands:  1 eigenvalues not converged
     total cpu time spent up to now is        9.7 secs

     Computing kpt #:     5  of   834
     total cpu time spent up to now is       10.2 secs

     Computing kpt #:     6  of   834
     total cpu time spent up to now is       10.6 secs

     Computing kpt #:     7  of   834
     total cpu time spent up to now is       11.1 secs

     Computing kpt #:     8  of   834
     total cpu time spent up to now is       11.5 secs

     Computing kpt #:     9  of   834
     total cpu time spent up to now is       12.0 secs

     Computing kpt #:    10  of   834
     total cpu time spent up to now is       12.4 secs

     Computing kpt #:    11  of   834
     total cpu time spent up to now is       13.0 secs

     Computing kpt #:    12  of   834
     total cpu time spent up to now is       13.7 secs

     Computing kpt #:    13  of   834
     total cpu time spent up to now is       14.2 secs

     Computing kpt #:    14  of   834
     total cpu time spent up to now is       14.7 secs

     Computing kpt #:    15  of   834
     total cpu time spent up to now is       15.2 secs

     Computing kpt #:    16  of   834
[...]

     occupation numbers 
     1.0000   1.0000   1.0000   1.0000   1.0000   1.0000   1.0000   1.0000
     1.0000   1.0000   1.0000   1.0000   1.0000   1.0000   1.0000   1.0000
     1.0000   1.0000   1.0000   1.0000   1.0000   1.0000   1.0000   1.0000
     1.0000   1.0000   1.0000   1.0000   1.0000   1.0000   1.0000   1.0001
     1.0083   0.7202   0.3652   0.1903   0.0977   0.0000   0.0000   0.0000
     0.0000   0.0000   0.0000   0.0000   0.0000   0.0000   0.0000   0.0000

          k = 2.2633 1.3067 0.1065 (  5428 PWs)   bands (ev):

   -87.7915 -51.1057 -51.0583 -51.0573 -42.9453 -42.9368 -40.8264 -40.8263
   -40.8259 -40.8255 -40.7941 -40.7941 -40.7920 -40.7915 -40.7784 -40.7780
   -14.9618 -14.8785 -14.8469 -14.8435 -14.8365 -14.8214  -8.0220  -7.2863
    -5.8469   2.1665   2.8930   3.7488   4.4060   5.2561   5.7724   5.8810
     6.1015   6.6125   6.8258   6.8717   6.9230   7.8526   8.9058  12.3941
    13.0644  13.5523  14.9671  15.6835  16.1859  16.3804  16.5248  17.6970

     occupation numbers 
     1.0000   1.0000   1.0000   1.0000   1.0000   1.0000   1.0000   1.0000
     1.0000   1.0000   1.0000   1.0000   1.0000   1.0000   1.0000   1.0000
     1.0000   1.0000   1.0000   1.0000   1.0000   1.0000   1.0000   1.0000
     1.0000   1.0000   1.0000   1.0000   1.0000   1.0000   1.0000   1.0001
     1.0036   0.9953   0.4895   0.3714   0.2571   0.0000   0.0000   0.0000
     0.0000   0.0000   0.0000   0.0000   0.0000   0.0000   0.0000   0.0000

          k = 2.0892 1.2062 0.1278 (  5429 PWs)   bands (ev):

   -87.7914 -51.1056 -51.0591 -51.0575 -42.9442 -42.9368 -40.8264 -40.8263
   -40.8256 -40.8252 -40.7941 -40.7940 -40.7922 -40.7916 -40.7782 -40.7779
   -14.9567 -14.8905 -14.8538 -14.8479 -14.8426 -14.8224  -7.9814  -7.0142
    -5.7425   2.3663   2.5215   3.6784   3.8054   5.0761   5.6748   5.8122
     6.1175   6.3429   6.6988   6.7798   6.8132   7.7790   8.8475  12.3215
    12.9182  13.6182  14.7993  15.5369  16.1759  16.7100  16.8096  18.1853

     occupation numbers 
     1.0000   1.0000   1.0000   1.0000   1.0000   1.0000   1.0000   1.0000
     1.0000   1.0000   1.0000   1.0000   1.0000   1.0000   1.0000   1.0000
     1.0000   1.0000   1.0000   1.0000   1.0000   1.0000   1.0000   1.0000
     1.0000   1.0000   1.0000   1.0000   1.0000   1.0000   1.0000   1.0000
     1.0046   1.0504   0.8288   0.6160   0.5239   0.0000   0.0000   0.0000
     0.0000   0.0000   0.0000   0.0000   0.0000   0.0000   0.0000   0.0000

          k =-0.1741 0.1005 0.4259 (  5433 PWs)   bands (ev):

   -87.7915 -51.1058 -51.0571 -51.0571 -42.9468 -42.9371 -40.8266 -40.8265
   -40.8262 -40.8261 -40.7942 -40.7941 -40.7915 -40.7914 -40.7787 -40.7784
   -14.9696 -14.8652 -14.8373 -14.8371 -14.8230 -14.8207  -8.0801  -7.6222
    -5.9987   1.8257   3.5346   3.6642   5.5050   5.5624   5.5951   5.8749
     6.3800   6.8616   6.9087   7.0273   7.0623   8.8979   9.1163  11.8070
    12.7098  12.9978  14.8649  15.2445  15.2954  16.4744  17.3995  17.8039

     occupation numbers 
     1.0000   1.0000   1.0000   1.0000   1.0000   1.0000   1.0000   1.0000
     1.0000   1.0000   1.0000   1.0000   1.0000   1.0000   1.0000   1.0000
     1.0000   1.0000   1.0000   1.0000   1.0000   1.0000   1.0000   1.0000
     1.0000   1.0000   1.0000   1.0000   1.0000   1.0000   1.0000   1.0001
     1.0631   0.3962   0.2867   0.1002   0.0686   0.0000   0.0000   0.0000
     0.0000   0.0000   0.0000   0.0000   0.0000   0.0000   0.0000   0.0000

          k = 2.4374 1.6083 0.1065 (  5409 PWs)   bands (ev):

   -87.7915 -51.1057 -51.0574 -51.0571 -42.9464 -42.9370 -40.8264 -40.8263
   -40.8262 -40.8259 -40.7941 -40.7941 -40.7916 -40.7914 -40.7785 -40.7782
   -14.9674 -14.8683 -14.8398 -14.8389 -14.8265 -14.8210  -8.0641  -7.5361
    -5.9575   1.9152   3.3398   3.6840   5.3511   5.4289   5.6719   5.8772
     6.1863   6.7741   6.8863   6.9821   7.0330   8.5522   8.9787  12.0153
    13.0554  13.3450  14.5869  15.4799  15.6532  16.2057  17.0665  17.9478

     occupation numbers 
     1.0000   1.0000   1.0000   1.0000   1.0000   1.0000   1.0000   1.0000
     1.0000   1.0000   1.0000   1.0000   1.0000   1.0000   1.0000   1.0000
     1.0000   1.0000   1.0000   1.0000   1.0000   1.0000   1.0000   1.0000
     1.0000   1.0000   1.0000   1.0000   1.0000   1.0000   1.0000   1.0001
     1.0113   0.6318   0.3366   0.1557   0.0944   0.0000   0.0000   0.0000
     0.0000   0.0000   0.0000   0.0000   0.0000   0.0000   0.0000   0.0000

          k = 2.2633 1.5077 0.1278 (  5432 PWs)   bands (ev):

   -87.7915 -51.1058 -51.0580 -51.0573 -42.9457 -42.9369 -40.8263 -40.8263
   -40.8261 -40.8257 -40.7941 -40.7940 -40.7919 -40.7915 -40.7784 -40.7781
   -14.9636 -14.8747 -14.8467 -14.8416 -14.8322 -14.8219  -8.0351  -7.3680
    -5.8814   2.0865   3.0361   3.7164   4.7487   5.2197   5.8018   5.9037
     6.0894   6.6605   6.8442   6.9092   6.9321   8.1281   8.7920  12.2966
    13.3426  13.6848  14.5518  15.7506  15.8357  16.1815  16.8980  17.5382

     occupation numbers 
     1.0000   1.0000   1.0000   1.0000   1.0000   1.0000   1.0000   1.0000
     1.0000   1.0000   1.0000   1.0000   1.0000   1.0000   1.0000   1.0000
     1.0000   1.0000   1.0000   1.0000   1.0000   1.0000   1.0000   1.0000
     1.0000   1.0000   1.0000   1.0000   1.0000   1.0000   1.0000   1.0001
     1.0030   0.9130   0.4408   0.2857   0.2393   0.0000   0.0000   0.0000
     0.0000   0.0000   0.0000   0.0000   0.0000   0.0000   0.0000   0.0000

          k = 2.0892 1.4072 0.1491 (  5429 PWs)   bands (ev):

   -87.7914 -51.1057 -51.0587 -51.0575 -42.9446 -42.9368 -40.8263 -40.8262
   -40.8258 -40.8254 -40.7942 -40.7940 -40.7921 -40.7916 -40.7782 -40.7779
   -14.9586 -14.8843 -14.8552 -14.8444 -14.8383 -14.8230  -7.9976  -7.1281
    -5.7832   2.3082   2.6858   3.7478   3.9999   5.0111   5.7877   5.8712
     6.1010   6.4718   6.7649   6.7972   6.8250   7.8740   8.6898  12.4667
    13.1955  13.7377  14.9967  15.5946  15.7119  16.3078  17.1251  17.5609

     occupation numbers 
     1.0000   1.0000   1.0000   1.0000   1.0000   1.0000   1.0000   1.0000
     1.0000   1.0000   1.0000   1.0000   1.0000   1.0000   1.0000   1.0000
     1.0000   1.0000   1.0000   1.0000   1.0000   1.0000   1.0000   1.0000
     1.0000   1.0000   1.0000   1.0000   1.0000   1.0000   1.0000   1.0001
     1.0036   1.0833   0.6571   0.5678   0.4917   0.0000   0.0000   0.0000
     0.0000   0.0000   0.0000   0.0000   0.0000   0.0000   0.0000   0.0000

          k = 2.4374-1.4072-0.2130 (  5420 PWs)   bands (ev):

   -87.7915 -51.1058 -51.0575 -51.0572 -42.9462 -42.9370 -40.8264 -40.8262
   -40.8261 -40.8259 -40.7941 -40.7941 -40.7918 -40.7915 -40.7785 -40.7782
   -14.9664 -14.8700 -14.8409 -14.8397 -14.8290 -14.8209  -8.0564  -7.4936
    -5.9377   1.9585   3.2508   3.6983   5.1419   5.4453   5.7582   5.8524
     6.1270   6.7349   6.8793   6.9582   7.0238   8.3447   9.0080  12.0962
    13.0829  13.4366  14.6864  15.5174  15.7704  16.1836  16.9080  18.0023

     occupation numbers 
     1.0000   1.0000   1.0000   1.0000   1.0000   1.0000   1.0000   1.0000
     1.0000   1.0000   1.0000   1.0000   1.0000   1.0000   1.0000   1.0000
     1.0000   1.0000   1.0000   1.0000   1.0000   1.0000   1.0000   1.0000
     1.0000   1.0000   1.0000   1.0000   1.0000   1.0000   1.0000   1.0000
     1.0052   0.7380   0.3530   0.1927   0.1038   0.0000   0.0000   0.0000
     0.0000   0.0000   0.0000   0.0000   0.0000   0.0000   0.0000   0.0000

          k = 2.2633-1.5077-0.1917 (  5427 PWs)   bands (ev):

   -87.7915 -51.1057 -51.0580 -51.0573 -42.9457 -42.9369 -40.8264 -40.8262
   -40.8261 -40.8257 -40.7941 -40.7941 -40.7919 -40.7915 -40.7784 -40.7781
   -14.9636 -14.8746 -14.8466 -14.8416 -14.8322 -14.8218  -8.0351  -7.3681
    -5.8814   2.0861   3.0362   3.7164   4.7485   5.2198   5.8295   5.8946
     6.0738   6.6557   6.8464   6.8988   6.9361   8.1364   8.7913  12.2854
    13.3453  13.7064  14.5582  15.6322  15.9303  16.1865  16.9033  17.5237

     occupation numbers 
     1.0000   1.0000   1.0000   1.0000   1.0000   1.0000   1.0000   1.0000
     1.0000   1.0000   1.0000   1.0000   1.0000   1.0000   1.0000   1.0000
     1.0000   1.0000   1.0000   1.0000   1.0000   1.0000   1.0000   1.0000
     1.0000   1.0000   1.0000   1.0000   1.0000   1.0000   1.0000   1.0001
     1.0024   0.9225   0.4349   0.3081   0.2318   0.0000   0.0000   0.0000
     0.0000   0.0000   0.0000   0.0000   0.0000   0.0000   0.0000   0.0000

          k = 2.0892-1.6083-0.1704 (  5428 PWs)   bands (ev):

   -87.7915 -51.1057 -51.0586 -51.0575 -42.9448 -42.9368 -40.8263 -40.8262
   -40.8258 -40.8255 -40.7941 -40.7939 -40.7921 -40.7915 -40.7783 -40.7780
   -14.9593 -14.8814 -14.8571 -14.8434 -14.8349 -14.8243  -8.0033  -7.1669
    -5.7976   2.2783   2.7657   3.7149   4.1791   4.8930   5.8514   5.8862
     6.0954   6.5201   6.7764   6.7887   6.8302   8.1029   8.4284  12.4873
    13.6144  14.1580  14.3386  15.5945  15.8041  16.0822  16.8548  17.7673

     occupation numbers 
     1.0000   1.0000   1.0000   1.0000   1.0000   1.0000   1.0000   1.0000
     1.0000   1.0000   1.0000   1.0000   1.0000   1.0000   1.0000   1.0000
     1.0000   1.0000   1.0000   1.0000   1.0000   1.0000   1.0000   1.0000
     1.0000   1.0000   1.0000   1.0000   1.0000   1.0000   1.0000   1.0001
     1.0033   1.0757   0.6255   0.5915   0.4776   0.0000   0.0000   0.0000
     0.0000   0.0000   0.0000   0.0000   0.0000   0.0000   0.0000   0.0000

          k = 2.2633-1.3067-0.1704 (  5429 PWs)   bands (ev):

   -87.7915 -51.1057 -51.0583 -51.0573 -42.9453 -42.9369 -40.8264 -40.8262
   -40.8259 -40.8255 -40.7941 -40.7940 -40.7920 -40.7915 -40.7784 -40.7781
   -14.9619 -14.8785 -14.8469 -14.8435 -14.8366 -14.8214  -8.0219  -7.2864
    -5.8468   2.1653   2.8935   3.7488   4.4054   5.2561   5.8025   5.8966
     6.0678   6.6000   6.8288   6.8547   6.9198   7.8735   8.9062  12.3552
    13.0894  13.5964  14.9877  15.5647  16.2610  16.3778  16.5268  17.6522

     occupation numbers 
     1.0000   1.0000   1.0000   1.0000   1.0000   1.0000   1.0000   1.0000
     1.0000   1.0000   1.0000   1.0000   1.0000   1.0000   1.0000   1.0000
     1.0000   1.0000   1.0000   1.0000   1.0000   1.0000   1.0000   1.0000
     1.0000   1.0000   1.0000   1.0000   1.0000   1.0000   1.0000   1.0001
     1.0022   1.0121   0.4815   0.4136   0.2637   0.0000   0.0000   0.0000
     0.0000   0.0000   0.0000   0.0000   0.0000   0.0000   0.0000   0.0000

          k =-0.0000 0.0000 0.4472 (  5435 PWs)   bands (ev):

   -87.7915 -51.1058 -51.0570 -51.0570 -42.9471 -42.9371 -40.8267 -40.8267
   -40.8262 -40.8262 -40.7942 -40.7942 -40.7914 -40.7914 -40.7787 -40.7784
   -14.9707 -14.8637 -14.8360 -14.8360 -14.8207 -14.8207  -8.0880  -7.6663
    -6.0197   1.7782   3.6522   3.6522   5.4475   5.6534   5.6534   5.8276
     6.5285   6.9173   6.9173   7.0690   7.0690   9.1637   9.1637  11.7299
    12.4806  12.7105  15.0769  15.1209  15.1209  16.5805  17.7182  17.7182

     occupation numbers 
     1.0000   1.0000   1.0000   1.0000   1.0000   1.0000   1.0000   1.0000
     1.0000   1.0000   1.0000   1.0000   1.0000   1.0000   1.0000   1.0000
     1.0000   1.0000   1.0000   1.0000   1.0000   1.0000   1.0000   1.0000
     1.0000   1.0000   1.0000   1.0000   1.0000   1.0000   1.0000   1.0000
     1.0723   0.2686   0.2686   0.0637   0.0637   0.0000   0.0000   0.0000
     0.0000   0.0000   0.0000   0.0000   0.0000   0.0000   0.0000   0.0000

          k = 2.6115 1.5077 0.1278 (  5423 PWs)   bands (ev):

   -87.7915 -51.1058 -51.0571 -51.0571 -42.9468 -42.9371 -40.8266 -40.8265
   -40.8262 -40.8261 -40.7941 -40.7941 -40.7914 -40.7914 -40.7786 -40.7783
   -14.9696 -14.8651 -14.8372 -14.8370 -14.8229 -14.8207  -8.0796  -7.6228
    -5.9983   1.8236   3.5350   3.6642   5.5509   5.5784   5.5950   5.8188
     6.3671   6.8642   6.9060   7.0266   7.0655   8.8970   9.1156  11.8644
    12.7500  12.8891  14.8509  15.2968  15.3033  16.4212  17.4043  17.8046

     occupation numbers 
     1.0000   1.0000   1.0000   1.0000   1.0000   1.0000   1.0000   1.0000
     1.0000   1.0000   1.0000   1.0000   1.0000   1.0000   1.0000   1.0000
     1.0000   1.0000   1.0000   1.0000   1.0000   1.0000   1.0000   1.0000
     1.0000   1.0000   1.0000   1.0000   1.0000   1.0000   1.0000   1.0000
     1.0587   0.3897   0.2924   0.1008   0.0662   0.0000   0.0000   0.0000
     0.0000   0.0000   0.0000   0.0000   0.0000   0.0000   0.0000   0.0000

          k = 2.4374 1.4072 0.1491 (  5422 PWs)   bands (ev):

   -87.7915 -51.1058 -51.0576 -51.0572 -42.9462 -42.9370 -40.8264 -40.8262
   -40.8262 -40.8259 -40.7941 -40.7941 -40.7917 -40.7914 -40.7785 -40.7782
   -14.9665 -14.8700 -14.8410 -14.8397 -14.8290 -14.8209  -8.0564  -7.4938
    -5.9376   1.9581   3.2512   3.6983   5.1419   5.4453   5.7676   5.8473
     6.1202   6.7381   6.8768   6.9605   7.0267   8.3385   9.0075  12.1218
    13.0948  13.3871  14.6681  15.6226  15.7723  16.0906  16.9154  18.0018

     occupation numbers 
     1.0000   1.0000   1.0000   1.0000   1.0000   1.0000   1.0000   1.0000
     1.0000   1.0000   1.0000   1.0000   1.0000   1.0000   1.0000   1.0000
     1.0000   1.0000   1.0000   1.0000   1.0000   1.0000   1.0000   1.0000
     1.0000   1.0000   1.0000   1.0000   1.0000   1.0000   1.0000   1.0000
     1.0048   0.7296   0.3589   0.1890   0.1008   0.0000   0.0000   0.0000
     0.0000   0.0000   0.0000   0.0000   0.0000   0.0000   0.0000   0.0000

          k = 2.6115-1.5077-0.1917 (  5424 PWs)   bands (ev):

   -87.7915 -51.1057 -51.0571 -51.0571 -42.9468 -42.9371 -40.8266 -40.8265
   -40.8262 -40.8261 -40.7941 -40.7941 -40.7915 -40.7914 -40.7786 -40.7783
   -14.9695 -14.8651 -14.8372 -14.8370 -14.8230 -14.8207  -8.0795  -7.6230
    -5.9983   1.8231   3.5351   3.6642   5.5549   5.5950   5.5997   5.7947
     6.3642   6.8632   6.9079   7.0280   7.0633   8.8975   9.1160  11.8793
    12.7306  12.8924  14.8597  15.2958  15.2964  16.4209  17.4019  17.8043

     occupation numbers 
     1.0000   1.0000   1.0000   1.0000   1.0000   1.0000   1.0000   1.0000
     1.0000   1.0000   1.0000   1.0000   1.0000   1.0000   1.0000   1.0000
     1.0000   1.0000   1.0000   1.0000   1.0000   1.0000   1.0000   1.0000
     1.0000   1.0000   1.0000   1.0000   1.0000   1.0000   1.0000   1.0000
     1.0577   0.3923   0.2884   0.0994   0.0679   0.0000   0.0000   0.0000
     0.0000   0.0000   0.0000   0.0000   0.0000   0.0000   0.0000   0.0000

          k = 2.4374-1.6083-0.1704 (  5408 PWs)   bands (ev):

   -87.7915 -51.1057 -51.0574 -51.0571 -42.9464 -42.9370 -40.8264 -40.8263
   -40.8261 -40.8259 -40.7941 -40.7941 -40.7916 -40.7914 -40.7785 -40.7782
   -14.9674 -14.8683 -14.8398 -14.8389 -14.8265 -14.8210  -8.0638  -7.5365
    -5.9573   1.9137   3.3403   3.6840   5.3512   5.4289   5.7533   5.8089
     6.1683   6.7741   6.8866   6.9838   7.0327   8.5518   8.9791  12.0519
    13.0316  13.3251  14.5872  15.5303  15.6364  16.1708  17.0608  17.9479

     occupation numbers 
     1.0000   1.0000   1.0000   1.0000   1.0000   1.0000   1.0000   1.0000
     1.0000   1.0000   1.0000   1.0000   1.0000   1.0000   1.0000   1.0000
     1.0000   1.0000   1.0000   1.0000   1.0000   1.0000   1.0000   1.0000
     1.0000   1.0000   1.0000   1.0000   1.0000   1.0000   1.0000   1.0000
     1.0091   0.6317   0.3360   0.1533   0.0947   0.0000   0.0000   0.0000
     0.0000   0.0000   0.0000   0.0000   0.0000   0.0000   0.0000   0.0000

          k = 0.0000 0.0000-0.5111 (  5438 PWs)   bands (ev):

   -87.7915 -51.1058 -51.0570 -51.0570 -42.9471 -42.9371 -40.8266 -40.8266
   -40.8262 -40.8262 -40.7942 -40.7942 -40.7914 -40.7914 -40.7787 -40.7784
   -14.9708 -14.8637 -14.8360 -14.8360 -14.8207 -14.8207  -8.0876  -7.6669
    -6.0195   1.7766   3.6522   3.6522   5.5017   5.6534   5.6534   5.7743
     6.5231   6.9180   6.9180   7.0682   7.0682   9.1638   9.1638  11.7783
    12.5593  12.5776  15.0964  15.1206  15.1206  16.5595  17.7183  17.7183

     occupation numbers 
     1.0000   1.0000   1.0000   1.0000   1.0000   1.0000   1.0000   1.0000
     1.0000   1.0000   1.0000   1.0000   1.0000   1.0000   1.0000   1.0000
     1.0000   1.0000   1.0000   1.0000   1.0000   1.0000   1.0000   1.0000
     1.0000   1.0000   1.0000   1.0000   1.0000   1.0000   1.0000   1.0000
     1.0745   0.2673   0.2673   0.0642   0.0642   0.0000   0.0000   0.0000
     0.0000   0.0000   0.0000   0.0000   0.0000   0.0000   0.0000   0.0000

     the Fermi energy is     6.8598 ev
     (compare with:     6.8553 eV, computed in scf)

     Writing all to output data dir ../Na2CoSe2O_scf/out/pw.save/ :
     XML data file, pseudopotentials, collected wavefunctions
 
     init_run     :     39.90s CPU      6.53s WALL (       1 calls)
     electrons    :    421.27s CPU    423.74s WALL (       1 calls)

     Called by init_run:
     wfcinit      :      0.00s CPU      0.00s WALL (       1 calls)
     wfcinit:atom :      1.07s CPU      1.09s WALL (     834 calls)
     wfcinit:wfcr :      9.02s CPU      9.10s WALL (     834 calls)
     potinit      :     38.49s CPU      4.98s WALL (       1 calls)
     hinit0       :      0.87s CPU      0.91s WALL (       1 calls)

     Called by electrons:
     c_bands      :    421.22s CPU    423.69s WALL (       1 calls)
     v_of_rho     :      0.06s CPU      0.11s WALL (       1 calls)
     v_h          :      0.02s CPU      0.02s WALL (       1 calls)
     v_xc         :      0.04s CPU      0.09s WALL (       1 calls)
     newd         :      0.07s CPU      0.09s WALL (       1 calls)
                                        0.09s GPU  (       1 calls)
     PAW_pot      :      8.28s CPU      1.14s WALL (       1 calls)

     Called by c_bands:
     init_us_2    :      0.29s CPU      0.42s WALL (     834 calls)
     cegterg      :    409.61s CPU    411.50s WALL (    3234 calls)

     Called by sum_band:

     Called by *egterg:
     cdiaghg      :    103.31s CPU    104.77s WALL (   57746 calls)
                                      104.07s GPU  (   57746 calls)
     cegterg:over :     17.67s CPU     18.07s WALL (   56912 calls)
     cegterg:upda :     20.44s CPU     20.60s WALL (   56912 calls)
     cegterg:last :      3.61s CPU      3.59s WALL (   26956 calls)
     h_psi        :    245.42s CPU    247.29s WALL (   60980 calls)
                                      246.54s GPU  (   60980 calls)
     s_psi        :     12.81s CPU     13.18s WALL (   60980 calls)
     g_psi        :      0.28s CPU      1.80s WALL (   56912 calls)
                                        1.06s GPU  (   56912 calls)

     Called by h_psi:
     h_psi:calbec :      1.67s CPU      3.51s WALL (   60980 calls)
                                        2.76s GPU  (   60980 calls)
     vloc_psi     :    224.31s CPU    225.63s WALL (   60980 calls)
                                      224.89s GPU  (   60980 calls)
     add_vuspsi   :     11.94s CPU     13.88s WALL (   60980 calls)
                                       13.12s GPU  (   60980 calls)

     General routines
     calbec       :      1.51s CPU      1.59s WALL (   60980 calls)
     fft          :     21.83s CPU      2.20s WALL (      23 calls)
                                        0.02s GPU  (      21 calls)
     ffts         :      8.30s CPU      1.47s WALL (       2 calls)
     fftw         :      3.69s CPU    161.91s WALL (  225592 calls)
                                      159.32s GPU  (  225592 calls)
     interpolate  :     30.15s CPU      3.70s WALL (       2 calls)
     davcio       :      3.14s CPU      0.81s WALL (    1668 calls)
 
     Parallel routines

     PAW routines
     PAW_pot      :      8.28s CPU      1.14s WALL (       1 calls)
 
     PWSCF        :   7m50.72s CPU   7m13.39s WALL

 
   This run was terminated on:   6: 1:18  12Jul2026            

=------------------------------------------------------------------------------=
   JOB DONE.
=------------------------------------------------------------------------------=
Warning: ieee_divide_by_zero is signaling
Warning: ieee_inexact is signaling
FORTRAN STOP
